<event>
 7    1  0.2851651E-013  0.7246160E+02  0.7816164E-02  0.1226708E+00
        -11   -1    0    0    0    0  0.00000000000E+00  0.00000000000E+00  0.45593999997E+02  0.45594000000E+02  0.51100000000E-03 0.  1.
         11   -1    0    0    0    0 -0.00000000000E+00 -0.00000000000E+00 -0.45593999997E+02  0.45594000000E+02  0.51100000000E-03 0. -1.
    9900012    2    1    2    0    0 -0.69726981120E+00 -0.11638047522E+02 -0.14654275806E+02  0.72461597924E+02  0.70000035993E+02 0.  0.
        -12    1    1    2    0    0  0.69726981120E+00  0.11638047522E+02  0.14654275806E+02  0.18726402076E+02  0.00000000000E+00 0.  1.
         11    1    3    3    0    0 -0.13521680999E+02 -0.12793548270E+02  0.38050702067E+01  0.18999718259E+02  0.51100000000E-03 0. -1.
        -11    1    3    3    0    0  0.25418661640E+02  0.73237508129E+01  0.42297308146E+01  0.26788734733E+02  0.51100000000E-03 0.  1.
         12    1    3    3    0    0 -0.12594250452E+02 -0.61682500645E+01 -0.22689076827E+02  0.26673144932E+02  0.00000000000E+00 0. -1.
</event>
<event>
 7    1  0.2851651E-013  0.7246158E+02  0.7816164E-02  0.1226708E+00
        -11   -1    0    0    0    0  0.00000000000E+00  0.00000000000E+00  0.45593999997E+02  0.45594000000E+02  0.51100000000E-03 0.  1.
         11   -1    0    0    0    0 -0.00000000000E+00 -0.00000000000E+00 -0.45593999997E+02  0.45594000000E+02  0.51100000000E-03 0. -1.
    9900012    2    1    2    0    0 -0.34441712833E+01 -0.17951744775E+02  0.40683554868E+01  0.72461575550E+02  0.70000006847E+02 0.  0.
        -12    1    1    2    0    0  0.34441712833E+01  0.17951744775E+02 -0.40683554868E+01  0.18726424450E+02  0.00000000000E+00 0.  1.
         11    1    3    3    0    0  0.24009220776E+02 -0.21428006464E+02 -0.45050596660E+01  0.32494579642E+02  0.51100000000E-03 0. -1.
        -11    1    3    3    0    0 -0.20312410923E+01  0.11682840925E+02 -0.16781779278E+00  0.11859294900E+02  0.51100000000E-03 0.  1.
        -12    1    3    3    0    0 -0.25422150967E+02 -0.82065792363E+01  0.87412329456E+01  0.28107701008E+02  0.00000000000E+00 0.  1.
</event>
<event>
 7    1  0.2851651E-013  0.7246157E+02  0.7816164E-02  0.1226708E+00
        -11   -1    0    0    0    0  0.00000000000E+00  0.00000000000E+00  0.45593999997E+02  0.45594000000E+02  0.51100000000E-03 0.  1.
         11   -1    0    0    0    0 -0.00000000000E+00 -0.00000000000E+00 -0.45593999997E+02  0.45594000000E+02  0.51100000000E-03 0. -1.
    9900012    2    1    2    0    0  0.12800663657E+02  0.91843365082E+00  0.13637404017E+02  0.72461566844E+02  0.69999995506E+02 0.  0.
        -12    1    1    2    0    0 -0.12800663657E+02 -0.91843365082E+00 -0.13637404017E+02  0.18726433156E+02  0.00000000000E+00 0.  1.
         11    1    3    3    0    0 -0.67506104185E+01 -0.13662577377E+02 -0.12517470033E+02  0.19721151535E+02  0.51100000000E-03 0. -1.
        -11    1    3    3    0    0  0.15011381833E+02 -0.92969683068E+01  0.21789745525E+02  0.28045823478E+02  0.51100000000E-03 0.  1.
        -12    1    3    3    0    0  0.45398922420E+01  0.23877979334E+02  0.43651285246E+01  0.24694591831E+02  0.00000000000E+00 0.  1.
</event>
<event>
 7    1  0.2851651E-013  0.7246155E+02  0.7816164E-02  0.1226708E+00
        -11   -1    0    0    0    0  0.00000000000E+00  0.00000000000E+00  0.45593999997E+02  0.45594000000E+02  0.51100000000E-03 0. -1.
         11   -1    0    0    0    0 -0.00000000000E+00 -0.00000000000E+00 -0.45593999997E+02  0.45594000000E+02  0.51100000000E-03 0.  1.
    9900012    2    1    2    0    0  0.10611147759E+02  0.37683544141E+01  0.14962714123E+02  0.72461554377E+02  0.69999979264E+02 0.  0.
        -12    1    1    2    0    0 -0.10611147759E+02 -0.37683544141E+01 -0.14962714123E+02  0.18726445623E+02  0.00000000000E+00 0.  1.
         11    1    3    3    0    0  0.13455545485E+02  0.20698892201E+02 -0.36691009239E+01  0.24959129482E+02  0.51100000000E-03 0. -1.
        -11    1    3    3    0    0  0.14089723190E+02 -0.16467178439E-01 -0.39120050823E+01  0.14622734175E+02  0.51100000000E-03 0.  1.
        -12    1    3    3    0    0 -0.16934120916E+02 -0.16914070609E+02  0.22543820129E+02  0.32879690719E+02  0.00000000000E+00 0.  1.
</event>
<event>
 7    1  0.2851651E-013  0.7246169E+02  0.7816164E-02  0.1226708E+00
        -11   -1    0    0    0    0  0.00000000000E+00  0.00000000000E+00  0.45593999997E+02  0.45594000000E+02  0.51100000000E-03 0. -1.
         11   -1    0    0    0    0 -0.00000000000E+00 -0.00000000000E+00 -0.45593999997E+02  0.45594000000E+02  0.51100000000E-03 0.  1.
    9900012    2    1    2    0    0 -0.12527868207E+02  0.10463944001E+02  0.91778499678E+01  0.72461694014E+02  0.70000161167E+02 0.  0.
        -12    1    1    2    0    0  0.12527868207E+02 -0.10463944001E+02 -0.91778499678E+01  0.18726305986E+02  0.00000000000E+00 0.  1.
         11    1    3    3    0    0 -0.20121082447E+02 -0.14292866402E+02  0.38957823224E+01  0.24986418491E+02  0.51100000000E-03 0. -1.
        -11    1    3    3    0    0  0.31373028772E+01  0.42397237300E+01  0.20741959236E+02  0.21402027938E+02  0.51100000000E-03 0.  1.
        -12    1    3    3    0    0  0.44559113632E+01  0.20517086673E+02 -0.15459891591E+02  0.26073247585E+02  0.00000000000E+00 0.  1.
</event>
<event>
 7    1  0.2851651E-013  0.7246149E+02  0.7816164E-02  0.1226708E+00
        -11   -1    0    0    0    0  0.00000000000E+00  0.00000000000E+00  0.45593999997E+02  0.45594000000E+02  0.51100000000E-03 0. -1.
         11   -1    0    0    0    0 -0.00000000000E+00 -0.00000000000E+00 -0.45593999997E+02  0.45594000000E+02  0.51100000000E-03 0.  1.
    9900012    2    1    2    0    0  0.13142514774E+02 -0.12159975972E+02  0.54855548832E+01  0.72461494117E+02  0.69999900764E+02 0.  0.
        -12    1    1    2    0    0 -0.13142514774E+02  0.12159975972E+02 -0.54855548832E+01  0.18726505883E+02  0.00000000000E+00 0.  1.
         11    1    3    3    0    0  0.32517729646E+02  0.43942490211E+01 -0.32086237959E+01  0.32969795764E+02  0.51100000000E-03 0. -1.
        -11    1    3    3    0    0 -0.62488373292E+00 -0.15381991610E+02 -0.50634978585E+01  0.16206022226E+02  0.51100000000E-03 0.  1.
        -12    1    3    3    0    0 -0.18750331139E+02 -0.11722333830E+01  0.13757676538E+02  0.23285676126E+02  0.00000000000E+00 0.  1.
</event>
<event>
 7    1  0.2851651E-013  0.7246155E+02  0.7816164E-02  0.1226708E+00
        -11   -1    0    0    0    0  0.00000000000E+00  0.00000000000E+00  0.45593999997E+02  0.45594000000E+02  0.51100000000E-03 0.  1.
         11   -1    0    0    0    0 -0.00000000000E+00 -0.00000000000E+00 -0.45593999997E+02  0.45594000000E+02  0.51100000000E-03 0. -1.
    9900012    2    1    2    0    0  0.74733806595E+01  0.27553657790E+01 -0.16948052177E+02  0.72461549945E+02  0.69999973491E+02 0.  0.
        -12    1    1    2    0    0 -0.74733806595E+01 -0.27553657790E+01  0.16948052177E+02  0.18726450055E+02  0.00000000000E+00 0.  1.
         11    1    3    3    0    0  0.99910277221E+01 -0.86633215697E+01 -0.11451156379E+02  0.17492934524E+02  0.51100000000E-03 0. -1.
        -11    1    3    3    0    0  0.11524953422E+02 -0.14499759157E+02 -0.15172575373E+02  0.23943153734E+02  0.51100000000E-03 0.  1.
        -12    1    3    3    0    0 -0.14042600485E+02  0.25918446506E+02  0.96756795750E+01  0.31025461687E+02  0.00000000000E+00 0.  1.
</event>
<event>
 7    1  0.2851651E-013  0.7246159E+02  0.7816164E-02  0.1226708E+00
        -11   -1    0    0    0    0  0.00000000000E+00  0.00000000000E+00  0.45593999997E+02  0.45594000000E+02  0.51100000000E-03 0.  1.
         11   -1    0    0    0    0 -0.00000000000E+00 -0.00000000000E+00 -0.45593999997E+02  0.45594000000E+02  0.51100000000E-03 0. -1.
    9900012    2    1    2    0    0  0.84145498372E+01 -0.13810777191E+01 -0.16672329057E+02  0.72461586013E+02  0.70000020476E+02 0.  0.
        -12    1    1    2    0    0 -0.84145498372E+01  0.13810777191E+01  0.16672329057E+02  0.18726413987E+02  0.00000000000E+00 0.  1.
         11    1    3    3    0    0  0.14582921629E+02 -0.12290750515E+02 -0.16216218035E+02  0.25033774767E+02  0.51100000000E-03 0. -1.
        -11    1    3    3    0    0 -0.79386549337E+01 -0.46622142599E+01  0.19788814425E+02  0.21825573545E+02  0.51100000000E-03 0.  1.
         12    1    3    3    0    0  0.17702831414E+01  0.15571887056E+02 -0.20244925448E+02  0.25602237700E+02  0.00000000000E+00 0. -1.
</event>
<event>
 7    1  0.2851651E-013  0.7246113E+02  0.7816164E-02  0.1226709E+00
        -11   -1    0    0    0    0  0.00000000000E+00  0.00000000000E+00  0.45593999997E+02  0.45594000000E+02  0.51100000000E-03 0. -1.
         11   -1    0    0    0    0 -0.00000000000E+00 -0.00000000000E+00 -0.45593999997E+02  0.45594000000E+02  0.51100000000E-03 0.  1.
    9900012    2    1    2    0    0  0.58573429137E+01 -0.10902999809E+02  0.14053884334E+02  0.72461133318E+02  0.69999430755E+02 0.  0.
        -12    1    1    2    0    0 -0.58573429137E+01  0.10902999809E+02 -0.14053884334E+02  0.18726866682E+02  0.00000000000E+00 0.  1.
         11    1    3    3    0    0  0.45411364214E+01 -0.24348471207E+02  0.18757351817E+02  0.31069409675E+02  0.51100000000E-03 0. -1.
        -11    1    3    3    0    0  0.48303500032E+01 -0.12030026172E+02 -0.83467018597E+01  0.15418211409E+02  0.51100000000E-03 0.  1.
        -12    1    3    3    0    0 -0.35141435110E+01  0.25475497570E+02  0.36432343766E+01  0.25973512234E+02  0.00000000000E+00 0.  1.
</event>
<event>
 7    1  0.2851651E-013  0.7246155E+02  0.7816164E-02  0.1226708E+00
        -11   -1    0    0    0    0  0.00000000000E+00  0.00000000000E+00  0.45593999997E+02  0.45594000000E+02  0.51100000000E-03 0. -1.
         11   -1    0    0    0    0 -0.00000000000E+00 -0.00000000000E+00 -0.45593999997E+02  0.45594000000E+02  0.51100000000E-03 0.  1.
    9900012    2    1    2    0    0 -0.18398781883E+02 -0.34871459577E+01  0.67251728838E-01  0.72461551204E+02  0.69999975132E+02 0.  0.
        -12    1    1    2    0    0  0.18398781883E+02  0.34871459577E+01 -0.67251728838E-01  0.18726448796E+02  0.00000000000E+00 0.  1.
         11    1    3    3    0    0 -0.16013091739E+02  0.21976733665E+02 -0.11297918999E+02  0.29445524339E+02  0.51100000000E-03 0. -1.
        -11    1    3    3    0    0 -0.58410049292E+01 -0.33077856771E+01  0.18342090052E+02  0.19531795934E+02  0.51100000000E-03 0.  1.
        -12    1    3    3    0    0  0.34553147854E+01 -0.22156093945E+02 -0.69769193241E+01  0.23484230931E+02  0.00000000000E+00 0.  1.
</event>
<event>
 7    1  0.2851651E-013  0.7246163E+02  0.7816164E-02  0.1226708E+00
        -11   -1    0    0    0    0  0.00000000000E+00  0.00000000000E+00  0.45593999997E+02  0.45594000000E+02  0.51100000000E-03 0.  1.
         11   -1    0    0    0    0 -0.00000000000E+00 -0.00000000000E+00 -0.45593999997E+02  0.45594000000E+02  0.51100000000E-03 0. -1.
    9900012    2    1    2    0    0 -0.51971420710E+01  0.11007832580E+02 -0.14230050511E+02  0.72461628185E+02  0.70000075413E+02 0.  0.
        -12    1    1    2    0    0  0.51971420710E+01 -0.11007832580E+02  0.14230050511E+02  0.18726371815E+02  0.00000000000E+00 0.  1.
         11    1    3    3    0    0 -0.19118065422E+01 -0.23494773943E+02  0.47326798946E+01  0.24042829828E+02  0.51100000000E-03 0. -1.
        -11    1    3    3    0    0 -0.20422523685E+01  0.20548396202E+01  0.65247981831E+01  0.71390582147E+01  0.51100000000E-03 0.  1.
         12    1    3    3    0    0 -0.12430831603E+01  0.32447766902E+02 -0.25487528589E+02  0.41279740143E+02  0.00000000000E+00 0. -1.
</event>
<event>
 7    1  0.2851651E-013  0.7246172E+02  0.7816164E-02  0.1226708E+00
        -11   -1    0    0    0    0  0.00000000000E+00  0.00000000000E+00  0.45593999997E+02  0.45594000000E+02  0.51100000000E-03 0. -1.
         11   -1    0    0    0    0 -0.00000000000E+00 -0.00000000000E+00 -0.45593999997E+02  0.45594000000E+02  0.51100000000E-03 0.  1.
    9900012    2    1    2    0    0 -0.79617946145E+01 -0.10327237923E+02  0.13439928268E+02  0.72461716641E+02  0.70000190644E+02 0.  0.
        -12    1    1    2    0    0  0.79617946145E+01  0.10327237923E+02 -0.13439928268E+02  0.18726283359E+02  0.00000000000E+00 0.  1.
         11    1    3    3    0    0 -0.12401620755E+02 -0.98253077344E+01  0.14405822053E+02  0.21397770415E+02  0.51100000000E-03 0.  1.
        -11    1    3    3    0    0  0.19576116764E+02  0.23004232115E+01  0.17961523036E+02  0.26667069666E+02  0.51100000000E-03 0. -1.
        -12    1    3    3    0    0 -0.15136290623E+02 -0.28023534001E+01 -0.18927416821E+02  0.24396876561E+02  0.00000000000E+00 0.  1.
</event>
<event>
 7    1  0.2851651E-013  0.7246156E+02  0.7816164E-02  0.1226708E+00
        -11   -1    0    0    0    0  0.00000000000E+00  0.00000000000E+00  0.45593999997E+02  0.45594000000E+02  0.51100000000E-03 0.  1.
         11   -1    0    0    0    0 -0.00000000000E+00 -0.00000000000E+00 -0.45593999997E+02  0.45594000000E+02  0.51100000000E-03 0. -1.
    9900012    2    1    2    0    0  0.97026662216E+01 -0.14896089711E+02 -0.58859329215E+01  0.72461563424E+02  0.69999991050E+02 0.  0.
        -12    1    1    2    0    0 -0.97026662216E+01  0.14896089711E+02  0.58859329215E+01  0.18726436576E+02  0.00000000000E+00 0.  1.
         11    1    3    3    0    0 -0.10060839660E+02 -0.45702198435E+01  0.25841477601E+01  0.11348357767E+02  0.51100000000E-03 0. -1.
        -11    1    3    3    0    0  0.27624382743E+01  0.19319231470E+02 -0.17009932220E+02  0.25888251471E+02  0.51100000000E-03 0.  1.
         12    1    3    3    0    0  0.17001067608E+02 -0.29645101338E+02  0.85398515384E+01  0.35224954186E+02  0.00000000000E+00 0. -1.
</event>
<event>
 7    1  0.2851651E-013  0.7246154E+02  0.7816164E-02  0.1226708E+00
        -11   -1    0    0    0    0  0.00000000000E+00  0.00000000000E+00  0.45593999997E+02  0.45594000000E+02  0.51100000000E-03 0. -1.
         11   -1    0    0    0    0 -0.00000000000E+00 -0.00000000000E+00 -0.45593999997E+02  0.45594000000E+02  0.51100000000E-03 0.  1.
    9900012    2    1    2    0    0 -0.16134711858E+02 -0.15418017773E-01 -0.95053179300E+01  0.72461541888E+02  0.69999962995E+02 0.  0.
        -12    1    1    2    0    0  0.16134711858E+02  0.15418017773E-01  0.95053179300E+01  0.18726458112E+02  0.00000000000E+00 0.  1.
         11    1    3    3    0    0  0.15348278227E+02 -0.87476387247E+01  0.19656567259E+02  0.26428610718E+02  0.51100000000E-03 0. -1.
        -11    1    3    3    0    0 -0.80253111632E+01 -0.36373381783E+01 -0.48588389850E+01  0.10062015943E+02  0.51100000000E-03 0.  1.
        -12    1    3    3    0    0 -0.23457678923E+02  0.12369558885E+02 -0.24303046204E+02  0.35970915227E+02  0.00000000000E+00 0.  1.
</event>
<event>
 7    1  0.2851651E-013  0.7246156E+02  0.7816164E-02  0.1226708E+00
        -11   -1    0    0    0    0  0.00000000000E+00  0.00000000000E+00  0.45593999997E+02  0.45594000000E+02  0.51100000000E-03 0. -1.
         11   -1    0    0    0    0 -0.00000000000E+00 -0.00000000000E+00 -0.45593999997E+02  0.45594000000E+02  0.51100000000E-03 0.  1.
    9900012    2    1    2    0    0 -0.48224141898E+01 -0.14026320729E+02  0.11431801032E+02  0.72461563429E+02  0.69999991056E+02 0.  0.
        -12    1    1    2    0    0  0.48224141898E+01  0.14026320729E+02 -0.11431801032E+02  0.18726436571E+02  0.00000000000E+00 0.  1.
         11    1    3    3    0    0 -0.13310221769E+01 -0.20084076837E+02 -0.37835984665E+01  0.20480658682E+02  0.51100000000E-03 0. -1.
        -11    1    3    3    0    0 -0.10587652150E+02 -0.51036598418E+01 -0.14965424322E+02  0.19029178837E+02  0.51100000000E-03 0.  1.
         12    1    3    3    0    0  0.70962601367E+01  0.11161415949E+02  0.30180823820E+02  0.32951725909E+02  0.00000000000E+00 0. -1.
</event>
<event>
 7    1  0.2851651E-013  0.7246160E+02  0.7816164E-02  0.1226708E+00
        -11   -1    0    0    0    0  0.00000000000E+00  0.00000000000E+00  0.45593999997E+02  0.45594000000E+02  0.51100000000E-03 0. -1.
         11   -1    0    0    0    0 -0.00000000000E+00 -0.00000000000E+00 -0.45593999997E+02  0.45594000000E+02  0.51100000000E-03 0.  1.
    9900012    2    1    2    0    0 -0.73377717264E+01 -0.17224398680E+02  0.39416336610E+00  0.72461597020E+02  0.70000034815E+02 0.  0.
        -12    1    1    2    0    0  0.73377717264E+01  0.17224398680E+02 -0.39416336610E+00  0.18726402980E+02  0.00000000000E+00 0.  1.
         11    1    3    3    0    0 -0.48976566913E+01  0.59300455403E+01 -0.12504767083E+02  0.14680656703E+02  0.51100000000E-03 0.  1.
        -11    1    3    3    0    0 -0.33944759295E+01 -0.37118425815E+01 -0.19415411975E+02  0.20056382142E+02  0.51100000000E-03 0. -1.
         12    1    3    3    0    0  0.95436089437E+00 -0.19442601639E+02  0.32314342424E+02  0.37724558175E+02  0.00000000000E+00 0. -1.
</event>
<event>
 7    1  0.2851651E-013  0.7246159E+02  0.7816164E-02  0.1226708E+00
        -11   -1    0    0    0    0  0.00000000000E+00  0.00000000000E+00  0.45593999997E+02  0.45594000000E+02  0.51100000000E-03 0. -1.
         11   -1    0    0    0    0 -0.00000000000E+00 -0.00000000000E+00 -0.45593999997E+02  0.45594000000E+02  0.51100000000E-03 0.  1.
    9900012    2    1    2    0    0 -0.71707434393E+01 -0.62369165837E+01  0.16135668838E+02  0.72461588203E+02  0.70000023330E+02 0.  0.
        -12    1    1    2    0    0  0.71707434393E+01  0.62369165837E+01 -0.16135668838E+02  0.18726411797E+02  0.00000000000E+00 0.  1.
         11    1    3    3    0    0  0.53500152637E+01 -0.12881545157E+02  0.68476928982E+01  0.15538589615E+02  0.51100000000E-03 0. -1.
        -11    1    3    3    0    0  0.77888914172E+01 -0.20273565259E+02  0.81063146262E+01  0.23181816471E+02  0.51100000000E-03 0.  1.
        -12    1    3    3    0    0 -0.20309650120E+02  0.26918193832E+02  0.11816613130E+01  0.33741182117E+02  0.00000000000E+00 0.  1.
</event>
<event>
 7    1  0.2851651E-013  0.7246146E+02  0.7816164E-02  0.1226708E+00
        -11   -1    0    0    0    0  0.00000000000E+00  0.00000000000E+00  0.45593999997E+02  0.45594000000E+02  0.51100000000E-03 0.  1.
         11   -1    0    0    0    0 -0.00000000000E+00 -0.00000000000E+00 -0.45593999997E+02  0.45594000000E+02  0.51100000000E-03 0. -1.
    9900012    2    1    2    0    0 -0.13769616965E+02  0.24716713822E+01 -0.12448766651E+02  0.72461459959E+02  0.69999856267E+02 0.  0.
        -12    1    1    2    0    0  0.13769616965E+02 -0.24716713822E+01  0.12448766651E+02  0.18726540041E+02  0.00000000000E+00 0.  1.
         11    1    3    3    0    0  0.16962147139E+02 -0.17824625830E+02 -0.16183555271E+02  0.29450622795E+02  0.51100000000E-03 0. -1.
        -11    1    3    3    0    0  0.14391089058E+01  0.51985205109E+01 -0.39079122377E+01  0.66608879486E+01  0.51100000000E-03 0.  1.
        -12    1    3    3    0    0 -0.32170873010E+02  0.15097776701E+02  0.76427008570E+01  0.36349949215E+02  0.00000000000E+00 0.  1.
</event>
<event>
 7    1  0.2851651E-013  0.7246158E+02  0.7816164E-02  0.1226708E+00
        -11   -1    0    0    0    0  0.00000000000E+00  0.00000000000E+00  0.45593999997E+02  0.45594000000E+02  0.51100000000E-03 0.  1.
         11   -1    0    0    0    0 -0.00000000000E+00 -0.00000000000E+00 -0.45593999997E+02  0.45594000000E+02  0.51100000000E-03 0. -1.
    9900012    2    1    2    0    0 -0.59567896140E+01  0.15392300686E+02  0.88471820908E+01  0.72461577654E+02  0.70000009588E+02 0.  0.
        -12    1    1    2    0    0  0.59567896140E+01 -0.15392300686E+02 -0.88471820908E+01  0.18726422346E+02  0.00000000000E+00 0.  1.
         11    1    3    3    0    0 -0.17765898743E+01 -0.71285051597E+01  0.19325088021E+02  0.20674401677E+02  0.51100000000E-03 0. -1.
        -11    1    3    3    0    0 -0.40971622956E+01  0.56316010292E+01  0.17652160365E+02  0.18976312467E+02  0.51100000000E-03 0.  1.
         12    1    3    3    0    0 -0.83037443990E-01  0.16889204817E+02 -0.28130066295E+02  0.32810863511E+02  0.00000000000E+00 0. -1.
</event>
<event>
 7    1  0.2851651E-013  0.7246157E+02  0.7816164E-02  0.1226708E+00
        -11   -1    0    0    0    0  0.00000000000E+00  0.00000000000E+00  0.45593999997E+02  0.45594000000E+02  0.51100000000E-03 0. -1.
         11   -1    0    0    0    0 -0.00000000000E+00 -0.00000000000E+00 -0.45593999997E+02  0.45594000000E+02  0.51100000000E-03 0.  1.
    9900012    2    1    2    0    0 -0.74181059914E+00 -0.84445495130E+01  0.16697862402E+02  0.72461566591E+02  0.69999995175E+02 0.  0.
        -12    1    1    2    0    0  0.74181059914E+00  0.84445495130E+01 -0.16697862402E+02  0.18726433409E+02  0.00000000000E+00 0.  1.
         11    1    3    3    0    0 -0.17144740137E+02 -0.17147850359E+02  0.31507970160E+02  0.39758559709E+02  0.51100000000E-03 0. -1.
        -11    1    3    3    0    0  0.46074725216E+01  0.28622149999E+01  0.59945046762E+01  0.80842540978E+01  0.51100000000E-03 0.  1.
        -12    1    3    3    0    0  0.11795457017E+02  0.58410858465E+01 -0.20804612434E+02  0.24618752784E+02  0.00000000000E+00 0.  1.
</event>
<event>
 7    1  0.2851651E-013  0.7246155E+02  0.7816164E-02  0.1226708E+00
        -11   -1    0    0    0    0  0.00000000000E+00  0.00000000000E+00  0.45593999997E+02  0.45594000000E+02  0.51100000000E-03 0. -1.
         11   -1    0    0    0    0 -0.00000000000E+00 -0.00000000000E+00 -0.45593999997E+02  0.45594000000E+02  0.51100000000E-03 0.  1.
    9900012    2    1    2    0    0  0.13054400909E+02  0.62972414259E+01  0.11857787770E+02  0.72461554436E+02  0.69999979341E+02 0.  0.
        -12    1    1    2    0    0 -0.13054400909E+02 -0.62972414259E+01 -0.11857787770E+02  0.18726445564E+02  0.00000000000E+00 0.  1.
         11    1    3    3    0    0  0.22499366821E+02 -0.84893178996E+00  0.10431187571E+02  0.24814348005E+02  0.51100000000E-03 0. -1.
        -11    1    3    3    0    0  0.73943531826E+01  0.20191727788E+02  0.11160896131E+02  0.24227008333E+02  0.51100000000E-03 0.  1.
        -12    1    3    3    0    0 -0.16839319095E+02 -0.13045554572E+02 -0.97342959312E+01  0.23420198098E+02  0.00000000000E+00 0.  1.
</event>
<event>
 7    1  0.2851651E-013  0.7246156E+02  0.7816164E-02  0.1226708E+00
        -11   -1    0    0    0    0  0.00000000000E+00  0.00000000000E+00  0.45593999997E+02  0.45594000000E+02  0.51100000000E-03 0. -1.
         11   -1    0    0    0    0 -0.00000000000E+00 -0.00000000000E+00 -0.45593999997E+02  0.45594000000E+02  0.51100000000E-03 0.  1.
    9900012    2    1    2    0    0  0.62103992596E+01  0.16564077190E+02  0.61434248004E+01  0.72461564664E+02  0.69999992665E+02 0.  0.
        -12    1    1    2    0    0 -0.62103992596E+01 -0.16564077190E+02 -0.61434248004E+01  0.18726435336E+02  0.00000000000E+00 0.  1.
         11    1    3    3    0    0 -0.84348356649E+01  0.29063252750E+02 -0.29968615502E+00  0.30263987264E+02  0.51100000000E-03 0.  1.
        -11    1    3    3    0    0 -0.24632859483E+01  0.11269761667E+02  0.57830926547E+01  0.12904242194E+02  0.51100000000E-03 0. -1.
         12    1    3    3    0    0  0.17108520873E+02 -0.23768937226E+02  0.66001830075E+00  0.29293335206E+02  0.00000000000E+00 0. -1.
</event>
<event>
 7    1  0.2851651E-013  0.7246163E+02  0.7816164E-02  0.1226708E+00
        -11   -1    0    0    0    0  0.00000000000E+00  0.00000000000E+00  0.45593999997E+02  0.45594000000E+02  0.51100000000E-03 0.  1.
         11   -1    0    0    0    0 -0.00000000000E+00 -0.00000000000E+00 -0.45593999997E+02  0.45594000000E+02  0.51100000000E-03 0. -1.
    9900012    2    1    2    0    0 -0.77974771563E+01 -0.14920247989E+02 -0.82013728069E+01  0.72461629130E+02  0.70000076644E+02 0.  0.
        -12    1    1    2    0    0  0.77974771563E+01  0.14920247989E+02  0.82013728069E+01  0.18726370870E+02  0.00000000000E+00 0.  1.
         11    1    3    3    0    0 -0.62322772001E+01 -0.24670561719E+02 -0.51184087095E+01  0.25955269265E+02  0.51100000000E-03 0. -1.
        -11    1    3    3    0    0 -0.64053727229E+01 -0.15576255747E+02 -0.10285682504E+02  0.19734330687E+02  0.51100000000E-03 0.  1.
        -12    1    3    3    0    0  0.48401727667E+01  0.25326569477E+02  0.72027184065E+01  0.26772029178E+02  0.00000000000E+00 0.  1.
</event>
<event>
 7    1  0.2851651E-013  0.7246151E+02  0.7816164E-02  0.1226708E+00
        -11   -1    0    0    0    0  0.00000000000E+00  0.00000000000E+00  0.45593999997E+02  0.45594000000E+02  0.51100000000E-03 0.  1.
         11   -1    0    0    0    0 -0.00000000000E+00 -0.00000000000E+00 -0.45593999997E+02  0.45594000000E+02  0.51100000000E-03 0. -1.
    9900012    2    1    2    0    0 -0.12244205697E+02 -0.52902288925E+01 -0.13144363753E+02  0.72461510917E+02  0.69999922651E+02 0.  0.
        -12    1    1    2    0    0  0.12244205697E+02  0.52902288925E+01  0.13144363753E+02  0.18726489083E+02  0.00000000000E+00 0.  1.
         11    1    3    3    0    0  0.68704437082E+01 -0.37912853550E+01  0.12173342349E+02  0.14483338897E+02  0.51100000000E-03 0. -1.
        -11    1    3    3    0    0 -0.65865946747E+01  0.73846119653E+01  0.13208313498E+02  0.16503795594E+02  0.51100000000E-03 0.  1.
         12    1    3    3    0    0 -0.12528054731E+02 -0.88835555028E+01 -0.38526019600E+02  0.41474376426E+02  0.00000000000E+00 0. -1.
</event>
<event>
 7    1  0.2851651E-013  0.7246158E+02  0.7816164E-02  0.1226708E+00
        -11   -1    0    0    0    0  0.00000000000E+00  0.00000000000E+00  0.45593999997E+02  0.45594000000E+02  0.51100000000E-03 0. -1.
         11   -1    0    0    0    0 -0.00000000000E+00 -0.00000000000E+00 -0.45593999997E+02  0.45594000000E+02  0.51100000000E-03 0.  1.
    9900012    2    1    2    0    0  0.80856204664E+01  0.38991216590E+01  0.16434671773E+02  0.72461578977E+02  0.70000011311E+02 0.  0.
        -12    1    1    2    0    0 -0.80856204664E+01 -0.38991216590E+01 -0.16434671773E+02  0.18726421023E+02  0.00000000000E+00 0.  1.
         11    1    3    3    0    0  0.23466801277E+02 -0.11154053869E+02  0.17061113824E+02  0.31083521118E+02  0.51100000000E-03 0. -1.
        -11    1    3    3    0    0 -0.81509520419E+01 -0.11210653253E+02  0.20278772613E+01  0.14008178040E+02  0.51100000000E-03 0.  1.
        -12    1    3    3    0    0 -0.72302287688E+01  0.26263828781E+02 -0.26543193119E+01  0.27369879819E+02  0.00000000000E+00 0.  1.
</event>
<event>
 7    1  0.2851651E-013  0.7246150E+02  0.7816164E-02  0.1226708E+00
        -11   -1    0    0    0    0  0.00000000000E+00  0.00000000000E+00  0.45593999997E+02  0.45594000000E+02  0.51100000000E-03 0. -1.
         11   -1    0    0    0    0 -0.00000000000E+00 -0.00000000000E+00 -0.45593999997E+02  0.45594000000E+02  0.51100000000E-03 0.  1.
    9900012    2    1    2    0    0  0.15755399856E+02 -0.24996467278E+01  0.98082153597E+01  0.72461496137E+02  0.69999903396E+02 0.  0.
        -12    1    1    2    0    0 -0.15755399856E+02  0.24996467278E+01 -0.98082153597E+01  0.18726503863E+02  0.00000000000E+00 0.  1.
         11    1    3    3    0    0  0.95524539780E+01 -0.17040722306E+02 -0.92049701342E+00  0.19557170264E+02  0.51100000000E-03 0. -1.
        -11    1    3    3    0    0 -0.13016450739E+02 -0.86110864546E+01  0.16005444339E+02  0.22355157090E+02  0.51100000000E-03 0.  1.
         12    1    3    3    0    0  0.19219396617E+02  0.23152162033E+02 -0.52767319658E+01  0.30549168783E+02  0.00000000000E+00 0. -1.
</event>
<event>
 7    1  0.2851651E-013  0.7246172E+02  0.7816164E-02  0.1226708E+00
        -11   -1    0    0    0    0  0.00000000000E+00  0.00000000000E+00  0.45593999997E+02  0.45594000000E+02  0.51100000000E-03 0.  1.
         11   -1    0    0    0    0 -0.00000000000E+00 -0.00000000000E+00 -0.45593999997E+02  0.45594000000E+02  0.51100000000E-03 0. -1.
    9900012    2    1    2    0    0 -0.87377559700E+01 -0.10137776049E+02  0.13097733378E+02  0.72461721612E+02  0.70000197119E+02 0.  0.
        -12    1    1    2    0    0  0.87377559700E+01  0.10137776049E+02 -0.13097733378E+02  0.18726278388E+02  0.00000000000E+00 0.  1.
         11    1    3    3    0    0 -0.11632164692E+01  0.16048877118E+01 -0.42089350751E+01  0.46522974807E+01  0.51100000000E-03 0. -1.
        -11    1    3    3    0    0  0.24157118086E+01 -0.27238015921E+02 -0.14570537454E+02  0.30984604835E+02  0.51100000000E-03 0.  1.
        -12    1    3    3    0    0 -0.99902513093E+01  0.15495352159E+02  0.31877205907E+02  0.36824819296E+02  0.00000000000E+00 0.  1.
</event>
<event>
 7    1  0.2851651E-013  0.7246160E+02  0.7816164E-02  0.1226708E+00
        -11   -1    0    0    0    0  0.00000000000E+00  0.00000000000E+00  0.45593999997E+02  0.45594000000E+02  0.51100000000E-03 0.  1.
         11   -1    0    0    0    0 -0.00000000000E+00 -0.00000000000E+00 -0.45593999997E+02  0.45594000000E+02  0.51100000000E-03 0. -1.
    9900012    2    1    2    0    0  0.13184438017E+02 -0.78527583969E+01 -0.10732335033E+02  0.72461595232E+02  0.70000032486E+02 0.  0.
        -12    1    1    2    0    0 -0.13184438017E+02  0.78527583969E+01  0.10732335033E+02  0.18726404768E+02  0.00000000000E+00 0.  1.
         11    1    3    3    0    0 -0.83659804315E+01 -0.10978173472E+02 -0.16640481274E+02  0.21619795065E+02  0.51100000000E-03 0. -1.
        -11    1    3    3    0    0  0.13862835808E+00 -0.98971906426E+01  0.19837546928E+02  0.22169841425E+02  0.51100000000E-03 0.  1.
         12    1    3    3    0    0  0.21411790091E+02  0.13022605718E+02 -0.13929400687E+02  0.28671958741E+02  0.00000000000E+00 0. -1.
</event>
<event>
 7    1  0.2851651E-013  0.7246161E+02  0.7816164E-02  0.1226708E+00
        -11   -1    0    0    0    0  0.00000000000E+00  0.00000000000E+00  0.45593999997E+02  0.45594000000E+02  0.51100000000E-03 0. -1.
         11   -1    0    0    0    0 -0.00000000000E+00 -0.00000000000E+00 -0.45593999997E+02  0.45594000000E+02  0.51100000000E-03 0.  1.
    9900012    2    1    2    0    0 -0.10623065077E+02  0.76818086635E+01  0.13372282595E+02  0.72461611193E+02  0.70000053278E+02 0.  0.
        -12    1    1    2    0    0  0.10623065077E+02 -0.76818086635E+01 -0.13372282595E+02  0.18726388807E+02  0.00000000000E+00 0.  1.
         11    1    3    3    0    0  0.10949876042E+01  0.49405946261E+01  0.60252743863E+01  0.78684436074E+01  0.51100000000E-03 0. -1.
        -11    1    3    3    0    0 -0.22363857230E+02 -0.20658122927E+01 -0.22956970145E+02  0.32115917691E+02  0.51100000000E-03 0.  1.
         12    1    3    3    0    0  0.10645804549E+02  0.48070263302E+01  0.30303978354E+02  0.32477249894E+02  0.00000000000E+00 0. -1.
</event>
<event>
 7    1  0.2851651E-013  0.7246152E+02  0.7816164E-02  0.1226708E+00
        -11   -1    0    0    0    0  0.00000000000E+00  0.00000000000E+00  0.45593999997E+02  0.45594000000E+02  0.51100000000E-03 0.  1.
         11   -1    0    0    0    0 -0.00000000000E+00 -0.00000000000E+00 -0.45593999997E+02  0.45594000000E+02  0.51100000000E-03 0. -1.
    9900012    2    1    2    0    0  0.65635753841E+01  0.17162292567E+02 -0.36133358796E+01  0.72461521309E+02  0.69999936188E+02 0.  0.
        -12    1    1    2    0    0 -0.65635753841E+01 -0.17162292567E+02  0.36133358796E+01  0.18726478691E+02  0.00000000000E+00 0.  1.
         11    1    3    3    0    0 -0.17038331601E+01  0.31231390296E+02 -0.22372572468E+02  0.38455620998E+02  0.51100000000E-03 0.  1.
        -11    1    3    3    0    0 -0.79468473791E+00  0.37699303100E+01 -0.26700402506E+01  0.46875381146E+01  0.51100000000E-03 0. -1.
         12    1    3    3    0    0  0.90620932821E+01 -0.17839028039E+02  0.21429276839E+02  0.29318362197E+02  0.00000000000E+00 0. -1.
</event>
<event>
 7    1  0.2851651E-013  0.7246154E+02  0.7816164E-02  0.1226708E+00
        -11   -1    0    0    0    0  0.00000000000E+00  0.00000000000E+00  0.45593999997E+02  0.45594000000E+02  0.51100000000E-03 0.  1.
         11   -1    0    0    0    0 -0.00000000000E+00 -0.00000000000E+00 -0.45593999997E+02  0.45594000000E+02  0.51100000000E-03 0. -1.
    9900012    2    1    2    0    0 -0.14105010953E+02  0.85656500250E+01 -0.88520372231E+01  0.72461541249E+02  0.69999962163E+02 0.  0.
        -12    1    1    2    0    0  0.14105010953E+02 -0.85656500250E+01  0.88520372231E+01  0.18726458751E+02  0.00000000000E+00 0.  1.
         11    1    3    3    0    0 -0.22996486601E+01 -0.29058185694E+01  0.20006158958E+02  0.20346463133E+02  0.51100000000E-03 0. -1.
        -11    1    3    3    0    0  0.44098425813E+01 -0.11644058085E+02 -0.10670160244E+01  0.12496772533E+02  0.51100000000E-03 0.  1.
         12    1    3    3    0    0 -0.16215204875E+02  0.23115526679E+02 -0.27791180157E+02  0.39618305583E+02  0.00000000000E+00 0. -1.
</event>
<event>
 7    1  0.3590626E-013  0.7246159E+02  0.7816164E-02  0.1226708E+00
        -11   -1    0    0    0    0  0.00000000000E+00  0.00000000000E+00  0.45593999997E+02  0.45594000000E+02  0.51100000000E-03 0. -1.
         11   -1    0    0    0    0 -0.00000000000E+00 -0.00000000000E+00 -0.45593999997E+02  0.45594000000E+02  0.51100000000E-03 0.  1.
    9900012    2    1    2    0    0  0.11021043231E+02 -0.11474222728E+02  0.98771110440E+01  0.72461588072E+02  0.70000023159E+02 0.  0.
        -12    1    1    2    0    0 -0.11021043231E+02  0.11474222728E+02 -0.98771110440E+01  0.18726411928E+02  0.00000000000E+00 0.  1.
         11    1    3    3    0    0 -0.45266132526E+01  0.29891080043E+01  0.17339795720E+02  0.18168475722E+02  0.51100000000E-03 0. -1.
        -11    1    3    3    0    0 -0.65453813099E+01 -0.27060126703E+02 -0.18761866724E+00  0.27841114825E+02  0.51100000000E-03 0.  1.
         12    1    3    3    0    0  0.22093037793E+02  0.12596795970E+02 -0.72750660088E+01  0.26451997525E+02  0.00000000000E+00 0. -1.
</event>
<event>
 7    1  0.2851651E-013  0.7246152E+02  0.7816164E-02  0.1226708E+00
        -11   -1    0    0    0    0  0.00000000000E+00  0.00000000000E+00  0.45593999997E+02  0.45594000000E+02  0.51100000000E-03 0.  1.
         11   -1    0    0    0    0 -0.00000000000E+00 -0.00000000000E+00 -0.45593999997E+02  0.45594000000E+02  0.51100000000E-03 0. -1.
    9900012    2    1    2    0    0  0.81493915186E+01 -0.26126237249E+01 -0.16656609083E+02  0.72461521127E+02  0.69999935950E+02 0.  0.
        -12    1    1    2    0    0 -0.81493915186E+01  0.26126237249E+01  0.16656609083E+02  0.18726478873E+02  0.00000000000E+00 0.  1.
         11    1    3    3    0    0  0.24496214048E+02  0.20713443369E+01 -0.89893395979E+01  0.26175622184E+02  0.51100000000E-03 0. -1.
        -11    1    3    3    0    0  0.47360423174E+00 -0.20963738928E+02 -0.90454354952E+01  0.22836868314E+02  0.51100000000E-03 0.  1.
        -12    1    3    3    0    0 -0.16820426761E+02  0.16279770866E+02  0.13781660102E+01  0.23449030629E+02  0.00000000000E+00 0.  1.
</event>
<event>
 7    1  0.2851651E-013  0.7246157E+02  0.7816164E-02  0.1226708E+00
        -11   -1    0    0    0    0  0.00000000000E+00  0.00000000000E+00  0.45593999997E+02  0.45594000000E+02  0.51100000000E-03 0.  1.
         11   -1    0    0    0    0 -0.00000000000E+00 -0.00000000000E+00 -0.45593999997E+02  0.45594000000E+02  0.51100000000E-03 0. -1.
    9900012    2    1    2    0    0 -0.13868990038E+02  0.10705373147E+02 -0.66125044158E+01  0.72461571789E+02  0.70000001947E+02 0.  0.
        -12    1    1    2    0    0  0.13868990038E+02 -0.10705373147E+02  0.66125044158E+01  0.18726428211E+02  0.00000000000E+00 0.  1.
         11    1    3    3    0    0 -0.15227629640E+02  0.25386948864E+01 -0.36690203767E+02  0.39805737387E+02  0.51100000000E-03 0. -1.
        -11    1    3    3    0    0 -0.17306570841E+00  0.21672916558E-02 -0.72876637198E+00  0.74903746410E+00  0.51100000000E-03 0.  1.
        -12    1    3    3    0    0  0.15317053106E+01  0.81645109689E+01  0.30806465723E+02  0.31906796938E+02  0.00000000000E+00 0.  1.
</event>
<event>
 7    1  0.2851651E-013  0.7246159E+02  0.7816164E-02  0.1226708E+00
        -11   -1    0    0    0    0  0.00000000000E+00  0.00000000000E+00  0.45593999997E+02  0.45594000000E+02  0.51100000000E-03 0.  1.
         11   -1    0    0    0    0 -0.00000000000E+00 -0.00000000000E+00 -0.45593999997E+02  0.45594000000E+02  0.51100000000E-03 0. -1.
    9900012    2    1    2    0    0  0.11168660558E+02 -0.13457764804E+02  0.66953620270E+01  0.72461593915E+02  0.70000030771E+02 0.  0.
        -12    1    1    2    0    0 -0.11168660558E+02  0.13457764804E+02 -0.66953620270E+01  0.18726406085E+02  0.00000000000E+00 0.  1.
         11    1    3    3    0    0  0.16508521290E+02  0.48906531683E+00 -0.22522449856E+02  0.27929038792E+02  0.51100000000E-03 0. -1.
        -11    1    3    3    0    0  0.45294317297E+01  0.72439126959E+01  0.22326690460E+01  0.88303360225E+01  0.51100000000E-03 0.  1.
        -12    1    3    3    0    0 -0.98692924617E+01 -0.21190742817E+02  0.26985142837E+02  0.35702219101E+02  0.00000000000E+00 0.  1.
</event>
<event>
 7    1  0.2851651E-013  0.7246146E+02  0.7816164E-02  0.1226708E+00
        -11   -1    0    0    0    0  0.00000000000E+00  0.00000000000E+00  0.45593999997E+02  0.45594000000E+02  0.51100000000E-03 0. -1.
         11   -1    0    0    0    0 -0.00000000000E+00 -0.00000000000E+00 -0.45593999997E+02  0.45594000000E+02  0.51100000000E-03 0.  1.
    9900012    2    1    2    0    0  0.15468242334E+02  0.79534020679E+01 -0.69397543618E+01  0.72461459584E+02  0.69999855779E+02 0.  0.
        -12    1    1    2    0    0 -0.15468242334E+02 -0.79534020679E+01  0.69397543618E+01  0.18726540416E+02  0.00000000000E+00 0.  1.
         11    1    3    3    0    0  0.17420979779E+02  0.19312994851E+02  0.60277870919E+01  0.26698624011E+02  0.51100000000E-03 0. -1.
        -11    1    3    3    0    0  0.18564331397E+02  0.95055075862E+00 -0.85935895524E-01  0.18588849674E+02  0.51100000000E-03 0.  1.
        -12    1    3    3    0    0 -0.20517068842E+02 -0.12310143542E+02 -0.12881605558E+02  0.27173985899E+02  0.00000000000E+00 0.  1.
</event>
<event>
 7    1  0.2851651E-013  0.7246159E+02  0.7816164E-02  0.1226708E+00
        -11   -1    0    0    0    0  0.00000000000E+00  0.00000000000E+00  0.45593999997E+02  0.45594000000E+02  0.51100000000E-03 0. -1.
         11   -1    0    0    0    0 -0.00000000000E+00 -0.00000000000E+00 -0.45593999997E+02  0.45594000000E+02  0.51100000000E-03 0.  1.
    9900012    2    1    2    0    0  0.46737715711E+01  0.17905465711E+02 -0.28685559771E+01  0.72461589335E+02  0.70000024804E+02 0.  0.
        -12    1    1    2    0    0 -0.46737715711E+01 -0.17905465711E+02  0.28685559771E+01  0.18726410665E+02  0.00000000000E+00 0.  1.
         11    1    3    3    0    0  0.53974356455E+01  0.95464712862E+01  0.19158200365E+00  0.10968323914E+02  0.51100000000E-03 0. -1.
        -11    1    3    3    0    0 -0.17315449787E+02  0.28273924543E+02  0.66467442398E+01  0.33814476480E+02  0.51100000000E-03 0.  1.
         12    1    3    3    0    0  0.16591785712E+02 -0.19914930119E+02 -0.97068822206E+01  0.27678788940E+02  0.00000000000E+00 0. -1.
</event>
<event>
 7    1  0.2851651E-013  0.7246156E+02  0.7816164E-02  0.1226708E+00
        -11   -1    0    0    0    0  0.00000000000E+00  0.00000000000E+00  0.45593999997E+02  0.45594000000E+02  0.51100000000E-03 0. -1.
         11   -1    0    0    0    0 -0.00000000000E+00 -0.00000000000E+00 -0.45593999997E+02  0.45594000000E+02  0.51100000000E-03 0.  1.
    9900012    2    1    2    0    0  0.11266592976E+02 -0.13253847421E+02  0.69338886634E+01  0.72461564121E+02  0.69999991958E+02 0.  0.
        -12    1    1    2    0    0 -0.11266592976E+02  0.13253847421E+02 -0.69338886634E+01  0.18726435879E+02  0.00000000000E+00 0.  1.
         11    1    3    3    0    0  0.86581877937E+01 -0.14670206520E+02  0.25946051737E+02  0.31038311427E+02  0.51100000000E-03 0. -1.
        -11    1    3    3    0    0  0.14099482962E+02 -0.83721663920E+01  0.91603500568E+00  0.16423389123E+02  0.51100000000E-03 0.  1.
        -12    1    3    3    0    0 -0.11491077780E+02  0.97885254916E+01 -0.19928198080E+02  0.24999863571E+02  0.00000000000E+00 0.  1.
</event>
<event>
 7    1  0.2851651E-013  0.7246120E+02  0.7816164E-02  0.1226709E+00
        -11   -1    0    0    0    0  0.00000000000E+00  0.00000000000E+00  0.45593999997E+02  0.45594000000E+02  0.51100000000E-03 0.  1.
         11   -1    0    0    0    0 -0.00000000000E+00 -0.00000000000E+00 -0.45593999997E+02  0.45594000000E+02  0.51100000000E-03 0. -1.
    9900012    2    1    2    0    0  0.47934626057E+01 -0.11840757459E+02 -0.13693513850E+02  0.72461197216E+02  0.69999513994E+02 0.  0.
        -12    1    1    2    0    0 -0.47934626057E+01  0.11840757459E+02  0.13693513850E+02  0.18726802784E+02  0.00000000000E+00 0.  1.
         11    1    3    3    0    0  0.11895394807E+02 -0.26522806283E+02  0.78115269498E+01  0.30099495415E+02  0.51100000000E-03 0. -1.
        -11    1    3    3    0    0 -0.10522310306E+02  0.12325012831E+01  0.55463741172E+01  0.11958274947E+02  0.51100000000E-03 0.  1.
         12    1    3    3    0    0  0.34203781050E+01  0.13449547540E+02 -0.27051414917E+02  0.30403426854E+02  0.00000000000E+00 0. -1.
</event>
<event>
 7    1  0.2851651E-013  0.7246161E+02  0.7816164E-02  0.1226708E+00
        -11   -1    0    0    0    0  0.00000000000E+00  0.00000000000E+00  0.45593999997E+02  0.45594000000E+02  0.51100000000E-03 0.  1.
         11   -1    0    0    0    0 -0.00000000000E+00 -0.00000000000E+00 -0.45593999997E+02  0.45594000000E+02  0.51100000000E-03 0. -1.
    9900012    2    1    2    0    0 -0.12960655541E+02  0.12425824772E+02 -0.53195851282E+01  0.72461609551E+02  0.70000051139E+02 0.  0.
        -12    1    1    2    0    0  0.12960655541E+02 -0.12425824772E+02  0.53195851282E+01  0.18726390449E+02  0.00000000000E+00 0.  1.
         11    1    3    3    0    0 -0.54144738481E+01  0.12022719693E+01  0.12730220110E+01  0.56905685342E+01  0.51100000000E-03 0. -1.
        -11    1    3    3    0    0 -0.31367873719E+02  0.23765824778E+02 -0.15755972299E+01  0.39385789772E+02  0.51100000000E-03 0.  1.
        -12    1    3    3    0    0  0.23821692027E+02 -0.12542271975E+02 -0.50170099093E+01  0.27385251245E+02  0.00000000000E+00 0.  1.
</event>
<event>
 7    1  0.2851651E-013  0.7246158E+02  0.7816164E-02  0.1226708E+00
        -11   -1    0    0    0    0  0.00000000000E+00  0.00000000000E+00  0.45593999997E+02  0.45594000000E+02  0.51100000000E-03 0. -1.
         11   -1    0    0    0    0 -0.00000000000E+00 -0.00000000000E+00 -0.45593999997E+02  0.45594000000E+02  0.51100000000E-03 0.  1.
    9900012    2    1    2    0    0  0.18442490379E+02  0.32272287108E+01 -0.37210728325E+00  0.72461576947E+02  0.70000008667E+02 0.  0.
        -12    1    1    2    0    0 -0.18442490379E+02 -0.32272287108E+01  0.37210728325E+00  0.18726423053E+02  0.00000000000E+00 0.  1.
         11    1    3    3    0    0 -0.71087905723E+01 -0.63700967456E+01  0.41583916317E+01  0.10411784534E+02  0.51100000000E-03 0. -1.
        -11    1    3    3    0    0 -0.16945688208E+02  0.93145956683E+01 -0.26988816430E+00  0.19338843843E+02  0.51100000000E-03 0.  1.
         12    1    3    3    0    0  0.42496969159E+02  0.28272978804E+00 -0.42606107507E+01  0.42710948571E+02  0.00000000000E+00 0. -1.
</event>
<event>
 7    1  0.2851651E-013  0.7246102E+02  0.7816164E-02  0.1226709E+00
        -11   -1    0    0    0    0  0.00000000000E+00  0.00000000000E+00  0.45593999997E+02  0.45594000000E+02  0.51100000000E-03 0.  1.
         11   -1    0    0    0    0 -0.00000000000E+00 -0.00000000000E+00 -0.45593999997E+02  0.45594000000E+02  0.51100000000E-03 0. -1.
    9900012    2    1    2    0    0  0.16179852343E+01  0.15505938056E+02  0.10375339128E+02  0.72461023383E+02  0.69999287543E+02 0.  0.
        -12    1    1    2    0    0 -0.16179852343E+01 -0.15505938056E+02 -0.10375339128E+02  0.18726976617E+02  0.00000000000E+00 0.  1.
         11    1    3    3    0    0 -0.22484206884E+02 -0.12446298390E+02 -0.18898587662E+00  0.25699914761E+02  0.51100000000E-03 0. -1.
        -11    1    3    3    0    0 -0.28981211387E+01  0.61075611870E+01  0.99449274177E+01  0.12025098394E+02  0.51100000000E-03 0.  1.
        -12    1    3    3    0    0  0.27000313257E+02  0.21844675259E+02  0.61939758670E+00  0.34736010227E+02  0.00000000000E+00 0.  1.
</event>
<event>
 7    1  0.2851651E-013  0.7246156E+02  0.7816164E-02  0.1226708E+00
        -11   -1    0    0    0    0  0.00000000000E+00  0.00000000000E+00  0.45593999997E+02  0.45594000000E+02  0.51100000000E-03 0.  1.
         11   -1    0    0    0    0 -0.00000000000E+00 -0.00000000000E+00 -0.45593999997E+02  0.45594000000E+02  0.51100000000E-03 0. -1.
    9900012    2    1    2    0    0 -0.31010839981E+01  0.14858829387E+02 -0.10967126902E+02  0.72461564002E+02  0.69999991803E+02 0.  0.
        -12    1    1    2    0    0  0.31010839981E+01 -0.14858829387E+02  0.10967126902E+02  0.18726435998E+02  0.00000000000E+00 0.  1.
         11    1    3    3    0    0 -0.28988471721E+01 -0.56949617323E+01  0.37451810897E+00  0.64012630109E+01  0.51100000000E-03 0. -1.
        -11    1    3    3    0    0 -0.13136377516E+02  0.32364146314E+02  0.11951560685E+02  0.36916692484E+02  0.51100000000E-03 0.  1.
         12    1    3    3    0    0  0.12934140690E+02 -0.11810355195E+02 -0.23293205696E+02  0.29143608507E+02  0.00000000000E+00 0. -1.
</event>
<event>
 7    1  0.2851651E-013  0.7246166E+02  0.7816164E-02  0.1226708E+00
        -11   -1    0    0    0    0  0.00000000000E+00  0.00000000000E+00  0.45593999997E+02  0.45594000000E+02  0.51100000000E-03 0. -1.
         11   -1    0    0    0    0 -0.00000000000E+00 -0.00000000000E+00 -0.45593999997E+02  0.45594000000E+02  0.51100000000E-03 0.  1.
    9900012    2    1    2    0    0 -0.17608207219E+02 -0.53461161389E+01  0.34707354178E+01  0.72461656962E+02  0.70000112900E+02 0.  0.
        -12    1    1    2    0    0  0.17608207219E+02  0.53461161389E+01 -0.34707354178E+01  0.18726343038E+02  0.00000000000E+00 0.  1.
         11    1    3    3    0    0 -0.44845842681E+01  0.69499052556E+01  0.30239939332E+02  0.31350703504E+02  0.51100000000E-03 0. -1.
        -11    1    3    3    0    0  0.48288634033E+01  0.43707706892E+01 -0.75768236098E+01  0.99914870996E+01  0.51100000000E-03 0.  1.
         12    1    3    3    0    0 -0.17952486355E+02 -0.16666792084E+02 -0.19192380304E+02  0.31119466358E+02  0.00000000000E+00 0. -1.
</event>
<event>
 7    1  0.2851651E-013  0.7246170E+02  0.7816164E-02  0.1226708E+00
        -11   -1    0    0    0    0  0.00000000000E+00  0.00000000000E+00  0.45593999997E+02  0.45594000000E+02  0.51100000000E-03 0.  1.
         11   -1    0    0    0    0 -0.00000000000E+00 -0.00000000000E+00 -0.45593999997E+02  0.45594000000E+02  0.51100000000E-03 0. -1.
    9900012    2    1    2    0    0  0.10718857333E+02  0.72349105370E+01 -0.13543871534E+02  0.72461700603E+02  0.70000169751E+02 0.  0.
        -12    1    1    2    0    0 -0.10718857333E+02 -0.72349105370E+01  0.13543871534E+02  0.18726299397E+02  0.00000000000E+00 0.  1.
         11    1    3    3    0    0 -0.83029565890E+01  0.24684237878E+02  0.63898136283E+01  0.26815674636E+02  0.51100000000E-03 0. -1.
        -11    1    3    3    0    0 -0.96262889575E+00  0.29992407444E+01 -0.16558174670E+02  0.16855125277E+02  0.51100000000E-03 0.  1.
        -12    1    3    3    0    0  0.19984442817E+02 -0.20448568085E+02 -0.33755104923E+01  0.28790900690E+02  0.00000000000E+00 0.  1.
</event>
<event>
 7    1  0.2851651E-013  0.7246148E+02  0.7816164E-02  0.1226708E+00
        -11   -1    0    0    0    0  0.00000000000E+00  0.00000000000E+00  0.45593999997E+02  0.45594000000E+02  0.51100000000E-03 0.  1.
         11   -1    0    0    0    0 -0.00000000000E+00 -0.00000000000E+00 -0.45593999997E+02  0.45594000000E+02  0.51100000000E-03 0. -1.
    9900012    2    1    2    0    0 -0.12666894798E+02 -0.94949611262E+01 -0.10003899852E+02  0.72461480759E+02  0.69999883364E+02 0.  0.
        -12    1    1    2    0    0  0.12666894798E+02  0.94949611262E+01  0.10003899852E+02  0.18726519241E+02  0.00000000000E+00 0.  1.
         11    1    3    3    0    0 -0.59280407124E+01 -0.94096325212E+01  0.36731136042E+01  0.11712156705E+02  0.51100000000E-03 0. -1.
        -11    1    3    3    0    0  0.14184299672E+02  0.17686030928E+02  0.97320022656E+01  0.24671885123E+02  0.51100000000E-03 0.  1.
         12    1    3    3    0    0 -0.20923153758E+02 -0.17771359533E+02 -0.23409015722E+02  0.36077438932E+02  0.00000000000E+00 0. -1.
</event>
<event>
 7    1  0.2851651E-013  0.7246157E+02  0.7816164E-02  0.1226708E+00
        -11   -1    0    0    0    0  0.00000000000E+00  0.00000000000E+00  0.45593999997E+02  0.45594000000E+02  0.51100000000E-03 0.  1.
         11   -1    0    0    0    0 -0.00000000000E+00 -0.00000000000E+00 -0.45593999997E+02  0.45594000000E+02  0.51100000000E-03 0. -1.
    9900012    2    1    2    0    0  0.30455324820E+01 -0.16926991502E+02 -0.74081737070E+01  0.72461565554E+02  0.69999993824E+02 0.  0.
        -12    1    1    2    0    0 -0.30455324820E+01  0.16926991502E+02  0.74081737070E+01  0.18726434446E+02  0.00000000000E+00 0.  1.
         11    1    3    3    0    0 -0.51149047746E+01 -0.22875954529E+02 -0.14862647764E+02  0.27755537201E+02  0.51100000000E-03 0. -1.
        -11    1    3    3    0    0 -0.50066464240E+01  0.12164054805E+02 -0.13720982640E+02  0.19007790577E+02  0.51100000000E-03 0.  1.
         12    1    3    3    0    0  0.13167083681E+02 -0.62150917783E+01  0.21175456698E+02  0.25698237776E+02  0.00000000000E+00 0. -1.
</event>
<event>
 7    1  0.2851651E-013  0.7246157E+02  0.7816164E-02  0.1226708E+00
        -11   -1    0    0    0    0  0.00000000000E+00  0.00000000000E+00  0.45593999997E+02  0.45594000000E+02  0.51100000000E-03 0.  1.
         11   -1    0    0    0    0 -0.00000000000E+00 -0.00000000000E+00 -0.45593999997E+02  0.45594000000E+02  0.51100000000E-03 0. -1.
    9900012    2    1    2    0    0  0.14295938953E+02 -0.41804757937E+01 -0.11350285292E+02  0.72461568823E+02  0.69999998083E+02 0.  0.
        -12    1    1    2    0    0 -0.14295938953E+02  0.41804757937E+01  0.11350285292E+02  0.18726431177E+02  0.00000000000E+00 0.  1.
         11    1    3    3    0    0  0.14842058876E+02  0.57131451847E+01 -0.11270500232E+02  0.19492329654E+02  0.51100000000E-03 0. -1.
        -11    1    3    3    0    0  0.19140760396E+02 -0.15732245953E+02 -0.13715892961E+02  0.28319569051E+02  0.51100000000E-03 0.  1.
         12    1    3    3    0    0 -0.19686880318E+02  0.58386249743E+01  0.13636107901E+02  0.24649670118E+02  0.00000000000E+00 0. -1.
</event>
<event>
 7    1  0.2851651E-013  0.7246146E+02  0.7816164E-02  0.1226708E+00
        -11   -1    0    0    0    0  0.00000000000E+00  0.00000000000E+00  0.45593999997E+02  0.45594000000E+02  0.51100000000E-03 0.  1.
         11   -1    0    0    0    0 -0.00000000000E+00 -0.00000000000E+00 -0.45593999997E+02  0.45594000000E+02  0.51100000000E-03 0. -1.
    9900012    2    1    2    0    0 -0.72113472013E+01  0.14046630674E+02 -0.10068362423E+02  0.72461460447E+02  0.69999856903E+02 0.  0.
        -12    1    1    2    0    0  0.72113472013E+01 -0.14046630674E+02  0.10068362423E+02  0.18726539553E+02  0.00000000000E+00 0.  1.
         11    1    3    3    0    0  0.37171218002E+01 -0.10667319802E+02 -0.12569650004E+02  0.16899846381E+02  0.51100000000E-03 0. -1.
        -11    1    3    3    0    0 -0.10105944465E+02 -0.11042539881E+02  0.11269156818E+02  0.18736640473E+02  0.51100000000E-03 0.  1.
        -12    1    3    3    0    0 -0.82252453606E+00  0.35756490356E+02 -0.87678692368E+01  0.36824973593E+02  0.00000000000E+00 0.  1.
</event>
<event>
 7    1  0.2851651E-013  0.7246153E+02  0.7816164E-02  0.1226708E+00
        -11   -1    0    0    0    0  0.00000000000E+00  0.00000000000E+00  0.45593999997E+02  0.45594000000E+02  0.51100000000E-03 0.  1.
         11   -1    0    0    0    0 -0.00000000000E+00 -0.00000000000E+00 -0.45593999997E+02  0.45594000000E+02  0.51100000000E-03 0. -1.
    9900012    2    1    2    0    0 -0.13999632817E+02 -0.94889879194E+01 -0.80405358727E+01  0.72461526016E+02  0.69999942320E+02 0.  0.
        -12    1    1    2    0    0  0.13999632817E+02  0.94889879194E+01  0.80405358727E+01  0.18726473984E+02  0.00000000000E+00 0.  1.
         11    1    3    3    0    0  0.27628278358E+01  0.50889115569E+01 -0.13696534546E+02  0.14870282355E+02  0.51100000000E-03 0. -1.
        -11    1    3    3    0    0 -0.32785306453E+02  0.34478959726E+01  0.58040466543E+01  0.33473142424E+02  0.51100000000E-03 0.  1.
         12    1    3    3    0    0  0.16022845801E+02 -0.18025795449E+02 -0.14804798113E+00  0.24118101238E+02  0.00000000000E+00 0. -1.
</event>
<event>
 7    1  0.2851651E-013  0.7246155E+02  0.7816164E-02  0.1226708E+00
        -11   -1    0    0    0    0  0.00000000000E+00  0.00000000000E+00  0.45593999997E+02  0.45594000000E+02  0.51100000000E-03 0.  1.
         11   -1    0    0    0    0 -0.00000000000E+00 -0.00000000000E+00 -0.45593999997E+02  0.45594000000E+02  0.51100000000E-03 0. -1.
    9900012    2    1    2    0    0 -0.13805649348E+02 -0.25423023154E+01 -0.12394378500E+02  0.72461551501E+02  0.69999975519E+02 0.  0.
        -12    1    1    2    0    0  0.13805649348E+02  0.25423023154E+01  0.12394378500E+02  0.18726448499E+02  0.00000000000E+00 0.  1.
         11    1    3    3    0    0 -0.19911665074E+02  0.26539632289E+01 -0.16617874609E+02  0.26070513681E+02  0.51100000000E-03 0. -1.
        -11    1    3    3    0    0 -0.16290081886E+02  0.30861080468E+01  0.12876834581E+02  0.20992944048E+02  0.51100000000E-03 0.  1.
         12    1    3    3    0    0  0.22396097612E+02 -0.82823735911E+01 -0.86533384715E+01  0.25398093772E+02  0.00000000000E+00 0. -1.
</event>
<event>
 7    1  0.2851651E-013  0.7246157E+02  0.7816164E-02  0.1226708E+00
        -11   -1    0    0    0    0  0.00000000000E+00  0.00000000000E+00  0.45593999997E+02  0.45594000000E+02  0.51100000000E-03 0. -1.
         11   -1    0    0    0    0 -0.00000000000E+00 -0.00000000000E+00 -0.45593999997E+02  0.45594000000E+02  0.51100000000E-03 0.  1.
    9900012    2    1    2    0    0 -0.94227657731E+01  0.11754630438E+01  0.16140293518E+02  0.72461566730E+02  0.69999995356E+02 0.  0.
        -12    1    1    2    0    0  0.94227657731E+01 -0.11754630438E+01 -0.16140293518E+02  0.18726433270E+02  0.00000000000E+00 0.  1.
         11    1    3    3    0    0 -0.79133130800E+01 -0.28689187356E+02  0.15475676036E+02  0.33543800382E+02  0.51100000000E-03 0. -1.
        -11    1    3    3    0    0 -0.11940298645E+02  0.78062937031E+01 -0.18635530344E+01  0.14386861481E+02  0.51100000000E-03 0.  1.
        -12    1    3    3    0    0  0.10430845952E+02  0.22058356697E+02  0.25281705164E+01  0.24530904867E+02  0.00000000000E+00 0.  1.
</event>
<event>
 7    1  0.2851651E-013  0.7246144E+02  0.7816164E-02  0.1226708E+00
        -11   -1    0    0    0    0  0.00000000000E+00  0.00000000000E+00  0.45593999997E+02  0.45594000000E+02  0.51100000000E-03 0. -1.
         11   -1    0    0    0    0 -0.00000000000E+00 -0.00000000000E+00 -0.45593999997E+02  0.45594000000E+02  0.51100000000E-03 0.  1.
    9900012    2    1    2    0    0 -0.18612915089E+02 -0.17337611504E+01  0.11123631707E+01  0.72461444320E+02  0.69999835895E+02 0.  0.
        -12    1    1    2    0    0  0.18612915089E+02  0.17337611504E+01 -0.11123631707E+01  0.18726555680E+02  0.00000000000E+00 0.  1.
         11    1    3    3    0    0 -0.22581451688E+02  0.14985780231E+02  0.24424855681E+02  0.36483820314E+02  0.51100000000E-03 0. -1.
        -11    1    3    3    0    0 -0.81468223221E+01 -0.10036913011E+02 -0.74168718062E+01  0.14903701701E+02  0.51100000000E-03 0.  1.
        -12    1    3    3    0    0  0.12115358921E+02 -0.66826283698E+01 -0.15895620704E+02  0.21073922304E+02  0.00000000000E+00 0.  1.
</event>
<event>
 7    1  0.2851651E-013  0.7246156E+02  0.7816164E-02  0.1226708E+00
        -11   -1    0    0    0    0  0.00000000000E+00  0.00000000000E+00  0.45593999997E+02  0.45594000000E+02  0.51100000000E-03 0. -1.
         11   -1    0    0    0    0 -0.00000000000E+00 -0.00000000000E+00 -0.45593999997E+02  0.45594000000E+02  0.51100000000E-03 0.  1.
    9900012    2    1    2    0    0 -0.12662797276E+01 -0.14744072472E+02  0.11475564514E+02  0.72461555642E+02  0.69999980912E+02 0.  0.
        -12    1    1    2    0    0  0.12662797276E+01  0.14744072472E+02 -0.11475564514E+02  0.18726444358E+02  0.00000000000E+00 0.  1.
         11    1    3    3    0    0 -0.82230472760E+01 -0.12117708629E+02  0.14073873807E+02  0.20310866380E+02  0.51100000000E-03 0. -1.
        -11    1    3    3    0    0 -0.30578127465E+01 -0.13592253951E+02  0.20442548531E+02  0.24738580739E+02  0.51100000000E-03 0.  1.
         12    1    3    3    0    0  0.10014580295E+02  0.10965890108E+02 -0.23040857825E+02  0.27412108523E+02  0.00000000000E+00 0. -1.
</event>
<event>
 7    1  0.2851651E-013  0.7246161E+02  0.7816164E-02  0.1226708E+00
        -11   -1    0    0    0    0  0.00000000000E+00  0.00000000000E+00  0.45593999997E+02  0.45594000000E+02  0.51100000000E-03 0. -1.
         11   -1    0    0    0    0 -0.00000000000E+00 -0.00000000000E+00 -0.45593999997E+02  0.45594000000E+02  0.51100000000E-03 0.  1.
    9900012    2    1    2    0    0  0.18040156943E+02 -0.46909065382E+00 -0.50010232026E+01  0.72461613759E+02  0.70000056621E+02 0.  0.
        -12    1    1    2    0    0 -0.18040156943E+02  0.46909065382E+00  0.50010232026E+01  0.18726386241E+02  0.00000000000E+00 0.  1.
         11    1    3    3    0    0  0.30538996143E+02 -0.71506101041E+01  0.36114850519E+01  0.31572208266E+02  0.51100000000E-03 0. -1.
        -11    1    3    3    0    0  0.12216535995E+02 -0.39027682189E+01 -0.61813133819E+00  0.12839682165E+02  0.51100000000E-03 0.  1.
        -12    1    3    3    0    0 -0.24715375195E+02  0.10584287669E+02 -0.79943769164E+01  0.28049723328E+02  0.00000000000E+00 0.  1.
</event>
<event>
 7    1  0.2851651E-013  0.7246152E+02  0.7816164E-02  0.1226708E+00
        -11   -1    0    0    0    0  0.00000000000E+00  0.00000000000E+00  0.45593999997E+02  0.45594000000E+02  0.51100000000E-03 0. -1.
         11   -1    0    0    0    0 -0.00000000000E+00 -0.00000000000E+00 -0.45593999997E+02  0.45594000000E+02  0.51100000000E-03 0.  1.
    9900012    2    1    2    0    0 -0.44526771535E+01 -0.14362253415E+02  0.11161553920E+02  0.72461522945E+02  0.69999938318E+02 0.  0.
        -12    1    1    2    0    0  0.44526771535E+01  0.14362253415E+02 -0.11161553920E+02  0.18726477055E+02  0.00000000000E+00 0.  1.
         11    1    3    3    0    0 -0.25459918243E+01  0.12716078165E+02 -0.17911691651E+01  0.13091562378E+02  0.51100000000E-03 0.  1.
        -11    1    3    3    0    0  0.18153715139E+02 -0.27003814581E+02 -0.44136971065E+01  0.32836627380E+02  0.51100000000E-03 0. -1.
         12    1    3    3    0    0 -0.20060400468E+02 -0.74516999239E-01  0.17366420192E+02  0.26533333187E+02  0.00000000000E+00 0. -1.
</event>
<event>
 7    1  0.2851651E-013  0.7246160E+02  0.7816164E-02  0.1226708E+00
        -11   -1    0    0    0    0  0.00000000000E+00  0.00000000000E+00  0.45593999997E+02  0.45594000000E+02  0.51100000000E-03 0.  1.
         11   -1    0    0    0    0 -0.00000000000E+00 -0.00000000000E+00 -0.45593999997E+02  0.45594000000E+02  0.51100000000E-03 0. -1.
    9900012    2    1    2    0    0 -0.12792735833E+02 -0.12529402182E+02 -0.54807136007E+01  0.72461595361E+02  0.70000032654E+02 0.  0.
        -12    1    1    2    0    0  0.12792735833E+02  0.12529402182E+02  0.54807136007E+01  0.18726404639E+02  0.00000000000E+00 0.  1.
         11    1    3    3    0    0 -0.11426808556E+02  0.22227885282E+02 -0.80825913863E+00  0.25006081680E+02  0.51100000000E-03 0. -1.
        -11    1    3    3    0    0 -0.40059839645E+01  0.46872345397E+00  0.87751091126E+01  0.96576471979E+01  0.51100000000E-03 0.  1.
        -12    1    3    3    0    0  0.26400566877E+01 -0.35226010919E+02 -0.13447563575E+02  0.37797866483E+02  0.00000000000E+00 0.  1.
</event>
<event>
 7    1  0.2851651E-013  0.7246157E+02  0.7816164E-02  0.1226708E+00
        -11   -1    0    0    0    0  0.00000000000E+00  0.00000000000E+00  0.45593999997E+02  0.45594000000E+02  0.51100000000E-03 0.  1.
         11   -1    0    0    0    0 -0.00000000000E+00 -0.00000000000E+00 -0.45593999997E+02  0.45594000000E+02  0.51100000000E-03 0. -1.
    9900012    2    1    2    0    0  0.48862989657E+01  0.15439457287E+02 -0.94035250877E+01  0.72461573673E+02  0.70000004401E+02 0.  0.
        -12    1    1    2    0    0 -0.48862989657E+01 -0.15439457287E+02  0.94035250877E+01  0.18726426327E+02  0.00000000000E+00 0.  1.
         11    1    3    3    0    0  0.80452580107E+01  0.49926292709E+01  0.39455583567E+01  0.10257677832E+02  0.51100000000E-03 0. -1.
        -11    1    3    3    0    0 -0.26197600415E+01  0.35041354294E+02 -0.13388731260E+02  0.37603427749E+02  0.51100000000E-03 0.  1.
         12    1    3    3    0    0 -0.53919900351E+00 -0.24594526278E+02  0.39647815656E-01  0.24600468092E+02  0.00000000000E+00 0. -1.
</event>
<event>
 7    1  0.2851651E-013  0.7246160E+02  0.7816164E-02  0.1226708E+00
        -11   -1    0    0    0    0  0.00000000000E+00  0.00000000000E+00  0.45593999997E+02  0.45594000000E+02  0.51100000000E-03 0. -1.
         11   -1    0    0    0    0 -0.00000000000E+00 -0.00000000000E+00 -0.45593999997E+02  0.45594000000E+02  0.51100000000E-03 0.  1.
    9900012    2    1    2    0    0  0.89850660057E+01  0.95171624550E+01  0.13392921779E+02  0.72461597620E+02  0.70000035597E+02 0.  0.
        -12    1    1    2    0    0 -0.89850660057E+01 -0.95171624550E+01 -0.13392921779E+02  0.18726402380E+02  0.00000000000E+00 0.  1.
         11    1    3    3    0    0 -0.59669805525E+01 -0.34195769123E+01  0.13803317144E+01  0.70145334183E+01  0.51100000000E-03 0. -1.
        -11    1    3    3    0    0  0.14742065753E+01 -0.23473392104E+02  0.12467560220E+02  0.26619794890E+02  0.51100000000E-03 0.  1.
        -12    1    3    3    0    0  0.13477839983E+02  0.36410131471E+02 -0.45497015509E+00  0.38827269312E+02  0.00000000000E+00 0.  1.
</event>
<event>
 7    1  0.2851651E-013  0.7246156E+02  0.7816164E-02  0.1226708E+00
        -11   -1    0    0    0    0  0.00000000000E+00  0.00000000000E+00  0.45593999997E+02  0.45594000000E+02  0.51100000000E-03 0. -1.
         11   -1    0    0    0    0 -0.00000000000E+00 -0.00000000000E+00 -0.45593999997E+02  0.45594000000E+02  0.51100000000E-03 0.  1.
    9900012    2    1    2    0    0 -0.62568412153E+01  0.17090870805E+02 -0.44083798466E+01  0.72461555069E+02  0.69999980167E+02 0.  0.
        -12    1    1    2    0    0  0.62568412153E+01 -0.17090870805E+02  0.44083798466E+01  0.18726444931E+02  0.00000000000E+00 0.  1.
         11    1    3    3    0    0 -0.27527361346E+01  0.24564119161E+02 -0.14734484391E+02  0.28776353781E+02  0.51100000000E-03 0. -1.
        -11    1    3    3    0    0 -0.15547927957E+02  0.18359311699E+01 -0.97853868229E+01  0.18462461985E+02  0.51100000000E-03 0.  1.
         12    1    3    3    0    0  0.12043822877E+02 -0.93091795258E+01  0.20111491367E+02  0.25222739303E+02  0.00000000000E+00 0. -1.
</event>
<event>
 7    1  0.2851651E-013  0.7246166E+02  0.7816164E-02  0.1226708E+00
        -11   -1    0    0    0    0  0.00000000000E+00  0.00000000000E+00  0.45593999997E+02  0.45594000000E+02  0.51100000000E-03 0. -1.
         11   -1    0    0    0    0 -0.00000000000E+00 -0.00000000000E+00 -0.45593999997E+02  0.45594000000E+02  0.51100000000E-03 0.  1.
    9900012    2    1    2    0    0 -0.14301831767E+02 -0.38317143799E+01  0.11465230696E+02  0.72461656473E+02  0.70000112263E+02 0.  0.
        -12    1    1    2    0    0  0.14301831767E+02  0.38317143799E+01 -0.11465230696E+02  0.18726343527E+02  0.00000000000E+00 0.  1.
         11    1    3    3    0    0  0.12824045930E+02 -0.76369687993E+01  0.26335611246E+02  0.30271172201E+02  0.51100000000E-03 0. -1.
        -11    1    3    3    0    0 -0.42950845267E+01  0.13667722651E+02 -0.79082534494E+01  0.16364439081E+02  0.51100000000E-03 0.  1.
        -12    1    3    3    0    0 -0.22830793170E+02 -0.98624682320E+01 -0.69621271003E+01  0.25826045190E+02  0.00000000000E+00 0.  1.
</event>
<event>
 7    1  0.2851651E-013  0.7246155E+02  0.7816164E-02  0.1226708E+00
        -11   -1    0    0    0    0  0.00000000000E+00  0.00000000000E+00  0.45593999997E+02  0.45594000000E+02  0.51100000000E-03 0. -1.
         11   -1    0    0    0    0 -0.00000000000E+00 -0.00000000000E+00 -0.45593999997E+02  0.45594000000E+02  0.51100000000E-03 0.  1.
    9900012    2    1    2    0    0 -0.16310905236E+02 -0.21216853406E+01  0.89516941485E+01  0.72461547949E+02  0.69999970891E+02 0.  0.
        -12    1    1    2    0    0  0.16310905236E+02  0.21216853406E+01 -0.89516941485E+01  0.18726452051E+02  0.00000000000E+00 0.  1.
         11    1    3    3    0    0 -0.29607452562E+02  0.11716139714E+02  0.15832626190E+02  0.35560388487E+02  0.51100000000E-03 0. -1.
        -11    1    3    3    0    0 -0.46629965180E+01 -0.55321270027E+01  0.89869103993E+01  0.11537440119E+02  0.51100000000E-03 0.  1.
        -12    1    3    3    0    0  0.17959543844E+02 -0.83056980514E+01 -0.15867842441E+02  0.25363719343E+02  0.00000000000E+00 0.  1.
</event>
<event>
 7    1  0.2851651E-013  0.7246152E+02  0.7816164E-02  0.1226708E+00
        -11   -1    0    0    0    0  0.00000000000E+00  0.00000000000E+00  0.45593999997E+02  0.45594000000E+02  0.51100000000E-03 0.  1.
         11   -1    0    0    0    0 -0.00000000000E+00 -0.00000000000E+00 -0.45593999997E+02  0.45594000000E+02  0.51100000000E-03 0. -1.
    9900012    2    1    2    0    0  0.31975710335E+01 -0.11030915192E+02 -0.14791058597E+02  0.72461522357E+02  0.69999937553E+02 0.  0.
        -12    1    1    2    0    0 -0.31975710335E+01  0.11030915192E+02  0.14791058597E+02  0.18726477643E+02  0.00000000000E+00 0.  1.
         11    1    3    3    0    0  0.31650366687E+02  0.41240925231E+01 -0.12690640305E+02  0.34348307123E+02  0.51100000000E-03 0. -1.
        -11    1    3    3    0    0  0.72751383437E+00  0.32072696264E+01  0.11483865781E+01  0.34834819978E+01  0.51100000000E-03 0.  1.
        -12    1    3    3    0    0 -0.29180309488E+02 -0.18362277341E+02 -0.32488048697E+01  0.34629733237E+02  0.00000000000E+00 0.  1.
</event>
<event>
 7    1  0.2851651E-013  0.7246140E+02  0.7816164E-02  0.1226708E+00
        -11   -1    0    0    0    0  0.00000000000E+00  0.00000000000E+00  0.45593999997E+02  0.45594000000E+02  0.51100000000E-03 0.  1.
         11   -1    0    0    0    0 -0.00000000000E+00 -0.00000000000E+00 -0.45593999997E+02  0.45594000000E+02  0.51100000000E-03 0. -1.
    9900012    2    1    2    0    0  0.69097812680E+00 -0.50231473015E+01 -0.18027093583E+02  0.72461399597E+02  0.69999777635E+02 0.  0.
        -12    1    1    2    0    0 -0.69097812680E+00  0.50231473015E+01  0.18027093583E+02  0.18726600403E+02  0.00000000000E+00 0.  1.
         11    1    3    3    0    0 -0.54203898461E+01 -0.25902694130E+02 -0.12421814116E+02  0.29234083797E+02  0.51100000000E-03 0. -1.
        -11    1    3    3    0    0  0.83129735123E+01 -0.62682948851E+01  0.76659306035E+01  0.12929174052E+02  0.51100000000E-03 0.  1.
         12    1    3    3    0    0 -0.22016055394E+01  0.27147841713E+02 -0.13271210071E+02  0.30298141748E+02  0.00000000000E+00 0. -1.
</event>
<event>
 7    1  0.2851651E-013  0.7246154E+02  0.7816164E-02  0.1226708E+00
        -11   -1    0    0    0    0  0.00000000000E+00  0.00000000000E+00  0.45593999997E+02  0.45594000000E+02  0.51100000000E-03 0.  1.
         11   -1    0    0    0    0 -0.00000000000E+00 -0.00000000000E+00 -0.45593999997E+02  0.45594000000E+02  0.51100000000E-03 0. -1.
    9900012    2    1    2    0    0 -0.77670504372E+01 -0.15582288980E+02 -0.68953121557E+01  0.72461544594E+02  0.69999966520E+02 0.  0.
        -12    1    1    2    0    0  0.77670504372E+01  0.15582288980E+02  0.68953121557E+01  0.18726455406E+02  0.00000000000E+00 0.  1.
         11    1    3    3    0    0  0.21973099375E+02 -0.15468844111E+01  0.37479424952E+00  0.22030669952E+02  0.51100000000E-03 0. -1.
        -11    1    3    3    0    0 -0.84443852249E+01  0.15326231966E+01  0.14083159910E+02  0.16492179025E+02  0.51100000000E-03 0.  1.
         12    1    3    3    0    0 -0.21295764587E+02 -0.15568027766E+02 -0.21353266315E+02  0.33938695617E+02  0.00000000000E+00 0. -1.
</event>
<event>
 7    1  0.2851651E-013  0.7246156E+02  0.7816164E-02  0.1226708E+00
        -11   -1    0    0    0    0  0.00000000000E+00  0.00000000000E+00  0.45593999997E+02  0.45594000000E+02  0.51100000000E-03 0.  1.
         11   -1    0    0    0    0 -0.00000000000E+00 -0.00000000000E+00 -0.45593999997E+02  0.45594000000E+02  0.51100000000E-03 0. -1.
    9900012    2    1    2    0    0 -0.50721436795E+01 -0.18026346766E+02 -0.61535150508E-01  0.72461558645E+02  0.69999984824E+02 0.  0.
        -12    1    1    2    0    0  0.50721436795E+01  0.18026346766E+02  0.61535150508E-01  0.18726441355E+02  0.00000000000E+00 0.  1.
         11    1    3    3    0    0 -0.31288236930E+01 -0.15249300086E+00  0.25194018965E+01  0.40199723873E+01  0.51100000000E-03 0. -1.
        -11    1    3    3    0    0 -0.33602925935E+02 -0.69352876124E+01  0.31630844813E+01  0.34456638683E+02  0.51100000000E-03 0.  1.
         12    1    3    3    0    0  0.31659605949E+02 -0.10938566153E+02 -0.57440215283E+01  0.33984947574E+02  0.00000000000E+00 0. -1.
</event>
<event>
 7    1  0.2851651E-013  0.7246148E+02  0.7816164E-02  0.1226708E+00
        -11   -1    0    0    0    0  0.00000000000E+00  0.00000000000E+00  0.45593999997E+02  0.45594000000E+02  0.51100000000E-03 0.  1.
         11   -1    0    0    0    0 -0.00000000000E+00 -0.00000000000E+00 -0.45593999997E+02  0.45594000000E+02  0.51100000000E-03 0. -1.
    9900012    2    1    2    0    0 -0.18693041251E+01 -0.72732412934E+01 -0.17154826230E+02  0.72461484045E+02  0.69999887644E+02 0.  0.
        -12    1    1    2    0    0  0.18693041251E+01  0.72732412934E+01  0.17154826230E+02  0.18726515955E+02  0.00000000000E+00 0.  1.
         11    1    3    3    0    0 -0.15124055284E+02  0.19723313525E+02 -0.23600210753E+02  0.34274131535E+02  0.51100000000E-03 0. -1.
        -11    1    3    3    0    0  0.52646102973E+01 -0.50456854476E+01  0.12123236420E+02  0.14147364588E+02  0.51100000000E-03 0.  1.
        -12    1    3    3    0    0  0.79901408613E+01 -0.21950869371E+02 -0.56778518975E+01  0.24039987922E+02  0.00000000000E+00 0.  1.
</event>
<event>
 7    1  0.2851651E-013  0.7246155E+02  0.7816164E-02  0.1226708E+00
        -11   -1    0    0    0    0  0.00000000000E+00  0.00000000000E+00  0.45593999997E+02  0.45594000000E+02  0.51100000000E-03 0.  1.
         11   -1    0    0    0    0 -0.00000000000E+00 -0.00000000000E+00 -0.45593999997E+02  0.45594000000E+02  0.51100000000E-03 0. -1.
    9900012    2    1    2    0    0  0.12447409105E+02 -0.59199833621E+01 -0.12676583261E+02  0.72461549199E+02  0.69999972519E+02 0.  0.
        -12    1    1    2    0    0 -0.12447409105E+02  0.59199833621E+01  0.12676583261E+02  0.18726450801E+02  0.00000000000E+00 0.  1.
         11    1    3    3    0    0 -0.64364753799E+01  0.12288221812E+01 -0.18359647091E+02  0.19493969858E+02  0.51100000000E-03 0. -1.
        -11    1    3    3    0    0  0.12025223521E+02  0.13580034637E+02 -0.14509054329E+02  0.23227914225E+02  0.51100000000E-03 0.  1.
        -12    1    3    3    0    0  0.68586609643E+01 -0.20728840180E+02  0.20192118159E+02  0.29739665115E+02  0.00000000000E+00 0.  1.
</event>
<event>
 7    1  0.2851651E-013  0.7246156E+02  0.7816164E-02  0.1226708E+00
        -11   -1    0    0    0    0  0.00000000000E+00  0.00000000000E+00  0.45593999997E+02  0.45594000000E+02  0.51100000000E-03 0.  1.
         11   -1    0    0    0    0 -0.00000000000E+00 -0.00000000000E+00 -0.45593999997E+02  0.45594000000E+02  0.51100000000E-03 0. -1.
    9900012    2    1    2    0    0 -0.10709939097E+02 -0.14073638209E+02 -0.61570539875E+01  0.72461564095E+02  0.69999991924E+02 0.  0.
        -12    1    1    2    0    0  0.10709939097E+02  0.14073638209E+02  0.61570539875E+01  0.18726435905E+02  0.00000000000E+00 0.  1.
         11    1    3    3    0    0 -0.27511180240E+02 -0.21185185386E+02  0.15775981561E+01  0.34758681422E+02  0.51100000000E-03 0. -1.
        -11    1    3    3    0    0  0.80545884493E+01 -0.52076468359E+00 -0.19542951410E+02  0.21144137273E+02  0.51100000000E-03 0.  1.
        -12    1    3    3    0    0  0.87466526933E+01  0.76323118606E+01  0.11808299266E+02  0.16558745400E+02  0.00000000000E+00 0.  1.
</event>
<event>
 7    1  0.2851651E-013  0.7246156E+02  0.7816164E-02  0.1226708E+00
        -11   -1    0    0    0    0  0.00000000000E+00  0.00000000000E+00  0.45593999997E+02  0.45594000000E+02  0.51100000000E-03 0.  1.
         11   -1    0    0    0    0 -0.00000000000E+00 -0.00000000000E+00 -0.45593999997E+02  0.45594000000E+02  0.51100000000E-03 0. -1.
    9900012    2    1    2    0    0  0.98492424423E+01 -0.15250425069E+02 -0.45930832914E+01  0.72461562656E+02  0.69999990050E+02 0.  0.
        -12    1    1    2    0    0 -0.98492424423E+01  0.15250425069E+02  0.45930832914E+01  0.18726437344E+02  0.00000000000E+00 0.  1.
         11    1    3    3    0    0 -0.15198434561E+02  0.87906193686E+00  0.85462140513E+01  0.17458606413E+02  0.51100000000E-03 0. -1.
        -11    1    3    3    0    0  0.69261731433E+01  0.82371630369E+01  0.11608186868E+02  0.15829489314E+02  0.51100000000E-03 0.  1.
         12    1    3    3    0    0  0.18121503860E+02 -0.24366650043E+02 -0.24747484211E+02  0.39173466929E+02  0.00000000000E+00 0. -1.
</event>
<event>
 7    1  0.2851651E-013  0.7246156E+02  0.7816164E-02  0.1226708E+00
        -11   -1    0    0    0    0  0.00000000000E+00  0.00000000000E+00  0.45593999997E+02  0.45594000000E+02  0.51100000000E-03 0.  1.
         11   -1    0    0    0    0 -0.00000000000E+00 -0.00000000000E+00 -0.45593999997E+02  0.45594000000E+02  0.51100000000E-03 0. -1.
    9900012    2    1    2    0    0  0.66160455415E+01 -0.10946969784E+02 -0.13677400132E+02  0.72461561993E+02  0.69999989186E+02 0.  0.
        -12    1    1    2    0    0 -0.66160455415E+01  0.10946969784E+02  0.13677400132E+02  0.18726438007E+02  0.00000000000E+00 0.  1.
         11    1    3    3    0    0 -0.97207490249E+01 -0.93102262116E+01  0.19773891853E+02  0.23920285805E+02  0.51100000000E-03 0. -1.
        -11    1    3    3    0    0 -0.49556293653E+01 -0.72158073438E+01 -0.31344856633E+00  0.87592458747E+01  0.51100000000E-03 0.  1.
         12    1    3    3    0    0  0.21292423932E+02  0.55790637717E+01 -0.33137843418E+02  0.39782030314E+02  0.00000000000E+00 0. -1.
</event>
<event>
 7    1  0.2851651E-013  0.7246154E+02  0.7816164E-02  0.1226708E+00
        -11   -1    0    0    0    0  0.00000000000E+00  0.00000000000E+00  0.45593999997E+02  0.45594000000E+02  0.51100000000E-03 0. -1.
         11   -1    0    0    0    0 -0.00000000000E+00 -0.00000000000E+00 -0.45593999997E+02  0.45594000000E+02  0.51100000000E-03 0.  1.
    9900012    2    1    2    0    0 -0.58890084231E+01  0.13172074031E+02  0.11937179534E+02  0.72461542521E+02  0.69999963820E+02 0.  0.
        -12    1    1    2    0    0  0.58890084231E+01 -0.13172074031E+02 -0.11937179534E+02  0.18726457479E+02  0.00000000000E+00 0.  1.
         11    1    3    3    0    0 -0.16482760313E+02  0.65688884685E+01  0.41957985411E+01  0.18232838750E+02  0.51100000000E-03 0. -1.
        -11    1    3    3    0    0 -0.17671442015E+02  0.15678765384E+02  0.31017980572E+00  0.23626251472E+02  0.51100000000E-03 0.  1.
         12    1    3    3    0    0  0.28265193905E+02 -0.90755798219E+01  0.74312011874E+01  0.30602452298E+02  0.00000000000E+00 0. -1.
</event>
<event>
 7    1  0.2851651E-013  0.7246158E+02  0.7816164E-02  0.1226708E+00
        -11   -1    0    0    0    0  0.00000000000E+00  0.00000000000E+00  0.45593999997E+02  0.45594000000E+02  0.51100000000E-03 0. -1.
         11   -1    0    0    0    0 -0.00000000000E+00 -0.00000000000E+00 -0.45593999997E+02  0.45594000000E+02  0.51100000000E-03 0.  1.
    9900012    2    1    2    0    0 -0.18316157023E+02  0.25783601586E+01  0.29238946379E+01  0.72461582589E+02  0.70000016016E+02 0.  0.
        -12    1    1    2    0    0  0.18316157023E+02 -0.25783601586E+01 -0.29238946379E+01  0.18726417411E+02  0.00000000000E+00 0.  1.
         11    1    3    3    0    0 -0.13062016619E+02  0.20190204586E+02  0.11275816782E+02  0.26559455637E+02  0.51100000000E-03 0. -1.
        -11    1    3    3    0    0  0.11224517658E+02 -0.10721303719E+02  0.11409990584E+02  0.19264579816E+02  0.51100000000E-03 0.  1.
        -12    1    3    3    0    0 -0.16478658062E+02 -0.68905407076E+01 -0.19761912728E+02  0.26637547136E+02  0.00000000000E+00 0.  1.
</event>
<event>
 7    1  0.2851651E-013  0.7246156E+02  0.7816164E-02  0.1226708E+00
        -11   -1    0    0    0    0  0.00000000000E+00  0.00000000000E+00  0.45593999997E+02  0.45594000000E+02  0.51100000000E-03 0. -1.
         11   -1    0    0    0    0 -0.00000000000E+00 -0.00000000000E+00 -0.45593999997E+02  0.45594000000E+02  0.51100000000E-03 0.  1.
    9900012    2    1    2    0    0 -0.99743324738E+01 -0.15845166934E+02 -0.35041764058E+00  0.72461563714E+02  0.69999991427E+02 0.  0.
        -12    1    1    2    0    0  0.99743324738E+01  0.15845166934E+02  0.35041764058E+00  0.18726436286E+02  0.00000000000E+00 0.  1.
         11    1    3    3    0    0 -0.21102553706E+02 -0.12499102734E+02  0.15490266423E+02  0.29008510754E+02  0.51100000000E-03 0. -1.
        -11    1    3    3    0    0 -0.10736177279E+02  0.43548940038E+01  0.46788497018E+01  0.12494888520E+02  0.51100000000E-03 0.  1.
        -12    1    3    3    0    0  0.21864398511E+02 -0.77009582041E+01 -0.20519533765E+02  0.30958164439E+02  0.00000000000E+00 0.  1.
</event>
<event>
 7    1  0.2851651E-013  0.7246157E+02  0.7816164E-02  0.1226708E+00
        -11   -1    0    0    0    0  0.00000000000E+00  0.00000000000E+00  0.45593999997E+02  0.45594000000E+02  0.51100000000E-03 0. -1.
         11   -1    0    0    0    0 -0.00000000000E+00 -0.00000000000E+00 -0.45593999997E+02  0.45594000000E+02  0.51100000000E-03 0.  1.
    9900012    2    1    2    0    0  0.16940953989E+01 -0.12376123178E+01  0.18608535317E+02  0.72461568677E+02  0.69999997893E+02 0.  0.
        -12    1    1    2    0    0 -0.16940953989E+01  0.12376123178E+01 -0.18608535317E+02  0.18726431323E+02  0.00000000000E+00 0.  1.
         11    1    3    3    0    0 -0.55819085978E+01  0.11736041261E+02  0.36380023197E+02  0.38631573306E+02  0.51100000000E-03 0. -1.
        -11    1    3    3    0    0  0.20947271221E+01 -0.57313980441E+01  0.59312149723E+01  0.85097659524E+01  0.51100000000E-03 0.  1.
        -12    1    3    3    0    0  0.51812768746E+01 -0.72422555343E+01 -0.23702702852E+02  0.25320229418E+02  0.00000000000E+00 0.  1.
</event>
<event>
 7    1  0.2851651E-013  0.7246154E+02  0.7816164E-02  0.1226708E+00
        -11   -1    0    0    0    0  0.00000000000E+00  0.00000000000E+00  0.45593999997E+02  0.45594000000E+02  0.51100000000E-03 0.  1.
         11   -1    0    0    0    0 -0.00000000000E+00 -0.00000000000E+00 -0.45593999997E+02  0.45594000000E+02  0.51100000000E-03 0. -1.
    9900012    2    1    2    0    0 -0.57851966540E+01  0.17755906647E+02 -0.13926764758E+01  0.72461540939E+02  0.69999961759E+02 0.  0.
        -12    1    1    2    0    0  0.57851966540E+01 -0.17755906647E+02  0.13926764758E+01  0.18726459061E+02  0.00000000000E+00 0.  1.
         11    1    3    3    0    0 -0.78879016600E+00 -0.78887189242E+01 -0.27178307744E+01  0.83809713381E+01  0.51100000000E-03 0. -1.
        -11    1    3    3    0    0  0.10114463476E+02 -0.14650493256E+02  0.96462722848E+01  0.20248207163E+02  0.51100000000E-03 0.  1.
         12    1    3    3    0    0 -0.15110869964E+02  0.40295118827E+02 -0.83211179862E+01  0.43832362438E+02  0.00000000000E+00 0. -1.
</event>
<event>
 7    1  0.2851651E-013  0.7246160E+02  0.7816164E-02  0.1226708E+00
        -11   -1    0    0    0    0  0.00000000000E+00  0.00000000000E+00  0.45593999997E+02  0.45594000000E+02  0.51100000000E-03 0.  1.
         11   -1    0    0    0    0 -0.00000000000E+00 -0.00000000000E+00 -0.45593999997E+02  0.45594000000E+02  0.51100000000E-03 0. -1.
    9900012    2    1    2    0    0  0.15757476995E+02 -0.80071394743E+01 -0.61859298924E+01  0.72461599053E+02  0.70000037463E+02 0.  0.
        -12    1    1    2    0    0 -0.15757476995E+02  0.80071394743E+01  0.61859298924E+01  0.18726400947E+02  0.00000000000E+00 0.  1.
         11    1    3    3    0    0  0.16388478898E+02  0.63268768003E+01 -0.27930706043E+02  0.32995999014E+02  0.51100000000E-03 0. -1.
        -11    1    3    3    0    0  0.11358112019E+02 -0.16174296250E+02  0.85244522462E+01  0.21523960003E+02  0.51100000000E-03 0.  1.
        -12    1    3    3    0    0 -0.11989113923E+02  0.18402799758E+01  0.13220323904E+02  0.17941640036E+02  0.00000000000E+00 0.  1.
</event>
<event>
 7    1  0.2851651E-013  0.7246146E+02  0.7816164E-02  0.1226708E+00
        -11   -1    0    0    0    0  0.00000000000E+00  0.00000000000E+00  0.45593999997E+02  0.45594000000E+02  0.51100000000E-03 0.  1.
         11   -1    0    0    0    0 -0.00000000000E+00 -0.00000000000E+00 -0.45593999997E+02  0.45594000000E+02  0.51100000000E-03 0. -1.
    9900012    2    1    2    0    0  0.13048513717E+02  0.11025152461E+02 -0.76723908210E+01  0.72461460599E+02  0.69999857102E+02 0.  0.
        -12    1    1    2    0    0 -0.13048513717E+02 -0.11025152461E+02  0.76723908210E+01  0.18726539401E+02  0.00000000000E+00 0.  1.
         11    1    3    3    0    0 -0.13049539426E+02  0.10855965133E+02 -0.18905957127E+02  0.25408220586E+02  0.51100000000E-03 0. -1.
        -11    1    3    3    0    0  0.90282808611E+01  0.75737484077E+01 -0.12312314657E+02  0.17043022406E+02  0.51100000000E-03 0.  1.
        -12    1    3    3    0    0  0.17069772282E+02 -0.74045610793E+01  0.23545880963E+02  0.30010217608E+02  0.00000000000E+00 0.  1.
</event>
<event>
 7    1  0.2851651E-013  0.7246154E+02  0.7816164E-02  0.1226708E+00
        -11   -1    0    0    0    0  0.00000000000E+00  0.00000000000E+00  0.45593999997E+02  0.45594000000E+02  0.51100000000E-03 0.  1.
         11   -1    0    0    0    0 -0.00000000000E+00 -0.00000000000E+00 -0.45593999997E+02  0.45594000000E+02  0.51100000000E-03 0. -1.
    9900012    2    1    2    0    0  0.14535228229E+02  0.72286584034E+01 -0.93356229303E+01  0.72461542313E+02  0.69999963550E+02 0.  0.
        -12    1    1    2    0    0 -0.14535228229E+02 -0.72286584034E+01  0.93356229303E+01  0.18726457687E+02  0.00000000000E+00 0.  1.
         11    1    3    3    0    0  0.55219794684E+01  0.28042016818E+01  0.25009871363E+02  0.25765276443E+02  0.51100000000E-03 0.  1.
        -11    1    3    3    0    0  0.19517866639E+02  0.59817634845E+01 -0.18069927464E+02  0.27262628108E+02  0.51100000000E-03 0. -1.
        -12    1    3    3    0    0 -0.10504617878E+02 -0.15573067629E+01 -0.16275566829E+02  0.19433637763E+02  0.00000000000E+00 0.  1.
</event>
<event>
 7    1  0.2851651E-013  0.7246156E+02  0.7816164E-02  0.1226708E+00
        -11   -1    0    0    0    0  0.00000000000E+00  0.00000000000E+00  0.45593999997E+02  0.45594000000E+02  0.51100000000E-03 0.  1.
         11   -1    0    0    0    0 -0.00000000000E+00 -0.00000000000E+00 -0.45593999997E+02  0.45594000000E+02  0.51100000000E-03 0. -1.
    9900012    2    1    2    0    0  0.11362938787E+02 -0.60008129511E+01 -0.13621796306E+02  0.72461562310E+02  0.69999989599E+02 0.  0.
        -12    1    1    2    0    0 -0.11362938787E+02  0.60008129511E+01  0.13621796306E+02  0.18726437690E+02  0.00000000000E+00 0.  1.
         11    1    3    3    0    0  0.12777495898E+02 -0.14699577350E+02 -0.14238619836E+01  0.19528680419E+02  0.51100000000E-03 0. -1.
        -11    1    3    3    0    0  0.13592898215E+02 -0.31311532808E+01  0.14487326283E+02  0.20111032441E+02  0.51100000000E-03 0.  1.
         12    1    3    3    0    0 -0.15007455326E+02  0.11829917680E+02 -0.26685260606E+02  0.32821849450E+02  0.00000000000E+00 0. -1.
</event>
<event>
 7    1  0.2851651E-013  0.7246154E+02  0.7816164E-02  0.1226708E+00
        -11   -1    0    0    0    0  0.00000000000E+00  0.00000000000E+00  0.45593999997E+02  0.45594000000E+02  0.51100000000E-03 0.  1.
         11   -1    0    0    0    0 -0.00000000000E+00 -0.00000000000E+00 -0.45593999997E+02  0.45594000000E+02  0.51100000000E-03 0. -1.
    9900012    2    1    2    0    0  0.36790326093E+01 -0.18276434211E+02  0.17654647823E+01  0.72461542933E+02  0.69999964356E+02 0.  0.
        -12    1    1    2    0    0 -0.36790326093E+01  0.18276434211E+02 -0.17654647823E+01  0.18726457067E+02  0.00000000000E+00 0.  1.
         11    1    3    3    0    0  0.11521273916E+02 -0.78215862905E+01 -0.17203260143E+01  0.14031268175E+02  0.51100000000E-03 0. -1.
        -11    1    3    3    0    0  0.19448696611E+02 -0.33207840556E+01  0.17999933876E+02  0.26707246702E+02  0.51100000000E-03 0.  1.
         12    1    3    3    0    0 -0.27290937918E+02 -0.71340638644E+01 -0.14514143079E+02  0.31723028055E+02  0.00000000000E+00 0. -1.
</event>
<event>
 7    1  0.2851651E-013  0.7246164E+02  0.7816164E-02  0.1226708E+00
        -11   -1    0    0    0    0  0.00000000000E+00  0.00000000000E+00  0.45593999997E+02  0.45594000000E+02  0.51100000000E-03 0. -1.
         11   -1    0    0    0    0 -0.00000000000E+00 -0.00000000000E+00 -0.45593999997E+02  0.45594000000E+02  0.51100000000E-03 0.  1.
    9900012    2    1    2    0    0 -0.56706274228E+01 -0.17844747160E+02  0.29229400313E+00  0.72461642843E+02  0.70000094508E+02 0.  0.
        -12    1    1    2    0    0  0.56706274228E+01  0.17844747160E+02 -0.29229400313E+00  0.18726357157E+02  0.00000000000E+00 0.  1.
         11    1    3    3    0    0 -0.77324883426E+01 -0.32371193070E+02 -0.99034846498E+01  0.34724120223E+02  0.51100000000E-03 0. -1.
        -11    1    3    3    0    0  0.19465142729E+01 -0.86885861780E+01 -0.47850370703E+01  0.10108265312E+02  0.51100000000E-03 0.  1.
        -12    1    3    3    0    0  0.11534664684E+00  0.23215032088E+02  0.14980815723E+02  0.27629257309E+02  0.00000000000E+00 0.  1.
</event>
<event>
 7    1  0.2851651E-013  0.7246159E+02  0.7816164E-02  0.1226708E+00
        -11   -1    0    0    0    0  0.00000000000E+00  0.00000000000E+00  0.45593999997E+02  0.45594000000E+02  0.51100000000E-03 0. -1.
         11   -1    0    0    0    0 -0.00000000000E+00 -0.00000000000E+00 -0.45593999997E+02  0.45594000000E+02  0.51100000000E-03 0.  1.
    9900012    2    1    2    0    0  0.43153946864E+01 -0.14716324496E+01  0.18162880558E+02  0.72461586474E+02  0.70000021078E+02 0.  0.
        -12    1    1    2    0    0 -0.43153946864E+01  0.14716324496E+01 -0.18162880558E+02  0.18726413526E+02  0.00000000000E+00 0.  1.
         11    1    3    3    0    0  0.10782473956E+02  0.12071114211E+02  0.21916352049E+02  0.27245183617E+02  0.51100000000E-03 0. -1.
        -11    1    3    3    0    0 -0.88835906333E+01  0.14296189547E+02  0.10444653630E+01  0.16863870441E+02  0.51100000000E-03 0.  1.
         12    1    3    3    0    0  0.24165113634E+01 -0.27838936208E+02 -0.47979368544E+01  0.28352532416E+02  0.00000000000E+00 0. -1.
</event>
<event>
 7    1  0.2851651E-013  0.7246157E+02  0.7816164E-02  0.1226708E+00
        -11   -1    0    0    0    0  0.00000000000E+00  0.00000000000E+00  0.45593999997E+02  0.45594000000E+02  0.51100000000E-03 0.  1.
         11   -1    0    0    0    0 -0.00000000000E+00 -0.00000000000E+00 -0.45593999997E+02  0.45594000000E+02  0.51100000000E-03 0. -1.
    9900012    2    1    2    0    0 -0.11121308448E+01  0.29549062229E+01 -0.18458360041E+02  0.72461565176E+02  0.69999993332E+02 0.  0.
        -12    1    1    2    0    0  0.11121308448E+01 -0.29549062229E+01  0.18458360041E+02  0.18726434824E+02  0.00000000000E+00 0.  1.
         11    1    3    3    0    0 -0.13505119342E+02 -0.53829428756E+01 -0.53765318950E+01  0.15500690886E+02  0.51100000000E-03 0. -1.
        -11    1    3    3    0    0  0.18727356059E+02 -0.19193666379E+02 -0.30833386299E+01  0.26992918913E+02  0.51100000000E-03 0.  1.
         12    1    3    3    0    0 -0.63343675618E+01  0.27531515478E+02 -0.99984895166E+01  0.29967955378E+02  0.00000000000E+00 0. -1.
</event>
<event>
 7    1  0.2851651E-013  0.7246162E+02  0.7816164E-02  0.1226708E+00
        -11   -1    0    0    0    0  0.00000000000E+00  0.00000000000E+00  0.45593999997E+02  0.45594000000E+02  0.51100000000E-03 0.  1.
         11   -1    0    0    0    0 -0.00000000000E+00 -0.00000000000E+00 -0.45593999997E+02  0.45594000000E+02  0.51100000000E-03 0. -1.
    9900012    2    1    2    0    0 -0.14628320958E+02 -0.11130504784E+02 -0.35778809553E+01  0.72461624405E+02  0.70000070489E+02 0.  0.
        -12    1    1    2    0    0  0.14628320958E+02  0.11130504784E+02  0.35778809553E+01  0.18726375595E+02  0.00000000000E+00 0.  1.
         11    1    3    3    0    0  0.60939663794E+01 -0.33290096395E+00 -0.19254122829E+02  0.20198230008E+02  0.51100000000E-03 0. -1.
        -11    1    3    3    0    0  0.39139499697E+01  0.36579945231E+01 -0.11594044219E+02  0.12771914105E+02  0.51100000000E-03 0.  1.
        -12    1    3    3    0    0 -0.24636237307E+02 -0.14455598343E+02  0.27270286092E+02  0.39491480292E+02  0.00000000000E+00 0.  1.
</event>
<event>
 7    1  0.4917717E-013  0.7246143E+02  0.7816164E-02  0.1226708E+00
        -11   -1    0    0    0    0  0.00000000000E+00  0.00000000000E+00  0.45593999997E+02  0.45594000000E+02  0.51100000000E-03 0. -1.
         11   -1    0    0    0    0 -0.00000000000E+00 -0.00000000000E+00 -0.45593999997E+02  0.45594000000E+02  0.51100000000E-03 0.  1.
    9900012    2    1    2    0    0  0.29465526207E+00 -0.88678950220E+01  0.16491153633E+02  0.72461427116E+02  0.69999813483E+02 0.  0.
        -12    1    1    2    0    0 -0.29465526207E+00  0.88678950220E+01 -0.16491153633E+02  0.18726572884E+02  0.00000000000E+00 0.  1.
         11    1    3    3    0    0  0.14785776468E+02 -0.13112658223E+02  0.54612314584E+01  0.20503317798E+02  0.51100000000E-03 0. -1.
        -11    1    3    3    0    0  0.32470772394E+00 -0.57563493420E+01 -0.17425151705E+02  0.18354206740E+02  0.51100000000E-03 0.  1.
         12    1    3    3    0    0 -0.14815828930E+02  0.10001112543E+02  0.28455073879E+02  0.33603902578E+02  0.00000000000E+00 0. -1.
</event>
<event>
 7    1  0.2851651E-013  0.7246160E+02  0.7816164E-02  0.1226708E+00
        -11   -1    0    0    0    0  0.00000000000E+00  0.00000000000E+00  0.45593999997E+02  0.45594000000E+02  0.51100000000E-03 0.  1.
         11   -1    0    0    0    0 -0.00000000000E+00 -0.00000000000E+00 -0.45593999997E+02  0.45594000000E+02  0.51100000000E-03 0. -1.
    9900012    2    1    2    0    0 -0.72098955552E+01  0.13393242185E+02 -0.10923209429E+02  0.72461600603E+02  0.70000039482E+02 0.  0.
        -12    1    1    2    0    0  0.72098955552E+01 -0.13393242185E+02  0.10923209429E+02  0.18726399397E+02  0.00000000000E+00 0.  1.
         11    1    3    3    0    0 -0.12991905632E+02  0.22289781667E+02  0.42453792097E+01  0.26146648420E+02  0.51100000000E-03 0. -1.
        -11    1    3    3    0    0 -0.11221259905E+02 -0.37136565898E+01 -0.23785792948E+02  0.26560720351E+02  0.51100000000E-03 0.  1.
        -12    1    3    3    0    0  0.17003269982E+02 -0.51828828922E+01  0.86172043095E+01  0.19754231831E+02  0.00000000000E+00 0.  1.
</event>
<event>
 7    1  0.2851651E-013  0.7246160E+02  0.7816164E-02  0.1226708E+00
        -11   -1    0    0    0    0  0.00000000000E+00  0.00000000000E+00  0.45593999997E+02  0.45594000000E+02  0.51100000000E-03 0. -1.
         11   -1    0    0    0    0 -0.00000000000E+00 -0.00000000000E+00 -0.45593999997E+02  0.45594000000E+02  0.51100000000E-03 0.  1.
    9900012    2    1    2    0    0  0.31008542767E+01 -0.17827533368E+02 -0.48209848338E+01  0.72461597836E+02  0.70000035879E+02 0.  0.
        -12    1    1    2    0    0 -0.31008542767E+01  0.17827533368E+02  0.48209848338E+01  0.18726402164E+02  0.00000000000E+00 0.  1.
         11    1    3    3    0    0  0.20046519709E+02 -0.19056917958E+02 -0.67574637369E-01  0.27659241513E+02  0.51100000000E-03 0. -1.
        -11    1    3    3    0    0  0.39280417403E+01 -0.14184102808E+02  0.70224764701E+01  0.16307466401E+02  0.51100000000E-03 0.  1.
        -12    1    3    3    0    0 -0.20873707172E+02  0.15413487399E+02 -0.11775886666E+02  0.28494889922E+02  0.00000000000E+00 0.  1.
</event>
<event>
 7    1  0.2851651E-013  0.7246158E+02  0.7816164E-02  0.1226708E+00
        -11   -1    0    0    0    0  0.00000000000E+00  0.00000000000E+00  0.45593999997E+02  0.45594000000E+02  0.51100000000E-03 0.  1.
         11   -1    0    0    0    0 -0.00000000000E+00 -0.00000000000E+00 -0.45593999997E+02  0.45594000000E+02  0.51100000000E-03 0. -1.
    9900012    2    1    2    0    0 -0.49866097993E+00 -0.11639078014E+01 -0.18683557564E+02  0.72461583701E+02  0.70000017465E+02 0.  0.
        -12    1    1    2    0    0  0.49866097993E+00  0.11639078014E+01  0.18683557564E+02  0.18726416299E+02  0.00000000000E+00 0.  1.
         11    1    3    3    0    0 -0.34034329709E+01 -0.78716650552E+01  0.90827503579E+01  0.12491710093E+02  0.51100000000E-03 0. -1.
        -11    1    3    3    0    0 -0.10707890334E+02  0.11977772365E+02  0.10378852812E+02  0.19127115104E+02  0.51100000000E-03 0.  1.
        -12    1    3    3    0    0  0.13612662325E+02 -0.52700151114E+01 -0.38145160734E+02  0.40842758505E+02  0.00000000000E+00 0.  1.
</event>
<event>
 7    1  0.2851651E-013  0.7246156E+02  0.7816164E-02  0.1226708E+00
        -11   -1    0    0    0    0  0.00000000000E+00  0.00000000000E+00  0.45593999997E+02  0.45594000000E+02  0.51100000000E-03 0. -1.
         11   -1    0    0    0    0 -0.00000000000E+00 -0.00000000000E+00 -0.45593999997E+02  0.45594000000E+02  0.51100000000E-03 0.  1.
    9900012    2    1    2    0    0  0.91019528214E+01 -0.15635497813E+02  0.48337651788E+01  0.72461558191E+02  0.69999984233E+02 0.  0.
        -12    1    1    2    0    0 -0.91019528214E+01  0.15635497813E+02 -0.48337651788E+01  0.18726441809E+02  0.00000000000E+00 0.  1.
         11    1    3    3    0    0  0.86780926996E+01  0.31737733647E+01  0.22811492457E+02  0.24611914160E+02  0.51100000000E-03 0. -1.
        -11    1    3    3    0    0  0.49869123440E+01 -0.28168160343E+02 -0.18668047474E+01  0.28667045750E+02  0.51100000000E-03 0.  1.
        -12    1    3    3    0    0 -0.45630522222E+01  0.93588891656E+01 -0.16110922531E+02  0.19182598280E+02  0.00000000000E+00 0.  1.
</event>
<event>
 7    1  0.2851651E-013  0.7246163E+02  0.7816164E-02  0.1226708E+00
        -11   -1    0    0    0    0  0.00000000000E+00  0.00000000000E+00  0.45593999997E+02  0.45594000000E+02  0.51100000000E-03 0. -1.
         11   -1    0    0    0    0 -0.00000000000E+00 -0.00000000000E+00 -0.45593999997E+02  0.45594000000E+02  0.51100000000E-03 0.  1.
    9900012    2    1    2    0    0 -0.10990843702E+02  0.12193675052E+02 -0.90106898263E+01  0.72461631220E+02  0.70000079367E+02 0.  0.
        -12    1    1    2    0    0  0.10990843702E+02 -0.12193675052E+02  0.90106898263E+01  0.18726368780E+02  0.00000000000E+00 0.  1.
         11    1    3    3    0    0 -0.64795252559E+01 -0.13328237676E+01 -0.43787629276E+01  0.79331098426E+01  0.51100000000E-03 0. -1.
        -11    1    3    3    0    0 -0.99938663671E+01  0.13478108151E+02 -0.32259464291E+02  0.36362202915E+02  0.51100000000E-03 0.  1.
         12    1    3    3    0    0  0.54825479213E+01  0.48390668560E-01  0.27627537392E+02  0.28166318462E+02  0.00000000000E+00 0. -1.
</event>
<event>
 7    1  0.2851651E-013  0.7246156E+02  0.7816164E-02  0.1226708E+00
        -11   -1    0    0    0    0  0.00000000000E+00  0.00000000000E+00  0.45593999997E+02  0.45594000000E+02  0.51100000000E-03 0.  1.
         11   -1    0    0    0    0 -0.00000000000E+00 -0.00000000000E+00 -0.45593999997E+02  0.45594000000E+02  0.51100000000E-03 0. -1.
    9900012    2    1    2    0    0 -0.16320782912E+02  0.89475981372E+01  0.20620819097E+01  0.72461557490E+02  0.69999983319E+02 0.  0.
        -12    1    1    2    0    0  0.16320782912E+02 -0.89475981372E+01 -0.20620819097E+01  0.18726442510E+02  0.00000000000E+00 0.  1.
         11    1    3    3    0    0 -0.40634634644E+00  0.80746206575E+01 -0.53627289489E+01  0.97017255247E+01  0.51100000000E-03 0. -1.
        -11    1    3    3    0    0 -0.36895185104E+00  0.13151509062E+02  0.29980374333E+02  0.32740207109E+02  0.51100000000E-03 0.  1.
         12    1    3    3    0    0 -0.15545484715E+02 -0.12278531583E+02 -0.22555563475E+02  0.30019624856E+02  0.00000000000E+00 0. -1.
</event>
<event>
 7    1  0.2851651E-013  0.7246158E+02  0.7816164E-02  0.1226708E+00
        -11   -1    0    0    0    0  0.00000000000E+00  0.00000000000E+00  0.45593999997E+02  0.45594000000E+02  0.51100000000E-03 0.  1.
         11   -1    0    0    0    0 -0.00000000000E+00 -0.00000000000E+00 -0.45593999997E+02  0.45594000000E+02  0.51100000000E-03 0. -1.
    9900012    2    1    2    0    0 -0.95908845504E+01  0.39362183549E+01 -0.15594868861E+02  0.72461579728E+02  0.70000012289E+02 0.  0.
        -12    1    1    2    0    0  0.95908845504E+01 -0.39362183549E+01  0.15594868861E+02  0.18726420272E+02  0.00000000000E+00 0.  1.
         11    1    3    3    0    0  0.16225180177E+02 -0.13174097025E+02 -0.15281385828E+02  0.25890810286E+02  0.51100000000E-03 0. -1.
        -11    1    3    3    0    0 -0.22546504581E+01  0.41023439054E+01  0.14925418896E+02  0.15642276168E+02  0.51100000000E-03 0.  1.
         12    1    3    3    0    0 -0.23561414269E+02  0.13007971474E+02 -0.15238901930E+02  0.30928493275E+02  0.00000000000E+00 0. -1.
</event>
<event>
 7    1  0.2851651E-013  0.7246220E+02  0.7816164E-02  0.1226706E+00
        -11   -1    0    0    0    0  0.00000000000E+00  0.00000000000E+00  0.45593999997E+02  0.45594000000E+02  0.51100000000E-03 0. -1.
         11   -1    0    0    0    0 -0.00000000000E+00 -0.00000000000E+00 -0.45593999997E+02  0.45594000000E+02  0.51100000000E-03 0.  1.
    9900012    2    1    2    0    0 -0.80805551183E+01 -0.68526432574E+01  0.15440255127E+02  0.72462200444E+02  0.70000820882E+02 0.  0.
        -12    1    1    2    0    0  0.80805551183E+01  0.68526432574E+01 -0.15440255127E+02  0.18725799556E+02  0.00000000000E+00 0.  1.
         11    1    3    3    0    0  0.34632657678E+01  0.61303931977E+01 -0.47678943228E+01  0.85034550079E+01  0.51100000000E-03 0. -1.
        -11    1    3    3    0    0 -0.12091795220E+02  0.18249446086E+02  0.24008707190E+02  0.32491103632E+02  0.51100000000E-03 0.  1.
         12    1    3    3    0    0  0.54797433421E+00 -0.31232482541E+02 -0.38005577395E+01  0.31467641803E+02  0.00000000000E+00 0. -1.
</event>
<event>
 7    1  0.2851651E-013  0.7246154E+02  0.7816164E-02  0.1226708E+00
        -11   -1    0    0    0    0  0.00000000000E+00  0.00000000000E+00  0.45593999997E+02  0.45594000000E+02  0.51100000000E-03 0. -1.
         11   -1    0    0    0    0 -0.00000000000E+00 -0.00000000000E+00 -0.45593999997E+02  0.45594000000E+02  0.51100000000E-03 0.  1.
    9900012    2    1    2    0    0 -0.12538676297E+02  0.11726203266E+02 -0.74805001238E+01  0.72461544692E+02  0.69999966648E+02 0.  0.
        -12    1    1    2    0    0  0.12538676297E+02 -0.11726203266E+02  0.74805001238E+01  0.18726455308E+02  0.00000000000E+00 0.  1.
         11    1    3    3    0    0  0.10849107461E+01 -0.26232403832E+01 -0.49934304874E+01  0.57439332977E+01  0.51100000000E-03 0. -1.
        -11    1    3    3    0    0  0.20187304127E+02 -0.19886125609E+01 -0.16992677922E+02  0.26461914727E+02  0.51100000000E-03 0.  1.
         12    1    3    3    0    0 -0.33810891169E+02  0.16338056210E+02  0.14505608285E+02  0.40255696667E+02  0.00000000000E+00 0. -1.
</event>
<event>
 7    1  0.2851651E-013  0.7246160E+02  0.7816164E-02  0.1226708E+00
        -11   -1    0    0    0    0  0.00000000000E+00  0.00000000000E+00  0.45593999997E+02  0.45594000000E+02  0.51100000000E-03 0.  1.
         11   -1    0    0    0    0 -0.00000000000E+00 -0.00000000000E+00 -0.45593999997E+02  0.45594000000E+02  0.51100000000E-03 0. -1.
    9900012    2    1    2    0    0  0.29303039092E+01  0.39475394937E+00 -0.18491504324E+02  0.72461595010E+02  0.70000032197E+02 0.  0.
        -12    1    1    2    0    0 -0.29303039092E+01 -0.39475394937E+00  0.18491504324E+02  0.18726404990E+02  0.00000000000E+00 0.  1.
         11    1    3    3    0    0  0.17271619308E+01  0.25858784938E+02 -0.13384655770E+02  0.29168627961E+02  0.51100000000E-03 0. -1.
        -11    1    3    3    0    0 -0.92971354905E+01 -0.13017411688E+01 -0.12775914399E+02  0.15854187062E+02  0.51100000000E-03 0.  1.
        -12    1    3    3    0    0  0.10500277469E+02 -0.24162289820E+02  0.76690658449E+01  0.27438779987E+02  0.00000000000E+00 0.  1.
</event>
<event>
 7    1  0.2851651E-013  0.7246164E+02  0.7816164E-02  0.1226708E+00
        -11   -1    0    0    0    0  0.00000000000E+00  0.00000000000E+00  0.45593999997E+02  0.45594000000E+02  0.51100000000E-03 0.  1.
         11   -1    0    0    0    0 -0.00000000000E+00 -0.00000000000E+00 -0.45593999997E+02  0.45594000000E+02  0.51100000000E-03 0. -1.
    9900012    2    1    2    0    0 -0.96524269411E+01 -0.10542798094E+02 -0.12097792936E+02  0.72461640733E+02  0.70000091759E+02 0.  0.
        -12    1    1    2    0    0  0.96524269411E+01  0.10542798094E+02  0.12097792936E+02  0.18726359267E+02  0.00000000000E+00 0.  1.
         11    1    3    3    0    0 -0.30612042620E+02  0.91264465001E+00  0.11541563615E+01  0.30647384078E+02  0.51100000000E-03 0. -1.
        -11    1    3    3    0    0 -0.60645140639E+01  0.48215347925E+01 -0.42644118752E+00  0.77593415271E+01  0.51100000000E-03 0.  1.
        -12    1    3    3    0    0  0.27024129743E+02 -0.16276977536E+02 -0.12825508110E+02  0.34054915128E+02  0.00000000000E+00 0.  1.
</event>
<event>
 7    1  0.2851651E-013  0.7246170E+02  0.7816164E-02  0.1226708E+00
        -11   -1    0    0    0    0  0.00000000000E+00  0.00000000000E+00  0.45593999997E+02  0.45594000000E+02  0.51100000000E-03 0.  1.
         11   -1    0    0    0    0 -0.00000000000E+00 -0.00000000000E+00 -0.45593999997E+02  0.45594000000E+02  0.51100000000E-03 0. -1.
    9900012    2    1    2    0    0  0.15289063931E+01  0.71471943785E+01 -0.17241069267E+02  0.72461697329E+02  0.70000165486E+02 0.  0.
        -12    1    1    2    0    0 -0.15289063931E+01 -0.71471943785E+01  0.17241069267E+02  0.18726302671E+02  0.00000000000E+00 0.  1.
         11    1    3    3    0    0 -0.17815192706E+02  0.82946718290E+01 -0.28116890935E+02  0.34303676596E+02  0.51100000000E-03 0. -1.
        -11    1    3    3    0    0 -0.54483591228E+01  0.11987978326E+01 -0.59089786659E+01  0.81263621941E+01  0.51100000000E-03 0.  1.
        -12    1    3    3    0    0  0.24792458222E+02 -0.23462752831E+01  0.16784800333E+02  0.30031658539E+02  0.00000000000E+00 0.  1.
</event>
<event>
 7    1  0.2851651E-013  0.7246160E+02  0.7816164E-02  0.1226708E+00
        -11   -1    0    0    0    0  0.00000000000E+00  0.00000000000E+00  0.45593999997E+02  0.45594000000E+02  0.51100000000E-03 0. -1.
         11   -1    0    0    0    0 -0.00000000000E+00 -0.00000000000E+00 -0.45593999997E+02  0.45594000000E+02  0.51100000000E-03 0.  1.
    9900012    2    1    2    0    0 -0.82772630792E+00  0.46853355690E+01  0.18111891780E+02  0.72461598208E+02  0.70000036362E+02 0.  0.
        -12    1    1    2    0    0  0.82772630792E+00 -0.46853355690E+01 -0.18111891780E+02  0.18726401792E+02  0.00000000000E+00 0.  1.
         11    1    3    3    0    0  0.73600302128E+01 -0.14189502295E+02 -0.27362878839E+01  0.16217252904E+02  0.51100000000E-03 0. -1.
        -11    1    3    3    0    0 -0.28453883048E+01 -0.15333320477E+02 -0.43847467711E+00  0.15601256737E+02  0.51100000000E-03 0.  1.
         12    1    3    3    0    0 -0.53423682159E+01  0.34208158341E+02  0.21286654341E+02  0.40643088567E+02  0.00000000000E+00 0. -1.
</event>
<event>
 7    1  0.2851651E-013  0.7246156E+02  0.7816164E-02  0.1226708E+00
        -11   -1    0    0    0    0  0.00000000000E+00  0.00000000000E+00  0.45593999997E+02  0.45594000000E+02  0.51100000000E-03 0. -1.
         11   -1    0    0    0    0 -0.00000000000E+00 -0.00000000000E+00 -0.45593999997E+02  0.45594000000E+02  0.51100000000E-03 0.  1.
    9900012    2    1    2    0    0  0.12280361662E+02  0.12225518713E+02 -0.70999238097E+01  0.72461561245E+02  0.69999988212E+02 0.  0.
        -12    1    1    2    0    0 -0.12280361662E+02 -0.12225518713E+02  0.70999238097E+01  0.18726438755E+02  0.00000000000E+00 0.  1.
         11    1    3    3    0    0 -0.18148866647E+02  0.65328586644E+01 -0.58979082184E+01  0.20170397233E+02  0.51100000000E-03 0. -1.
        -11    1    3    3    0    0 -0.17002537986E+01 -0.87297025799E+01  0.11776780464E+02  0.14757748083E+02  0.51100000000E-03 0.  1.
        -12    1    3    3    0    0  0.32129482108E+02  0.14422362628E+02 -0.12978796056E+02  0.37533415930E+02  0.00000000000E+00 0.  1.
</event>
<event>
 7    1  0.2851651E-013  0.7246163E+02  0.7816164E-02  0.1226708E+00
        -11   -1    0    0    0    0  0.00000000000E+00  0.00000000000E+00  0.45593999997E+02  0.45594000000E+02  0.51100000000E-03 0.  1.
         11   -1    0    0    0    0 -0.00000000000E+00 -0.00000000000E+00 -0.45593999997E+02  0.45594000000E+02  0.51100000000E-03 0. -1.
    9900012    2    1    2    0    0 -0.12518104484E+02  0.10849009805E+02 -0.87334476325E+01  0.72461626588E+02  0.70000073333E+02 0.  0.
        -12    1    1    2    0    0  0.12518104484E+02 -0.10849009805E+02  0.87334476325E+01  0.18726373412E+02  0.00000000000E+00 0.  1.
         11    1    3    3    0    0 -0.31200196015E+02 -0.71873808492E+01 -0.26082018935E+01  0.32123408789E+02  0.51100000000E-03 0. -1.
        -11    1    3    3    0    0 -0.71884778971E+01 -0.20460543358E+00  0.23551746933E+01  0.75672270983E+01  0.51100000000E-03 0.  1.
        -12    1    3    3    0    0  0.25870569428E+02  0.18240996087E+02 -0.84804204322E+01  0.32770990701E+02  0.00000000000E+00 0.  1.
</event>
<event>
 7    1  0.2851651E-013  0.7246160E+02  0.7816164E-02  0.1226708E+00
        -11   -1    0    0    0    0  0.00000000000E+00  0.00000000000E+00  0.45593999997E+02  0.45594000000E+02  0.51100000000E-03 0. -1.
         11   -1    0    0    0    0 -0.00000000000E+00 -0.00000000000E+00 -0.45593999997E+02  0.45594000000E+02  0.51100000000E-03 0.  1.
    9900012    2    1    2    0    0  0.77356426851E+01  0.25270433815E+01  0.16865707206E+02  0.72461596299E+02  0.70000033876E+02 0.  0.
        -12    1    1    2    0    0 -0.77356426851E+01 -0.25270433815E+01 -0.16865707206E+02  0.18726403701E+02  0.00000000000E+00 0.  1.
         11    1    3    3    0    0 -0.16289049194E+02  0.22182283111E+02  0.13169205858E+02  0.30509257462E+02  0.51100000000E-03 0. -1.
        -11    1    3    3    0    0  0.12200032160E+02 -0.18557506293E+01  0.13630591047E+02  0.18386886840E+02  0.51100000000E-03 0.  1.
        -12    1    3    3    0    0  0.11824659719E+02 -0.17799489100E+02 -0.99340896993E+01  0.23565451998E+02  0.00000000000E+00 0.  1.
</event>
<event>
 7    1  0.2851651E-013  0.7246156E+02  0.7816164E-02  0.1226708E+00
        -11   -1    0    0    0    0  0.00000000000E+00  0.00000000000E+00  0.45593999997E+02  0.45594000000E+02  0.51100000000E-03 0. -1.
         11   -1    0    0    0    0 -0.00000000000E+00 -0.00000000000E+00 -0.45593999997E+02  0.45594000000E+02  0.51100000000E-03 0.  1.
    9900012    2    1    2    0    0 -0.92210773887E+01 -0.84224379661E+01  0.13953983527E+02  0.72461564521E+02  0.69999992479E+02 0.  0.
        -12    1    1    2    0    0  0.92210773887E+01  0.84224379661E+01 -0.13953983527E+02  0.18726435479E+02  0.00000000000E+00 0.  1.
         11    1    3    3    0    0  0.10045577480E+02  0.66153036589E+01 -0.37676750163E+01  0.12604413699E+02  0.51100000000E-03 0. -1.
        -11    1    3    3    0    0 -0.86990196175E-02  0.10053717620E+02 -0.12546732474E+02  0.16077867076E+02  0.51100000000E-03 0.  1.
         12    1    3    3    0    0 -0.19257955849E+02 -0.25091459245E+02  0.30268391017E+02  0.43779283746E+02  0.00000000000E+00 0. -1.
</event>
<event>
 7    1  0.2851651E-013  0.7246140E+02  0.7816164E-02  0.1226708E+00
        -11   -1    0    0    0    0  0.00000000000E+00  0.00000000000E+00  0.45593999997E+02  0.45594000000E+02  0.51100000000E-03 0.  1.
         11   -1    0    0    0    0 -0.00000000000E+00 -0.00000000000E+00 -0.45593999997E+02  0.45594000000E+02  0.51100000000E-03 0. -1.
    9900012    2    1    2    0    0  0.13988106490E+02  0.23846004313E+01 -0.12220144334E+02  0.72461404743E+02  0.69999784338E+02 0.  0.
        -12    1    1    2    0    0 -0.13988106490E+02 -0.23846004313E+01  0.12220144334E+02  0.18726595257E+02  0.00000000000E+00 0.  1.
         11    1    3    3    0    0 -0.14437948941E+02  0.25006886778E+02 -0.13351315057E+02  0.31812833416E+02  0.51100000000E-03 0. -1.
        -11    1    3    3    0    0  0.83149659271E+00  0.28818963548E+01 -0.48428928795E+00  0.30382971479E+01  0.51100000000E-03 0.  1.
        -12    1    3    3    0    0  0.27594558838E+02 -0.25504182702E+02  0.16154600113E+01  0.37610274179E+02  0.00000000000E+00 0.  1.
</event>
<event>
 7    1  0.2851651E-013  0.7246151E+02  0.7816164E-02  0.1226708E+00
        -11   -1    0    0    0    0  0.00000000000E+00  0.00000000000E+00  0.45593999997E+02  0.45594000000E+02  0.51100000000E-03 0. -1.
         11   -1    0    0    0    0 -0.00000000000E+00 -0.00000000000E+00 -0.45593999997E+02  0.45594000000E+02  0.51100000000E-03 0.  1.
    9900012    2    1    2    0    0 -0.32866678172E+01  0.32058864220E+01  0.18154926349E+02  0.72461514909E+02  0.69999927851E+02 0.  0.
        -12    1    1    2    0    0  0.32866678172E+01 -0.32058864220E+01 -0.18154926349E+02  0.18726485091E+02  0.00000000000E+00 0.  1.
         11    1    3    3    0    0 -0.76054428335E+01 -0.11599485654E+01  0.24368349335E+02  0.25553956464E+02  0.51100000000E-03 0. -1.
        -11    1    3    3    0    0  0.38768285413E+01 -0.18807597927E+02  0.67452934001E+01  0.20353243541E+02  0.51100000000E-03 0.  1.
         12    1    3    3    0    0  0.44194647500E+00  0.23173432914E+02 -0.12958716386E+02  0.26554314905E+02  0.00000000000E+00 0. -1.
</event>
<event>
 7    1  0.2851651E-013  0.7246159E+02  0.7816164E-02  0.1226708E+00
        -11   -1    0    0    0    0  0.00000000000E+00  0.00000000000E+00  0.45593999997E+02  0.45594000000E+02  0.51100000000E-03 0.  1.
         11   -1    0    0    0    0 -0.00000000000E+00 -0.00000000000E+00 -0.45593999997E+02  0.45594000000E+02  0.51100000000E-03 0. -1.
    9900012    2    1    2    0    0 -0.16899159835E+02 -0.56840752703E+01  0.57260921002E+01  0.72461589625E+02  0.70000025181E+02 0.  0.
        -12    1    1    2    0    0  0.16899159835E+02  0.56840752703E+01 -0.57260921002E+01  0.18726410375E+02  0.00000000000E+00 0.  1.
         11    1    3    3    0    0  0.30306174187E+00  0.57219798666E+01 -0.21298660194E+02  0.22055970311E+02  0.51100000000E-03 0. -1.
        -11    1    3    3    0    0 -0.19123435100E+01 -0.22789031325E+02  0.10442123746E+02  0.25140305388E+02  0.51100000000E-03 0.  1.
        -12    1    3    3    0    0 -0.15289878067E+02  0.11382976188E+02  0.16582628548E+02  0.25265313925E+02  0.00000000000E+00 0.  1.
</event>
<event>
 7    1  0.2851651E-013  0.7246154E+02  0.7816164E-02  0.1226708E+00
        -11   -1    0    0    0    0  0.00000000000E+00  0.00000000000E+00  0.45593999997E+02  0.45594000000E+02  0.51100000000E-03 0. -1.
         11   -1    0    0    0    0 -0.00000000000E+00 -0.00000000000E+00 -0.45593999997E+02  0.45594000000E+02  0.51100000000E-03 0.  1.
    9900012    2    1    2    0    0  0.18845283304E+00 -0.71371916838E+01  0.17311995439E+02  0.72461542629E+02  0.69999963961E+02 0.  0.
        -12    1    1    2    0    0 -0.18845283304E+00  0.71371916838E+01 -0.17311995439E+02  0.18726457371E+02  0.00000000000E+00 0.  1.
         11    1    3    3    0    0  0.97354064344E+01 -0.21278149701E+02  0.24846158251E+02  0.34130182731E+02  0.51100000000E-03 0. -1.
        -11    1    3    3    0    0  0.10799509975E+02  0.13129835018E+00  0.33909409334E+01  0.11320120831E+02  0.51100000000E-03 0.  1.
        -12    1    3    3    0    0 -0.20346463577E+02  0.14009659667E+02 -0.10925103746E+02  0.27011239067E+02  0.00000000000E+00 0.  1.
</event>
<event>
 7    1  0.2851651E-013  0.7246156E+02  0.7816164E-02  0.1226708E+00
        -11   -1    0    0    0    0  0.00000000000E+00  0.00000000000E+00  0.45593999997E+02  0.45594000000E+02  0.51100000000E-03 0.  1.
         11   -1    0    0    0    0 -0.00000000000E+00 -0.00000000000E+00 -0.45593999997E+02  0.45594000000E+02  0.51100000000E-03 0. -1.
    9900012    2    1    2    0    0  0.14669269481E+01  0.11172182041E+02 -0.14956941186E+02  0.72461558377E+02  0.69999984475E+02 0.  0.
        -12    1    1    2    0    0 -0.14669269481E+01 -0.11172182041E+02  0.14956941186E+02  0.18726441623E+02  0.00000000000E+00 0.  1.
         11    1    3    3    0    0  0.25371176472E+02  0.15272731339E+02 -0.89944054866E+01  0.30949188171E+02  0.51100000000E-03 0. -1.
        -11    1    3    3    0    0 -0.52129858073E+01  0.13960883496E+02 -0.27223064703E+00  0.14904885065E+02  0.51100000000E-03 0.  1.
         12    1    3    3    0    0 -0.18691263717E+02 -0.18061432794E+02 -0.56903050527E+01  0.26607485140E+02  0.00000000000E+00 0. -1.
</event>
<event>
 7    1  0.2851651E-013  0.7246166E+02  0.7816164E-02  0.1226708E+00
        -11   -1    0    0    0    0  0.00000000000E+00  0.00000000000E+00  0.45593999997E+02  0.45594000000E+02  0.51100000000E-03 0.  1.
         11   -1    0    0    0    0 -0.00000000000E+00 -0.00000000000E+00 -0.45593999997E+02  0.45594000000E+02  0.51100000000E-03 0. -1.
    9900012    2    1    2    0    0  0.17120589022E+02  0.74430824756E+01  0.14703244594E+01  0.72461657613E+02  0.70000113748E+02 0.  0.
        -12    1    1    2    0    0 -0.17120589022E+02 -0.74430824756E+01 -0.14703244594E+01  0.18726342387E+02  0.00000000000E+00 0.  1.
         11    1    3    3    0    0 -0.14030999124E+02 -0.66463057449E+01 -0.18188468784E+02  0.23913651195E+02  0.51100000000E-03 0. -1.
        -11    1    3    3    0    0 -0.21200969439E+01 -0.46724877843E+01 -0.83814861677E+00  0.51989851424E+01  0.51100000000E-03 0.  1.
        -12    1    3    3    0    0  0.33271685090E+02  0.18761876005E+02  0.20496941860E+02  0.43349021276E+02  0.00000000000E+00 0.  1.
</event>
<event>
 7    1  0.2851651E-013  0.7246155E+02  0.7816164E-02  0.1226708E+00
        -11   -1    0    0    0    0  0.00000000000E+00  0.00000000000E+00  0.45593999997E+02  0.45594000000E+02  0.51100000000E-03 0. -1.
         11   -1    0    0    0    0 -0.00000000000E+00 -0.00000000000E+00 -0.45593999997E+02  0.45594000000E+02  0.51100000000E-03 0.  1.
    9900012    2    1    2    0    0  0.57460557839E+01 -0.90685575589E+01  0.15343536327E+02  0.72461548113E+02  0.69999971105E+02 0.  0.
        -12    1    1    2    0    0 -0.57460557839E+01  0.90685575589E+01 -0.15343536327E+02  0.18726451887E+02  0.00000000000E+00 0.  1.
         11    1    3    3    0    0  0.34242731167E+01  0.25918156924E+01  0.13986600348E+02  0.14631067785E+02  0.51100000000E-03 0. -1.
        -11    1    3    3    0    0  0.57549275746E+01 -0.42538067749E+01  0.28552702889E+02  0.29435877870E+02  0.51100000000E-03 0.  1.
        -12    1    3    3    0    0 -0.34331449073E+01 -0.74065664763E+01 -0.27195766910E+02  0.28394602458E+02  0.00000000000E+00 0.  1.
</event>
<event>
 7    1  0.2851651E-013  0.7246158E+02  0.7816164E-02  0.1226708E+00
        -11   -1    0    0    0    0  0.00000000000E+00  0.00000000000E+00  0.45593999997E+02  0.45594000000E+02  0.51100000000E-03 0. -1.
         11   -1    0    0    0    0 -0.00000000000E+00 -0.00000000000E+00 -0.45593999997E+02  0.45594000000E+02  0.51100000000E-03 0.  1.
    9900012    2    1    2    0    0 -0.75395177027E+01  0.31411178590E-01  0.17141568175E+02  0.72461583542E+02  0.70000017258E+02 0.  0.
        -12    1    1    2    0    0  0.75395177027E+01 -0.31411178590E-01 -0.17141568175E+02  0.18726416458E+02  0.00000000000E+00 0.  1.
         11    1    3    3    0    0  0.27203821904E+01  0.11795311022E+02  0.30623902132E+00  0.12108824219E+02  0.51100000000E-03 0. -1.
        -11    1    3    3    0    0  0.22884680272E+02 -0.69074245810E+01  0.11143308262E+02  0.26374124152E+02  0.51100000000E-03 0.  1.
         12    1    3    3    0    0 -0.33144580165E+02 -0.48564752622E+01  0.56920208921E+01  0.33978635172E+02  0.00000000000E+00 0. -1.
</event>
<event>
 7    1  0.2851651E-013  0.7246155E+02  0.7816164E-02  0.1226708E+00
        -11   -1    0    0    0    0  0.00000000000E+00  0.00000000000E+00  0.45593999997E+02  0.45594000000E+02  0.51100000000E-03 0. -1.
         11   -1    0    0    0    0 -0.00000000000E+00 -0.00000000000E+00 -0.45593999997E+02  0.45594000000E+02  0.51100000000E-03 0.  1.
    9900012    2    1    2    0    0  0.13938305852E+02 -0.11165478031E+02  0.56334291949E+01  0.72461553616E+02  0.69999978273E+02 0.  0.
        -12    1    1    2    0    0 -0.13938305852E+02  0.11165478031E+02 -0.56334291949E+01  0.18726446384E+02  0.00000000000E+00 0.  1.
         11    1    3    3    0    0 -0.70284653660E+01 -0.50335690624E+01  0.65917260867E+01  0.10871384271E+02  0.51100000000E-03 0. -1.
        -11    1    3    3    0    0 -0.11339044000E+02 -0.19368007657E+02  0.10591921255E+02  0.24816978776E+02  0.51100000000E-03 0.  1.
        -12    1    3    3    0    0  0.32305815218E+02  0.13236098688E+02 -0.11550218147E+02  0.36773190569E+02  0.00000000000E+00 0.  1.
</event>
<event>
 7    1  0.2851651E-013  0.7246163E+02  0.7816164E-02  0.1226708E+00
        -11   -1    0    0    0    0  0.00000000000E+00  0.00000000000E+00  0.45593999997E+02  0.45594000000E+02  0.51100000000E-03 0. -1.
         11   -1    0    0    0    0 -0.00000000000E+00 -0.00000000000E+00 -0.45593999997E+02  0.45594000000E+02  0.51100000000E-03 0.  1.
    9900012    2    1    2    0    0  0.15335633097E+02 -0.60100224646E+01 -0.89092706415E+01  0.72461625127E+02  0.70000071430E+02 0.  0.
        -12    1    1    2    0    0 -0.15335633097E+02  0.60100224646E+01  0.89092706415E+01  0.18726374873E+02  0.00000000000E+00 0.  1.
         11    1    3    3    0    0  0.25815766884E+02 -0.11531743192E+02  0.19231919364E+02  0.34195052910E+02  0.51100000000E-03 0. -1.
        -11    1    3    3    0    0  0.15013068202E+01 -0.66090373642E+01 -0.20179004298E+01  0.70714368735E+01  0.51100000000E-03 0.  1.
        -12    1    3    3    0    0 -0.11981440607E+02  0.12130758092E+02 -0.26123289575E+02  0.31195135344E+02  0.00000000000E+00 0.  1.
</event>
<event>
 7    1  0.2851651E-013  0.7246156E+02  0.7816164E-02  0.1226708E+00
        -11   -1    0    0    0    0  0.00000000000E+00  0.00000000000E+00  0.45593999997E+02  0.45594000000E+02  0.51100000000E-03 0.  1.
         11   -1    0    0    0    0 -0.00000000000E+00 -0.00000000000E+00 -0.45593999997E+02  0.45594000000E+02  0.51100000000E-03 0. -1.
    9900012    2    1    2    0    0  0.65358005347E+01 -0.95211430566E+01 -0.14741456608E+02  0.72461564230E+02  0.69999992100E+02 0.  0.
        -12    1    1    2    0    0 -0.65358005347E+01  0.95211430566E+01  0.14741456608E+02  0.18726435770E+02  0.00000000000E+00 0.  1.
         11    1    3    3    0    0 -0.16267016743E+00 -0.20282155795E+02 -0.33690381009E+02  0.39324726040E+02  0.51100000000E-03 0. -1.
        -11    1    3    3    0    0  0.17178489094E+01  0.14082820397E+02  0.10074997226E+01  0.14222935392E+02  0.51100000000E-03 0.  1.
        -12    1    3    3    0    0  0.49806217927E+01 -0.33218076584E+01  0.17941424679E+02  0.18913902798E+02  0.00000000000E+00 0.  1.
</event>
<event>
 7    1  0.2851651E-013  0.7246198E+02  0.7816164E-02  0.1226707E+00
        -11   -1    0    0    0    0  0.00000000000E+00  0.00000000000E+00  0.45593999997E+02  0.45594000000E+02  0.51100000000E-03 0.  1.
         11   -1    0    0    0    0 -0.00000000000E+00 -0.00000000000E+00 -0.45593999997E+02  0.45594000000E+02  0.51100000000E-03 0. -1.
    9900012    2    1    2    0    0 -0.80305283706E+01  0.24828584161E+01 -0.16733494475E+02  0.72461980423E+02  0.70000534267E+02 0.  0.
        -12    1    1    2    0    0  0.80305283706E+01 -0.24828584161E+01  0.16733494475E+02  0.18726019577E+02  0.00000000000E+00 0.  1.
         11    1    3    3    0    0  0.23735126328E+02 -0.11253106952E+02 -0.59858691627E+01  0.26941033161E+02  0.51100000000E-03 0. -1.
        -11    1    3    3    0    0  0.37168798197E+01 -0.30466089785E+01 -0.24811226014E+01  0.54086034691E+01  0.51100000000E-03 0.  1.
        -12    1    3    3    0    0 -0.35482534518E+02  0.16782574347E+02 -0.82665027112E+01  0.40112343794E+02  0.00000000000E+00 0.  1.
</event>
<event>
 7    1  0.2851651E-013  0.7246146E+02  0.7816164E-02  0.1226708E+00
        -11   -1    0    0    0    0  0.00000000000E+00  0.00000000000E+00  0.45593999997E+02  0.45594000000E+02  0.51100000000E-03 0. -1.
         11   -1    0    0    0    0 -0.00000000000E+00 -0.00000000000E+00 -0.45593999997E+02  0.45594000000E+02  0.51100000000E-03 0.  1.
    9900012    2    1    2    0    0 -0.16847788518E+02  0.34143213064E+01  0.74281767336E+01  0.72461457941E+02  0.69999853638E+02 0.  0.
        -12    1    1    2    0    0  0.16847788518E+02 -0.34143213064E+01 -0.74281767336E+01  0.18726542059E+02  0.00000000000E+00 0.  1.
         11    1    3    3    0    0  0.28160581235E+01 -0.55689696438E+01 -0.27369643247E+01  0.68142923494E+01  0.51100000000E-03 0. -1.
        -11    1    3    3    0    0  0.10137053497E+02 -0.19443397968E+02 -0.36047254957E+01  0.22221602649E+02  0.51100000000E-03 0.  1.
         12    1    3    3    0    0 -0.29800900138E+02  0.28426688918E+02  0.13769866554E+02  0.43425562942E+02  0.00000000000E+00 0. -1.
</event>
<event>
 7    1  0.2851651E-013  0.7246158E+02  0.7816164E-02  0.1226708E+00
        -11   -1    0    0    0    0  0.00000000000E+00  0.00000000000E+00  0.45593999997E+02  0.45594000000E+02  0.51100000000E-03 0.  1.
         11   -1    0    0    0    0 -0.00000000000E+00 -0.00000000000E+00 -0.45593999997E+02  0.45594000000E+02  0.51100000000E-03 0. -1.
    9900012    2    1    2    0    0  0.95645643123E+01  0.11007453334E+02 -0.11748779756E+02  0.72461581626E+02  0.70000014761E+02 0.  0.
        -12    1    1    2    0    0 -0.95645643123E+01 -0.11007453334E+02  0.11748779756E+02  0.18726418374E+02  0.00000000000E+00 0.  1.
         11    1    3    3    0    0 -0.52493181767E+01  0.14908695820E+02 -0.47850275415E+01  0.16514267807E+02  0.51100000000E-03 0. -1.
        -11    1    3    3    0    0 -0.12011584464E+02  0.22594678368E+01  0.15977533377E+02  0.20116285177E+02  0.51100000000E-03 0.  1.
         12    1    3    3    0    0  0.26825466953E+02 -0.61607103226E+01 -0.22941285591E+02  0.35831028642E+02  0.00000000000E+00 0. -1.
</event>
<event>
 7    1  0.2851651E-013  0.7246155E+02  0.7816164E-02  0.1226708E+00
        -11   -1    0    0    0    0  0.00000000000E+00  0.00000000000E+00  0.45593999997E+02  0.45594000000E+02  0.51100000000E-03 0. -1.
         11   -1    0    0    0    0 -0.00000000000E+00 -0.00000000000E+00 -0.45593999997E+02  0.45594000000E+02  0.51100000000E-03 0.  1.
    9900012    2    1    2    0    0  0.42242546877E+01  0.17018757268E+02  0.65724677353E+01  0.72461554562E+02  0.69999979506E+02 0.  0.
        -12    1    1    2    0    0 -0.42242546877E+01 -0.17018757268E+02 -0.65724677353E+01  0.18726445438E+02  0.00000000000E+00 0.  1.
         11    1    3    3    0    0 -0.15756662936E+02  0.45995792232E+00 -0.21889284571E+02  0.26974520708E+02  0.51100000000E-03 0. -1.
        -11    1    3    3    0    0  0.38133785027E+01  0.66370328153E+01 -0.34239496708E+01  0.83854333106E+01  0.51100000000E-03 0.  1.
         12    1    3    3    0    0  0.16167539121E+02  0.99217665302E+01  0.31885701977E+02  0.37101600543E+02  0.00000000000E+00 0. -1.
</event>
<event>
 7    1  0.2851651E-013  0.7246157E+02  0.7816164E-02  0.1226708E+00
        -11   -1    0    0    0    0  0.00000000000E+00  0.00000000000E+00  0.45593999997E+02  0.45594000000E+02  0.51100000000E-03 0. -1.
         11   -1    0    0    0    0 -0.00000000000E+00 -0.00000000000E+00 -0.45593999997E+02  0.45594000000E+02  0.51100000000E-03 0.  1.
    9900012    2    1    2    0    0  0.18271534919E+02 -0.35068705582E+01  0.21288249320E+01  0.72461574153E+02  0.70000005027E+02 0.  0.
        -12    1    1    2    0    0 -0.18271534919E+02  0.35068705582E+01 -0.21288249320E+01  0.18726425847E+02  0.00000000000E+00 0.  1.
         11    1    3    3    0    0  0.24401913449E+02 -0.12257646951E+02  0.10990191357E+02  0.29436161350E+02  0.51100000000E-03 0. -1.
        -11    1    3    3    0    0  0.13287108045E+02 -0.57875253298E+01  0.46987639299E+01  0.15235520088E+02  0.51100000000E-03 0.  1.
        -12    1    3    3    0    0 -0.19417486575E+02  0.14538301722E+02 -0.13560130355E+02  0.27789892714E+02  0.00000000000E+00 0.  1.
</event>
<event>
 7    1  0.2851651E-013  0.7246155E+02  0.7816164E-02  0.1226708E+00
        -11   -1    0    0    0    0  0.00000000000E+00  0.00000000000E+00  0.45593999997E+02  0.45594000000E+02  0.51100000000E-03 0.  1.
         11   -1    0    0    0    0 -0.00000000000E+00 -0.00000000000E+00 -0.45593999997E+02  0.45594000000E+02  0.51100000000E-03 0. -1.
    9900012    2    1    2    0    0 -0.70060322271E+01 -0.82403966439E+01 -0.15286962690E+02  0.72461552053E+02  0.69999976238E+02 0.  0.
        -12    1    1    2    0    0  0.70060322271E+01  0.82403966439E+01  0.15286962690E+02  0.18726447947E+02  0.00000000000E+00 0.  1.
         11    1    3    3    0    0 -0.14880014097E+02  0.31900662571E+01 -0.50716922234E+01  0.16040991382E+02  0.51100000000E-03 0. -1.
        -11    1    3    3    0    0 -0.23094023252E+02 -0.23540032435E+01 -0.45945376335E+01  0.23664002569E+02  0.51100000000E-03 0.  1.
        -12    1    3    3    0    0  0.30968005122E+02 -0.90764596575E+01 -0.56207328332E+01  0.32756558103E+02  0.00000000000E+00 0.  1.
</event>
<event>
 7    1  0.2851651E-013  0.7246152E+02  0.7816164E-02  0.1226708E+00
        -11   -1    0    0    0    0  0.00000000000E+00  0.00000000000E+00  0.45593999997E+02  0.45594000000E+02  0.51100000000E-03 0.  1.
         11   -1    0    0    0    0 -0.00000000000E+00 -0.00000000000E+00 -0.45593999997E+02  0.45594000000E+02  0.51100000000E-03 0. -1.
    9900012    2    1    2    0    0 -0.17421677221E+02  0.12901784748E+01 -0.67454879753E+01  0.72461521268E+02  0.69999936134E+02 0.  0.
        -12    1    1    2    0    0  0.17421677221E+02 -0.12901784748E+01  0.67454879753E+01  0.18726478732E+02  0.00000000000E+00 0.  1.
         11    1    3    3    0    0 -0.73585452258E+01 -0.19478118589E+02 -0.16744241262E+02  0.26719186128E+02  0.51100000000E-03 0. -1.
        -11    1    3    3    0    0 -0.19212090412E+02 -0.16655310860E-01 -0.31987143163E+01  0.19476562041E+02  0.51100000000E-03 0.  1.
        -12    1    3    3    0    0  0.91489584173E+01  0.20784952375E+02  0.13197467603E+02  0.26265773099E+02  0.00000000000E+00 0.  1.
</event>
<event>
 7    1  0.2851651E-013  0.7246155E+02  0.7816164E-02  0.1226708E+00
        -11   -1    0    0    0    0  0.00000000000E+00  0.00000000000E+00  0.45593999997E+02  0.45594000000E+02  0.51100000000E-03 0.  1.
         11   -1    0    0    0    0 -0.00000000000E+00 -0.00000000000E+00 -0.45593999997E+02  0.45594000000E+02  0.51100000000E-03 0. -1.
    9900012    2    1    2    0    0 -0.94162416286E+01 -0.15489629329E+02 -0.46995442932E+01  0.72461549730E+02  0.69999973211E+02 0.  0.
        -12    1    1    2    0    0  0.94162416286E+01  0.15489629329E+02  0.46995442932E+01  0.18726450270E+02  0.00000000000E+00 0.  1.
         11    1    3    3    0    0  0.36170139858E+01  0.52049606391E+01 -0.21712360245E+02  0.22618598390E+02  0.51100000000E-03 0. -1.
        -11    1    3    3    0    0 -0.11760495151E+02  0.10241058956E+02  0.31035887844E+01  0.15900339567E+02  0.51100000000E-03 0.  1.
         12    1    3    3    0    0 -0.12727604630E+01 -0.30935648924E+02  0.13909227168E+02  0.33942611773E+02  0.00000000000E+00 0. -1.
</event>
<event>
 7    1  0.2851651E-013  0.7246157E+02  0.7816164E-02  0.1226708E+00
        -11   -1    0    0    0    0  0.00000000000E+00  0.00000000000E+00  0.45593999997E+02  0.45594000000E+02  0.51100000000E-03 0.  1.
         11   -1    0    0    0    0 -0.00000000000E+00 -0.00000000000E+00 -0.45593999997E+02  0.45594000000E+02  0.51100000000E-03 0. -1.
    9900012    2    1    2    0    0  0.60029064666E+01  0.66610501849E+01 -0.16440032928E+02  0.72461570594E+02  0.70000000391E+02 0.  0.
        -12    1    1    2    0    0 -0.60029064666E+01 -0.66610501849E+01  0.16440032928E+02  0.18726429406E+02  0.00000000000E+00 0.  1.
         11    1    3    3    0    0  0.20582567030E+02  0.31039273625E+01  0.61135190486E+00  0.20824269064E+02  0.51100000000E-03 0. -1.
        -11    1    3    3    0    0 -0.24050551942E+02  0.15529620526E+02  0.16312447690E+00  0.28629089616E+02  0.51100000000E-03 0.  1.
         12    1    3    3    0    0  0.94708913777E+01 -0.11972497703E+02 -0.17214509310E+02  0.23008211915E+02  0.00000000000E+00 0. -1.
</event>
<event>
 7    1  0.2851651E-013  0.7246155E+02  0.7816164E-02  0.1226708E+00
        -11   -1    0    0    0    0  0.00000000000E+00  0.00000000000E+00  0.45593999997E+02  0.45594000000E+02  0.51100000000E-03 0. -1.
         11   -1    0    0    0    0 -0.00000000000E+00 -0.00000000000E+00 -0.45593999997E+02  0.45594000000E+02  0.51100000000E-03 0.  1.
    9900012    2    1    2    0    0  0.42214293742E+01 -0.47033104216E+01  0.17627767805E+02  0.72461553656E+02  0.69999978325E+02 0.  0.
        -12    1    1    2    0    0 -0.42214293742E+01  0.47033104216E+01 -0.17627767805E+02  0.18726446344E+02  0.00000000000E+00 0.  1.
         11    1    3    3    0    0  0.91467642232E+00  0.87250308937E+01  0.10868505039E+02  0.13967361923E+02  0.51100000000E-03 0. -1.
        -11    1    3    3    0    0  0.29627466929E+02 -0.36996436957E+01  0.58061997502E+01  0.30416872224E+02  0.51100000000E-03 0.  1.
        -12    1    3    3    0    0 -0.26320713977E+02 -0.97286976196E+01  0.95306301644E+00  0.28077319508E+02  0.00000000000E+00 0.  1.
</event>
<event>
 7    1  0.2851651E-013  0.7246154E+02  0.7816164E-02  0.1226708E+00
        -11   -1    0    0    0    0  0.00000000000E+00  0.00000000000E+00  0.45593999997E+02  0.45594000000E+02  0.51100000000E-03 0. -1.
         11   -1    0    0    0    0 -0.00000000000E+00 -0.00000000000E+00 -0.45593999997E+02  0.45594000000E+02  0.51100000000E-03 0.  1.
    9900012    2    1    2    0    0 -0.13757558069E+02  0.77460863576E+01  0.10070158176E+02  0.72461538947E+02  0.69999959164E+02 0.  0.
        -12    1    1    2    0    0  0.13757558069E+02 -0.77460863576E+01 -0.10070158176E+02  0.18726461053E+02  0.00000000000E+00 0.  1.
         11    1    3    3    0    0 -0.10216977482E+02  0.33095267518E+02 -0.32354581942E+01  0.34787232585E+02  0.51100000000E-03 0. -1.
        -11    1    3    3    0    0  0.71900820314E+01 -0.18721427242E+01  0.87216829580E+01  0.11457309976E+02  0.51100000000E-03 0.  1.
        -12    1    3    3    0    0 -0.10730662619E+02 -0.23477038436E+02  0.45839334120E+01  0.26216996386E+02  0.00000000000E+00 0.  1.
</event>
<event>
 7    1  0.2851651E-013  0.7246160E+02  0.7816164E-02  0.1226708E+00
        -11   -1    0    0    0    0  0.00000000000E+00  0.00000000000E+00  0.45593999997E+02  0.45594000000E+02  0.51100000000E-03 0.  1.
         11   -1    0    0    0    0 -0.00000000000E+00 -0.00000000000E+00 -0.45593999997E+02  0.45594000000E+02  0.51100000000E-03 0. -1.
    9900012    2    1    2    0    0 -0.14895968683E+02  0.17145712626E+01 -0.11218221206E+02  0.72461598193E+02  0.70000036344E+02 0.  0.
        -12    1    1    2    0    0  0.14895968683E+02 -0.17145712626E+01  0.11218221206E+02  0.18726401807E+02  0.00000000000E+00 0.  1.
         11    1    3    3    0    0 -0.83097720358E+01  0.58732883797E+01 -0.16596675203E+02  0.19467856989E+02  0.51100000000E-03 0. -1.
        -11    1    3    3    0    0 -0.75456570241E+01  0.20223438041E+02  0.15502938272E+02  0.26575655805E+02  0.51100000000E-03 0.  1.
         12    1    3    3    0    0  0.95946037743E+00 -0.24382155158E+02 -0.10124484275E+02  0.26418085400E+02  0.00000000000E+00 0. -1.
</event>
<event>
 7    1  0.2851651E-013  0.7246150E+02  0.7816164E-02  0.1226708E+00
        -11   -1    0    0    0    0  0.00000000000E+00  0.00000000000E+00  0.45593999997E+02  0.45594000000E+02  0.51100000000E-03 0.  1.
         11   -1    0    0    0    0 -0.00000000000E+00 -0.00000000000E+00 -0.45593999997E+02  0.45594000000E+02  0.51100000000E-03 0. -1.
    9900012    2    1    2    0    0 -0.30756591247E+01  0.15309898382E+02 -0.10335816819E+02  0.72461500679E+02  0.69999909313E+02 0.  0.
        -12    1    1    2    0    0  0.30756591247E+01 -0.15309898382E+02  0.10335816819E+02  0.18726499321E+02  0.00000000000E+00 0.  1.
         11    1    3    3    0    0 -0.19806222800E+02 -0.12440786716E+02 -0.20816330649E+02  0.31311008570E+02  0.51100000000E-03 0. -1.
        -11    1    3    3    0    0 -0.28334357259E+01 -0.20680069126E+01 -0.10624816666E+01  0.36652255260E+01  0.51100000000E-03 0.  1.
        -12    1    3    3    0    0  0.19563999401E+02  0.29818692010E+02  0.11542995497E+02  0.37485266583E+02  0.00000000000E+00 0.  1.
</event>
<event>
 7    1  0.2851651E-013  0.7246155E+02  0.7816164E-02  0.1226708E+00
        -11   -1    0    0    0    0  0.00000000000E+00  0.00000000000E+00  0.45593999997E+02  0.45594000000E+02  0.51100000000E-03 0.  1.
         11   -1    0    0    0    0 -0.00000000000E+00 -0.00000000000E+00 -0.45593999997E+02  0.45594000000E+02  0.51100000000E-03 0. -1.
    9900012    2    1    2    0    0  0.75454828025E+01  0.62094744223E+01 -0.15974609523E+02  0.72461547246E+02  0.69999969976E+02 0.  0.
        -12    1    1    2    0    0 -0.75454828025E+01 -0.62094744223E+01  0.15974609523E+02  0.18726452754E+02  0.00000000000E+00 0.  1.
         11    1    3    3    0    0 -0.96399751019E+01  0.17205060962E+02 -0.48668672639E+01  0.20313287275E+02  0.51100000000E-03 0. -1.
        -11    1    3    3    0    0  0.13803520624E+02 -0.11139644022E+01  0.17137745438E+02  0.22033620158E+02  0.51100000000E-03 0.  1.
        -12    1    3    3    0    0  0.33819372802E+01 -0.98816221375E+01 -0.28245487697E+02  0.30114639813E+02  0.00000000000E+00 0.  1.
</event>
<event>
 7    1  0.2851651E-013  0.7246161E+02  0.7816164E-02  0.1226708E+00
        -11   -1    0    0    0    0  0.00000000000E+00  0.00000000000E+00  0.45593999997E+02  0.45594000000E+02  0.51100000000E-03 0.  1.
         11   -1    0    0    0    0 -0.00000000000E+00 -0.00000000000E+00 -0.45593999997E+02  0.45594000000E+02  0.51100000000E-03 0. -1.
    9900012    2    1    2    0    0 -0.53958593640E+01  0.94676130716E+01 -0.15229144886E+02  0.72461605539E+02  0.70000045912E+02 0.  0.
        -12    1    1    2    0    0  0.53958593640E+01 -0.94676130716E+01  0.15229144886E+02  0.18726394461E+02  0.00000000000E+00 0.  1.
         11    1    3    3    0    0  0.17372254174E+02 -0.10838007558E+02 -0.74463805220E+00  0.20489316948E+02  0.51100000000E-03 0. -1.
        -11    1    3    3    0    0 -0.46926619806E+01 -0.10930366308E+02  0.23904639671E+01  0.12132942856E+02  0.51100000000E-03 0.  1.
         12    1    3    3    0    0 -0.18075451557E+02  0.31235986938E+02 -0.16874970801E+02  0.39839345735E+02  0.00000000000E+00 0. -1.
</event>
<event>
 7    1  0.2851651E-013  0.7246151E+02  0.7816164E-02  0.1226708E+00
        -11   -1    0    0    0    0  0.00000000000E+00  0.00000000000E+00  0.45593999997E+02  0.45594000000E+02  0.51100000000E-03 0. -1.
         11   -1    0    0    0    0 -0.00000000000E+00 -0.00000000000E+00 -0.45593999997E+02  0.45594000000E+02  0.51100000000E-03 0.  1.
    9900012    2    1    2    0    0  0.89246820581E+01  0.77523509942E+01  0.14523522925E+02  0.72461505028E+02  0.69999914979E+02 0.  0.
        -12    1    1    2    0    0 -0.89246820581E+01 -0.77523509942E+01 -0.14523522925E+02  0.18726494972E+02  0.00000000000E+00 0.  1.
         11    1    3    3    0    0  0.14291700368E+02  0.16649112766E+02  0.17319085494E+02  0.27953468084E+02  0.51100000000E-03 0. -1.
        -11    1    3    3    0    0  0.16080612556E+02 -0.16545692078E+01 -0.11936412093E+02  0.20094816082E+02  0.51100000000E-03 0.  1.
         12    1    3    3    0    0 -0.21447630865E+02 -0.72421925642E+01  0.91408495247E+01  0.24413220863E+02  0.00000000000E+00 0. -1.
</event>
<event>
 7    1  0.2851651E-013  0.7246159E+02  0.7816164E-02  0.1226708E+00
        -11   -1    0    0    0    0  0.00000000000E+00  0.00000000000E+00  0.45593999997E+02  0.45594000000E+02  0.51100000000E-03 0.  1.
         11   -1    0    0    0    0 -0.00000000000E+00 -0.00000000000E+00 -0.45593999997E+02  0.45594000000E+02  0.51100000000E-03 0. -1.
    9900012    2    1    2    0    0  0.99628530502E+01 -0.15632557036E+02  0.26538603572E+01  0.72461594708E+02  0.70000031803E+02 0.  0.
        -12    1    1    2    0    0 -0.99628530502E+01  0.15632557036E+02 -0.26538603572E+01  0.18726405292E+02  0.00000000000E+00 0.  1.
         11    1    3    3    0    0 -0.12006803010E+01  0.17841820087E+01 -0.54568630298E+00  0.22187186455E+01  0.51100000000E-03 0. -1.
        -11    1    3    3    0    0  0.16539561902E+02  0.23581486891E+02  0.20796660466E+01  0.28878515249E+02  0.51100000000E-03 0.  1.
         12    1    3    3    0    0 -0.53760285506E+01 -0.40998225936E+02  0.11198806136E+01  0.41364360813E+02  0.00000000000E+00 0. -1.
</event>
<event>
 7    1  0.2851651E-013  0.7246195E+02  0.7816164E-02  0.1226707E+00
        -11   -1    0    0    0    0  0.00000000000E+00  0.00000000000E+00  0.45593999997E+02  0.45594000000E+02  0.51100000000E-03 0.  1.
         11   -1    0    0    0    0 -0.00000000000E+00 -0.00000000000E+00 -0.45593999997E+02  0.45594000000E+02  0.51100000000E-03 0. -1.
    9900012    2    1    2    0    0  0.73840847808E+01  0.16504102745E+02 -0.48738903551E+01  0.72461950692E+02  0.70000495537E+02 0.  0.
        -12    1    1    2    0    0 -0.73840847808E+01 -0.16504102745E+02  0.48738903551E+01  0.18726049308E+02  0.00000000000E+00 0.  1.
         11    1    3    3    0    0 -0.53501279089E+00  0.14816573607E+02  0.17589294353E+02  0.23004355419E+02  0.51100000000E-03 0. -1.
        -11    1    3    3    0    0  0.19398814935E+02  0.16644217985E+01  0.46470602317E+01  0.20016980038E+02  0.51100000000E-03 0.  1.
         12    1    3    3    0    0 -0.11479717363E+02  0.23107340185E-01 -0.27110244940E+02  0.29440615235E+02  0.00000000000E+00 0. -1.
</event>
<event>
 7    1  0.2851651E-013  0.7246154E+02  0.7816164E-02  0.1226708E+00
        -11   -1    0    0    0    0  0.00000000000E+00  0.00000000000E+00  0.45593999997E+02  0.45594000000E+02  0.51100000000E-03 0.  1.
         11   -1    0    0    0    0 -0.00000000000E+00 -0.00000000000E+00 -0.45593999997E+02  0.45594000000E+02  0.51100000000E-03 0. -1.
    9900012    2    1    2    0    0 -0.21528168257E+01  0.15569393978E+02 -0.10180360906E+02  0.72461537513E+02  0.69999957296E+02 0.  0.
        -12    1    1    2    0    0  0.21528168257E+01 -0.15569393978E+02  0.10180360906E+02  0.18726462487E+02  0.00000000000E+00 0.  1.
         11    1    3    3    0    0  0.26709422246E+02  0.13958653260E+02 -0.10864036635E+02  0.32035363738E+02  0.51100000000E-03 0. -1.
        -11    1    3    3    0    0  0.47335985910E+01  0.46769793850E+01  0.69595762061E+00  0.66906986974E+01  0.51100000000E-03 0.  1.
        -12    1    3    3    0    0 -0.33595837663E+02 -0.30662386671E+01 -0.12281890906E-01  0.33735475077E+02  0.00000000000E+00 0.  1.
</event>
<event>
 7    1  0.3358540E-013  0.7246161E+02  0.7816164E-02  0.1226708E+00
        -11   -1    0    0    0    0  0.00000000000E+00  0.00000000000E+00  0.45593999997E+02  0.45594000000E+02  0.51100000000E-03 0. -1.
         11   -1    0    0    0    0 -0.00000000000E+00 -0.00000000000E+00 -0.45593999997E+02  0.45594000000E+02  0.51100000000E-03 0.  1.
    9900012    2    1    2    0    0 -0.11338636914E+02  0.11678364503E+02  0.92589784572E+01  0.72461613093E+02  0.70000055753E+02 0.  0.
        -12    1    1    2    0    0  0.11338636914E+02 -0.11678364503E+02 -0.92589784572E+01  0.18726386907E+02  0.00000000000E+00 0.  1.
         11    1    3    3    0    0  0.58649800137E+01 -0.84484882979E+01  0.17186253957E+02  0.20028536402E+02  0.51100000000E-03 0. -1.
        -11    1    3    3    0    0 -0.49396725956E+01 -0.54707773630E+01 -0.20205083086E+02  0.21507560370E+02  0.51100000000E-03 0.  1.
         12    1    3    3    0    0 -0.12263944333E+02  0.25597630164E+02  0.12277807586E+02  0.30925516321E+02  0.00000000000E+00 0. -1.
</event>
<event>
 7    1  0.2851651E-013  0.7246096E+02  0.7816164E-02  0.1226710E+00
        -11   -1    0    0    0    0  0.00000000000E+00  0.00000000000E+00  0.45593999997E+02  0.45594000000E+02  0.51100000000E-03 0. -1.
         11   -1    0    0    0    0 -0.00000000000E+00 -0.00000000000E+00 -0.45593999997E+02  0.45594000000E+02  0.51100000000E-03 0.  1.
    9900012    2    1    2    0    0 -0.46827144766E+01  0.17988432465E+02  0.22782740257E+01  0.72460959391E+02  0.69999204181E+02 0.  0.
        -12    1    1    2    0    0  0.46827144766E+01 -0.17988432465E+02 -0.22782740257E+01  0.18727040609E+02  0.00000000000E+00 0.  1.
         11    1    3    3    0    0 -0.68822097380E+01  0.71173952036E+01 -0.27670198959E+01  0.10280006067E+02  0.51100000000E-03 0. -1.
        -11    1    3    3    0    0  0.10569816362E+02  0.34889041355E+02  0.45835377110E+01  0.36742006516E+02  0.51100000000E-03 0.  1.
         12    1    3    3    0    0 -0.83703211005E+01 -0.24018004093E+02  0.46175621068E+00  0.25438946809E+02  0.00000000000E+00 0. -1.
</event>
<event>
 7    1  0.2851651E-013  0.7246148E+02  0.7816164E-02  0.1226708E+00
        -11   -1    0    0    0    0  0.00000000000E+00  0.00000000000E+00  0.45593999997E+02  0.45594000000E+02  0.51100000000E-03 0. -1.
         11   -1    0    0    0    0 -0.00000000000E+00 -0.00000000000E+00 -0.45593999997E+02  0.45594000000E+02  0.51100000000E-03 0.  1.
    9900012    2    1    2    0    0 -0.42564272123E+01  0.16069426626E+02  0.86219970511E+01  0.72461481961E+02  0.69999884930E+02 0.  0.
        -12    1    1    2    0    0  0.42564272123E+01 -0.16069426626E+02 -0.86219970511E+01  0.18726518039E+02  0.00000000000E+00 0.  1.
         11    1    3    3    0    0  0.72705284878E+01  0.24688247223E+02  0.19320708028E+02  0.32181670162E+02  0.51100000000E-03 0. -1.
        -11    1    3    3    0    0  0.12836827403E+02 -0.48281845897E+01 -0.89031992004E+00  0.13743659412E+02  0.51100000000E-03 0.  1.
        -12    1    3    3    0    0 -0.24363783103E+02 -0.37906360073E+01 -0.98083910569E+01  0.26536152388E+02  0.00000000000E+00 0.  1.
</event>
<event>
 7    1  0.2851651E-013  0.7246173E+02  0.7816164E-02  0.1226708E+00
        -11   -1    0    0    0    0  0.00000000000E+00  0.00000000000E+00  0.45593999997E+02  0.45594000000E+02  0.51100000000E-03 0. -1.
         11   -1    0    0    0    0 -0.00000000000E+00 -0.00000000000E+00 -0.45593999997E+02  0.45594000000E+02  0.51100000000E-03 0.  1.
    9900012    2    1    2    0    0 -0.62978847074E+01  0.14480338785E+01  0.17575921523E+02  0.72461730450E+02  0.70000208632E+02 0.  0.
        -12    1    1    2    0    0  0.62978847074E+01 -0.14480338785E+01 -0.17575921523E+02  0.18726269550E+02  0.00000000000E+00 0.  1.
         11    1    3    3    0    0 -0.18647636167E+02 -0.56349849089E+01  0.37857008925E+00  0.19484114174E+02  0.51100000000E-03 0. -1.
        -11    1    3    3    0    0 -0.12388231346E+02 -0.83558419565E+01  0.18508666669E+02  0.23787793357E+02  0.51100000000E-03 0.  1.
        -12    1    3    3    0    0  0.24737982806E+02  0.15438860744E+02 -0.13113152354E+01  0.29189822919E+02  0.00000000000E+00 0.  1.
</event>
<event>
 7    1  0.2851651E-013  0.7246168E+02  0.7816164E-02  0.1226708E+00
        -11   -1    0    0    0    0  0.00000000000E+00  0.00000000000E+00  0.45593999997E+02  0.45594000000E+02  0.51100000000E-03 0.  1.
         11   -1    0    0    0    0 -0.00000000000E+00 -0.00000000000E+00 -0.45593999997E+02  0.45594000000E+02  0.51100000000E-03 0. -1.
    9900012    2    1    2    0    0  0.17599333568E+02  0.38724739709E+01  0.50933574250E+01  0.72461684651E+02  0.70000148971E+02 0.  0.
        -12    1    1    2    0    0 -0.17599333568E+02 -0.38724739709E+01 -0.50933574250E+01  0.18726315349E+02  0.00000000000E+00 0.  1.
         11    1    3    3    0    0 -0.74948791363E+01 -0.12128719041E+02 -0.73418203240E+01  0.16036875156E+02  0.51100000000E-03 0. -1.
        -11    1    3    3    0    0 -0.28472904326E+01  0.68258348263E+01  0.23779627813E+02  0.24903208289E+02  0.51100000000E-03 0.  1.
         12    1    3    3    0    0  0.27941503137E+02  0.91753581852E+01 -0.11344450064E+02  0.31521601206E+02  0.00000000000E+00 0. -1.
</event>
<event>
 7    1  0.2851651E-013  0.7246147E+02  0.7816164E-02  0.1226708E+00
        -11   -1    0    0    0    0  0.00000000000E+00  0.00000000000E+00  0.45593999997E+02  0.45594000000E+02  0.51100000000E-03 0. -1.
         11   -1    0    0    0    0 -0.00000000000E+00 -0.00000000000E+00 -0.45593999997E+02  0.45594000000E+02  0.51100000000E-03 0.  1.
    9900012    2    1    2    0    0 -0.14491943596E+02  0.11068965848E+02  0.42596224308E+01  0.72461472895E+02  0.69999873120E+02 0.  0.
        -12    1    1    2    0    0  0.14491943596E+02 -0.11068965848E+02 -0.42596224308E+01  0.18726527105E+02  0.00000000000E+00 0.  1.
         11    1    3    3    0    0 -0.17211538368E+02 -0.34820241542E+01  0.20009398905E+02  0.26622125949E+02  0.51100000000E-03 0. -1.
        -11    1    3    3    0    0 -0.13279840440E+02  0.32030136103E+01  0.73681755245E+01  0.15521065335E+02  0.51100000000E-03 0.  1.
        -12    1    3    3    0    0  0.15999435212E+02  0.11347976392E+02 -0.23117951999E+02  0.30318281612E+02  0.00000000000E+00 0.  1.
</event>
<event>
 7    1  0.2851651E-013  0.7246160E+02  0.7816164E-02  0.1226708E+00
        -11   -1    0    0    0    0  0.00000000000E+00  0.00000000000E+00  0.45593999997E+02  0.45594000000E+02  0.51100000000E-03 0. -1.
         11   -1    0    0    0    0 -0.00000000000E+00 -0.00000000000E+00 -0.45593999997E+02  0.45594000000E+02  0.51100000000E-03 0.  1.
    9900012    2    1    2    0    0 -0.13685819566E+02 -0.11234837455E+02 -0.60954742729E+01  0.72461600548E+02  0.70000039411E+02 0.  0.
        -12    1    1    2    0    0  0.13685819566E+02  0.11234837455E+02  0.60954742729E+01  0.18726399452E+02  0.00000000000E+00 0.  1.
         11    1    3    3    0    0  0.18746954050E+02 -0.11132337323E+02 -0.17712689205E+01  0.21874976898E+02  0.51100000000E-03 0. -1.
        -11    1    3    3    0    0  0.75834282254E+01 -0.39291913812E+01 -0.58610262736E+01  0.10358501716E+02  0.51100000000E-03 0.  1.
        -12    1    3    3    0    0 -0.40016201842E+02  0.38266912489E+01  0.15368209212E+01  0.40228121934E+02  0.00000000000E+00 0.  1.
</event>
<event>
 7    1  0.2851651E-013  0.7246160E+02  0.7816164E-02  0.1226708E+00
        -11   -1    0    0    0    0  0.00000000000E+00  0.00000000000E+00  0.45593999997E+02  0.45594000000E+02  0.51100000000E-03 0.  1.
         11   -1    0    0    0    0 -0.00000000000E+00 -0.00000000000E+00 -0.45593999997E+02  0.45594000000E+02  0.51100000000E-03 0. -1.
    9900012    2    1    2    0    0  0.18452554102E+02  0.61856325563E+00 -0.31302949376E+01  0.72461598323E+02  0.70000036512E+02 0.  0.
        -12    1    1    2    0    0 -0.18452554102E+02 -0.61856325563E+00  0.31302949376E+01  0.18726401677E+02  0.00000000000E+00 0.  1.
         11    1    3    3    0    0 -0.39141835322E+01  0.16111188321E+01  0.11625287935E+02  0.12371897852E+02  0.51100000000E-03 0. -1.
        -11    1    3    3    0    0  0.23120775259E+02  0.28450394597E+01  0.16527806705E+02  0.28562788604E+02  0.51100000000E-03 0.  1.
         12    1    3    3    0    0 -0.75403762512E+00 -0.38375950361E+01 -0.31283389577E+02  0.31526911867E+02  0.00000000000E+00 0. -1.
</event>
<event>
 7    1  0.2851651E-013  0.7246175E+02  0.7816164E-02  0.1226708E+00
        -11   -1    0    0    0    0  0.00000000000E+00  0.00000000000E+00  0.45593999997E+02  0.45594000000E+02  0.51100000000E-03 0.  1.
         11   -1    0    0    0    0 -0.00000000000E+00 -0.00000000000E+00 -0.45593999997E+02  0.45594000000E+02  0.51100000000E-03 0. -1.
    9900012    2    1    2    0    0  0.36528176588E+01  0.16532429367E+02 -0.80005031318E+01  0.72461752432E+02  0.70000237268E+02 0.  0.
        -12    1    1    2    0    0 -0.36528176588E+01 -0.16532429367E+02  0.80005031318E+01  0.18726247568E+02  0.00000000000E+00 0.  1.
         11    1    3    3    0    0 -0.43105829411E+01  0.15410013967E+02  0.16963322553E+01  0.16091214967E+02  0.51100000000E-03 0. -1.
        -11    1    3    3    0    0 -0.84618685176E+01  0.18826063817E+02  0.12026113881E+02  0.23888309128E+02  0.51100000000E-03 0.  1.
         12    1    3    3    0    0  0.16425269117E+02 -0.17703648417E+02 -0.21722949268E+02  0.32482228337E+02  0.00000000000E+00 0. -1.
</event>
<event>
 7    1  0.2851651E-013  0.7246158E+02  0.7816164E-02  0.1226708E+00
        -11   -1    0    0    0    0  0.00000000000E+00  0.00000000000E+00  0.45593999997E+02  0.45594000000E+02  0.51100000000E-03 0. -1.
         11   -1    0    0    0    0 -0.00000000000E+00 -0.00000000000E+00 -0.45593999997E+02  0.45594000000E+02  0.51100000000E-03 0.  1.
    9900012    2    1    2    0    0 -0.14114470250E+02 -0.46906395956E+01  0.11377985018E+02  0.72461577135E+02  0.70000008911E+02 0.  0.
        -12    1    1    2    0    0  0.14114470250E+02  0.46906395956E+01 -0.11377985018E+02  0.18726422865E+02  0.00000000000E+00 0.  1.
         11    1    3    3    0    0  0.10761922873E+02  0.82092283031E+01 -0.86647184749E+01  0.16071333478E+02  0.51100000000E-03 0. -1.
        -11    1    3    3    0    0  0.20893004908E+01 -0.11250700900E+02 -0.10558405816E+02  0.15569951218E+02  0.51100000000E-03 0.  1.
        -12    1    3    3    0    0 -0.26965693614E+02 -0.16491669983E+01  0.30601109309E+02  0.40820292439E+02  0.00000000000E+00 0.  1.
</event>
<event>
 7    1  0.2851651E-013  0.7246159E+02  0.7816164E-02  0.1226708E+00
        -11   -1    0    0    0    0  0.00000000000E+00  0.00000000000E+00  0.45593999997E+02  0.45594000000E+02  0.51100000000E-03 0.  1.
         11   -1    0    0    0    0 -0.00000000000E+00 -0.00000000000E+00 -0.45593999997E+02  0.45594000000E+02  0.51100000000E-03 0. -1.
    9900012    2    1    2    0    0  0.12228924690E+01  0.60310884431E+01 -0.17686402651E+02  0.72461592642E+02  0.70000029112E+02 0.  0.
        -12    1    1    2    0    0 -0.12228924690E+01 -0.60310884431E+01  0.17686402651E+02  0.18726407358E+02  0.00000000000E+00 0.  1.
         11    1    3    3    0    0  0.99043110027E+01  0.24380507872E-02  0.52137836802E+01  0.11192806748E+02  0.51100000000E-03 0. -1.
        -11    1    3    3    0    0 -0.16757869170E+02  0.23567131616E+02  0.28784255531E+01  0.29060647028E+02  0.51100000000E-03 0.  1.
         12    1    3    3    0    0  0.80764506364E+01 -0.17538481224E+02 -0.25778611884E+02  0.32208138866E+02  0.00000000000E+00 0. -1.
</event>
<event>
 7    1  0.2851651E-013  0.7246165E+02  0.7816164E-02  0.1226708E+00
        -11   -1    0    0    0    0  0.00000000000E+00  0.00000000000E+00  0.45593999997E+02  0.45594000000E+02  0.51100000000E-03 0.  1.
         11   -1    0    0    0    0 -0.00000000000E+00 -0.00000000000E+00 -0.45593999997E+02  0.45594000000E+02  0.51100000000E-03 0. -1.
    9900012    2    1    2    0    0 -0.11549361957E+02 -0.45169855489E+01 -0.14031575305E+02  0.72461654238E+02  0.70000109352E+02 0.  0.
        -12    1    1    2    0    0  0.11549361957E+02  0.45169855489E+01  0.14031575305E+02  0.18726345762E+02  0.00000000000E+00 0.  1.
         11    1    3    3    0    0  0.95688882873E+01 -0.75436732385E+01  0.90617991949E+01  0.15185085903E+02  0.51100000000E-03 0. -1.
        -11    1    3    3    0    0  0.14384005563E+02 -0.44497458857E+01 -0.12248590032E+02  0.19409477389E+02  0.51100000000E-03 0.  1.
         12    1    3    3    0    0 -0.35502255808E+02  0.74764335754E+01 -0.10844784468E+02  0.37867090945E+02  0.00000000000E+00 0. -1.
</event>
<event>
 7    1  0.2851651E-013  0.7246158E+02  0.7816164E-02  0.1226708E+00
        -11   -1    0    0    0    0  0.00000000000E+00  0.00000000000E+00  0.45593999997E+02  0.45594000000E+02  0.51100000000E-03 0. -1.
         11   -1    0    0    0    0 -0.00000000000E+00 -0.00000000000E+00 -0.45593999997E+02  0.45594000000E+02  0.51100000000E-03 0.  1.
    9900012    2    1    2    0    0 -0.13204665961E+02  0.13055542925E+02 -0.24224837249E+01  0.72461579317E+02  0.70000011754E+02 0.  0.
        -12    1    1    2    0    0  0.13204665961E+02 -0.13055542925E+02  0.24224837249E+01  0.18726420683E+02  0.00000000000E+00 0.  1.
         11    1    3    3    0    0  0.54145067915E+01  0.18798063693E+02 -0.76753962580E+01  0.21014180697E+02  0.51100000000E-03 0. -1.
        -11    1    3    3    0    0 -0.24922469353E+02  0.10984113164E+02 -0.88946105420E+01  0.28651253334E+02  0.51100000000E-03 0.  1.
         12    1    3    3    0    0  0.63032966003E+01 -0.16726633932E+02  0.14147523075E+02  0.22796145286E+02  0.00000000000E+00 0. -1.
</event>
<event>
 7    1  0.2851651E-013  0.7246157E+02  0.7816164E-02  0.1226708E+00
        -11   -1    0    0    0    0  0.00000000000E+00  0.00000000000E+00  0.45593999997E+02  0.45594000000E+02  0.51100000000E-03 0.  1.
         11   -1    0    0    0    0 -0.00000000000E+00 -0.00000000000E+00 -0.45593999997E+02  0.45594000000E+02  0.51100000000E-03 0. -1.
    9900012    2    1    2    0    0 -0.17554987672E+02 -0.62235195397E+01 -0.19414463770E+01  0.72461574776E+02  0.70000005838E+02 0.  0.
        -12    1    1    2    0    0  0.17554987672E+02  0.62235195397E+01  0.19414463770E+01  0.18726425224E+02  0.00000000000E+00 0.  1.
         11    1    3    3    0    0  0.91684524772E+00 -0.27115603674E+02 -0.14662302015E+02  0.30839579577E+02  0.51100000000E-03 0. -1.
        -11    1    3    3    0    0 -0.82354668591E+01  0.34968260860E+01 -0.84960464052E+01  0.12338294527E+02  0.51100000000E-03 0.  1.
         12    1    3    3    0    0 -0.10236366061E+02  0.17395258049E+02  0.21216902043E+02  0.29283700672E+02  0.00000000000E+00 0. -1.
</event>
<event>
 7    1  0.2851651E-013  0.7246154E+02  0.7816164E-02  0.1226708E+00
        -11   -1    0    0    0    0  0.00000000000E+00  0.00000000000E+00  0.45593999997E+02  0.45594000000E+02  0.51100000000E-03 0. -1.
         11   -1    0    0    0    0 -0.00000000000E+00 -0.00000000000E+00 -0.45593999997E+02  0.45594000000E+02  0.51100000000E-03 0.  1.
    9900012    2    1    2    0    0 -0.77617027668E+01 -0.16161403980E+02  0.54079010687E+01  0.72461537376E+02  0.69999957117E+02 0.  0.
        -12    1    1    2    0    0  0.77617027668E+01  0.16161403980E+02 -0.54079010687E+01  0.18726462624E+02  0.00000000000E+00 0.  1.
         11    1    3    3    0    0 -0.49066591262E+00 -0.54984247308E+01  0.38333817561E+01  0.67207323639E+01  0.51100000000E-03 0. -1.
        -11    1    3    3    0    0 -0.31080869665E+02 -0.15458522327E+02 -0.13397904018E+02  0.37208738275E+02  0.51100000000E-03 0.  1.
         12    1    3    3    0    0  0.23809832811E+02  0.47955430771E+01  0.14972423331E+02  0.28532066737E+02  0.00000000000E+00 0. -1.
</event>
<event>
 7    1  0.2851651E-013  0.7246173E+02  0.7816164E-02  0.1226708E+00
        -11   -1    0    0    0    0  0.00000000000E+00  0.00000000000E+00  0.45593999997E+02  0.45594000000E+02  0.51100000000E-03 0. -1.
         11   -1    0    0    0    0 -0.00000000000E+00 -0.00000000000E+00 -0.45593999997E+02  0.45594000000E+02  0.51100000000E-03 0.  1.
    9900012    2    1    2    0    0  0.14604745947E+02  0.19201474607E+01  0.11562343650E+02  0.72461725380E+02  0.70000202028E+02 0.  0.
        -12    1    1    2    0    0 -0.14604745947E+02 -0.19201474607E+01 -0.11562343650E+02  0.18726274620E+02  0.00000000000E+00 0.  1.
         11    1    3    3    0    0 -0.66952791509E+01  0.68728859304E+01 -0.56302656894E+01  0.11124891726E+02  0.51100000000E-03 0. -1.
        -11    1    3    3    0    0  0.28111467472E+02  0.11681367549E+01 -0.12113997157E+02  0.30632794099E+02  0.51100000000E-03 0.  1.
        -12    1    3    3    0    0 -0.68114423739E+01 -0.61208752246E+01  0.29306606496E+02  0.30704039556E+02  0.00000000000E+00 0.  1.
</event>
<event>
 7    1  0.2851651E-013  0.7246156E+02  0.7816164E-02  0.1226708E+00
        -11   -1    0    0    0    0  0.00000000000E+00  0.00000000000E+00  0.45593999997E+02  0.45594000000E+02  0.51100000000E-03 0. -1.
         11   -1    0    0    0    0 -0.00000000000E+00 -0.00000000000E+00 -0.45593999997E+02  0.45594000000E+02  0.51100000000E-03 0.  1.
    9900012    2    1    2    0    0  0.12196359773E+02 -0.12349778885E+02  0.70293180068E+01  0.72461560353E+02  0.69999987049E+02 0.  0.
        -12    1    1    2    0    0 -0.12196359773E+02  0.12349778885E+02 -0.70293180068E+01  0.18726439647E+02  0.00000000000E+00 0.  1.
         11    1    3    3    0    0  0.75177247486E+01 -0.18148121585E+02  0.21350269384E+02  0.29012144104E+02  0.51100000000E-03 0. -1.
        -11    1    3    3    0    0  0.70789495670E+01 -0.11427003377E+02  0.76199664568E+01  0.15451596106E+02  0.51100000000E-03 0.  1.
        -12    1    3    3    0    0 -0.24003145428E+01  0.17225346076E+02 -0.21940917834E+02  0.27997820143E+02  0.00000000000E+00 0.  1.
</event>
<event>
 7    1  0.2851651E-013  0.7246172E+02  0.7816164E-02  0.1226708E+00
        -11   -1    0    0    0    0  0.00000000000E+00  0.00000000000E+00  0.45593999997E+02  0.45594000000E+02  0.51100000000E-03 0. -1.
         11   -1    0    0    0    0 -0.00000000000E+00 -0.00000000000E+00 -0.45593999997E+02  0.45594000000E+02  0.51100000000E-03 0.  1.
    9900012    2    1    2    0    0  0.11180372814E+02  0.55397980170E+01  0.13963650309E+02  0.72461718247E+02  0.70000192736E+02 0.  0.
        -12    1    1    2    0    0 -0.11180372814E+02 -0.55397980170E+01 -0.13963650309E+02  0.18726281753E+02  0.00000000000E+00 0.  1.
         11    1    3    3    0    0  0.26747159276E+02  0.11609144503E+02  0.12427057723E+01  0.29184363679E+02  0.51100000000E-03 0. -1.
        -11    1    3    3    0    0  0.31748769916E+01  0.21500737101E+01 -0.11175781858E+02  0.11815276605E+02  0.51100000000E-03 0.  1.
         12    1    3    3    0    0 -0.18741663454E+02 -0.82194201965E+01  0.23896726395E+02  0.31462077963E+02  0.00000000000E+00 0. -1.
</event>
<event>
 7    1  0.2851651E-013  0.7246162E+02  0.7816164E-02  0.1226708E+00
        -11   -1    0    0    0    0  0.00000000000E+00  0.00000000000E+00  0.45593999997E+02  0.45594000000E+02  0.51100000000E-03 0. -1.
         11   -1    0    0    0    0 -0.00000000000E+00 -0.00000000000E+00 -0.45593999997E+02  0.45594000000E+02  0.51100000000E-03 0.  1.
    9900012    2    1    2    0    0  0.17032071114E+02 -0.75887217531E+01  0.17312077370E+01  0.72461622227E+02  0.70000067652E+02 0.  0.
        -12    1    1    2    0    0 -0.17032071114E+02  0.75887217531E+01 -0.17312077370E+01  0.18726377773E+02  0.00000000000E+00 0.  1.
         11    1    3    3    0    0  0.41925423771E+01  0.74579006634E+01 -0.18645935999E+02  0.20515082828E+02  0.51100000000E-03 0. -1.
        -11    1    3    3    0    0 -0.16238023640E+02 -0.50885102893E+01  0.81598244700E+01  0.18871912577E+02  0.51100000000E-03 0.  1.
         12    1    3    3    0    0  0.29077552376E+02 -0.99581121272E+01  0.12217319266E+02  0.33074626822E+02  0.00000000000E+00 0. -1.
</event>
<event>
 7    1  0.2851651E-013  0.7246159E+02  0.7816164E-02  0.1226708E+00
        -11   -1    0    0    0    0  0.00000000000E+00  0.00000000000E+00  0.45593999997E+02  0.45594000000E+02  0.51100000000E-03 0.  1.
         11   -1    0    0    0    0 -0.00000000000E+00 -0.00000000000E+00 -0.45593999997E+02  0.45594000000E+02  0.51100000000E-03 0. -1.
    9900012    2    1    2    0    0  0.15181906590E+02 -0.41482772984E+01 -0.10147902526E+02  0.72461590362E+02  0.70000026142E+02 0.  0.
        -12    1    1    2    0    0 -0.15181906590E+02  0.41482772984E+01  0.10147902526E+02  0.18726409638E+02  0.00000000000E+00 0.  1.
         11    1    3    3    0    0 -0.11631419630E+02  0.23906395790E+01  0.18156547946E+02  0.21694822281E+02  0.51100000000E-03 0.  1.
        -11    1    3    3    0    0  0.15553667854E+01  0.11094473289E+02 -0.94009012109E+01  0.14624754604E+02  0.51100000000E-03 0. -1.
         12    1    3    3    0    0  0.25257959435E+02 -0.17633390166E+02 -0.18903549261E+02  0.36142013478E+02  0.00000000000E+00 0. -1.
</event>
<event>
 7    1  0.2851651E-013  0.7246156E+02  0.7816164E-02  0.1226708E+00
        -11   -1    0    0    0    0  0.00000000000E+00  0.00000000000E+00  0.45593999997E+02  0.45594000000E+02  0.51100000000E-03 0.  1.
         11   -1    0    0    0    0 -0.00000000000E+00 -0.00000000000E+00 -0.45593999997E+02  0.45594000000E+02  0.51100000000E-03 0. -1.
    9900012    2    1    2    0    0  0.30383008978E+01  0.13799990625E+02 -0.12288551676E+02  0.72461561047E+02  0.69999987953E+02 0.  0.
        -12    1    1    2    0    0 -0.30383008978E+01 -0.13799990625E+02  0.12288551676E+02  0.18726438953E+02  0.00000000000E+00 0.  1.
         11    1    3    3    0    0 -0.61197379418E+01  0.35383081029E+02 -0.95761668107E+01  0.37163376954E+02  0.51100000000E-03 0. -1.
        -11    1    3    3    0    0 -0.77075863354E+00  0.58945932925E+01  0.10898261787E+00  0.59457696244E+01  0.51100000000E-03 0.  1.
        -12    1    3    3    0    0  0.99287974731E+01 -0.27477683697E+02 -0.28213674832E+01  0.29352414468E+02  0.00000000000E+00 0.  1.
</event>
<event>
 7    1  0.2851651E-013  0.7246156E+02  0.7816164E-02  0.1226708E+00
        -11   -1    0    0    0    0  0.00000000000E+00  0.00000000000E+00  0.45593999997E+02  0.45594000000E+02  0.51100000000E-03 0. -1.
         11   -1    0    0    0    0 -0.00000000000E+00 -0.00000000000E+00 -0.45593999997E+02  0.45594000000E+02  0.51100000000E-03 0.  1.
    9900012    2    1    2    0    0 -0.16173100450E+02  0.18101885869E+01  0.92646322242E+01  0.72461564911E+02  0.69999992987E+02 0.  0.
        -12    1    1    2    0    0  0.16173100450E+02 -0.18101885869E+01 -0.92646322242E+01  0.18726435089E+02  0.00000000000E+00 0.  1.
         11    1    3    3    0    0 -0.11572605423E+02  0.69702727704E+01  0.26305742816E+02  0.29571980050E+02  0.51100000000E-03 0. -1.
        -11    1    3    3    0    0 -0.42862602429E+01  0.16505200703E+02 -0.11358485706E+02  0.20489238026E+02  0.51100000000E-03 0.  1.
         12    1    3    3    0    0 -0.31423478499E+00 -0.21665284886E+02 -0.56826248858E+01  0.22400346834E+02  0.00000000000E+00 0. -1.
</event>
<event>
 7    1  0.2851651E-013  0.7246149E+02  0.7816164E-02  0.1226708E+00
        -11   -1    0    0    0    0  0.00000000000E+00  0.00000000000E+00  0.45593999997E+02  0.45594000000E+02  0.51100000000E-03 0.  1.
         11   -1    0    0    0    0 -0.00000000000E+00 -0.00000000000E+00 -0.45593999997E+02  0.45594000000E+02  0.51100000000E-03 0. -1.
    9900012    2    1    2    0    0 -0.17034758021E+02  0.76440940006E+01 -0.14377017701E+01  0.72461490974E+02  0.69999896671E+02 0.  0.
        -12    1    1    2    0    0  0.17034758021E+02 -0.76440940006E+01  0.14377017701E+01  0.18726509026E+02  0.00000000000E+00 0.  1.
         11    1    3    3    0    0  0.10317848982E+01  0.12318157563E+02  0.15359759535E+02  0.19716079708E+02  0.51100000000E-03 0. -1.
        -11    1    3    3    0    0  0.61323216659E+01 -0.54270457026E+01  0.12372565792E+02  0.14837067723E+02  0.51100000000E-03 0.  1.
         12    1    3    3    0    0 -0.24198864585E+02  0.75298214033E+00 -0.29170027098E+02  0.37908343543E+02  0.00000000000E+00 0. -1.
</event>
<event>
 7    1  0.2851651E-013  0.7246154E+02  0.7816164E-02  0.1226708E+00
        -11   -1    0    0    0    0  0.00000000000E+00  0.00000000000E+00  0.45593999997E+02  0.45594000000E+02  0.51100000000E-03 0. -1.
         11   -1    0    0    0    0 -0.00000000000E+00 -0.00000000000E+00 -0.45593999997E+02  0.45594000000E+02  0.51100000000E-03 0.  1.
    9900012    2    1    2    0    0  0.11767072755E+02 -0.13158603054E+02  0.62503980564E+01  0.72461539806E+02  0.69999960283E+02 0.  0.
        -12    1    1    2    0    0 -0.11767072755E+02  0.13158603054E+02 -0.62503980564E+01  0.18726460194E+02  0.00000000000E+00 0.  1.
         11    1    3    3    0    0  0.19154638899E+01  0.18452448605E+02  0.15474064038E+02  0.24157990801E+02  0.51100000000E-03 0.  1.
        -11    1    3    3    0    0  0.19674756008E+02 -0.17034195245E+02 -0.14704401288E+02  0.29891123249E+02  0.51100000000E-03 0. -1.
         12    1    3    3    0    0 -0.98231471430E+01 -0.14576856414E+02  0.54807353065E+01  0.18412425755E+02  0.00000000000E+00 0. -1.
</event>
<event>
 7    1  0.2851651E-013  0.7246154E+02  0.7816164E-02  0.1226708E+00
        -11   -1    0    0    0    0  0.00000000000E+00  0.00000000000E+00  0.45593999997E+02  0.45594000000E+02  0.51100000000E-03 0. -1.
         11   -1    0    0    0    0 -0.00000000000E+00 -0.00000000000E+00 -0.45593999997E+02  0.45594000000E+02  0.51100000000E-03 0.  1.
    9900012    2    1    2    0    0 -0.12103808508E+02 -0.48897419399E+01  0.13426405549E+02  0.72461544847E+02  0.69999966850E+02 0.  0.
        -12    1    1    2    0    0  0.12103808508E+02  0.48897419399E+01 -0.13426405549E+02  0.18726455153E+02  0.00000000000E+00 0.  1.
         11    1    3    3    0    0 -0.95083965738E+01 -0.34696189625E+02  0.21027523251E+01  0.36036880380E+02  0.51100000000E-03 0. -1.
        -11    1    3    3    0    0  0.10014501654E+01 -0.20597862333E+01 -0.30972725340E+00  0.23111800001E+01  0.51100000000E-03 0.  1.
        -12    1    3    3    0    0 -0.35968620999E+01  0.31866233919E+02  0.11633380477E+02  0.34113484467E+02  0.00000000000E+00 0.  1.
</event>
<event>
 7    1  0.2851651E-013  0.7246154E+02  0.7816164E-02  0.1226708E+00
        -11   -1    0    0    0    0  0.00000000000E+00  0.00000000000E+00  0.45593999997E+02  0.45594000000E+02  0.51100000000E-03 0.  1.
         11   -1    0    0    0    0 -0.00000000000E+00 -0.00000000000E+00 -0.45593999997E+02  0.45594000000E+02  0.51100000000E-03 0. -1.
    9900012    2    1    2    0    0  0.82189274865E+00  0.16939886836E+02 -0.79400980007E+01  0.72461536640E+02  0.69999956159E+02 0.  0.
        -12    1    1    2    0    0 -0.82189274865E+00 -0.16939886836E+02  0.79400980007E+01  0.18726463360E+02  0.00000000000E+00 0.  1.
         11    1    3    3    0    0 -0.24941104242E+01  0.54689261106E+01  0.17701287113E+01  0.62660270927E+01  0.51100000000E-03 0. -1.
        -11    1    3    3    0    0  0.25914488349E+02  0.20955699086E+02  0.99448893266E+01  0.34779345229E+02  0.51100000000E-03 0.  1.
         12    1    3    3    0    0 -0.22598485176E+02 -0.94847383603E+01 -0.19655116039E+02  0.31416164319E+02  0.00000000000E+00 0. -1.
</event>
<event>
 7    1  0.2851651E-013  0.7246156E+02  0.7816164E-02  0.1226708E+00
        -11   -1    0    0    0    0  0.00000000000E+00  0.00000000000E+00  0.45593999997E+02  0.45594000000E+02  0.51100000000E-03 0. -1.
         11   -1    0    0    0    0 -0.00000000000E+00 -0.00000000000E+00 -0.45593999997E+02  0.45594000000E+02  0.51100000000E-03 0.  1.
    9900012    2    1    2    0    0 -0.69249387075E+01 -0.31124030744E+01  0.17118343421E+02  0.72461561191E+02  0.69999988141E+02 0.  0.
        -12    1    1    2    0    0  0.69249387075E+01  0.31124030744E+01 -0.17118343421E+02  0.18726438809E+02  0.00000000000E+00 0.  1.
         11    1    3    3    0    0  0.22001122781E+02  0.56556896468E+01  0.53246098754E+01  0.23332117341E+02  0.51100000000E-03 0. -1.
        -11    1    3    3    0    0  0.83941664321E+00  0.10004574811E+02  0.95671978564E+01  0.13868215910E+02  0.51100000000E-03 0.  1.
        -12    1    3    3    0    0 -0.29765478132E+02 -0.18772667532E+02  0.22265356890E+01  0.35261227940E+02  0.00000000000E+00 0.  1.
</event>
<event>
 7    1  0.2851651E-013  0.7246161E+02  0.7816164E-02  0.1226708E+00
        -11   -1    0    0    0    0  0.00000000000E+00  0.00000000000E+00  0.45593999997E+02  0.45594000000E+02  0.51100000000E-03 0. -1.
         11   -1    0    0    0    0 -0.00000000000E+00 -0.00000000000E+00 -0.45593999997E+02  0.45594000000E+02  0.51100000000E-03 0.  1.
    9900012    2    1    2    0    0  0.16569765491E+02  0.71647008480E+01  0.49787161383E+01  0.72461610037E+02  0.70000051772E+02 0.  0.
        -12    1    1    2    0    0 -0.16569765491E+02 -0.71647008480E+01 -0.49787161383E+01  0.18726389963E+02  0.00000000000E+00 0.  1.
         11    1    3    3    0    0  0.11769237234E+01  0.29853391721E+01 -0.10988132043E+01  0.33918711860E+01  0.51100000000E-03 0. -1.
        -11    1    3    3    0    0 -0.18298263361E+02  0.19097868689E+02 -0.10765727805E+02  0.28556188925E+02  0.51100000000E-03 0.  1.
         12    1    3    3    0    0  0.33691105128E+02 -0.14918507013E+02  0.16843257147E+02  0.40513549926E+02  0.00000000000E+00 0. -1.
</event>
<event>
 7    1  0.2851651E-013  0.7246156E+02  0.7816164E-02  0.1226708E+00
        -11   -1    0    0    0    0  0.00000000000E+00  0.00000000000E+00  0.45593999997E+02  0.45594000000E+02  0.51100000000E-03 0.  1.
         11   -1    0    0    0    0 -0.00000000000E+00 -0.00000000000E+00 -0.45593999997E+02  0.45594000000E+02  0.51100000000E-03 0. -1.
    9900012    2    1    2    0    0 -0.11326342871E+02  0.11522186830E+02 -0.94674479181E+01  0.72461564080E+02  0.69999991904E+02 0.  0.
        -12    1    1    2    0    0  0.11326342871E+02 -0.11522186830E+02  0.94674479181E+01  0.18726435920E+02  0.00000000000E+00 0.  1.
         11    1    3    3    0    0  0.12554018721E+02  0.31217808815E+01  0.64492391417E+01  0.14454811922E+02  0.51100000000E-03 0. -1.
        -11    1    3    3    0    0  0.85392311060E+01 -0.79785985031E+01  0.83156543894E+01  0.14343172945E+02  0.51100000000E-03 0.  1.
        -12    1    3    3    0    0 -0.32419592698E+02  0.16379004452E+02 -0.24232341449E+02  0.43663579213E+02  0.00000000000E+00 0.  1.
</event>
<event>
 7    1  0.2851651E-013  0.7246166E+02  0.7816164E-02  0.1226708E+00
        -11   -1    0    0    0    0  0.00000000000E+00  0.00000000000E+00  0.45593999997E+02  0.45594000000E+02  0.51100000000E-03 0.  1.
         11   -1    0    0    0    0 -0.00000000000E+00 -0.00000000000E+00 -0.45593999997E+02  0.45594000000E+02  0.51100000000E-03 0. -1.
    9900012    2    1    2    0    0  0.23164428463E+01 -0.19002721161E+01 -0.18485098930E+02  0.72461659620E+02  0.70000116364E+02 0.  0.
        -12    1    1    2    0    0 -0.23164428463E+01  0.19002721161E+01  0.18485098930E+02  0.18726340380E+02  0.00000000000E+00 0.  1.
         11    1    3    3    0    0  0.13679218497E+02  0.22354156981E+02 -0.69770907259E+01  0.27120271907E+02  0.51100000000E-03 0.  1.
        -11    1    3    3    0    0 -0.30132590228E+01 -0.20172661965E+02 -0.22882177550E+02  0.30653059723E+02  0.51100000000E-03 0. -1.
         12    1    3    3    0    0 -0.83495166277E+01 -0.40817671322E+01  0.11374169346E+02  0.14688327991E+02  0.00000000000E+00 0. -1.
</event>
<event>
 7    1  0.2851651E-013  0.7246151E+02  0.7816164E-02  0.1226708E+00
        -11   -1    0    0    0    0  0.00000000000E+00  0.00000000000E+00  0.45593999997E+02  0.45594000000E+02  0.51100000000E-03 0. -1.
         11   -1    0    0    0    0 -0.00000000000E+00 -0.00000000000E+00 -0.45593999997E+02  0.45594000000E+02  0.51100000000E-03 0.  1.
    9900012    2    1    2    0    0  0.15811270139E+01 -0.14535621971E+02  0.11700308953E+02  0.72461508115E+02  0.69999919000E+02 0.  0.
        -12    1    1    2    0    0 -0.15811270139E+01  0.14535621971E+02 -0.11700308953E+02  0.18726491885E+02  0.00000000000E+00 0.  1.
         11    1    3    3    0    0 -0.14700151120E+02  0.14855416321E+02  0.15350532349E+02  0.25930998451E+02  0.51100000000E-03 0. -1.
        -11    1    3    3    0    0 -0.35488048995E+01  0.37474940581E+01 -0.59093636687E+01  0.78459102187E+01  0.51100000000E-03 0.  1.
        -12    1    3    3    0    0  0.19830083033E+02 -0.33138532350E+02  0.22591402729E+01  0.38684599445E+02  0.00000000000E+00 0.  1.
</event>
<event>
 7    1  0.2851651E-013  0.7246155E+02  0.7816164E-02  0.1226708E+00
        -11   -1    0    0    0    0  0.00000000000E+00  0.00000000000E+00  0.45593999997E+02  0.45594000000E+02  0.51100000000E-03 0.  1.
         11   -1    0    0    0    0 -0.00000000000E+00 -0.00000000000E+00 -0.45593999997E+02  0.45594000000E+02  0.51100000000E-03 0. -1.
    9900012    2    1    2    0    0 -0.14538667827E+02  0.26973262530E+01 -0.11490500418E+02  0.72461547294E+02  0.69999970037E+02 0.  0.
        -12    1    1    2    0    0  0.14538667827E+02 -0.26973262530E+01  0.11490500418E+02  0.18726452706E+02  0.00000000000E+00 0.  1.
         11    1    3    3    0    0 -0.16569314897E+02 -0.63678820633E+01 -0.15100766856E+02  0.23305048338E+02  0.51100000000E-03 0. -1.
        -11    1    3    3    0    0 -0.93185025014E+01  0.26321471063E+02 -0.12067415111E+01  0.27948355106E+02  0.51100000000E-03 0.  1.
        -12    1    3    3    0    0  0.11349149571E+02 -0.17256262747E+02  0.48170079494E+01  0.21208143850E+02  0.00000000000E+00 0.  1.
</event>
<event>
 7    1  0.2851651E-013  0.7246158E+02  0.7816164E-02  0.1226708E+00
        -11   -1    0    0    0    0  0.00000000000E+00  0.00000000000E+00  0.45593999997E+02  0.45594000000E+02  0.51100000000E-03 0.  1.
         11   -1    0    0    0    0 -0.00000000000E+00 -0.00000000000E+00 -0.45593999997E+02  0.45594000000E+02  0.51100000000E-03 0. -1.
    9900012    2    1    2    0    0  0.98422011807E+01 -0.27905469651E+01 -0.15685111638E+02  0.72461580066E+02  0.70000012730E+02 0.  0.
        -12    1    1    2    0    0 -0.98422011807E+01  0.27905469651E+01  0.15685111638E+02  0.18726419934E+02  0.00000000000E+00 0.  1.
         11    1    3    3    0    0 -0.11177008964E+02  0.16759038926E+00 -0.11805909238E+02  0.16258324302E+02  0.51100000000E-03 0. -1.
        -11    1    3    3    0    0 -0.70422162729E+01 -0.13043811404E+01  0.18778902712E+02  0.20098293647E+02  0.51100000000E-03 0.  1.
         12    1    3    3    0    0  0.28061426418E+02 -0.16537562140E+01 -0.22658105112E+02  0.36104962117E+02  0.00000000000E+00 0. -1.
</event>
<event>
 7    1  0.2851651E-013  0.7246139E+02  0.7816164E-02  0.1226708E+00
        -11   -1    0    0    0    0  0.00000000000E+00  0.00000000000E+00  0.45593999997E+02  0.45594000000E+02  0.51100000000E-03 0.  1.
         11   -1    0    0    0    0 -0.00000000000E+00 -0.00000000000E+00 -0.45593999997E+02  0.45594000000E+02  0.51100000000E-03 0. -1.
    9900012    2    1    2    0    0 -0.17986332166E+02  0.51950637641E+01 -0.43491048595E+00  0.72461388469E+02  0.69999763138E+02 0.  0.
        -12    1    1    2    0    0  0.17986332166E+02 -0.51950637641E+01  0.43491048595E+00  0.18726611531E+02  0.00000000000E+00 0.  1.
         11    1    3    3    0    0 -0.10873514525E+02  0.13786662470E+02 -0.29046376354E+02  0.33941086602E+02  0.51100000000E-03 0. -1.
        -11    1    3    3    0    0 -0.62426602557E+00  0.62757458357E+01  0.84560867963E+00  0.63631555195E+01  0.51100000000E-03 0.  1.
        -12    1    3    3    0    0 -0.64885516156E+01 -0.14867344541E+02  0.27765857188E+02  0.32157146347E+02  0.00000000000E+00 0.  1.
</event>
<event>
 7    1  0.2957491E-013  0.7246157E+02  0.7816164E-02  0.1226708E+00
        -11   -1    0    0    0    0  0.00000000000E+00  0.00000000000E+00  0.45593999997E+02  0.45594000000E+02  0.51100000000E-03 0. -1.
         11   -1    0    0    0    0 -0.00000000000E+00 -0.00000000000E+00 -0.45593999997E+02  0.45594000000E+02  0.51100000000E-03 0.  1.
    9900012    2    1    2    0    0 -0.25661656814E+01 -0.16126547263E+02  0.91666951543E+01  0.72461573940E+02  0.70000004749E+02 0.  0.
        -12    1    1    2    0    0  0.25661656814E+01  0.16126547263E+02 -0.91666951543E+01  0.18726426060E+02  0.00000000000E+00 0.  1.
         11    1    3    3    0    0 -0.86998222582E+01  0.11625658547E+01  0.43585425495E+00  0.87879710903E+01  0.51100000000E-03 0.  1.
        -11    1    3    3    0    0 -0.17023013375E+02  0.10364128564E+02 -0.10788128490E+02  0.22662344580E+02  0.51100000000E-03 0. -1.
         12    1    3    3    0    0  0.23156669952E+02 -0.27653241683E+02  0.19518969389E+02  0.41011258269E+02  0.00000000000E+00 0. -1.
</event>
<event>
 7    1  0.2851651E-013  0.7246158E+02  0.7816164E-02  0.1226708E+00
        -11   -1    0    0    0    0  0.00000000000E+00  0.00000000000E+00  0.45593999997E+02  0.45594000000E+02  0.51100000000E-03 0.  1.
         11   -1    0    0    0    0 -0.00000000000E+00 -0.00000000000E+00 -0.45593999997E+02  0.45594000000E+02  0.51100000000E-03 0. -1.
    9900012    2    1    2    0    0 -0.15376365158E+02 -0.58720813451E+01 -0.89311093192E+01  0.72461583940E+02  0.70000017776E+02 0.  0.
        -12    1    1    2    0    0  0.15376365158E+02  0.58720813451E+01  0.89311093192E+01  0.18726416060E+02  0.00000000000E+00 0.  1.
         11    1    3    3    0    0  0.63831448826E+01 -0.39707570149E+01 -0.75789870997E+01  0.10674853422E+02  0.51100000000E-03 0. -1.
        -11    1    3    3    0    0 -0.11175379418E+02  0.25380686650E+02  0.11247784718E+02  0.29926259727E+02  0.51100000000E-03 0.  1.
         12    1    3    3    0    0 -0.10584130622E+02 -0.27282010980E+02 -0.12599906937E+02  0.31860470790E+02  0.00000000000E+00 0. -1.
</event>
<event>
 7    1  0.2851651E-013  0.7246156E+02  0.7816164E-02  0.1226708E+00
        -11   -1    0    0    0    0  0.00000000000E+00  0.00000000000E+00  0.45593999997E+02  0.45594000000E+02  0.51100000000E-03 0.  1.
         11   -1    0    0    0    0 -0.00000000000E+00 -0.00000000000E+00 -0.45593999997E+02  0.45594000000E+02  0.51100000000E-03 0. -1.
    9900012    2    1    2    0    0 -0.58669248699E+01  0.17744999422E+02 -0.11720125887E+01  0.72461563461E+02  0.69999991099E+02 0.  0.
        -12    1    1    2    0    0  0.58669248699E+01 -0.17744999422E+02  0.11720125887E+01  0.18726436539E+02  0.00000000000E+00 0.  1.
         11    1    3    3    0    0 -0.11663574163E+02 -0.11524640006E+01 -0.13794454806E+01  0.11801271357E+02  0.51100000000E-03 0. -1.
        -11    1    3    3    0    0 -0.25311068782E+02  0.67347211752E+01 -0.55326968825E+01  0.26769710631E+02  0.51100000000E-03 0.  1.
         12    1    3    3    0    0  0.31107718075E+02  0.12162742248E+02  0.57401297744E+01  0.33890581474E+02  0.00000000000E+00 0. -1.
</event>
<event>
 7    1  0.2851651E-013  0.7246175E+02  0.7816164E-02  0.1226708E+00
        -11   -1    0    0    0    0  0.00000000000E+00  0.00000000000E+00  0.45593999997E+02  0.45594000000E+02  0.51100000000E-03 0. -1.
         11   -1    0    0    0    0 -0.00000000000E+00 -0.00000000000E+00 -0.45593999997E+02  0.45594000000E+02  0.51100000000E-03 0.  1.
    9900012    2    1    2    0    0  0.73370673976E+01  0.17160995088E+02 -0.15297925703E+01  0.72461746351E+02  0.70000229346E+02 0.  0.
        -12    1    1    2    0    0 -0.73370673976E+01 -0.17160995088E+02  0.15297925703E+01  0.18726253649E+02  0.00000000000E+00 0.  1.
         11    1    3    3    0    0  0.89879345108E+01  0.42871669184E+01 -0.20457066802E+02  0.22752018577E+02  0.51100000000E-03 0. -1.
        -11    1    3    3    0    0  0.11591994139E+02 -0.12190998738E+02  0.11586594027E+02  0.20426549874E+02  0.51100000000E-03 0.  1.
         12    1    3    3    0    0 -0.13242861252E+02  0.25064826908E+02  0.73406802043E+01  0.29283177900E+02  0.00000000000E+00 0. -1.
</event>
<event>
 7    1  0.2851651E-013  0.7246162E+02  0.7816164E-02  0.1226708E+00
        -11   -1    0    0    0    0  0.00000000000E+00  0.00000000000E+00  0.45593999997E+02  0.45594000000E+02  0.51100000000E-03 0.  1.
         11   -1    0    0    0    0 -0.00000000000E+00 -0.00000000000E+00 -0.45593999997E+02  0.45594000000E+02  0.51100000000E-03 0. -1.
    9900012    2    1    2    0    0 -0.13473631447E+02  0.80692340041E+01 -0.10199322728E+02  0.72461615782E+02  0.70000059256E+02 0.  0.
        -12    1    1    2    0    0  0.13473631447E+02 -0.80692340041E+01  0.10199322728E+02  0.18726384218E+02  0.00000000000E+00 0.  1.
         11    1    3    3    0    0  0.83604795480E+01 -0.32172194572E+00 -0.35683898580E+02  0.36651626723E+02  0.51100000000E-03 0. -1.
        -11    1    3    3    0    0  0.81008570233E+00 -0.25063356730E-01  0.18931064372E+00  0.83228949166E+00  0.51100000000E-03 0.  1.
        -12    1    3    3    0    0 -0.22644196697E+02  0.84160193065E+01  0.25295265209E+02  0.34977699567E+02  0.00000000000E+00 0.  1.
</event>
<event>
 7    1  0.2851651E-013  0.7246162E+02  0.7816164E-02  0.1226708E+00
        -11   -1    0    0    0    0  0.00000000000E+00  0.00000000000E+00  0.45593999997E+02  0.45594000000E+02  0.51100000000E-03 0.  1.
         11   -1    0    0    0    0 -0.00000000000E+00 -0.00000000000E+00 -0.45593999997E+02  0.45594000000E+02  0.51100000000E-03 0. -1.
    9900012    2    1    2    0    0  0.90471816003E+00  0.18097203295E+02  0.47275754019E+01  0.72461621514E+02  0.70000066723E+02 0.  0.
        -12    1    1    2    0    0 -0.90471816003E+00 -0.18097203295E+02 -0.47275754019E+01  0.18726378486E+02  0.00000000000E+00 0.  1.
         11    1    3    3    0    0 -0.71818539248E+01  0.95913592764E+00 -0.36940405874E+01  0.81329517180E+01  0.51100000000E-03 0. -1.
        -11    1    3    3    0    0 -0.39078765212E+01 -0.96411594765E+01  0.27450701327E+02  0.29355824951E+02  0.51100000000E-03 0.  1.
         12    1    3    3    0    0  0.11994448606E+02  0.26779226843E+02 -0.19029085338E+02  0.34972844844E+02  0.00000000000E+00 0. -1.
</event>
<event>
 7    1  0.2851651E-013  0.7246193E+02  0.7816164E-02  0.1226707E+00
        -11   -1    0    0    0    0  0.00000000000E+00  0.00000000000E+00  0.45593999997E+02  0.45594000000E+02  0.51100000000E-03 0.  1.
         11   -1    0    0    0    0 -0.00000000000E+00 -0.00000000000E+00 -0.45593999997E+02  0.45594000000E+02  0.51100000000E-03 0. -1.
    9900012    2    1    2    0    0 -0.13699087351E+02  0.47030492218E+01  0.11869369281E+02  0.72461932784E+02  0.70000472209E+02 0.  0.
        -12    1    1    2    0    0  0.13699087351E+02 -0.47030492218E+01 -0.11869369281E+02  0.18726067216E+02  0.00000000000E+00 0.  1.
         11    1    3    3    0    0 -0.14982742878E+02 -0.43330697736E+01 -0.88829158069E+01  0.17948935102E+02  0.51100000000E-03 0. -1.
        -11    1    3    3    0    0  0.12341928264E+01  0.54958970465E+01 -0.16323765321E+02  0.17268278165E+02  0.51100000000E-03 0.  1.
        -12    1    3    3    0    0  0.49462700159E-01  0.35402219489E+01  0.37076050409E+02  0.37244719517E+02  0.00000000000E+00 0.  1.
</event>
<event>
 7    1  0.2851651E-013  0.7246156E+02  0.7816164E-02  0.1226708E+00
        -11   -1    0    0    0    0  0.00000000000E+00  0.00000000000E+00  0.45593999997E+02  0.45594000000E+02  0.51100000000E-03 0. -1.
         11   -1    0    0    0    0 -0.00000000000E+00 -0.00000000000E+00 -0.45593999997E+02  0.45594000000E+02  0.51100000000E-03 0.  1.
    9900012    2    1    2    0    0 -0.17677500740E+02 -0.39065317178E+01  0.47879474269E+01  0.72461562457E+02  0.69999989790E+02 0.  0.
        -12    1    1    2    0    0  0.17677500740E+02  0.39065317178E+01 -0.47879474269E+01  0.18726437543E+02  0.00000000000E+00 0.  1.
         11    1    3    3    0    0  0.20346229987E+01  0.26222688930E+02  0.85195635249E+01  0.27646917882E+02  0.51100000000E-03 0. -1.
        -11    1    3    3    0    0  0.31602207063E+01  0.21828356471E+01  0.27172167180E+01  0.47047883404E+01  0.51100000000E-03 0.  1.
        -12    1    3    3    0    0 -0.22872344445E+02 -0.32312056295E+02 -0.64488328160E+01  0.40109856234E+02  0.00000000000E+00 0.  1.
</event>
<event>
 7    1  0.3630211E-013  0.7246185E+02  0.7816164E-02  0.1226707E+00
        -11   -1    0    0    0    0  0.00000000000E+00  0.00000000000E+00  0.45593999997E+02  0.45594000000E+02  0.51100000000E-03 0. -1.
         11   -1    0    0    0    0 -0.00000000000E+00 -0.00000000000E+00 -0.45593999997E+02  0.45594000000E+02  0.51100000000E-03 0.  1.
    9900012    2    1    2    0    0 -0.52997851007E+01  0.16653838127E+02  0.67253676433E+01  0.72461852067E+02  0.70000367060E+02 0.  0.
        -12    1    1    2    0    0  0.52997851007E+01 -0.16653838127E+02 -0.67253676433E+01  0.18726147933E+02  0.00000000000E+00 0.  1.
         11    1    3    3    0    0 -0.18982132233E+01 -0.12482013329E+02 -0.39091968706E+01  0.13216871439E+02  0.51100000000E-03 0. -1.
        -11    1    3    3    0    0  0.22759739320E+02  0.18240866887E+02  0.57433549657E+00  0.29173015275E+02  0.51100000000E-03 0.  1.
         12    1    3    3    0    0 -0.26161311197E+02  0.10894984570E+02  0.10060229017E+02  0.30071965353E+02  0.00000000000E+00 0. -1.
</event>
<event>
 7    1  0.2851651E-013  0.7246156E+02  0.7816164E-02  0.1226708E+00
        -11   -1    0    0    0    0  0.00000000000E+00  0.00000000000E+00  0.45593999997E+02  0.45594000000E+02  0.51100000000E-03 0. -1.
         11   -1    0    0    0    0 -0.00000000000E+00 -0.00000000000E+00 -0.45593999997E+02  0.45594000000E+02  0.51100000000E-03 0.  1.
    9900012    2    1    2    0    0 -0.54216103209E+01  0.97467441553E+01  0.15042827854E+02  0.72461560137E+02  0.69999986768E+02 0.  0.
        -12    1    1    2    0    0  0.54216103209E+01 -0.97467441553E+01 -0.15042827854E+02  0.18726439863E+02  0.00000000000E+00 0.  1.
         11    1    3    3    0    0 -0.14827963559E+02  0.11932199712E+02  0.87974231198E+01  0.20967607090E+02  0.51100000000E-03 0. -1.
        -11    1    3    3    0    0  0.28720751888E-01  0.38727903496E+01  0.27347578168E+02  0.27620451877E+02  0.51100000000E-03 0.  1.
        -12    1    3    3    0    0  0.93776324862E+01 -0.60582459059E+01 -0.21102173433E+02  0.23873501170E+02  0.00000000000E+00 0.  1.
</event>
<event>
 7    1  0.2851651E-013  0.7246185E+02  0.7816164E-02  0.1226707E+00
        -11   -1    0    0    0    0  0.00000000000E+00  0.00000000000E+00  0.45593999997E+02  0.45594000000E+02  0.51100000000E-03 0. -1.
         11   -1    0    0    0    0 -0.00000000000E+00 -0.00000000000E+00 -0.45593999997E+02  0.45594000000E+02  0.51100000000E-03 0.  1.
    9900012    2    1    2    0    0 -0.13890273957E+01  0.14557047558E+02 -0.11697508694E+02  0.72461848757E+02  0.70000362749E+02 0.  0.
        -12    1    1    2    0    0  0.13890273957E+01 -0.14557047558E+02  0.11697508694E+02  0.18726151243E+02  0.00000000000E+00 0.  1.
         11    1    3    3    0    0  0.51917598476E+01  0.34856014247E+02 -0.11763983730E+02  0.37152219489E+02  0.51100000000E-03 0.  1.
        -11    1    3    3    0    0  0.89403172469E+00 -0.49616927241E+01 -0.12919317383E+02  0.13868181183E+02  0.51100000000E-03 0. -1.
        -12    1    3    3    0    0 -0.74748189680E+01 -0.15337273964E+02  0.12985792419E+02  0.21441448086E+02  0.00000000000E+00 0.  1.
</event>
<event>
 7    1  0.2851651E-013  0.7246156E+02  0.7816164E-02  0.1226708E+00
        -11   -1    0    0    0    0  0.00000000000E+00  0.00000000000E+00  0.45593999997E+02  0.45594000000E+02  0.51100000000E-03 0. -1.
         11   -1    0    0    0    0 -0.00000000000E+00 -0.00000000000E+00 -0.45593999997E+02  0.45594000000E+02  0.51100000000E-03 0.  1.
    9900012    2    1    2    0    0 -0.10780732480E+02 -0.85036601882E+01  0.12733550626E+02  0.72461555037E+02  0.69999980125E+02 0.  0.
        -12    1    1    2    0    0  0.10780732480E+02  0.85036601882E+01 -0.12733550626E+02  0.18726444963E+02  0.00000000000E+00 0.  1.
         11    1    3    3    0    0 -0.10074138714E+02  0.12932918397E+02  0.19662672123E+02  0.25600182115E+02  0.51100000000E-03 0. -1.
        -11    1    3    3    0    0  0.16378830753E+02 -0.18064583430E+02  0.60716351207E+01  0.25128868351E+02  0.51100000000E-03 0.  1.
        -12    1    3    3    0    0 -0.17085424519E+02 -0.33719951550E+01 -0.13000756617E+02  0.21732504571E+02  0.00000000000E+00 0.  1.
</event>
<event>
 7    1  0.2851651E-013  0.7246155E+02  0.7816164E-02  0.1226708E+00
        -11   -1    0    0    0    0  0.00000000000E+00  0.00000000000E+00  0.45593999997E+02  0.45594000000E+02  0.51100000000E-03 0. -1.
         11   -1    0    0    0    0 -0.00000000000E+00 -0.00000000000E+00 -0.45593999997E+02  0.45594000000E+02  0.51100000000E-03 0.  1.
    9900012    2    1    2    0    0 -0.11208368416E+01 -0.16855980463E+02  0.80808192670E+01  0.72461548318E+02  0.69999971371E+02 0.  0.
        -12    1    1    2    0    0  0.11208368416E+01  0.16855980463E+02 -0.80808192670E+01  0.18726451682E+02  0.00000000000E+00 0.  1.
         11    1    3    3    0    0  0.13413158937E+02 -0.10842723266E+02  0.23991923528E+01  0.17413604013E+02  0.51100000000E-03 0. -1.
        -11    1    3    3    0    0 -0.32677500094E+02 -0.13089396160E+02  0.50606595275E+01  0.35563486603E+02  0.51100000000E-03 0.  1.
         12    1    3    3    0    0  0.18143504315E+02  0.70761389634E+01  0.62096738666E+00  0.19484457702E+02  0.00000000000E+00 0. -1.
</event>
<event>
 7    1  0.2851651E-013  0.7246158E+02  0.7816164E-02  0.1226708E+00
        -11   -1    0    0    0    0  0.00000000000E+00  0.00000000000E+00  0.45593999997E+02  0.45594000000E+02  0.51100000000E-03 0.  1.
         11   -1    0    0    0    0 -0.00000000000E+00 -0.00000000000E+00 -0.45593999997E+02  0.45594000000E+02  0.51100000000E-03 0. -1.
    9900012    2    1    2    0    0  0.23453105850E+01 -0.19566408482E+01 -0.18475652633E+02  0.72461583755E+02  0.70000017535E+02 0.  0.
        -12    1    1    2    0    0 -0.23453105850E+01  0.19566408482E+01  0.18475652633E+02  0.18726416245E+02  0.00000000000E+00 0.  1.
         11    1    3    3    0    0  0.95341538883E+01  0.82135592197E+01  0.23172560034E+01  0.12795793100E+02  0.51100000000E-03 0. -1.
        -11    1    3    3    0    0 -0.81724048623E-02 -0.29670685478E+02  0.82173745472E+00  0.29682063544E+02  0.51100000000E-03 0.  1.
         12    1    3    3    0    0 -0.71806708984E+01  0.19500485410E+02 -0.21614646092E+02  0.29983727111E+02  0.00000000000E+00 0. -1.
</event>
<event>
 7    1  0.2851651E-013  0.7246159E+02  0.7816164E-02  0.1226708E+00
        -11   -1    0    0    0    0  0.00000000000E+00  0.00000000000E+00  0.45593999997E+02  0.45594000000E+02  0.51100000000E-03 0. -1.
         11   -1    0    0    0    0 -0.00000000000E+00 -0.00000000000E+00 -0.45593999997E+02  0.45594000000E+02  0.51100000000E-03 0.  1.
    9900012    2    1    2    0    0  0.25677510935E+01  0.18456726530E+02  0.18531502864E+01  0.72461594423E+02  0.70000031431E+02 0.  0.
        -12    1    1    2    0    0 -0.25677510935E+01 -0.18456726530E+02 -0.18531502864E+01  0.18726405577E+02  0.00000000000E+00 0.  1.
         11    1    3    3    0    0  0.94061610533E+01 -0.16392051937E+01  0.16642496659E+02  0.19186858908E+02  0.51100000000E-03 0. -1.
        -11    1    3    3    0    0 -0.40802755269E+01  0.21842288449E+02  0.12699185492E+02  0.25593036660E+02  0.51100000000E-03 0.  1.
        -12    1    3    3    0    0 -0.27581344329E+01 -0.17463567261E+01 -0.27488531865E+02  0.27681698854E+02  0.00000000000E+00 0.  1.
</event>
<event>
 7    1  0.2851651E-013  0.7246157E+02  0.7816164E-02  0.1226708E+00
        -11   -1    0    0    0    0  0.00000000000E+00  0.00000000000E+00  0.45593999997E+02  0.45594000000E+02  0.51100000000E-03 0. -1.
         11   -1    0    0    0    0 -0.00000000000E+00 -0.00000000000E+00 -0.45593999997E+02  0.45594000000E+02  0.51100000000E-03 0.  1.
    9900012    2    1    2    0    0  0.12652255563E+02  0.23460566797E+01  0.13604987131E+02  0.72461568743E+02  0.69999997979E+02 0.  0.
        -12    1    1    2    0    0 -0.12652255563E+02 -0.23460566797E+01 -0.13604987131E+02  0.18726431257E+02  0.00000000000E+00 0.  1.
         11    1    3    3    0    0  0.32697932429E+01 -0.54594456670E+01  0.27961980399E+01  0.69509581053E+01  0.51100000000E-03 0. -1.
        -11    1    3    3    0    0  0.16956205577E+01 -0.27547467177E+02  0.98959605914E+01  0.29320097429E+02  0.51100000000E-03 0.  1.
         12    1    3    3    0    0  0.76868417628E+01  0.35352969524E+02  0.91282849985E+00  0.36190513209E+02  0.00000000000E+00 0. -1.
</event>
<event>
 7    1  0.2851651E-013  0.7246157E+02  0.7816164E-02  0.1226708E+00
        -11   -1    0    0    0    0  0.00000000000E+00  0.00000000000E+00  0.45593999997E+02  0.45594000000E+02  0.51100000000E-03 0.  1.
         11   -1    0    0    0    0 -0.00000000000E+00 -0.00000000000E+00 -0.45593999997E+02  0.45594000000E+02  0.51100000000E-03 0. -1.
    9900012    2    1    2    0    0  0.88650958627E+01  0.14621363610E+02  0.76357691913E+01  0.72461570292E+02  0.69999999997E+02 0.  0.
        -12    1    1    2    0    0 -0.88650958627E+01 -0.14621363610E+02 -0.76357691913E+01  0.18726429708E+02  0.00000000000E+00 0.  1.
         11    1    3    3    0    0  0.33809245273E+02 -0.60950721341E+01  0.67325450610E+01  0.35007743908E+02  0.51100000000E-03 0. -1.
        -11    1    3    3    0    0  0.28142310878E+00  0.99082361242E+01 -0.88790581225E+00  0.99519203700E+01  0.51100000000E-03 0.  1.
        -12    1    3    3    0    0 -0.25225572519E+02  0.10808199620E+02  0.17911299425E+01  0.27501906014E+02  0.00000000000E+00 0.  1.
</event>
<event>
 7    1  0.2851651E-013  0.7246160E+02  0.7816164E-02  0.1226708E+00
        -11   -1    0    0    0    0  0.00000000000E+00  0.00000000000E+00  0.45593999997E+02  0.45594000000E+02  0.51100000000E-03 0. -1.
         11   -1    0    0    0    0 -0.00000000000E+00 -0.00000000000E+00 -0.45593999997E+02  0.45594000000E+02  0.51100000000E-03 0.  1.
    9900012    2    1    2    0    0 -0.51943132864E+01  0.44895533009E+01  0.17422429551E+02  0.72461600698E+02  0.70000039607E+02 0.  0.
        -12    1    1    2    0    0  0.51943132864E+01 -0.44895533009E+01 -0.17422429551E+02  0.18726399302E+02  0.00000000000E+00 0.  1.
         11    1    3    3    0    0  0.19854730742E+01 -0.46668243521E+00  0.28544953465E+02  0.28617726402E+02  0.51100000000E-03 0. -1.
        -11    1    3    3    0    0 -0.53245505021E+01 -0.24093298936E+01  0.15285786403E+02  0.16364931250E+02  0.51100000000E-03 0.  1.
        -12    1    3    3    0    0 -0.18552358585E+01  0.73655656297E+01 -0.26408310318E+02  0.27478943047E+02  0.00000000000E+00 0.  1.
</event>
<event>
 7    1  0.2851651E-013  0.7246162E+02  0.7816164E-02  0.1226708E+00
        -11   -1    0    0    0    0  0.00000000000E+00  0.00000000000E+00  0.45593999997E+02  0.45594000000E+02  0.51100000000E-03 0.  1.
         11   -1    0    0    0    0 -0.00000000000E+00 -0.00000000000E+00 -0.45593999997E+02  0.45594000000E+02  0.51100000000E-03 0. -1.
    9900012    2    1    2    0    0 -0.27096378466E+01 -0.16334829523E+02 -0.87469166288E+01  0.72461619054E+02  0.70000063519E+02 0.  0.
        -12    1    1    2    0    0  0.27096378466E+01  0.16334829523E+02  0.87469166288E+01  0.18726380946E+02  0.00000000000E+00 0.  1.
         11    1    3    3    0    0 -0.85678484385E+01 -0.78927926553E+01 -0.12747019168E+02  0.17268199116E+02  0.51100000000E-03 0. -1.
        -11    1    3    3    0    0  0.20325160848E+02  0.14008538511E+02 -0.79502064688E+01  0.25933705826E+02  0.51100000000E-03 0.  1.
         12    1    3    3    0    0 -0.14466950257E+02 -0.22450575379E+02  0.11950309008E+02  0.29259714113E+02  0.00000000000E+00 0. -1.
</event>
<event>
 7    1  0.2851651E-013  0.7246155E+02  0.7816164E-02  0.1226708E+00
        -11   -1    0    0    0    0  0.00000000000E+00  0.00000000000E+00  0.45593999997E+02  0.45594000000E+02  0.51100000000E-03 0.  1.
         11   -1    0    0    0    0 -0.00000000000E+00 -0.00000000000E+00 -0.45593999997E+02  0.45594000000E+02  0.51100000000E-03 0. -1.
    9900012    2    1    2    0    0 -0.61087024669E+00 -0.15117939478E+02  0.11034243035E+02  0.72461554105E+02  0.69999978911E+02 0.  0.
        -12    1    1    2    0    0  0.61087024669E+00  0.15117939478E+02 -0.11034243035E+02  0.18726445895E+02  0.00000000000E+00 0.  1.
         11    1    3    3    0    0  0.19868762546E+02 -0.53240623610E+01  0.69262405649E+01  0.21704519662E+02  0.51100000000E-03 0.  1.
        -11    1    3    3    0    0 -0.14314553136E+02 -0.25934059785E+02  0.11746461036E+02  0.31866302508E+02  0.51100000000E-03 0. -1.
         12    1    3    3    0    0 -0.61650796572E+01  0.16140182669E+02 -0.76384585658E+01  0.18890731935E+02  0.00000000000E+00 0. -1.
</event>
<event>
 7    1  0.2851651E-013  0.7246135E+02  0.7816164E-02  0.1226709E+00
        -11   -1    0    0    0    0  0.00000000000E+00  0.00000000000E+00  0.45593999997E+02  0.45594000000E+02  0.51100000000E-03 0. -1.
         11   -1    0    0    0    0 -0.00000000000E+00 -0.00000000000E+00 -0.45593999997E+02  0.45594000000E+02  0.51100000000E-03 0.  1.
    9900012    2    1    2    0    0  0.83167490684E+00 -0.16435807179E+01  0.18635838937E+02  0.72461346972E+02  0.69999709081E+02 0.  0.
        -12    1    1    2    0    0 -0.83167490684E+00  0.16435807179E+01 -0.18635838937E+02  0.18726653028E+02  0.00000000000E+00 0.  1.
         11    1    3    3    0    0  0.10693243975E+01  0.15508266783E+02  0.93512612102E+01  0.18140999966E+02  0.51100000000E-03 0. -1.
        -11    1    3    3    0    0  0.22412513359E+01  0.18071408671E+02  0.30222831975E+01  0.18458960287E+02  0.51100000000E-03 0.  1.
         12    1    3    3    0    0 -0.24789008265E+01 -0.35223256172E+02  0.62622945293E+01  0.35861386719E+02  0.00000000000E+00 0. -1.
</event>
<event>
 7    1  0.2851651E-013  0.7246152E+02  0.7816164E-02  0.1226708E+00
        -11   -1    0    0    0    0  0.00000000000E+00  0.00000000000E+00  0.45593999997E+02  0.45594000000E+02  0.51100000000E-03 0.  1.
         11   -1    0    0    0    0 -0.00000000000E+00 -0.00000000000E+00 -0.45593999997E+02  0.45594000000E+02  0.51100000000E-03 0. -1.
    9900012    2    1    2    0    0  0.18460170776E+02 -0.23618091070E+01 -0.20796305285E+01  0.72461523810E+02  0.69999939446E+02 0.  0.
        -12    1    1    2    0    0 -0.18460170776E+02  0.23618091070E+01  0.20796305285E+01  0.18726476190E+02  0.00000000000E+00 0.  1.
         11    1    3    3    0    0  0.14512772550E+02 -0.20624441833E+02  0.36090138066E+01  0.25475736475E+02  0.51100000000E-03 0. -1.
        -11    1    3    3    0    0 -0.19976135778E+01 -0.13599904256E+02 -0.48046064109E+01  0.14561322014E+02  0.51100000000E-03 0.  1.
        -12    1    3    3    0    0  0.59450118041E+01  0.31862536982E+02 -0.88403792413E+00  0.32424465321E+02  0.00000000000E+00 0.  1.
</event>
<event>
 7    1  0.2851651E-013  0.7246147E+02  0.7816164E-02  0.1226708E+00
        -11   -1    0    0    0    0  0.00000000000E+00  0.00000000000E+00  0.45593999997E+02  0.45594000000E+02  0.51100000000E-03 0.  1.
         11   -1    0    0    0    0 -0.00000000000E+00 -0.00000000000E+00 -0.45593999997E+02  0.45594000000E+02  0.51100000000E-03 0. -1.
    9900012    2    1    2    0    0 -0.11460905318E+02  0.42612446323E+01 -0.14183529500E+02  0.72461466268E+02  0.69999864486E+02 0.  0.
        -12    1    1    2    0    0  0.11460905318E+02 -0.42612446323E+01  0.14183529500E+02  0.18726533732E+02  0.00000000000E+00 0.  1.
         11    1    3    3    0    0  0.42753583986E+01 -0.12704272912E+02  0.21831503212E+01  0.13580993529E+02  0.51100000000E-03 0. -1.
        -11    1    3    3    0    0  0.57109065298E+01  0.29287530114E+02 -0.16597461907E+02  0.34144540055E+02  0.51100000000E-03 0.  1.
         12    1    3    3    0    0 -0.21447170247E+02 -0.12322012570E+02  0.23078208607E+00  0.24735932684E+02  0.00000000000E+00 0. -1.
</event>
<event>
 7    1  0.2851651E-013  0.7246156E+02  0.7816164E-02  0.1226708E+00
        -11   -1    0    0    0    0  0.00000000000E+00  0.00000000000E+00  0.45593999997E+02  0.45594000000E+02  0.51100000000E-03 0.  1.
         11   -1    0    0    0    0 -0.00000000000E+00 -0.00000000000E+00 -0.45593999997E+02  0.45594000000E+02  0.51100000000E-03 0. -1.
    9900012    2    1    2    0    0 -0.40978558537E+01 -0.68765266723E+01 -0.16929276903E+02  0.72461562588E+02  0.69999989961E+02 0.  0.
        -12    1    1    2    0    0  0.40978558537E+01  0.68765266723E+01  0.16929276903E+02  0.18726437412E+02  0.00000000000E+00 0.  1.
         11    1    3    3    0    0  0.12242159117E+02  0.25577703585E+01 -0.10668979584E+01  0.12551928958E+02  0.51100000000E-03 0. -1.
        -11    1    3    3    0    0  0.20565517931E+00  0.35336180225E+01  0.18930756822E+02  0.19258824069E+02  0.51100000000E-03 0.  1.
         12    1    3    3    0    0 -0.16545670150E+02 -0.12967915053E+02 -0.34793135767E+02  0.40650809562E+02  0.00000000000E+00 0. -1.
</event>
<event>
 7    1  0.2851651E-013  0.7246153E+02  0.7816164E-02  0.1226708E+00
        -11   -1    0    0    0    0  0.00000000000E+00  0.00000000000E+00  0.45593999997E+02  0.45594000000E+02  0.51100000000E-03 0. -1.
         11   -1    0    0    0    0 -0.00000000000E+00 -0.00000000000E+00 -0.45593999997E+02  0.45594000000E+02  0.51100000000E-03 0.  1.
    9900012    2    1    2    0    0  0.10508442197E+02  0.14149562255E+01  0.15435385829E+02  0.72461532255E+02  0.69999950446E+02 0.  0.
        -12    1    1    2    0    0 -0.10508442197E+02 -0.14149562255E+01 -0.15435385829E+02  0.18726467745E+02  0.00000000000E+00 0.  1.
         11    1    3    3    0    0  0.15761852763E+02 -0.11300880006E+02  0.32170211679E+02  0.37564190543E+02  0.51100000000E-03 0. -1.
        -11    1    3    3    0    0  0.59018453094E+01 -0.61787673297E+01 -0.62035747362E+01  0.10559038003E+02  0.51100000000E-03 0.  1.
        -12    1    3    3    0    0 -0.11155255876E+02  0.18894603561E+02 -0.10531251114E+02  0.24338303709E+02  0.00000000000E+00 0.  1.
</event>
<event>
 7    1  0.2851651E-013  0.7246154E+02  0.7816164E-02  0.1226708E+00
        -11   -1    0    0    0    0  0.00000000000E+00  0.00000000000E+00  0.45593999997E+02  0.45594000000E+02  0.51100000000E-03 0. -1.
         11   -1    0    0    0    0 -0.00000000000E+00 -0.00000000000E+00 -0.45593999997E+02  0.45594000000E+02  0.51100000000E-03 0.  1.
    9900012    2    1    2    0    0  0.18474630568E+02 -0.46945851922E+00 -0.30245480709E+01  0.72461541259E+02  0.69999962176E+02 0.  0.
        -12    1    1    2    0    0 -0.18474630568E+02  0.46945851922E+00  0.30245480709E+01  0.18726458741E+02  0.00000000000E+00 0.  1.
         11    1    3    3    0    0  0.30465871431E+02  0.57326338219E+01  0.31536776812E+01  0.31160521430E+02  0.51100000000E-03 0. -1.
        -11    1    3    3    0    0  0.11856993024E+02 -0.13704776400E+01 -0.11298471759E+02  0.16435387336E+02  0.51100000000E-03 0.  1.
         12    1    3    3    0    0 -0.23848233887E+02 -0.48316147011E+01  0.51202460069E+01  0.24865632494E+02  0.00000000000E+00 0. -1.
</event>
<event>
 7    1  0.2851651E-013  0.7246168E+02  0.7816164E-02  0.1226708E+00
        -11   -1    0    0    0    0  0.00000000000E+00  0.00000000000E+00  0.45593999997E+02  0.45594000000E+02  0.51100000000E-03 0. -1.
         11   -1    0    0    0    0 -0.00000000000E+00 -0.00000000000E+00 -0.45593999997E+02  0.45594000000E+02  0.51100000000E-03 0.  1.
    9900012    2    1    2    0    0 -0.52257245184E+01  0.17980507878E+02 -0.26085075306E+00  0.72461684201E+02  0.70000148385E+02 0.  0.
        -12    1    1    2    0    0  0.52257245184E+01 -0.17980507878E+02  0.26085075306E+00  0.18726315799E+02  0.00000000000E+00 0.  1.
         11    1    3    3    0    0 -0.17008504504E+02  0.68669311333E+01  0.11917811888E+01  0.18381085695E+02  0.51100000000E-03 0. -1.
        -11    1    3    3    0    0 -0.15944874238E+02 -0.67411091683E+01  0.89655301764E+01  0.19495186557E+02  0.51100000000E-03 0.  1.
        -12    1    3    3    0    0  0.27727654224E+02  0.17854685913E+02 -0.10418162118E+02  0.34585411949E+02  0.00000000000E+00 0.  1.
</event>
<event>
 7    1  0.3273311E-013  0.7246160E+02  0.7816164E-02  0.1226708E+00
        -11   -1    0    0    0    0  0.00000000000E+00  0.00000000000E+00  0.45593999997E+02  0.45594000000E+02  0.51100000000E-03 0.  1.
         11   -1    0    0    0    0 -0.00000000000E+00 -0.00000000000E+00 -0.45593999997E+02  0.45594000000E+02  0.51100000000E-03 0. -1.
    9900012    2    1    2    0    0 -0.12865884297E+02  0.13544427279E+02 -0.13021374729E+01  0.72461600157E+02  0.70000038902E+02 0.  0.
        -12    1    1    2    0    0  0.12865884297E+02 -0.13544427279E+02  0.13021374729E+01  0.18726399843E+02  0.00000000000E+00 0.  1.
         11    1    3    3    0    0 -0.28929127312E+01 -0.68082390153E+01  0.90713842426E+01  0.11705172997E+02  0.51100000000E-03 0. -1.
        -11    1    3    3    0    0  0.22464809345E+02  0.27587708985E+01 -0.70450156014E+01  0.23704656101E+02  0.51100000000E-03 0.  1.
         12    1    3    3    0    0 -0.32437780911E+02  0.17593895396E+02 -0.33285061141E+01  0.37051771059E+02  0.00000000000E+00 0. -1.
</event>
<event>
 7    1  0.2851651E-013  0.7246157E+02  0.7816164E-02  0.1226708E+00
        -11   -1    0    0    0    0  0.00000000000E+00  0.00000000000E+00  0.45593999997E+02  0.45594000000E+02  0.51100000000E-03 0. -1.
         11   -1    0    0    0    0 -0.00000000000E+00 -0.00000000000E+00 -0.45593999997E+02  0.45594000000E+02  0.51100000000E-03 0.  1.
    9900012    2    1    2    0    0  0.13424353590E+02 -0.13052774070E+02  0.30168675636E+00  0.72461569611E+02  0.69999999110E+02 0.  0.
        -12    1    1    2    0    0 -0.13424353590E+02  0.13052774070E+02 -0.30168675636E+00  0.18726430389E+02  0.00000000000E+00 0.  1.
         11    1    3    3    0    0 -0.43000666871E+01  0.28973093912E+01  0.26601931643E+02  0.27102541258E+02  0.51100000000E-03 0. -1.
        -11    1    3    3    0    0  0.45291249476E+01 -0.15978876176E+02 -0.77691053266E+00  0.16626516378E+02  0.51100000000E-03 0.  1.
        -12    1    3    3    0    0  0.13195295329E+02  0.28792714980E-01 -0.25523334354E+02  0.28732511975E+02  0.00000000000E+00 0.  1.
</event>
<event>
 7    1  0.2851651E-013  0.7246156E+02  0.7816164E-02  0.1226708E+00
        -11   -1    0    0    0    0  0.00000000000E+00  0.00000000000E+00  0.45593999997E+02  0.45594000000E+02  0.51100000000E-03 0. -1.
         11   -1    0    0    0    0 -0.00000000000E+00 -0.00000000000E+00 -0.45593999997E+02  0.45594000000E+02  0.51100000000E-03 0.  1.
    9900012    2    1    2    0    0  0.15593241452E+02  0.98782450626E+01  0.31544936700E+01  0.72461555201E+02  0.69999980338E+02 0.  0.
        -12    1    1    2    0    0 -0.15593241452E+02 -0.98782450626E+01 -0.31544936700E+01  0.18726444799E+02  0.00000000000E+00 0.  1.
         11    1    3    3    0    0  0.10778700059E+02  0.99324778580E+01  0.17626106108E+02  0.22924094489E+02  0.51100000000E-03 0. -1.
        -11    1    3    3    0    0 -0.67146489604E+01 -0.41899156263E+01  0.15365493030E+02  0.17284104834E+02  0.51100000000E-03 0.  1.
        -12    1    3    3    0    0  0.11529190354E+02  0.41356828309E+01 -0.29837105467E+02  0.32253355877E+02  0.00000000000E+00 0.  1.
</event>
<event>
 7    1  0.2851651E-013  0.7246156E+02  0.7816164E-02  0.1226708E+00
        -11   -1    0    0    0    0  0.00000000000E+00  0.00000000000E+00  0.45593999997E+02  0.45594000000E+02  0.51100000000E-03 0. -1.
         11   -1    0    0    0    0 -0.00000000000E+00 -0.00000000000E+00 -0.45593999997E+02  0.45594000000E+02  0.51100000000E-03 0.  1.
    9900012    2    1    2    0    0 -0.11988755247E+02  0.14025496457E+02 -0.31991967725E+01  0.72461557113E+02  0.69999982828E+02 0.  0.
        -12    1    1    2    0    0  0.11988755247E+02 -0.14025496457E+02  0.31991967725E+01  0.18726442887E+02  0.00000000000E+00 0.  1.
         11    1    3    3    0    0  0.70275638874E+01  0.12173171315E+01 -0.35990728893E+01  0.79888573096E+01  0.51100000000E-03 0. -1.
        -11    1    3    3    0    0 -0.13746171271E+02 -0.11241118624E+02 -0.23970213013E+02  0.29831042300E+02  0.51100000000E-03 0.  1.
         12    1    3    3    0    0 -0.52701478629E+01  0.24049297949E+02  0.24370089130E+02  0.34641657503E+02  0.00000000000E+00 0. -1.
</event>
<event>
 7    1  0.2851651E-013  0.7246159E+02  0.7816164E-02  0.1226708E+00
        -11   -1    0    0    0    0  0.00000000000E+00  0.00000000000E+00  0.45593999997E+02  0.45594000000E+02  0.51100000000E-03 0.  1.
         11   -1    0    0    0    0 -0.00000000000E+00 -0.00000000000E+00 -0.45593999997E+02  0.45594000000E+02  0.51100000000E-03 0. -1.
    9900012    2    1    2    0    0  0.15073440988E+01  0.29526582874E+01 -0.18430634613E+02  0.72461586317E+02  0.70000020872E+02 0.  0.
        -12    1    1    2    0    0 -0.15073440988E+01 -0.29526582874E+01  0.18430634613E+02  0.18726413683E+02  0.00000000000E+00 0.  1.
         11    1    3    3    0    0  0.45719701194E+01  0.67226167661E+01  0.28960047303E+01  0.86303725653E+01  0.51100000000E-03 0. -1.
        -11    1    3    3    0    0  0.24168421336E+02  0.10151074154E+02  0.56374720489E+00  0.26219738891E+02  0.51100000000E-03 0.  1.
         12    1    3    3    0    0 -0.27233047357E+02 -0.13921032633E+02 -0.21890386548E+02  0.37611474860E+02  0.00000000000E+00 0. -1.
</event>
<event>
 7    1  0.2851651E-013  0.7246159E+02  0.7816164E-02  0.1226708E+00
        -11   -1    0    0    0    0  0.00000000000E+00  0.00000000000E+00  0.45593999997E+02  0.45594000000E+02  0.51100000000E-03 0.  1.
         11   -1    0    0    0    0 -0.00000000000E+00 -0.00000000000E+00 -0.45593999997E+02  0.45594000000E+02  0.51100000000E-03 0. -1.
    9900012    2    1    2    0    0 -0.15758129673E+02  0.44352068963E+01 -0.90933427843E+01  0.72461585661E+02  0.70000020018E+02 0.  0.
        -12    1    1    2    0    0  0.15758129673E+02 -0.44352068963E+01  0.90933427843E+01  0.18726414339E+02  0.00000000000E+00 0.  1.
         11    1    3    3    0    0 -0.22052415040E+01  0.24531652975E+01  0.46239144868E+01  0.56799379847E+01  0.51100000000E-03 0. -1.
        -11    1    3    3    0    0 -0.13576036610E+02 -0.62381012372E+01  0.23949879946E+02  0.28227990130E+02  0.51100000000E-03 0.  1.
         12    1    3    3    0    0  0.23148441270E-01  0.82201428360E+01 -0.37667137217E+02  0.38553657547E+02  0.00000000000E+00 0. -1.
</event>
<event>
 7    1  0.2851651E-013  0.7246157E+02  0.7816164E-02  0.1226708E+00
        -11   -1    0    0    0    0  0.00000000000E+00  0.00000000000E+00  0.45593999997E+02  0.45594000000E+02  0.51100000000E-03 0.  1.
         11   -1    0    0    0    0 -0.00000000000E+00 -0.00000000000E+00 -0.45593999997E+02  0.45594000000E+02  0.51100000000E-03 0. -1.
    9900012    2    1    2    0    0 -0.18668344843E+02  0.12735377652E+01 -0.74173484097E+00  0.72461570330E+02  0.70000000046E+02 0.  0.
        -12    1    1    2    0    0  0.18668344843E+02 -0.12735377652E+01  0.74173484097E+00  0.18726429670E+02  0.00000000000E+00 0.  1.
         11    1    3    3    0    0 -0.22562244367E+02  0.12230246489E+02 -0.15391043777E+02  0.29925207249E+02  0.51100000000E-03 0. -1.
        -11    1    3    3    0    0 -0.66610626338E+01  0.81361299261E+01 -0.63269178020E+01  0.12271766569E+02  0.51100000000E-03 0.  1.
        -12    1    3    3    0    0  0.10554962158E+02 -0.19092838650E+02  0.20976226739E+02  0.30264596512E+02  0.00000000000E+00 0.  1.
</event>
<event>
 7    1  0.2851651E-013  0.7246152E+02  0.7816164E-02  0.1226708E+00
        -11   -1    0    0    0    0  0.00000000000E+00  0.00000000000E+00  0.45593999997E+02  0.45594000000E+02  0.51100000000E-03 0.  1.
         11   -1    0    0    0    0 -0.00000000000E+00 -0.00000000000E+00 -0.45593999997E+02  0.45594000000E+02  0.51100000000E-03 0. -1.
    9900012    2    1    2    0    0  0.84858812531E+01 -0.95089725745E+01 -0.13720433663E+02  0.72461520353E+02  0.69999934942E+02 0.  0.
        -12    1    1    2    0    0 -0.84858812531E+01  0.95089725745E+01  0.13720433663E+02  0.18726479647E+02  0.00000000000E+00 0.  1.
         11    1    3    3    0    0  0.19549537503E+02  0.45996069690E+01 -0.38932242119E+01  0.20457223562E+02  0.51100000000E-03 0. -1.
        -11    1    3    3    0    0 -0.23080718805E+02 -0.86417057327E+01 -0.22742512140E+02  0.33535362190E+02  0.51100000000E-03 0.  1.
         12    1    3    3    0    0  0.12017062556E+02 -0.54668738108E+01  0.12915302689E+02  0.18468934600E+02  0.00000000000E+00 0. -1.
</event>
<event>
 7    1  0.2851651E-013  0.7246192E+02  0.7816164E-02  0.1226707E+00
        -11   -1    0    0    0    0  0.00000000000E+00  0.00000000000E+00  0.45593999997E+02  0.45594000000E+02  0.51100000000E-03 0.  1.
         11   -1    0    0    0    0 -0.00000000000E+00 -0.00000000000E+00 -0.45593999997E+02  0.45594000000E+02  0.51100000000E-03 0. -1.
    9900012    2    1    2    0    0 -0.18184884607E+02 -0.33177165114E+01 -0.29947843799E+01  0.72461921807E+02  0.70000457909E+02 0.  0.
        -12    1    1    2    0    0  0.18184884607E+02  0.33177165114E+01  0.29947843799E+01  0.18726078193E+02  0.00000000000E+00 0.  1.
         11    1    3    3    0    0 -0.79152953630E+01  0.21442899918E+01  0.85915141653E+01  0.11877036506E+02  0.51100000000E-03 0. -1.
        -11    1    3    3    0    0 -0.94047935138E+01 -0.21130861380E+02  0.16500273079E+02  0.28411660557E+02  0.51100000000E-03 0.  1.
         12    1    3    3    0    0 -0.86479572980E+00  0.15668854877E+02 -0.28086571624E+02  0.32173224744E+02  0.00000000000E+00 0. -1.
</event>
<event>
 7    1  0.2851651E-013  0.7246156E+02  0.7816164E-02  0.1226708E+00
        -11   -1    0    0    0    0  0.00000000000E+00  0.00000000000E+00  0.45593999997E+02  0.45594000000E+02  0.51100000000E-03 0.  1.
         11   -1    0    0    0    0 -0.00000000000E+00 -0.00000000000E+00 -0.45593999997E+02  0.45594000000E+02  0.51100000000E-03 0. -1.
    9900012    2    1    2    0    0  0.15244784906E+00 -0.18312457700E+02 -0.39128312360E+01  0.72461558917E+02  0.69999985179E+02 0.  0.
        -12    1    1    2    0    0 -0.15244784906E+00  0.18312457700E+02  0.39128312360E+01  0.18726441083E+02  0.00000000000E+00 0.  1.
         11    1    3    3    0    0  0.28747850616E+02 -0.23360926147E+01  0.13795086180E+02  0.31971872744E+02  0.51100000000E-03 0. -1.
        -11    1    3    3    0    0 -0.77744475527E+01  0.28829682582E+01 -0.33779029992E+01  0.89534222318E+01  0.51100000000E-03 0.  1.
        -12    1    3    3    0    0 -0.20820955215E+02 -0.18859333343E+02 -0.14330014416E+02  0.31536263942E+02  0.00000000000E+00 0.  1.
</event>
<event>
 7    1  0.2851651E-013  0.7246160E+02  0.7816164E-02  0.1226708E+00
        -11   -1    0    0    0    0  0.00000000000E+00  0.00000000000E+00  0.45593999997E+02  0.45594000000E+02  0.51100000000E-03 0.  1.
         11   -1    0    0    0    0 -0.00000000000E+00 -0.00000000000E+00 -0.45593999997E+02  0.45594000000E+02  0.51100000000E-03 0. -1.
    9900012    2    1    2    0    0 -0.62267262241E+01  0.14895907449E+02 -0.94877845789E+01  0.72461595262E+02  0.70000032525E+02 0.  0.
        -12    1    1    2    0    0  0.62267262241E+01 -0.14895907449E+02  0.94877845789E+01  0.18726404738E+02  0.00000000000E+00 0.  1.
         11    1    3    3    0    0  0.16746971433E+01  0.25969190216E+02 -0.33114299972E+02  0.42116033929E+02  0.51100000000E-03 0. -1.
        -11    1    3    3    0    0  0.70562166514E+00  0.13729397332E+01 -0.70122107069E+00  0.16954576658E+01  0.51100000000E-03 0.  1.
        -12    1    3    3    0    0 -0.86070450325E+01 -0.12446222501E+02  0.24327736463E+02  0.28650103668E+02  0.00000000000E+00 0.  1.
</event>
<event>
 7    1  0.2851651E-013  0.7246165E+02  0.7816164E-02  0.1226708E+00
        -11   -1    0    0    0    0  0.00000000000E+00  0.00000000000E+00  0.45593999997E+02  0.45594000000E+02  0.51100000000E-03 0.  1.
         11   -1    0    0    0    0 -0.00000000000E+00 -0.00000000000E+00 -0.45593999997E+02  0.45594000000E+02  0.51100000000E-03 0. -1.
    9900012    2    1    2    0    0  0.17745158951E+02  0.20754036754E+01 -0.56105529852E+01  0.72461647675E+02  0.70000100803E+02 0.  0.
        -12    1    1    2    0    0 -0.17745158951E+02 -0.20754036754E+01  0.56105529852E+01  0.18726352325E+02  0.00000000000E+00 0.  1.
         11    1    3    3    0    0 -0.62237723750E+01  0.50105716577E+01 -0.28066563042E+02  0.29181725997E+02  0.51100000000E-03 0. -1.
        -11    1    3    3    0    0 -0.20015736300E+01 -0.75777652161E+01 -0.10966408458E+01  0.79140030372E+01  0.51100000000E-03 0.  1.
        -12    1    3    3    0    0  0.25970504956E+02  0.46425972338E+01  0.23552650903E+02  0.35365918640E+02  0.00000000000E+00 0.  1.
</event>
<event>
 7    1  0.2851651E-013  0.7246152E+02  0.7816164E-02  0.1226708E+00
        -11   -1    0    0    0    0  0.00000000000E+00  0.00000000000E+00  0.45593999997E+02  0.45594000000E+02  0.51100000000E-03 0.  1.
         11   -1    0    0    0    0 -0.00000000000E+00 -0.00000000000E+00 -0.45593999997E+02  0.45594000000E+02  0.51100000000E-03 0. -1.
    9900012    2    1    2    0    0  0.78714849756E+01  0.70018734007E+01 -0.15482069731E+02  0.72461521687E+02  0.69999936680E+02 0.  0.
        -12    1    1    2    0    0 -0.78714849756E+01 -0.70018734007E+01  0.15482069731E+02  0.18726478313E+02  0.00000000000E+00 0.  1.
         11    1    3    3    0    0  0.79682970109E+01  0.12940370740E+02 -0.26990907457E+02  0.30975087373E+02  0.51100000000E-03 0. -1.
        -11    1    3    3    0    0  0.73111916362E+00 -0.66409644786E+01 -0.14232279543E+02  0.15722427475E+02  0.51100000000E-03 0.  1.
        -12    1    3    3    0    0 -0.82793119891E+00  0.70246713926E+00  0.25741117270E+02  0.25764006840E+02  0.00000000000E+00 0.  1.
</event>
<event>
 7    1  0.2851651E-013  0.7246156E+02  0.7816164E-02  0.1226708E+00
        -11   -1    0    0    0    0  0.00000000000E+00  0.00000000000E+00  0.45593999997E+02  0.45594000000E+02  0.51100000000E-03 0.  1.
         11   -1    0    0    0    0 -0.00000000000E+00 -0.00000000000E+00 -0.45593999997E+02  0.45594000000E+02  0.51100000000E-03 0. -1.
    9900012    2    1    2    0    0  0.11448793005E+02 -0.14805441199E+02 -0.63535777074E+00  0.72461558003E+02  0.69999983988E+02 0.  0.
        -12    1    1    2    0    0 -0.11448793005E+02  0.14805441199E+02  0.63535777074E+00  0.18726441997E+02  0.00000000000E+00 0.  1.
         11    1    3    3    0    0  0.12100726930E+00 -0.23404402857E+02  0.33036550493E+01  0.23636726779E+02  0.51100000000E-03 0. -1.
        -11    1    3    3    0    0 -0.12955543138E+02 -0.67170007575E+01  0.92000204019E+01  0.17251219459E+02  0.51100000000E-03 0.  1.
         12    1    3    3    0    0  0.24283328874E+02  0.15315962415E+02 -0.13139033222E+02  0.31573611765E+02  0.00000000000E+00 0. -1.
</event>
<event>
 7    1  0.2851651E-013  0.7246158E+02  0.7816164E-02  0.1226708E+00
        -11   -1    0    0    0    0  0.00000000000E+00  0.00000000000E+00  0.45593999997E+02  0.45594000000E+02  0.51100000000E-03 0. -1.
         11   -1    0    0    0    0 -0.00000000000E+00 -0.00000000000E+00 -0.45593999997E+02  0.45594000000E+02  0.51100000000E-03 0.  1.
    9900012    2    1    2    0    0 -0.18572270645E+02 -0.13445802692E+01  0.19853557500E+01  0.72461580949E+02  0.70000013880E+02 0.  0.
        -12    1    1    2    0    0  0.18572270645E+02  0.13445802692E+01 -0.19853557500E+01  0.18726419051E+02  0.00000000000E+00 0.  1.
         11    1    3    3    0    0  0.69144171326E+01  0.33373880989E+01  0.64835612827E+01  0.10049074125E+02  0.51100000000E-03 0. -1.
        -11    1    3    3    0    0 -0.30621913436E+01  0.13859871657E+01  0.24797228120E+02  0.25023998461E+02  0.51100000000E-03 0.  1.
        -12    1    3    3    0    0 -0.22424496434E+02 -0.60679555338E+01 -0.29295433653E+02  0.37388508363E+02  0.00000000000E+00 0.  1.
</event>
<event>
 7    1  0.2851651E-013  0.7246156E+02  0.7816164E-02  0.1226708E+00
        -11   -1    0    0    0    0  0.00000000000E+00  0.00000000000E+00  0.45593999997E+02  0.45594000000E+02  0.51100000000E-03 0. -1.
         11   -1    0    0    0    0 -0.00000000000E+00 -0.00000000000E+00 -0.45593999997E+02  0.45594000000E+02  0.51100000000E-03 0.  1.
    9900012    2    1    2    0    0 -0.99082189022E+01 -0.12190702341E+02  0.10192820702E+02  0.72461558286E+02  0.69999984357E+02 0.  0.
        -12    1    1    2    0    0  0.99082189022E+01  0.12190702341E+02 -0.10192820702E+02  0.18726441714E+02  0.00000000000E+00 0.  1.
         11    1    3    3    0    0 -0.16623274750E+02 -0.70970397560E+01 -0.45096109823E+01  0.18628951344E+02  0.51100000000E-03 0. -1.
        -11    1    3    3    0    0  0.59557201153E+01 -0.24060463194E+02 -0.62478664303E+01  0.25561931195E+02  0.51100000000E-03 0.  1.
        -12    1    3    3    0    0  0.75933573257E+00  0.18966800609E+02  0.20950298115E+02  0.28270675747E+02  0.00000000000E+00 0.  1.
</event>
<event>
 7    1  0.2851651E-013  0.7246143E+02  0.7816164E-02  0.1226708E+00
        -11   -1    0    0    0    0  0.00000000000E+00  0.00000000000E+00  0.45593999997E+02  0.45594000000E+02  0.51100000000E-03 0.  1.
         11   -1    0    0    0    0 -0.00000000000E+00 -0.00000000000E+00 -0.45593999997E+02  0.45594000000E+02  0.51100000000E-03 0. -1.
    9900012    2    1    2    0    0  0.17967771298E+02 -0.52766495643E+01 -0.27343408063E-01  0.72461425735E+02  0.69999811685E+02 0.  0.
        -12    1    1    2    0    0 -0.17967771298E+02  0.52766495643E+01  0.27343408063E-01  0.18726574265E+02  0.00000000000E+00 0.  1.
         11    1    3    3    0    0 -0.10885467216E+01 -0.59591122452E+01 -0.27019648784E+01  0.66329908172E+01  0.51100000000E-03 0. -1.
        -11    1    3    3    0    0  0.41848822217E+02 -0.49992530157E+01  0.37571441863E+01  0.42313503570E+02  0.51100000000E-03 0.  1.
         12    1    3    3    0    0 -0.22792504198E+02  0.56817156966E+01 -0.10825227159E+01  0.23514931348E+02  0.00000000000E+00 0. -1.
</event>
<event>
 7    1  0.2851651E-013  0.7246225E+02  0.7816164E-02  0.1226706E+00
        -11   -1    0    0    0    0  0.00000000000E+00  0.00000000000E+00  0.45593999997E+02  0.45594000000E+02  0.51100000000E-03 0. -1.
         11   -1    0    0    0    0 -0.00000000000E+00 -0.00000000000E+00 -0.45593999997E+02  0.45594000000E+02  0.51100000000E-03 0.  1.
    9900012    2    1    2    0    0 -0.30233248445E+01  0.76854197601E+01  0.16806175064E+02  0.72462250608E+02  0.70000886229E+02 0.  0.
        -12    1    1    2    0    0  0.30233248445E+01 -0.76854197601E+01 -0.16806175064E+02  0.18725749392E+02  0.00000000000E+00 0.  1.
         11    1    3    3    0    0 -0.21058881579E+02  0.67753576426E+00  0.31497797571E+02  0.37895208142E+02  0.51100000000E-03 0. -1.
        -11    1    3    3    0    0  0.10760568459E+01 -0.74955696970E+01  0.47219204287E+00  0.75871225774E+01  0.51100000000E-03 0.  1.
        -12    1    3    3    0    0  0.16959499889E+02  0.14503453693E+02 -0.15163814549E+02  0.26979919888E+02  0.00000000000E+00 0.  1.
</event>
<event>
 7    1  0.2851651E-013  0.7246165E+02  0.7816164E-02  0.1226708E+00
        -11   -1    0    0    0    0  0.00000000000E+00  0.00000000000E+00  0.45593999997E+02  0.45594000000E+02  0.51100000000E-03 0. -1.
         11   -1    0    0    0    0 -0.00000000000E+00 -0.00000000000E+00 -0.45593999997E+02  0.45594000000E+02  0.51100000000E-03 0.  1.
    9900012    2    1    2    0    0 -0.17524608521E+02 -0.49115702046E+01 -0.44091779047E+01  0.72461647566E+02  0.70000100661E+02 0.  0.
        -12    1    1    2    0    0  0.17524608521E+02  0.49115702046E+01  0.44091779047E+01  0.18726352434E+02  0.00000000000E+00 0.  1.
         11    1    3    3    0    0 -0.19492702684E+02  0.11634581810E+02 -0.20219163534E+02  0.30399729046E+02  0.51100000000E-03 0. -1.
        -11    1    3    3    0    0 -0.10326096161E+02  0.14389877945E+01 -0.53267057585E+01  0.11707806896E+02  0.51100000000E-03 0.  1.
         12    1    3    3    0    0  0.12294190324E+02 -0.17985139809E+02  0.21136691388E+02  0.30354111624E+02  0.00000000000E+00 0. -1.
</event>
<event>
 7    1  0.2851651E-013  0.7246166E+02  0.7816164E-02  0.1226708E+00
        -11   -1    0    0    0    0  0.00000000000E+00  0.00000000000E+00  0.45593999997E+02  0.45594000000E+02  0.51100000000E-03 0. -1.
         11   -1    0    0    0    0 -0.00000000000E+00 -0.00000000000E+00 -0.45593999997E+02  0.45594000000E+02  0.51100000000E-03 0.  1.
    9900012    2    1    2    0    0 -0.22253802973E+01  0.10748458002E+02  0.15172151699E+02  0.72461658818E+02  0.70000115319E+02 0.  0.
        -12    1    1    2    0    0  0.22253802973E+01 -0.10748458002E+02 -0.15172151699E+02  0.18726341182E+02  0.00000000000E+00 0.  1.
         11    1    3    3    0    0 -0.21119928508E+01  0.12679853303E+02  0.40215308391E+02  0.42219784732E+02  0.51100000000E-03 0. -1.
        -11    1    3    3    0    0  0.20212653614E+01 -0.70705597876E+01 -0.37914629443E+01  0.82736642965E+01  0.51100000000E-03 0.  1.
        -12    1    3    3    0    0 -0.21346528079E+01  0.51391644871E+01 -0.21251693748E+02  0.21968209790E+02  0.00000000000E+00 0.  1.
</event>
<event>
 7    1  0.2851651E-013  0.7246151E+02  0.7816164E-02  0.1226708E+00
        -11   -1    0    0    0    0  0.00000000000E+00  0.00000000000E+00  0.45593999997E+02  0.45594000000E+02  0.51100000000E-03 0. -1.
         11   -1    0    0    0    0 -0.00000000000E+00 -0.00000000000E+00 -0.45593999997E+02  0.45594000000E+02  0.51100000000E-03 0.  1.
    9900012    2    1    2    0    0 -0.14564404383E+02  0.10438592027E+02 -0.54401464625E+01  0.72461514156E+02  0.69999926869E+02 0.  0.
        -12    1    1    2    0    0  0.14564404383E+02 -0.10438592027E+02  0.54401464625E+01  0.18726485844E+02  0.00000000000E+00 0.  1.
         11    1    3    3    0    0  0.18360733906E+01 -0.11230767664E+02  0.11554211832E+02  0.16217309245E+02  0.51100000000E-03 0. -1.
        -11    1    3    3    0    0  0.84942642323E+01 -0.60942240437E+01  0.63670523459E+01  0.12240565648E+02  0.51100000000E-03 0.  1.
        -12    1    3    3    0    0 -0.24894742006E+02  0.27763583734E+02 -0.23361410640E+02  0.44003639263E+02  0.00000000000E+00 0.  1.
</event>
<event>
 7    1  0.2851651E-013  0.7246154E+02  0.7816164E-02  0.1226708E+00
        -11   -1    0    0    0    0  0.00000000000E+00  0.00000000000E+00  0.45593999997E+02  0.45594000000E+02  0.51100000000E-03 0. -1.
         11   -1    0    0    0    0 -0.00000000000E+00 -0.00000000000E+00 -0.45593999997E+02  0.45594000000E+02  0.51100000000E-03 0.  1.
    9900012    2    1    2    0    0  0.10490417983E+02  0.13079161065E+02  0.83406717033E+01  0.72461544700E+02  0.69999966659E+02 0.  0.
        -12    1    1    2    0    0 -0.10490417983E+02 -0.13079161065E+02 -0.83406717033E+01  0.18726455300E+02  0.00000000000E+00 0.  1.
         11    1    3    3    0    0  0.17720192828E+02  0.11745600736E+02 -0.85174096010E+01  0.22902197211E+02  0.51100000000E-03 0. -1.
        -11    1    3    3    0    0  0.81070737376E+01  0.64041854856E+01 -0.12398999909E+02  0.16139189426E+02  0.51100000000E-03 0.  1.
        -12    1    3    3    0    0 -0.15336848582E+02 -0.50706251563E+01  0.29257081213E+02  0.33420158064E+02  0.00000000000E+00 0.  1.
</event>
<event>
 7    1  0.2851651E-013  0.7246157E+02  0.7816164E-02  0.1226708E+00
        -11   -1    0    0    0    0  0.00000000000E+00  0.00000000000E+00  0.45593999997E+02  0.45594000000E+02  0.51100000000E-03 0. -1.
         11   -1    0    0    0    0 -0.00000000000E+00 -0.00000000000E+00 -0.45593999997E+02  0.45594000000E+02  0.51100000000E-03 0.  1.
    9900012    2    1    2    0    0  0.16400758324E+02 -0.60162482291E+01  0.67453061447E+01  0.72461567576E+02  0.69999996458E+02 0.  0.
        -12    1    1    2    0    0 -0.16400758324E+02  0.60162482291E+01 -0.67453061447E+01  0.18726432424E+02  0.00000000000E+00 0.  1.
         11    1    3    3    0    0  0.64271726892E+01  0.26089764616E+01  0.24670382607E+02  0.25626999145E+02  0.51100000000E-03 0. -1.
        -11    1    3    3    0    0  0.45209797666E+01  0.16170944664E+02 -0.12342928223E+02  0.20839543823E+02  0.51100000000E-03 0.  1.
         12    1    3    3    0    0  0.54526058682E+01 -0.24796169354E+02 -0.55821482395E+01  0.25995024608E+02  0.00000000000E+00 0. -1.
</event>
<event>
 7    1  0.2851651E-013  0.7246153E+02  0.7816164E-02  0.1226708E+00
        -11   -1    0    0    0    0  0.00000000000E+00  0.00000000000E+00  0.45593999997E+02  0.45594000000E+02  0.51100000000E-03 0. -1.
         11   -1    0    0    0    0 -0.00000000000E+00 -0.00000000000E+00 -0.45593999997E+02  0.45594000000E+02  0.51100000000E-03 0.  1.
    9900012    2    1    2    0    0  0.10164061052E+02  0.11590165941E+02  0.10632060440E+02  0.72461526952E+02  0.69999943538E+02 0.  0.
        -12    1    1    2    0    0 -0.10164061052E+02 -0.11590165941E+02 -0.10632060440E+02  0.18726473048E+02  0.00000000000E+00 0.  1.
         11    1    3    3    0    0  0.99091492001E+01  0.94177003196E+00  0.21722094656E+02  0.23894090591E+02  0.51100000000E-03 0. -1.
        -11    1    3    3    0    0 -0.12502689437E+00 -0.12848324485E+01  0.17519295349E+02  0.17566790712E+02  0.51100000000E-03 0.  1.
        -12    1    3    3    0    0  0.37993874660E+00  0.11933228358E+02 -0.28609329565E+02  0.31000645649E+02  0.00000000000E+00 0.  1.
</event>
<event>
 7    1  0.2851651E-013  0.7246163E+02  0.7816164E-02  0.1226708E+00
        -11   -1    0    0    0    0  0.00000000000E+00  0.00000000000E+00  0.45593999997E+02  0.45594000000E+02  0.51100000000E-03 0.  1.
         11   -1    0    0    0    0 -0.00000000000E+00 -0.00000000000E+00 -0.45593999997E+02  0.45594000000E+02  0.51100000000E-03 0. -1.
    9900012    2    1    2    0    0  0.97612541526E+00  0.49862514037E+01 -0.18023916128E+02  0.72461626179E+02  0.70000072800E+02 0.  0.
        -12    1    1    2    0    0 -0.97612541526E+00 -0.49862514037E+01  0.18023916128E+02  0.18726373821E+02  0.00000000000E+00 0.  1.
         11    1    3    3    0    0  0.61734440927E+01 -0.15916389693E+02 -0.55662935287E+00  0.17080770162E+02  0.51100000000E-03 0. -1.
        -11    1    3    3    0    0 -0.15973349022E+02  0.12885688583E+01  0.10801696416E+02  0.19325758314E+02  0.51100000000E-03 0.  1.
         12    1    3    3    0    0  0.10776030344E+02  0.19614072238E+02 -0.28268983192E+02  0.36055097704E+02  0.00000000000E+00 0. -1.
</event>
<event>
 7    1  0.2851651E-013  0.7246174E+02  0.7816164E-02  0.1226708E+00
        -11   -1    0    0    0    0  0.00000000000E+00  0.00000000000E+00  0.45593999997E+02  0.45594000000E+02  0.51100000000E-03 0. -1.
         11   -1    0    0    0    0 -0.00000000000E+00 -0.00000000000E+00 -0.45593999997E+02  0.45594000000E+02  0.51100000000E-03 0.  1.
    9900012    2    1    2    0    0 -0.48543661235E+01  0.92491406978E+01  0.15542246229E+02  0.72461737908E+02  0.70000218347E+02 0.  0.
        -12    1    1    2    0    0  0.48543661235E+01 -0.92491406978E+01 -0.15542246229E+02  0.18726262092E+02  0.00000000000E+00 0.  1.
         11    1    3    3    0    0 -0.82937636019E+01  0.59474214323E+01  0.18412680939E+02  0.21051963234E+02  0.51100000000E-03 0. -1.
        -11    1    3    3    0    0 -0.23264322244E+02  0.68712755798E+01  0.46884977061E+00  0.24262377005E+02  0.51100000000E-03 0.  1.
         12    1    3    3    0    0  0.26703719723E+02 -0.35695563144E+01 -0.33392844806E+01  0.27147397668E+02  0.00000000000E+00 0. -1.
</event>
<event>
 7    1  0.2851651E-013  0.7246156E+02  0.7816164E-02  0.1226708E+00
        -11   -1    0    0    0    0  0.00000000000E+00  0.00000000000E+00  0.45593999997E+02  0.45594000000E+02  0.51100000000E-03 0. -1.
         11   -1    0    0    0    0 -0.00000000000E+00 -0.00000000000E+00 -0.45593999997E+02  0.45594000000E+02  0.51100000000E-03 0.  1.
    9900012    2    1    2    0    0  0.16223117214E+02 -0.47857602143E+01 -0.80365637844E+01  0.72461564396E+02  0.69999992316E+02 0.  0.
        -12    1    1    2    0    0 -0.16223117214E+02  0.47857602143E+01  0.80365637844E+01  0.18726435604E+02  0.00000000000E+00 0.  1.
         11    1    3    3    0    0 -0.28162151700E+01  0.27449188846E+01 -0.41458675291E+01  0.57143560789E+01  0.51100000000E-03 0. -1.
        -11    1    3    3    0    0  0.18788394714E+01  0.54062412507E+01 -0.31355567538E+02  0.31873642687E+02  0.51100000000E-03 0.  1.
         12    1    3    3    0    0  0.17160492913E+02 -0.12936920350E+02  0.27464871283E+02  0.34873565630E+02  0.00000000000E+00 0. -1.
</event>
<event>
 7    1  0.2851651E-013  0.7246157E+02  0.7816164E-02  0.1226708E+00
        -11   -1    0    0    0    0  0.00000000000E+00  0.00000000000E+00  0.45593999997E+02  0.45594000000E+02  0.51100000000E-03 0.  1.
         11   -1    0    0    0    0 -0.00000000000E+00 -0.00000000000E+00 -0.45593999997E+02  0.45594000000E+02  0.51100000000E-03 0. -1.
    9900012    2    1    2    0    0 -0.65834337269E+01 -0.92683871278E+00 -0.17506526385E+02  0.72461572265E+02  0.70000002567E+02 0.  0.
        -12    1    1    2    0    0  0.65834337269E+01  0.92683871278E+00  0.17506526385E+02  0.18726427735E+02  0.00000000000E+00 0.  1.
         11    1    3    3    0    0  0.12595675713E+02  0.16932044408E+02 -0.21947508220E+02  0.30447303523E+02  0.51100000000E-03 0. -1.
        -11    1    3    3    0    0  0.25321034137E+01  0.34948379370E+01 -0.80227000658E+01  0.91098384459E+01  0.51100000000E-03 0.  1.
        -12    1    3    3    0    0 -0.21711212853E+02 -0.21353721058E+02  0.12463681900E+02  0.32904430296E+02  0.00000000000E+00 0.  1.
</event>
<event>
 7    1  0.2851651E-013  0.7246156E+02  0.7816164E-02  0.1226708E+00
        -11   -1    0    0    0    0  0.00000000000E+00  0.00000000000E+00  0.45593999997E+02  0.45594000000E+02  0.51100000000E-03 0.  1.
         11   -1    0    0    0    0 -0.00000000000E+00 -0.00000000000E+00 -0.45593999997E+02  0.45594000000E+02  0.51100000000E-03 0. -1.
    9900012    2    1    2    0    0  0.79997460313E+01  0.61792937268E+01 -0.15763881213E+02  0.72461559910E+02  0.69999986473E+02 0.  0.
        -12    1    1    2    0    0 -0.79997460313E+01 -0.61792937268E+01  0.15763881213E+02  0.18726440090E+02  0.00000000000E+00 0.  1.
         11    1    3    3    0    0  0.10636031269E+01 -0.91886960735E+01 -0.13807531916E+02  0.16619606645E+02  0.51100000000E-03 0. -1.
        -11    1    3    3    0    0  0.22687069632E+02 -0.10706995051E+02  0.17844697286E+01  0.25150093518E+02  0.51100000000E-03 0.  1.
         12    1    3    3    0    0 -0.15750926728E+02  0.26074984851E+02 -0.37408190257E+01  0.30691859747E+02  0.00000000000E+00 0. -1.
</event>
<event>
 7    1  0.2851651E-013  0.7246162E+02  0.7816164E-02  0.1226708E+00
        -11   -1    0    0    0    0  0.00000000000E+00  0.00000000000E+00  0.45593999997E+02  0.45594000000E+02  0.51100000000E-03 0. -1.
         11   -1    0    0    0    0 -0.00000000000E+00 -0.00000000000E+00 -0.45593999997E+02  0.45594000000E+02  0.51100000000E-03 0.  1.
    9900012    2    1    2    0    0 -0.73801724348E+01 -0.16504281819E+02  0.48804897238E+01  0.72461616380E+02  0.70000060036E+02 0.  0.
        -12    1    1    2    0    0  0.73801724348E+01  0.16504281819E+02 -0.48804897238E+01  0.18726383620E+02  0.00000000000E+00 0.  1.
         11    1    3    3    0    0 -0.47636955663E+01  0.83218147448E+01  0.19895725449E+02  0.22085861711E+02  0.51100000000E-03 0. -1.
        -11    1    3    3    0    0 -0.86066288780E+01  0.21297863640E+01  0.98246727536E+01  0.13233829588E+02  0.51100000000E-03 0.  1.
        -12    1    3    3    0    0  0.59901520095E+01 -0.26955882928E+02 -0.24839908479E+02  0.37141925081E+02  0.00000000000E+00 0.  1.
</event>
<event>
 7    1  0.2851651E-013  0.7246157E+02  0.7816164E-02  0.1226708E+00
        -11   -1    0    0    0    0  0.00000000000E+00  0.00000000000E+00  0.45593999997E+02  0.45594000000E+02  0.51100000000E-03 0.  1.
         11   -1    0    0    0    0 -0.00000000000E+00 -0.00000000000E+00 -0.45593999997E+02  0.45594000000E+02  0.51100000000E-03 0. -1.
    9900012    2    1    2    0    0 -0.28526979335E+01  0.95456610972E+01 -0.15856284795E+02  0.72461566843E+02  0.69999995504E+02 0.  0.
        -12    1    1    2    0    0  0.28526979335E+01 -0.95456610972E+01  0.15856284795E+02  0.18726433157E+02  0.00000000000E+00 0.  1.
         11    1    3    3    0    0  0.13628426932E+02 -0.78711443267E+01 -0.16904251514E+02  0.23096377490E+02  0.51100000000E-03 0. -1.
        -11    1    3    3    0    0  0.14485588266E+02  0.17984806569E+01  0.15522961135E+01  0.14679115218E+02  0.51100000000E-03 0.  1.
        -12    1    3    3    0    0 -0.30966713132E+02  0.15618324767E+02 -0.50432939495E+00  0.34686074135E+02  0.00000000000E+00 0.  1.
</event>
<event>
 7    1  0.2851651E-013  0.7246157E+02  0.7816164E-02  0.1226708E+00
        -11   -1    0    0    0    0  0.00000000000E+00  0.00000000000E+00  0.45593999997E+02  0.45594000000E+02  0.51100000000E-03 0.  1.
         11   -1    0    0    0    0 -0.00000000000E+00 -0.00000000000E+00 -0.45593999997E+02  0.45594000000E+02  0.51100000000E-03 0. -1.
    9900012    2    1    2    0    0  0.15113752060E+02  0.92363787743E+01 -0.60780725871E+01  0.72461570533E+02  0.70000000311E+02 0.  0.
        -12    1    1    2    0    0 -0.15113752060E+02 -0.92363787743E+01  0.60780725871E+01  0.18726429467E+02  0.00000000000E+00 0.  1.
         11    1    3    3    0    0 -0.74530253739E+01  0.16708787437E+02 -0.20632715642E+02  0.27576078762E+02  0.51100000000E-03 0. -1.
        -11    1    3    3    0    0 -0.58042257264E+01 -0.12372943123E+02  0.49074388361E+01  0.14521078266E+02  0.51100000000E-03 0.  1.
        -12    1    3    3    0    0  0.28371003160E+02  0.49005344601E+01  0.96472042187E+01  0.30364413506E+02  0.00000000000E+00 0.  1.
</event>
<event>
 7    1  0.2851651E-013  0.7246166E+02  0.7816164E-02  0.1226708E+00
        -11   -1    0    0    0    0  0.00000000000E+00  0.00000000000E+00  0.45593999997E+02  0.45594000000E+02  0.51100000000E-03 0.  1.
         11   -1    0    0    0    0 -0.00000000000E+00 -0.00000000000E+00 -0.45593999997E+02  0.45594000000E+02  0.51100000000E-03 0. -1.
    9900012    2    1    2    0    0  0.78730611724E+01  0.63530410293E+01 -0.15758479919E+02  0.72461657274E+02  0.70000113307E+02 0.  0.
        -12    1    1    2    0    0 -0.78730611724E+01 -0.63530410293E+01  0.15758479919E+02  0.18726342726E+02  0.00000000000E+00 0.  1.
         11    1    3    3    0    0  0.22861212417E+02  0.14826042258E+02  0.63649222199E+01  0.27981400918E+02  0.51100000000E-03 0. -1.
        -11    1    3    3    0    0  0.49369063412E+01  0.42224139197E+01  0.52273190056E+01  0.83382664732E+01  0.51100000000E-03 0.  1.
        -12    1    3    3    0    0 -0.19925057586E+02 -0.12695415148E+02 -0.27350721144E+02  0.36141989883E+02  0.00000000000E+00 0.  1.
</event>
<event>
 7    1  0.2851651E-013  0.7246172E+02  0.7816164E-02  0.1226708E+00
        -11   -1    0    0    0    0  0.00000000000E+00  0.00000000000E+00  0.45593999997E+02  0.45594000000E+02  0.51100000000E-03 0.  1.
         11   -1    0    0    0    0 -0.00000000000E+00 -0.00000000000E+00 -0.45593999997E+02  0.45594000000E+02  0.51100000000E-03 0. -1.
    9900012    2    1    2    0    0 -0.10318771086E+02  0.94155002601E+01 -0.12471759839E+02  0.72461722331E+02  0.70000198055E+02 0.  0.
        -12    1    1    2    0    0  0.10318771086E+02 -0.94155002601E+01  0.12471759839E+02  0.18726277669E+02  0.00000000000E+00 0.  1.
         11    1    3    3    0    0 -0.10789392036E+02  0.15993366623E+02  0.65967427822E+00  0.19303728315E+02  0.51100000000E-03 0. -1.
        -11    1    3    3    0    0  0.92667246040E+01 -0.11219224108E+01  0.18040580798E+02  0.20312396476E+02  0.51100000000E-03 0.  1.
         12    1    3    3    0    0 -0.87961036536E+01 -0.54559439523E+01 -0.31172014915E+02  0.32845597540E+02  0.00000000000E+00 0. -1.
</event>
<event>
 7    1  0.2851651E-013  0.7246161E+02  0.7816164E-02  0.1226708E+00
        -11   -1    0    0    0    0  0.00000000000E+00  0.00000000000E+00  0.45593999997E+02  0.45594000000E+02  0.51100000000E-03 0.  1.
         11   -1    0    0    0    0 -0.00000000000E+00 -0.00000000000E+00 -0.45593999997E+02  0.45594000000E+02  0.51100000000E-03 0. -1.
    9900012    2    1    2    0    0 -0.16636447525E+02 -0.74589712909E+01 -0.42743544359E+01  0.72461608335E+02  0.70000049554E+02 0.  0.
        -12    1    1    2    0    0  0.16636447525E+02  0.74589712909E+01  0.42743544359E+01  0.18726391665E+02  0.00000000000E+00 0.  1.
         11    1    3    3    0    0 -0.71659568196E+01 -0.34815109462E+01 -0.63690026157E+01  0.10199806380E+02  0.51100000000E-03 0. -1.
        -11    1    3    3    0    0  0.24945560616E+02 -0.10056170824E+02 -0.25006452541E+01  0.27012234136E+02  0.51100000000E-03 0.  1.
         12    1    3    3    0    0 -0.34416051321E+02  0.60787104797E+01  0.45952934339E+01  0.35249567818E+02  0.00000000000E+00 0. -1.
</event>
<event>
 7    1  0.2851651E-013  0.7246158E+02  0.7816164E-02  0.1226708E+00
        -11   -1    0    0    0    0  0.00000000000E+00  0.00000000000E+00  0.45593999997E+02  0.45594000000E+02  0.51100000000E-03 0.  1.
         11   -1    0    0    0    0 -0.00000000000E+00 -0.00000000000E+00 -0.45593999997E+02  0.45594000000E+02  0.51100000000E-03 0. -1.
    9900012    2    1    2    0    0 -0.23686412835E+01 -0.80230160778E+01 -0.16754092697E+02  0.72461578275E+02  0.70000010397E+02 0.  0.
        -12    1    1    2    0    0  0.23686412835E+01  0.80230160778E+01  0.16754092697E+02  0.18726421725E+02  0.00000000000E+00 0.  1.
         11    1    3    3    0    0  0.97739752629E+01  0.90483321093E+01 -0.11016131042E+02  0.17284618879E+02  0.51100000000E-03 0. -1.
        -11    1    3    3    0    0  0.89773508243E+01  0.13338508810E+02 -0.82425091137E+01  0.18067861020E+02  0.51100000000E-03 0.  1.
        -12    1    3    3    0    0 -0.21119967371E+02 -0.30409856997E+02  0.25045474588E+01  0.37109098376E+02  0.00000000000E+00 0.  1.
</event>
<event>
 7    1  0.2851651E-013  0.7246152E+02  0.7816164E-02  0.1226708E+00
        -11   -1    0    0    0    0  0.00000000000E+00  0.00000000000E+00  0.45593999997E+02  0.45594000000E+02  0.51100000000E-03 0.  1.
         11   -1    0    0    0    0 -0.00000000000E+00 -0.00000000000E+00 -0.45593999997E+02  0.45594000000E+02  0.51100000000E-03 0. -1.
    9900012    2    1    2    0    0  0.19816285557E+01 -0.18283929174E+02 -0.35287349812E+01  0.72461524401E+02  0.69999940216E+02 0.  0.
        -12    1    1    2    0    0 -0.19816285557E+01  0.18283929174E+02  0.35287349812E+01  0.18726475599E+02  0.00000000000E+00 0.  1.
         11    1    3    3    0    0 -0.10154527687E+01  0.60801968381E+01  0.12843512220E+02  0.14246253694E+02  0.51100000000E-03 0. -1.
        -11    1    3    3    0    0  0.17131806289E+02  0.78288528625E+01  0.12686240553E+01  0.18878536255E+02  0.51100000000E-03 0.  1.
         12    1    3    3    0    0 -0.14134724964E+02 -0.32192978875E+02 -0.17640871257E+02  0.39336734452E+02  0.00000000000E+00 0. -1.
</event>
<event>
 7    1  0.2851651E-013  0.7246143E+02  0.7816164E-02  0.1226708E+00
        -11   -1    0    0    0    0  0.00000000000E+00  0.00000000000E+00  0.45593999997E+02  0.45594000000E+02  0.51100000000E-03 0. -1.
         11   -1    0    0    0    0 -0.00000000000E+00 -0.00000000000E+00 -0.45593999997E+02  0.45594000000E+02  0.51100000000E-03 0.  1.
    9900012    2    1    2    0    0  0.54243752425E+01  0.17476225142E+02  0.39802291565E+01  0.72461427540E+02  0.69999814035E+02 0.  0.
        -12    1    1    2    0    0 -0.54243752425E+01 -0.17476225142E+02 -0.39802291565E+01  0.18726572460E+02  0.00000000000E+00 0.  1.
         11    1    3    3    0    0 -0.16500630057E+01 -0.20018656026E+01  0.69570221511E+01  0.74249802212E+01  0.51100000000E-03 0. -1.
        -11    1    3    3    0    0  0.19686366310E+02 -0.12705508072E+02  0.13177121258E+02  0.26881582519E+02  0.51100000000E-03 0.  1.
         12    1    3    3    0    0 -0.12611928061E+02  0.32183598816E+02 -0.16153914252E+02  0.38154864799E+02  0.00000000000E+00 0. -1.
</event>
<event>
 7    1  0.3301658E-013  0.7246236E+02  0.7816164E-02  0.1226706E+00
        -11   -1    0    0    0    0  0.00000000000E+00  0.00000000000E+00  0.45593999997E+02  0.45594000000E+02  0.51100000000E-03 0.  1.
         11   -1    0    0    0    0 -0.00000000000E+00 -0.00000000000E+00 -0.45593999997E+02  0.45594000000E+02  0.51100000000E-03 0. -1.
    9900012    2    1    2    0    0  0.17484092197E+02  0.66068679696E+01 -0.11425170331E+01  0.72462361707E+02  0.70001030954E+02 0.  0.
        -12    1    1    2    0    0 -0.17484092197E+02 -0.66068679696E+01  0.11425170331E+01  0.18725638293E+02  0.00000000000E+00 0.  1.
         11    1    3    3    0    0  0.51803911346E+01  0.75411807671E+01  0.74971371894E+01  0.11828479444E+02  0.51100000000E-03 0. -1.
        -11    1    3    3    0    0 -0.87289115023E+01  0.20809855694E+02  0.10443579666E+02  0.24865887206E+02  0.51100000000E-03 0.  1.
         12    1    3    3    0    0  0.21032612565E+02 -0.21744168492E+02 -0.19083233889E+02  0.35767995056E+02  0.00000000000E+00 0. -1.
</event>
<event>
 7    1  0.2851651E-013  0.7246160E+02  0.7816164E-02  0.1226708E+00
        -11   -1    0    0    0    0  0.00000000000E+00  0.00000000000E+00  0.45593999997E+02  0.45594000000E+02  0.51100000000E-03 0.  1.
         11   -1    0    0    0    0 -0.00000000000E+00 -0.00000000000E+00 -0.45593999997E+02  0.45594000000E+02  0.51100000000E-03 0. -1.
    9900012    2    1    2    0    0 -0.39625393422E+01 -0.14612057975E+02  0.11021067228E+02  0.72461604747E+02  0.70000044882E+02 0.  0.
        -12    1    1    2    0    0  0.39625393422E+01  0.14612057975E+02 -0.11021067228E+02  0.18726395253E+02  0.00000000000E+00 0.  1.
         11    1    3    3    0    0 -0.15517127900E+02  0.13180019951E+02 -0.21822895218E+01  0.20475755713E+02  0.51100000000E-03 0. -1.
        -11    1    3    3    0    0 -0.68476711660E+01 -0.25902144739E+02  0.18717263910E+02  0.32682528529E+02  0.51100000000E-03 0.  1.
        -12    1    3    3    0    0  0.18402259724E+02 -0.18899331876E+01 -0.55139071603E+01  0.19303320506E+02  0.00000000000E+00 0.  1.
</event>
<event>
 7    1  0.2851651E-013  0.7246171E+02  0.7816164E-02  0.1226708E+00
        -11   -1    0    0    0    0  0.00000000000E+00  0.00000000000E+00  0.45593999997E+02  0.45594000000E+02  0.51100000000E-03 0. -1.
         11   -1    0    0    0    0 -0.00000000000E+00 -0.00000000000E+00 -0.45593999997E+02  0.45594000000E+02  0.51100000000E-03 0.  1.
    9900012    2    1    2    0    0 -0.17972762147E+02 -0.45664763885E+01  0.26078538097E+01  0.72461714002E+02  0.70000187205E+02 0.  0.
        -12    1    1    2    0    0  0.17972762147E+02  0.45664763885E+01 -0.26078538097E+01  0.18726285998E+02  0.00000000000E+00 0.  1.
         11    1    3    3    0    0  0.42942970950E+01  0.37266691613E+01 -0.23432061921E+01  0.61497695972E+01  0.51100000000E-03 0. -1.
        -11    1    3    3    0    0 -0.20218704865E+02 -0.68962445184E+01 -0.26907822771E+02  0.34356733567E+02  0.51100000000E-03 0.  1.
         12    1    3    3    0    0 -0.20483543771E+01 -0.13969010313E+01  0.31858882773E+02  0.31955210837E+02  0.00000000000E+00 0. -1.
</event>
<event>
 7    1  0.3180272E-013  0.7246155E+02  0.7816164E-02  0.1226708E+00
        -11   -1    0    0    0    0  0.00000000000E+00  0.00000000000E+00  0.45593999997E+02  0.45594000000E+02  0.51100000000E-03 0. -1.
         11   -1    0    0    0    0 -0.00000000000E+00 -0.00000000000E+00 -0.45593999997E+02  0.45594000000E+02  0.51100000000E-03 0.  1.
    9900012    2    1    2    0    0  0.15091858525E+02 -0.34513628190E+01  0.10535829352E+02  0.72461553482E+02  0.69999978099E+02 0.  0.
        -12    1    1    2    0    0 -0.15091858525E+02  0.34513628190E+01 -0.10535829352E+02  0.18726446518E+02  0.00000000000E+00 0.  1.
         11    1    3    3    0    0 -0.77828891461E+01  0.90143162978E+01  0.22730981950E+01  0.12124282966E+02  0.51100000000E-03 0. -1.
        -11    1    3    3    0    0 -0.97493768399E+01  0.10768201277E+02 -0.85994673366E+01  0.16880620434E+02  0.51100000000E-03 0.  1.
         12    1    3    3    0    0  0.32624124511E+02 -0.23233880394E+02  0.16862198494E+02  0.43456650082E+02  0.00000000000E+00 0. -1.
</event>
<event>
 7    1  0.2851651E-013  0.7246156E+02  0.7816164E-02  0.1226708E+00
        -11   -1    0    0    0    0  0.00000000000E+00  0.00000000000E+00  0.45593999997E+02  0.45594000000E+02  0.51100000000E-03 0. -1.
         11   -1    0    0    0    0 -0.00000000000E+00 -0.00000000000E+00 -0.45593999997E+02  0.45594000000E+02  0.51100000000E-03 0.  1.
    9900012    2    1    2    0    0 -0.12621824200E+02 -0.13497873823E+02 -0.30292805211E+01  0.72461559219E+02  0.69999985572E+02 0.  0.
        -12    1    1    2    0    0  0.12621824200E+02  0.13497873823E+02  0.30292805211E+01  0.18726440781E+02  0.00000000000E+00 0.  1.
         11    1    3    3    0    0 -0.22354702788E+02  0.85755812843E+01  0.24215505963E+02  0.34053840612E+02  0.51100000000E-03 0. -1.
        -11    1    3    3    0    0 -0.21847923691E+01 -0.25246335096E+01 -0.80820278747E+00  0.34351541538E+01  0.51100000000E-03 0.  1.
        -12    1    3    3    0    0  0.11917670957E+02 -0.19548821597E+02 -0.26436583697E+02  0.34972564453E+02  0.00000000000E+00 0.  1.
</event>
<event>
 7    1  0.2851651E-013  0.7246155E+02  0.7816164E-02  0.1226708E+00
        -11   -1    0    0    0    0  0.00000000000E+00  0.00000000000E+00  0.45593999997E+02  0.45594000000E+02  0.51100000000E-03 0.  1.
         11   -1    0    0    0    0 -0.00000000000E+00 -0.00000000000E+00 -0.45593999997E+02  0.45594000000E+02  0.51100000000E-03 0. -1.
    9900012    2    1    2    0    0 -0.26365921137E+01 -0.17547412621E+01 -0.18456681252E+02  0.72461552988E+02  0.69999977455E+02 0.  0.
        -12    1    1    2    0    0  0.26365921137E+01  0.17547412621E+01  0.18456681252E+02  0.18726447012E+02  0.00000000000E+00 0.  1.
         11    1    3    3    0    0  0.31047566804E+02 -0.48675194192E+01 -0.17000393367E+02  0.35730344591E+02  0.51100000000E-03 0. -1.
        -11    1    3    3    0    0 -0.23953407024E+01  0.26302322758E+01 -0.39786507357E+01  0.53371753619E+01  0.51100000000E-03 0.  1.
        -12    1    3    3    0    0 -0.31288818215E+02  0.48254588128E+00  0.25223628510E+01  0.31394033034E+02  0.00000000000E+00 0.  1.
</event>
<event>
 7    1  0.2851651E-013  0.7246166E+02  0.7816164E-02  0.1226708E+00
        -11   -1    0    0    0    0  0.00000000000E+00  0.00000000000E+00  0.45593999997E+02  0.45594000000E+02  0.51100000000E-03 0. -1.
         11   -1    0    0    0    0 -0.00000000000E+00 -0.00000000000E+00 -0.45593999997E+02  0.45594000000E+02  0.51100000000E-03 0.  1.
    9900012    2    1    2    0    0  0.80931724632E+01  0.12876776599E+02  0.10925425058E+02  0.72461662162E+02  0.70000119675E+02 0.  0.
        -12    1    1    2    0    0 -0.80931724632E+01 -0.12876776599E+02 -0.10925425058E+02  0.18726337838E+02  0.00000000000E+00 0.  1.
         11    1    3    3    0    0 -0.47059721280E+01 -0.14690463705E+02  0.27531866324E+02  0.31558826992E+02  0.51100000000E-03 0. -1.
        -11    1    3    3    0    0  0.10101714028E+02  0.44886354926E+01  0.18768363514E+01  0.11212269611E+02  0.51100000000E-03 0.  1.
        -12    1    3    3    0    0  0.26974305632E+01  0.23078604812E+02 -0.18483277618E+02  0.29690565559E+02  0.00000000000E+00 0.  1.
</event>
<event>
 7    1  0.3207467E-013  0.7246157E+02  0.7816164E-02  0.1226708E+00
        -11   -1    0    0    0    0  0.00000000000E+00  0.00000000000E+00  0.45593999997E+02  0.45594000000E+02  0.51100000000E-03 0. -1.
         11   -1    0    0    0    0 -0.00000000000E+00 -0.00000000000E+00 -0.45593999997E+02  0.45594000000E+02  0.51100000000E-03 0.  1.
    9900012    2    1    2    0    0 -0.10105445757E+02 -0.15753094696E+01  0.15686861641E+02  0.72461567825E+02  0.69999996783E+02 0.  0.
        -12    1    1    2    0    0  0.10105445757E+02  0.15753094696E+01 -0.15686861641E+02  0.18726432175E+02  0.00000000000E+00 0.  1.
         11    1    3    3    0    0 -0.23789678312E+01  0.16680358718E+02 -0.74669853508E+01  0.18429588314E+02  0.51100000000E-03 0. -1.
        -11    1    3    3    0    0  0.14580402072E+02 -0.67173668843E+01 -0.45038558614E+01  0.16673207860E+02  0.51100000000E-03 0.  1.
         12    1    3    3    0    0 -0.22306879998E+02 -0.11538301304E+02  0.27657702853E+02  0.37358771652E+02  0.00000000000E+00 0. -1.
</event>
<event>
 7    1  0.2851651E-013  0.7246136E+02  0.7816164E-02  0.1226709E+00
        -11   -1    0    0    0    0  0.00000000000E+00  0.00000000000E+00  0.45593999997E+02  0.45594000000E+02  0.51100000000E-03 0.  1.
         11   -1    0    0    0    0 -0.00000000000E+00 -0.00000000000E+00 -0.45593999997E+02  0.45594000000E+02  0.51100000000E-03 0. -1.
    9900012    2    1    2    0    0 -0.33527013673E+00 -0.14675275153E+01 -0.18666034587E+02  0.72461364150E+02  0.69999731458E+02 0.  0.
        -12    1    1    2    0    0  0.33527013673E+00  0.14675275153E+01  0.18666034587E+02  0.18726635850E+02  0.00000000000E+00 0.  1.
         11    1    3    3    0    0 -0.95185588356E+01  0.11793176321E+02  0.14069916383E+02  0.20679567629E+02  0.51100000000E-03 0. -1.
        -11    1    3    3    0    0 -0.53572374464E+01 -0.60176854388E+00  0.62716025216E+01  0.82701340308E+01  0.51100000000E-03 0.  1.
         12    1    3    3    0    0  0.14540526145E+02 -0.12658935292E+02 -0.39007553491E+02  0.43511662490E+02  0.00000000000E+00 0. -1.
</event>
<event>
 7    1  0.2851651E-013  0.7246163E+02  0.7816164E-02  0.1226708E+00
        -11   -1    0    0    0    0  0.00000000000E+00  0.00000000000E+00  0.45593999997E+02  0.45594000000E+02  0.51100000000E-03 0.  1.
         11   -1    0    0    0    0 -0.00000000000E+00 -0.00000000000E+00 -0.45593999997E+02  0.45594000000E+02  0.51100000000E-03 0. -1.
    9900012    2    1    2    0    0  0.10225345381E+01  0.15171599479E+02 -0.10929495631E+02  0.72461631361E+02  0.70000079551E+02 0.  0.
        -12    1    1    2    0    0 -0.10225345381E+01 -0.15171599479E+02  0.10929495631E+02  0.18726368639E+02  0.00000000000E+00 0.  1.
         11    1    3    3    0    0  0.27536673932E+01  0.26672457816E+02  0.14774222685E+02  0.30615034644E+02  0.51100000000E-03 0. -1.
        -11    1    3    3    0    0 -0.16203112190E+02 -0.82334487029E+01 -0.13618025404E+02  0.22710815448E+02  0.51100000000E-03 0.  1.
        -12    1    3    3    0    0  0.14471979335E+02 -0.32674096337E+01 -0.12085692912E+02  0.19135781268E+02  0.00000000000E+00 0.  1.
</event>
<event>
 7    1  0.2851651E-013  0.7246183E+02  0.7816164E-02  0.1226707E+00
        -11   -1    0    0    0    0  0.00000000000E+00  0.00000000000E+00  0.45593999997E+02  0.45594000000E+02  0.51100000000E-03 0. -1.
         11   -1    0    0    0    0 -0.00000000000E+00 -0.00000000000E+00 -0.45593999997E+02  0.45594000000E+02  0.51100000000E-03 0.  1.
    9900012    2    1    2    0    0  0.11377414957E+02  0.32798639175E+00  0.14869980024E+02  0.72461829754E+02  0.70000337993E+02 0.  0.
        -12    1    1    2    0    0 -0.11377414957E+02 -0.32798639175E+00 -0.14869980024E+02  0.18726170246E+02  0.00000000000E+00 0.  1.
         11    1    3    3    0    0 -0.19780752565E+01  0.36292014303E+01  0.19952356825E+02  0.20375976734E+02  0.51100000000E-03 0. -1.
        -11    1    3    3    0    0  0.43125256697E+01  0.22497140632E+02  0.40529146548E+01  0.23262530639E+02  0.51100000000E-03 0.  1.
        -12    1    3    3    0    0  0.90429645440E+01 -0.25798355671E+02 -0.91352914555E+01  0.28823322380E+02  0.00000000000E+00 0.  1.
</event>
<event>
 7    1  0.2851651E-013  0.7246156E+02  0.7816164E-02  0.1226708E+00
        -11   -1    0    0    0    0  0.00000000000E+00  0.00000000000E+00  0.45593999997E+02  0.45594000000E+02  0.51100000000E-03 0. -1.
         11   -1    0    0    0    0 -0.00000000000E+00 -0.00000000000E+00 -0.45593999997E+02  0.45594000000E+02  0.51100000000E-03 0.  1.
    9900012    2    1    2    0    0  0.82433691500E+01  0.56454401118E+01  0.15838410916E+02  0.72461564425E+02  0.69999992355E+02 0.  0.
        -12    1    1    2    0    0 -0.82433691500E+01 -0.56454401118E+01 -0.15838410916E+02  0.18726435575E+02  0.00000000000E+00 0.  1.
         11    1    3    3    0    0  0.17654185572E+02  0.10504049918E+01  0.35433286443E+01  0.18036873260E+02  0.51100000000E-03 0. -1.
        -11    1    3    3    0    0  0.19718434828E+02 -0.74213673076E+01  0.83710903011E+01  0.22670873778E+02  0.51100000000E-03 0.  1.
        -12    1    3    3    0    0 -0.29129251250E+02  0.12016402428E+02  0.39239919702E+01  0.31753817387E+02  0.00000000000E+00 0.  1.
</event>
<event>
 7    1  0.2851651E-013  0.7246159E+02  0.7816164E-02  0.1226708E+00
        -11   -1    0    0    0    0  0.00000000000E+00  0.00000000000E+00  0.45593999997E+02  0.45594000000E+02  0.51100000000E-03 0.  1.
         11   -1    0    0    0    0 -0.00000000000E+00 -0.00000000000E+00 -0.45593999997E+02  0.45594000000E+02  0.51100000000E-03 0. -1.
    9900012    2    1    2    0    0 -0.83796044938E+01 -0.14180688851E+01 -0.16686808067E+02  0.72461594731E+02  0.70000031833E+02 0.  0.
        -12    1    1    2    0    0  0.83796044938E+01  0.14180688851E+01  0.16686808067E+02  0.18726405269E+02  0.00000000000E+00 0.  1.
         11    1    3    3    0    0  0.75898285504E+01 -0.31636590772E+01  0.71609130466E+01  0.10903802644E+02  0.51100000000E-03 0. -1.
        -11    1    3    3    0    0 -0.31249016859E+02  0.84652305189E-02  0.21817451051E+01  0.31325088001E+02  0.51100000000E-03 0.  1.
         12    1    3    3    0    0  0.15279583815E+02  0.17371249616E+01 -0.26029466219E+02  0.30232704086E+02  0.00000000000E+00 0. -1.
</event>
<event>
 7    1  0.2851651E-013  0.7246159E+02  0.7816164E-02  0.1226708E+00
        -11   -1    0    0    0    0  0.00000000000E+00  0.00000000000E+00  0.45593999997E+02  0.45594000000E+02  0.51100000000E-03 0.  1.
         11   -1    0    0    0    0 -0.00000000000E+00 -0.00000000000E+00 -0.45593999997E+02  0.45594000000E+02  0.51100000000E-03 0. -1.
    9900012    2    1    2    0    0  0.96102150430E+01 -0.16020963058E+02 -0.12849404498E+01  0.72461586504E+02  0.70000021116E+02 0.  0.
        -12    1    1    2    0    0 -0.96102150430E+01  0.16020963058E+02  0.12849404498E+01  0.18726413496E+02  0.00000000000E+00 0.  1.
         11    1    3    3    0    0  0.20377880761E+02  0.13905445993E+02  0.24455928761E+01  0.24791135056E+02  0.51100000000E-03 0. -1.
        -11    1    3    3    0    0  0.90120415310E+01  0.25081229389E+01  0.90737812810E+00  0.93984524557E+01  0.51100000000E-03 0.  1.
        -12    1    3    3    0    0 -0.19779707249E+02 -0.32434531989E+02 -0.46379114540E+01  0.38271998992E+02  0.00000000000E+00 0.  1.
</event>
<event>
 7    1  0.2851651E-013  0.7246153E+02  0.7816164E-02  0.1226708E+00
        -11   -1    0    0    0    0  0.00000000000E+00  0.00000000000E+00  0.45593999997E+02  0.45594000000E+02  0.51100000000E-03 0.  1.
         11   -1    0    0    0    0 -0.00000000000E+00 -0.00000000000E+00 -0.45593999997E+02  0.45594000000E+02  0.51100000000E-03 0. -1.
    9900012    2    1    2    0    0  0.47310850035E+01 -0.67937642872E+01 -0.16797086707E+02  0.72461534227E+02  0.69999953015E+02 0.  0.
        -12    1    1    2    0    0 -0.47310850035E+01  0.67937642872E+01  0.16797086707E+02  0.18726465773E+02  0.00000000000E+00 0.  1.
         11    1    3    3    0    0  0.49621759918E+01 -0.14191789709E+02 -0.11435322495E+02  0.18889062617E+02  0.51100000000E-03 0. -1.
        -11    1    3    3    0    0 -0.23898635632E+02 -0.81964216718E+00 -0.13209367742E+02  0.27318565020E+02  0.51100000000E-03 0.  1.
         12    1    3    3    0    0  0.23667544644E+02  0.82176675893E+01  0.78476035296E+01  0.26253906590E+02  0.00000000000E+00 0. -1.
</event>
<event>
 7    1  0.2851651E-013  0.7246138E+02  0.7816164E-02  0.1226709E+00
        -11   -1    0    0    0    0  0.00000000000E+00  0.00000000000E+00  0.45593999997E+02  0.45594000000E+02  0.51100000000E-03 0.  1.
         11   -1    0    0    0    0 -0.00000000000E+00 -0.00000000000E+00 -0.45593999997E+02  0.45594000000E+02  0.51100000000E-03 0. -1.
    9900012    2    1    2    0    0  0.18084365575E+02 -0.18075765925E+01 -0.45138259243E+01  0.72461381622E+02  0.69999754219E+02 0.  0.
        -12    1    1    2    0    0 -0.18084365575E+02  0.18075765925E+01  0.45138259243E+01  0.18726618378E+02  0.00000000000E+00 0.  1.
         11    1    3    3    0    0 -0.38787386764E+01  0.94890615916E+01 -0.31792870614E+02  0.33404693169E+02  0.51100000000E-03 0.  1.
        -11    1    3    3    0    0  0.71225890160E+01 -0.83224291311E+01  0.48063280173E+01  0.11962227644E+02  0.51100000000E-03 0. -1.
        -12    1    3    3    0    0  0.14840515235E+02 -0.29742090530E+01  0.22472716672E+02  0.27094460810E+02  0.00000000000E+00 0.  1.
</event>
<event>
 7    1  0.2851651E-013  0.7246159E+02  0.7816164E-02  0.1226708E+00
        -11   -1    0    0    0    0  0.00000000000E+00  0.00000000000E+00  0.45593999997E+02  0.45594000000E+02  0.51100000000E-03 0.  1.
         11   -1    0    0    0    0 -0.00000000000E+00 -0.00000000000E+00 -0.45593999997E+02  0.45594000000E+02  0.51100000000E-03 0. -1.
    9900012    2    1    2    0    0 -0.74894395767E+01 -0.14566001074E+02 -0.90784631330E+01  0.72461585893E+02  0.70000020320E+02 0.  0.
        -12    1    1    2    0    0  0.74894395767E+01  0.14566001074E+02  0.90784631330E+01  0.18726414107E+02  0.00000000000E+00 0.  1.
         11    1    3    3    0    0  0.10506687482E+02  0.30222686479E+01 -0.73531968382E+01  0.13175511134E+02  0.51100000000E-03 0. -1.
        -11    1    3    3    0    0  0.33017431501E+01 -0.31363745127E+02 -0.91848000760E+01  0.32847322097E+02  0.51100000000E-03 0.  1.
         12    1    3    3    0    0 -0.21297870209E+02  0.13775475406E+02  0.74595337813E+01  0.26438752662E+02  0.00000000000E+00 0. -1.
</event>
<event>
 7    1  0.2851651E-013  0.7246154E+02  0.7816164E-02  0.1226708E+00
        -11   -1    0    0    0    0  0.00000000000E+00  0.00000000000E+00  0.45593999997E+02  0.45594000000E+02  0.51100000000E-03 0.  1.
         11   -1    0    0    0    0 -0.00000000000E+00 -0.00000000000E+00 -0.45593999997E+02  0.45594000000E+02  0.51100000000E-03 0. -1.
    9900012    2    1    2    0    0  0.99814246188E+01 -0.80609270570E+01 -0.13640857500E+02  0.72461538087E+02  0.69999958045E+02 0.  0.
        -12    1    1    2    0    0 -0.99814246188E+01  0.80609270570E+01  0.13640857500E+02  0.18726461913E+02  0.00000000000E+00 0.  1.
         11    1    3    3    0    0 -0.11181615152E+01 -0.20467620573E+02 -0.13935085569E+02  0.24786294341E+02  0.51100000000E-03 0.  1.
        -11    1    3    3    0    0  0.26002611582E+02  0.10354957172E+02  0.10057928517E+02  0.29740929263E+02  0.51100000000E-03 0. -1.
         12    1    3    3    0    0 -0.14903025448E+02  0.20517363448E+01 -0.97637004474E+01  0.17934314483E+02  0.00000000000E+00 0. -1.
</event>
<event>
 7    1  0.2851651E-013  0.7246162E+02  0.7816164E-02  0.1226708E+00
        -11   -1    0    0    0    0  0.00000000000E+00  0.00000000000E+00  0.45593999997E+02  0.45594000000E+02  0.51100000000E-03 0.  1.
         11   -1    0    0    0    0 -0.00000000000E+00 -0.00000000000E+00 -0.45593999997E+02  0.45594000000E+02  0.51100000000E-03 0. -1.
    9900012    2    1    2    0    0  0.48214105935E+01  0.17791620518E+02 -0.32999583326E+01  0.72461615251E+02  0.70000058565E+02 0.  0.
        -12    1    1    2    0    0 -0.48214105935E+01 -0.17791620518E+02  0.32999583326E+01  0.18726384749E+02  0.00000000000E+00 0.  1.
         11    1    3    3    0    0  0.13842450849E+00  0.28026359850E+01  0.88346874516E+00  0.29418441655E+01  0.51100000000E-03 0. -1.
        -11    1    3    3    0    0 -0.23748701634E+02  0.26710178858E+02  0.76814299540E+01  0.36557336477E+02  0.51100000000E-03 0.  1.
        -12    1    3    3    0    0  0.28431687719E+02 -0.11721194325E+02 -0.11864857032E+02  0.32962434609E+02  0.00000000000E+00 0.  1.
</event>
<event>
 7    1  0.2851651E-013  0.7246197E+02  0.7816164E-02  0.1226707E+00
        -11   -1    0    0    0    0  0.00000000000E+00  0.00000000000E+00  0.45593999997E+02  0.45594000000E+02  0.51100000000E-03 0.  1.
         11   -1    0    0    0    0 -0.00000000000E+00 -0.00000000000E+00 -0.45593999997E+02  0.45594000000E+02  0.51100000000E-03 0. -1.
    9900012    2    1    2    0    0  0.71292071093E+01  0.16818537181E+02 -0.41201229423E+01  0.72461969989E+02  0.70000520675E+02 0.  0.
        -12    1    1    2    0    0 -0.71292071093E+01 -0.16818537181E+02  0.41201229423E+01  0.18726030011E+02  0.00000000000E+00 0.  1.
         11    1    3    3    0    0  0.36004781447E+01 -0.72275569974E+01  0.40408256346E+01  0.90293574019E+01  0.51100000000E-03 0. -1.
        -11    1    3    3    0    0 -0.19145265649E+02 -0.81587975725E+01  0.58678696337E+01  0.21622651755E+02  0.51100000000E-03 0.  1.
        -12    1    3    3    0    0  0.22673994614E+02  0.32204891751E+02 -0.14028818211E+02  0.41809960832E+02  0.00000000000E+00 0.  1.
</event>
<event>
 7    1  0.2851651E-013  0.7246155E+02  0.7816164E-02  0.1226708E+00
        -11   -1    0    0    0    0  0.00000000000E+00  0.00000000000E+00  0.45593999997E+02  0.45594000000E+02  0.51100000000E-03 0.  1.
         11   -1    0    0    0    0 -0.00000000000E+00 -0.00000000000E+00 -0.45593999997E+02  0.45594000000E+02  0.51100000000E-03 0. -1.
    9900012    2    1    2    0    0  0.18494762961E+02  0.20804946618E+01 -0.20724680505E+01  0.72461552423E+02  0.69999976720E+02 0.  0.
        -12    1    1    2    0    0 -0.18494762961E+02 -0.20804946618E+01  0.20724680505E+01  0.18726447577E+02  0.00000000000E+00 0.  1.
         11    1    3    3    0    0  0.20944553528E+02 -0.18528732401E+02 -0.22888430991E+02  0.36136802852E+02  0.51100000000E-03 0. -1.
        -11    1    3    3    0    0 -0.40590249165E+01  0.33626555649E+01 -0.36040323727E+01  0.63853101197E+01  0.51100000000E-03 0.  1.
        -12    1    3    3    0    0  0.16092343496E+01  0.17246571498E+02  0.24419995313E+02  0.29939439452E+02  0.00000000000E+00 0.  1.
</event>
<event>
 7    1  0.2851651E-013  0.7246158E+02  0.7816164E-02  0.1226708E+00
        -11   -1    0    0    0    0  0.00000000000E+00  0.00000000000E+00  0.45593999997E+02  0.45594000000E+02  0.51100000000E-03 0.  1.
         11   -1    0    0    0    0 -0.00000000000E+00 -0.00000000000E+00 -0.45593999997E+02  0.45594000000E+02  0.51100000000E-03 0. -1.
    9900012    2    1    2    0    0 -0.73699663446E+01 -0.16976381231E+01 -0.17131273738E+02  0.72461576983E+02  0.70000008713E+02 0.  0.
        -12    1    1    2    0    0  0.73699663446E+01  0.16976381231E+01  0.17131273738E+02  0.18726423017E+02  0.00000000000E+00 0.  1.
         11    1    3    3    0    0 -0.43708364882E+01 -0.19805758766E+02 -0.24967814253E+02  0.32167748456E+02  0.51100000000E-03 0. -1.
        -11    1    3    3    0    0  0.33885689981E+01 -0.91732558407E+01 -0.30352799835E+01  0.10239333348E+02  0.51100000000E-03 0.  1.
        -12    1    3    3    0    0 -0.63876988546E+01  0.27281376484E+02  0.10871820498E+02  0.30054495179E+02  0.00000000000E+00 0.  1.
</event>
<event>
 7    1  0.2851651E-013  0.7246159E+02  0.7816164E-02  0.1226708E+00
        -11   -1    0    0    0    0  0.00000000000E+00  0.00000000000E+00  0.45593999997E+02  0.45594000000E+02  0.51100000000E-03 0.  1.
         11   -1    0    0    0    0 -0.00000000000E+00 -0.00000000000E+00 -0.45593999997E+02  0.45594000000E+02  0.51100000000E-03 0. -1.
    9900012    2    1    2    0    0  0.19451291170E+01 -0.13324849814E+02 -0.13013194412E+02  0.72461591411E+02  0.70000027508E+02 0.  0.
        -12    1    1    2    0    0 -0.19451291170E+01  0.13324849814E+02  0.13013194412E+02  0.18726408589E+02  0.00000000000E+00 0.  1.
         11    1    3    3    0    0  0.49158483534E+01 -0.57297224598E+00  0.31032337783E+01  0.58415684856E+01  0.51100000000E-03 0. -1.
        -11    1    3    3    0    0 -0.12376075455E+02 -0.33643745553E+02  0.40780908763E+01  0.36079075431E+02  0.51100000000E-03 0.  1.
         12    1    3    3    0    0  0.94053562191E+01  0.20891867985E+02 -0.20194519066E+02  0.30540947494E+02  0.00000000000E+00 0. -1.
</event>
<event>
 7    1  0.2851651E-013  0.7246168E+02  0.7816164E-02  0.1226708E+00
        -11   -1    0    0    0    0  0.00000000000E+00  0.00000000000E+00  0.45593999997E+02  0.45594000000E+02  0.51100000000E-03 0. -1.
         11   -1    0    0    0    0 -0.00000000000E+00 -0.00000000000E+00 -0.45593999997E+02  0.45594000000E+02  0.51100000000E-03 0.  1.
    9900012    2    1    2    0    0  0.11532689343E+02 -0.97479054413E+01  0.11074759769E+02  0.72461684615E+02  0.70000148923E+02 0.  0.
        -12    1    1    2    0    0 -0.11532689343E+02  0.97479054413E+01 -0.11074759769E+02  0.18726315385E+02  0.00000000000E+00 0.  1.
         11    1    3    3    0    0  0.13097384705E+01  0.28715209702E+01  0.19298884460E+02  0.19555254772E+02  0.51100000000E-03 0. -1.
        -11    1    3    3    0    0 -0.23165192149E+01 -0.21330421804E+02  0.14235237779E+02  0.25748692209E+02  0.51100000000E-03 0.  1.
         12    1    3    3    0    0  0.12539470087E+02  0.87109953920E+01 -0.22459362470E+02  0.27157737633E+02  0.00000000000E+00 0. -1.
</event>
<event>
 7    1  0.2851651E-013  0.7246152E+02  0.7816164E-02  0.1226708E+00
        -11   -1    0    0    0    0  0.00000000000E+00  0.00000000000E+00  0.45593999997E+02  0.45594000000E+02  0.51100000000E-03 0.  1.
         11   -1    0    0    0    0 -0.00000000000E+00 -0.00000000000E+00 -0.45593999997E+02  0.45594000000E+02  0.51100000000E-03 0. -1.
    9900012    2    1    2    0    0  0.13657226086E+02  0.12172598128E+02 -0.39986539609E+01  0.72461515998E+02  0.69999929269E+02 0.  0.
        -12    1    1    2    0    0 -0.13657226086E+02 -0.12172598128E+02  0.39986539609E+01  0.18726484002E+02  0.00000000000E+00 0.  1.
         11    1    3    3    0    0  0.31175662516E+02  0.27519663238E+02 -0.12431749575E+02  0.43402790184E+02  0.51100000000E-03 0. -1.
        -11    1    3    3    0    0  0.30388514737E+00  0.13965910178E+01  0.39458045028E+01  0.41966875139E+01  0.51100000000E-03 0.  1.
        -12    1    3    3    0    0 -0.17822321577E+02 -0.16743656127E+02  0.44872911107E+01  0.24862038300E+02  0.00000000000E+00 0.  1.
</event>
<event>
 7    1  0.2851651E-013  0.7246155E+02  0.7816164E-02  0.1226708E+00
        -11   -1    0    0    0    0  0.00000000000E+00  0.00000000000E+00  0.45593999997E+02  0.45594000000E+02  0.51100000000E-03 0.  1.
         11   -1    0    0    0    0 -0.00000000000E+00 -0.00000000000E+00 -0.45593999997E+02  0.45594000000E+02  0.51100000000E-03 0. -1.
    9900012    2    1    2    0    0 -0.71595031641E+01 -0.12648476469E+02 -0.11808365617E+02  0.72461549694E+02  0.69999973164E+02 0.  0.
        -12    1    1    2    0    0  0.71595031641E+01  0.12648476469E+02  0.11808365617E+02  0.18726450306E+02  0.00000000000E+00 0.  1.
         11    1    3    3    0    0  0.82286922591E+01 -0.91980237340E+00 -0.20795793072E+02  0.22383530160E+02  0.51100000000E-03 0. -1.
        -11    1    3    3    0    0 -0.54396103431E+01 -0.82028935920E+01 -0.18322820425E+02  0.20799100282E+02  0.51100000000E-03 0.  1.
        -12    1    3    3    0    0 -0.99485850801E+01 -0.35257805032E+01  0.27310247880E+02  0.29278919251E+02  0.00000000000E+00 0.  1.
</event>
<event>
 7    1  0.2851651E-013  0.7246126E+02  0.7816164E-02  0.1226709E+00
        -11   -1    0    0    0    0  0.00000000000E+00  0.00000000000E+00  0.45593999997E+02  0.45594000000E+02  0.51100000000E-03 0.  1.
         11   -1    0    0    0    0 -0.00000000000E+00 -0.00000000000E+00 -0.45593999997E+02  0.45594000000E+02  0.51100000000E-03 0. -1.
    9900012    2    1    2    0    0 -0.57344192080E+01  0.11792084034E+02  0.13369897400E+02  0.72461255328E+02  0.69999589696E+02 0.  0.
        -12    1    1    2    0    0  0.57344192080E+01 -0.11792084034E+02 -0.13369897400E+02  0.18726744672E+02  0.00000000000E+00 0.  1.
         11    1    3    3    0    0  0.72737509894E+00 -0.14161828335E+02  0.23322086353E+02  0.27294801125E+02  0.51100000000E-03 0.  1.
        -11    1    3    3    0    0 -0.90999988103E+01 -0.19832501880E+01 -0.13999577504E+02  0.16814619538E+02  0.51100000000E-03 0. -1.
        -12    1    3    3    0    0  0.26382045034E+01  0.27937162557E+02  0.40473885510E+01  0.28351834664E+02  0.00000000000E+00 0.  1.
</event>
<event>
 7    1  0.2851651E-013  0.7246159E+02  0.7816164E-02  0.1226708E+00
        -11   -1    0    0    0    0  0.00000000000E+00  0.00000000000E+00  0.45593999997E+02  0.45594000000E+02  0.51100000000E-03 0. -1.
         11   -1    0    0    0    0 -0.00000000000E+00 -0.00000000000E+00 -0.45593999997E+02  0.45594000000E+02  0.51100000000E-03 0.  1.
    9900012    2    1    2    0    0  0.84035675462E+01  0.62121282797E+01  0.15539240149E+02  0.72461588980E+02  0.70000024342E+02 0.  0.
        -12    1    1    2    0    0 -0.84035675462E+01 -0.62121282797E+01 -0.15539240149E+02  0.18726411020E+02  0.00000000000E+00 0.  1.
         11    1    3    3    0    0  0.26148800497E+02  0.99688239694E+01  0.15867853910E+02  0.32170265879E+02  0.51100000000E-03 0.  1.
        -11    1    3    3    0    0  0.62809213577E+01  0.75568523890E+01  0.77702097681E+01  0.12527256333E+02  0.51100000000E-03 0. -1.
        -12    1    3    3    0    0 -0.24026154308E+02 -0.11313548079E+02 -0.80988235285E+01  0.27764066768E+02  0.00000000000E+00 0.  1.
</event>
<event>
 7    1  0.2851651E-013  0.7246147E+02  0.7816164E-02  0.1226708E+00
        -11   -1    0    0    0    0  0.00000000000E+00  0.00000000000E+00  0.45593999997E+02  0.45594000000E+02  0.51100000000E-03 0. -1.
         11   -1    0    0    0    0 -0.00000000000E+00 -0.00000000000E+00 -0.45593999997E+02  0.45594000000E+02  0.51100000000E-03 0.  1.
    9900012    2    1    2    0    0 -0.44752521060E+01 -0.94402701343E+01  0.15541438812E+02  0.72461470637E+02  0.69999870178E+02 0.  0.
        -12    1    1    2    0    0  0.44752521060E+01  0.94402701343E+01 -0.15541438812E+02  0.18726529363E+02  0.00000000000E+00 0.  1.
         11    1    3    3    0    0 -0.19894877680E+02  0.36472597022E+01 -0.23050325163E+01  0.20357353374E+02  0.51100000000E-03 0. -1.
        -11    1    3    3    0    0 -0.12897561522E+01  0.10147081949E+02 -0.84276487157E+01  0.13253377160E+02  0.51100000000E-03 0.  1.
         12    1    3    3    0    0  0.16709381726E+02 -0.23234611786E+02  0.26274120044E+02  0.38850740103E+02  0.00000000000E+00 0. -1.
</event>
<event>
 7    1  0.2851651E-013  0.7246156E+02  0.7816164E-02  0.1226708E+00
        -11   -1    0    0    0    0  0.00000000000E+00  0.00000000000E+00  0.45593999997E+02  0.45594000000E+02  0.51100000000E-03 0.  1.
         11   -1    0    0    0    0 -0.00000000000E+00 -0.00000000000E+00 -0.45593999997E+02  0.45594000000E+02  0.51100000000E-03 0. -1.
    9900012    2    1    2    0    0 -0.89615353119E+01  0.49846121251E+01 -0.15669210352E+02  0.72461558100E+02  0.69999984114E+02 0.  0.
        -12    1    1    2    0    0  0.89615353119E+01 -0.49846121251E+01  0.15669210352E+02  0.18726441900E+02  0.00000000000E+00 0.  1.
         11    1    3    3    0    0 -0.26725376781E+02  0.36754067265E+01  0.65204463228E+01  0.27753749281E+02  0.51100000000E-03 0. -1.
        -11    1    3    3    0    0 -0.54446034984E+01 -0.11178216990E+02 -0.63820772104E+01  0.13975949059E+02  0.51100000000E-03 0.  1.
        -12    1    3    3    0    0  0.23208444967E+02  0.12487422389E+02 -0.15807579465E+02  0.30731859759E+02  0.00000000000E+00 0.  1.
</event>
<event>
 7    1  0.3685239E-013  0.7246162E+02  0.7816164E-02  0.1226708E+00
        -11   -1    0    0    0    0  0.00000000000E+00  0.00000000000E+00  0.45593999997E+02  0.45594000000E+02  0.51100000000E-03 0. -1.
         11   -1    0    0    0    0 -0.00000000000E+00 -0.00000000000E+00 -0.45593999997E+02  0.45594000000E+02  0.51100000000E-03 0.  1.
    9900012    2    1    2    0    0 -0.64416047437E+01  0.26520715810E+01  0.17382453944E+02  0.72461615927E+02  0.70000059445E+02 0.  0.
        -12    1    1    2    0    0  0.64416047437E+01 -0.26520715810E+01 -0.17382453944E+02  0.18726384073E+02  0.00000000000E+00 0.  1.
         11    1    3    3    0    0 -0.20781601821E+01  0.21496185812E+02 -0.39105140514E+01  0.21947593823E+02  0.51100000000E-03 0. -1.
        -11    1    3    3    0    0  0.15032885903E+02 -0.24757561371E+01 -0.28333368639E+01  0.15496606889E+02  0.51100000000E-03 0.  1.
         12    1    3    3    0    0 -0.19396330464E+02 -0.16368358094E+02  0.24126304859E+02  0.35017415215E+02  0.00000000000E+00 0. -1.
</event>
<event>
 7    1  0.2851651E-013  0.7246152E+02  0.7816164E-02  0.1226708E+00
        -11   -1    0    0    0    0  0.00000000000E+00  0.00000000000E+00  0.45593999997E+02  0.45594000000E+02  0.51100000000E-03 0. -1.
         11   -1    0    0    0    0 -0.00000000000E+00 -0.00000000000E+00 -0.45593999997E+02  0.45594000000E+02  0.51100000000E-03 0.  1.
    9900012    2    1    2    0    0 -0.55076149757E+01 -0.14515150050E+02  0.10471746723E+02  0.72461524541E+02  0.69999940398E+02 0.  0.
        -12    1    1    2    0    0  0.55076149757E+01  0.14515150050E+02 -0.10471746723E+02  0.18726475459E+02  0.00000000000E+00 0.  1.
         11    1    3    3    0    0 -0.16906085437E+02 -0.60183182299E+01  0.55207036488E+01  0.18775357471E+02  0.51100000000E-03 0. -1.
        -11    1    3    3    0    0  0.57012080125E+01 -0.15105230887E+02  0.26166442808E+02  0.30746617739E+02  0.51100000000E-03 0.  1.
        -12    1    3    3    0    0  0.56972624493E+01  0.66083990666E+01 -0.21215399734E+02  0.22939549331E+02  0.00000000000E+00 0.  1.
</event>
<event>
 7    1  0.2851651E-013  0.7246150E+02  0.7816164E-02  0.1226708E+00
        -11   -1    0    0    0    0  0.00000000000E+00  0.00000000000E+00  0.45593999997E+02  0.45594000000E+02  0.51100000000E-03 0.  1.
         11   -1    0    0    0    0 -0.00000000000E+00 -0.00000000000E+00 -0.45593999997E+02  0.45594000000E+02  0.51100000000E-03 0. -1.
    9900012    2    1    2    0    0  0.15473798614E+02  0.37665118051E+01 -0.98517344877E+01  0.72461502006E+02  0.69999911041E+02 0.  0.
        -12    1    1    2    0    0 -0.15473798614E+02 -0.37665118051E+01  0.98517344877E+01  0.18726497994E+02  0.00000000000E+00 0.  1.
         11    1    3    3    0    0  0.17188297087E+01  0.27238248760E+01 -0.86453039216E+00  0.33348179235E+01  0.51100000000E-03 0. -1.
        -11    1    3    3    0    0  0.11610957209E+02  0.11261035306E+02  0.27099678595E+02  0.31559750057E+02  0.51100000000E-03 0.  1.
         12    1    3    3    0    0  0.21440116964E+01 -0.10218348377E+02 -0.36086882691E+02  0.37566934025E+02  0.00000000000E+00 0. -1.
</event>
<event>
 7    1  0.2851651E-013  0.7246158E+02  0.7816164E-02  0.1226708E+00
        -11   -1    0    0    0    0  0.00000000000E+00  0.00000000000E+00  0.45593999997E+02  0.45594000000E+02  0.51100000000E-03 0.  1.
         11   -1    0    0    0    0 -0.00000000000E+00 -0.00000000000E+00 -0.45593999997E+02  0.45594000000E+02  0.51100000000E-03 0. -1.
    9900012    2    1    2    0    0  0.97050844829E+01 -0.14765535193E+02  0.62023455813E+01  0.72461580559E+02  0.70000013372E+02 0.  0.
        -12    1    1    2    0    0 -0.97050844829E+01  0.14765535193E+02 -0.62023455813E+01  0.18726419441E+02  0.00000000000E+00 0.  1.
         11    1    3    3    0    0 -0.36516167158E+01  0.42008217838E+01 -0.16229765195E+01  0.57978669648E+01  0.51100000000E-03 0. -1.
        -11    1    3    3    0    0 -0.14665789827E+02  0.15679066075E+02  0.28729087620E+00  0.21470934785E+02  0.51100000000E-03 0.  1.
         12    1    3    3    0    0  0.28022491026E+02 -0.34645423052E+02  0.75380312246E+01  0.45192778809E+02  0.00000000000E+00 0. -1.
</event>
<event>
 7    1  0.2851651E-013  0.7246154E+02  0.7816164E-02  0.1226708E+00
        -11   -1    0    0    0    0  0.00000000000E+00  0.00000000000E+00  0.45593999997E+02  0.45594000000E+02  0.51100000000E-03 0.  1.
         11   -1    0    0    0    0 -0.00000000000E+00 -0.00000000000E+00 -0.45593999997E+02  0.45594000000E+02  0.51100000000E-03 0. -1.
    9900012    2    1    2    0    0 -0.11981672172E+02 -0.96160675238E+01  0.10707521388E+02  0.72461541795E+02  0.69999962874E+02 0.  0.
        -12    1    1    2    0    0  0.11981672172E+02  0.96160675238E+01 -0.10707521388E+02  0.18726458205E+02  0.00000000000E+00 0.  1.
         11    1    3    3    0    0 -0.79561322526E+00  0.11347665381E+02  0.69589536250E+01  0.13335274494E+02  0.51100000000E-03 0. -1.
        -11    1    3    3    0    0 -0.32546173443E+01  0.14553241090E+02  0.14883451722E+02  0.21069088630E+02  0.51100000000E-03 0.  1.
         12    1    3    3    0    0 -0.79314416020E+01 -0.35516973995E+02 -0.11134883959E+02  0.38057178671E+02  0.00000000000E+00 0. -1.
</event>
<event>
 7    1  0.2851651E-013  0.7246158E+02  0.7816164E-02  0.1226708E+00
        -11   -1    0    0    0    0  0.00000000000E+00  0.00000000000E+00  0.45593999997E+02  0.45594000000E+02  0.51100000000E-03 0. -1.
         11   -1    0    0    0    0 -0.00000000000E+00 -0.00000000000E+00 -0.45593999997E+02  0.45594000000E+02  0.51100000000E-03 0.  1.
    9900012    2    1    2    0    0  0.18058837177E+02 -0.47297991502E+01 -0.14785271063E+01  0.72461584363E+02  0.70000018327E+02 0.  0.
        -12    1    1    2    0    0 -0.18058837177E+02  0.47297991502E+01  0.14785271063E+01  0.18726415637E+02  0.00000000000E+00 0.  1.
         11    1    3    3    0    0  0.58817787019E+01 -0.34477246444E+01  0.20731221020E+02  0.21823511430E+02  0.51100000000E-03 0. -1.
        -11    1    3    3    0    0  0.22871385707E+02  0.16224128924E+01  0.29769165782E+01  0.23121300576E+02  0.51100000000E-03 0.  1.
         12    1    3    3    0    0 -0.10694327232E+02 -0.29044873982E+01 -0.25186664704E+02  0.27516772356E+02  0.00000000000E+00 0. -1.
</event>
<event>
 7    1  0.2851651E-013  0.7246159E+02  0.7816164E-02  0.1226708E+00
        -11   -1    0    0    0    0  0.00000000000E+00  0.00000000000E+00  0.45593999997E+02  0.45594000000E+02  0.51100000000E-03 0.  1.
         11   -1    0    0    0    0 -0.00000000000E+00 -0.00000000000E+00 -0.45593999997E+02  0.45594000000E+02  0.51100000000E-03 0. -1.
    9900012    2    1    2    0    0  0.28225909356E+01 -0.14167036684E+02 -0.11916641941E+02  0.72461593427E+02  0.70000030134E+02 0.  0.
        -12    1    1    2    0    0 -0.28225909356E+01  0.14167036684E+02  0.11916641941E+02  0.18726406573E+02  0.00000000000E+00 0.  1.
         11    1    3    3    0    0 -0.74507202804E+01 -0.47864562286E+01 -0.17493093513E+02  0.19606930327E+02  0.51100000000E-03 0. -1.
        -11    1    3    3    0    0  0.30658220241E+02 -0.43084069560E+01 -0.57910339103E+00  0.30964886562E+02  0.51100000000E-03 0.  1.
         12    1    3    3    0    0 -0.20384909025E+02 -0.50721734994E+01  0.61555549633E+01  0.21889776537E+02  0.00000000000E+00 0. -1.
</event>
<event>
 7    1  0.2851651E-013  0.7246159E+02  0.7816164E-02  0.1226708E+00
        -11   -1    0    0    0    0  0.00000000000E+00  0.00000000000E+00  0.45593999997E+02  0.45594000000E+02  0.51100000000E-03 0.  1.
         11   -1    0    0    0    0 -0.00000000000E+00 -0.00000000000E+00 -0.45593999997E+02  0.45594000000E+02  0.51100000000E-03 0. -1.
    9900012    2    1    2    0    0  0.12221976025E+02  0.10447934965E+02 -0.95990769060E+01  0.72461592965E+02  0.70000029532E+02 0.  0.
        -12    1    1    2    0    0 -0.12221976025E+02 -0.10447934965E+02  0.95990769060E+01  0.18726407035E+02  0.00000000000E+00 0.  1.
         11    1    3    3    0    0  0.10425428974E+01 -0.25238774501E+02 -0.20798611690E+02  0.32721015915E+02  0.51100000000E-03 0. -1.
        -11    1    3    3    0    0 -0.67718219219E+00  0.43606251766E+01 -0.31424429257E-01  0.44130052581E+01  0.51100000000E-03 0.  1.
        -12    1    3    3    0    0  0.11856615320E+02  0.31326084290E+02  0.11230959214E+02  0.35327571791E+02  0.00000000000E+00 0.  1.
</event>
<event>
 7    1  0.2851651E-013  0.7246154E+02  0.7816164E-02  0.1226708E+00
        -11   -1    0    0    0    0  0.00000000000E+00  0.00000000000E+00  0.45593999997E+02  0.45594000000E+02  0.51100000000E-03 0.  1.
         11   -1    0    0    0    0 -0.00000000000E+00 -0.00000000000E+00 -0.45593999997E+02  0.45594000000E+02  0.51100000000E-03 0. -1.
    9900012    2    1    2    0    0 -0.32087260241E+01 -0.14980683019E+02 -0.10768642216E+02  0.72461536330E+02  0.69999955755E+02 0.  0.
        -12    1    1    2    0    0  0.32087260241E+01  0.14980683019E+02  0.10768642216E+02  0.18726463670E+02  0.00000000000E+00 0.  1.
         11    1    3    3    0    0 -0.10908623268E+02 -0.21635435641E+02  0.63251571893E+00  0.24238197404E+02  0.51100000000E-03 0. -1.
        -11    1    3    3    0    0 -0.30192702507E+01 -0.18902281958E+02 -0.45640061587E+01  0.19678475768E+02  0.51100000000E-03 0.  1.
        -12    1    3    3    0    0  0.10719167495E+02  0.25557034580E+02 -0.68371517764E+01  0.28544863158E+02  0.00000000000E+00 0.  1.
</event>
<event>
 7    1  0.2851651E-013  0.7246159E+02  0.7816164E-02  0.1226708E+00
        -11   -1    0    0    0    0  0.00000000000E+00  0.00000000000E+00  0.45593999997E+02  0.45594000000E+02  0.51100000000E-03 0. -1.
         11   -1    0    0    0    0 -0.00000000000E+00 -0.00000000000E+00 -0.45593999997E+02  0.45594000000E+02  0.51100000000E-03 0.  1.
    9900012    2    1    2    0    0  0.86731669492E+01 -0.16186199258E+02 -0.36689827803E+01  0.72461593351E+02  0.70000030036E+02 0.  0.
        -12    1    1    2    0    0 -0.86731669492E+01  0.16186199258E+02  0.36689827803E+01  0.18726406649E+02  0.00000000000E+00 0.  1.
         11    1    3    3    0    0  0.86949425599E+00 -0.72086367056E+01 -0.11545436102E+02  0.13638825406E+02  0.51100000000E-03 0. -1.
        -11    1    3    3    0    0  0.89066141352E+01 -0.18416314638E+02 -0.20461578594E+02  0.28933797176E+02  0.51100000000E-03 0.  1.
        -12    1    3    3    0    0 -0.11029414420E+01  0.94387520858E+01  0.28338031916E+02  0.29888970769E+02  0.00000000000E+00 0.  1.
</event>
<event>
 7    1  0.2851651E-013  0.7246151E+02  0.7816164E-02  0.1226708E+00
        -11   -1    0    0    0    0  0.00000000000E+00  0.00000000000E+00  0.45593999997E+02  0.45594000000E+02  0.51100000000E-03 0.  1.
         11   -1    0    0    0    0 -0.00000000000E+00 -0.00000000000E+00 -0.45593999997E+02  0.45594000000E+02  0.51100000000E-03 0. -1.
    9900012    2    1    2    0    0 -0.93542320610E+01 -0.14038334012E+02 -0.81304869916E+01  0.72461513463E+02  0.69999925967E+02 0.  0.
        -12    1    1    2    0    0  0.93542320610E+01  0.14038334012E+02  0.81304869916E+01  0.18726486537E+02  0.00000000000E+00 0.  1.
         11    1    3    3    0    0 -0.19811784512E+02 -0.75706736785E+01  0.65279403223E+00  0.21219049126E+02  0.51100000000E-03 0. -1.
        -11    1    3    3    0    0  0.87269143331E+01 -0.23247196763E+02  0.92974012539E+01  0.26514766856E+02  0.51100000000E-03 0.  1.
        -12    1    3    3    0    0  0.17306381181E+01  0.16779536429E+02 -0.18080682278E+02  0.24727697481E+02  0.00000000000E+00 0.  1.
</event>
<event>
 7    1  0.2851651E-013  0.7246157E+02  0.7816164E-02  0.1226708E+00
        -11   -1    0    0    0    0  0.00000000000E+00  0.00000000000E+00  0.45593999997E+02  0.45594000000E+02  0.51100000000E-03 0.  1.
         11   -1    0    0    0    0 -0.00000000000E+00 -0.00000000000E+00 -0.45593999997E+02  0.45594000000E+02  0.51100000000E-03 0. -1.
    9900012    2    1    2    0    0 -0.16969435015E+02 -0.29185847736E+01 -0.73620220027E+01  0.72461568685E+02  0.69999997904E+02 0.  0.
        -12    1    1    2    0    0  0.16969435015E+02  0.29185847736E+01  0.73620220027E+01  0.18726431315E+02  0.00000000000E+00 0.  1.
         11    1    3    3    0    0 -0.13416024345E+02  0.51881038671E+01 -0.65168381780E+01  0.15791621546E+02  0.51100000000E-03 0. -1.
        -11    1    3    3    0    0 -0.17061069137E+02  0.18288702123E+02 -0.78288095577E+01  0.26207765353E+02  0.51100000000E-03 0.  1.
         12    1    3    3    0    0  0.13507658467E+02 -0.26395390764E+02  0.69836257329E+01  0.30462181786E+02  0.00000000000E+00 0. -1.
</event>
<event>
 7    1  0.2851651E-013  0.7246156E+02  0.7816164E-02  0.1226708E+00
        -11   -1    0    0    0    0  0.00000000000E+00  0.00000000000E+00  0.45593999997E+02  0.45594000000E+02  0.51100000000E-03 0.  1.
         11   -1    0    0    0    0 -0.00000000000E+00 -0.00000000000E+00 -0.45593999997E+02  0.45594000000E+02  0.51100000000E-03 0. -1.
    9900012    2    1    2    0    0  0.17438880943E+02 -0.67122994336E+01 -0.12287834312E+01  0.72461563047E+02  0.69999990559E+02 0.  0.
        -12    1    1    2    0    0 -0.17438880943E+02  0.67122994336E+01  0.12287834312E+01  0.18726436953E+02  0.00000000000E+00 0.  1.
         11    1    3    3    0    0 -0.77421793385E+00  0.17467578955E+02  0.68609003030E+00  0.17498184127E+02  0.51100000000E-03 0. -1.
        -11    1    3    3    0    0 -0.15182957610E+02 -0.71583683450E+01 -0.45366629258E+01  0.17388092187E+02  0.51100000000E-03 0.  1.
         12    1    3    3    0    0  0.33396056487E+02 -0.17021510044E+02  0.26217894643E+01  0.37575286733E+02  0.00000000000E+00 0. -1.
</event>
<event>
 7    1  0.2851651E-013  0.7246146E+02  0.7816164E-02  0.1226708E+00
        -11   -1    0    0    0    0  0.00000000000E+00  0.00000000000E+00  0.45593999997E+02  0.45594000000E+02  0.51100000000E-03 0. -1.
         11   -1    0    0    0    0 -0.00000000000E+00 -0.00000000000E+00 -0.45593999997E+02  0.45594000000E+02  0.51100000000E-03 0.  1.
    9900012    2    1    2    0    0 -0.15831073658E+02  0.54663847986E+01  0.83772965426E+01  0.72461458587E+02  0.69999854480E+02 0.  0.
        -12    1    1    2    0    0  0.15831073658E+02 -0.54663847986E+01 -0.83772965426E+01  0.18726541413E+02  0.00000000000E+00 0.  1.
         11    1    3    3    0    0 -0.29429706618E+02 -0.74222619402E+01  0.20809669950E+01  0.30422492137E+02  0.51100000000E-03 0. -1.
        -11    1    3    3    0    0 -0.10497557128E+02 -0.39949585323E+01  0.57342682500E+01  0.12611115413E+02  0.51100000000E-03 0.  1.
        -12    1    3    3    0    0  0.24096190088E+02  0.16883605271E+02  0.56206129758E+00  0.29427851037E+02  0.00000000000E+00 0.  1.
</event>
<event>
 7    1  0.2851651E-013  0.7246157E+02  0.7816164E-02  0.1226708E+00
        -11   -1    0    0    0    0  0.00000000000E+00  0.00000000000E+00  0.45593999997E+02  0.45594000000E+02  0.51100000000E-03 0.  1.
         11   -1    0    0    0    0 -0.00000000000E+00 -0.00000000000E+00 -0.45593999997E+02  0.45594000000E+02  0.51100000000E-03 0. -1.
    9900012    2    1    2    0    0 -0.62909042433E+01  0.16800294871E+02 -0.53715697435E+01  0.72461570937E+02  0.70000000837E+02 0.  0.
        -12    1    1    2    0    0  0.62909042433E+01 -0.16800294871E+02  0.53715697435E+01  0.18726429063E+02  0.00000000000E+00 0.  1.
         11    1    3    3    0    0  0.22104644959E+02  0.89883740451E+01 -0.16662771527E+02  0.29104194749E+02  0.51100000000E-03 0. -1.
        -11    1    3    3    0    0 -0.94467358073E+01  0.28467981220E+01 -0.10259937179E+02  0.14234162713E+02  0.51100000000E-03 0.  1.
        -12    1    3    3    0    0 -0.18948813395E+02  0.49651227038E+01  0.21551138962E+02  0.29123213475E+02  0.00000000000E+00 0.  1.
</event>
<event>
 7    1  0.2851651E-013  0.7246159E+02  0.7816164E-02  0.1226708E+00
        -11   -1    0    0    0    0  0.00000000000E+00  0.00000000000E+00  0.45593999997E+02  0.45594000000E+02  0.51100000000E-03 0. -1.
         11   -1    0    0    0    0 -0.00000000000E+00 -0.00000000000E+00 -0.45593999997E+02  0.45594000000E+02  0.51100000000E-03 0.  1.
    9900012    2    1    2    0    0  0.29351203286E-01  0.17136563794E+02  0.75508827269E+01  0.72461587900E+02  0.70000022935E+02 0.  0.
        -12    1    1    2    0    0 -0.29351203286E-01 -0.17136563794E+02 -0.75508827269E+01  0.18726412100E+02  0.00000000000E+00 0.  1.
         11    1    3    3    0    0  0.24138294314E+02  0.79046198094E+01 -0.47947721276E+01  0.25848212835E+02  0.51100000000E-03 0. -1.
        -11    1    3    3    0    0  0.61419294721E+00 -0.37448237805E+00 -0.11153777330E+02  0.11176950345E+02  0.51100000000E-03 0.  1.
        -12    1    3    3    0    0 -0.24723136058E+02  0.96064263631E+01  0.23499432184E+02  0.35436424721E+02  0.00000000000E+00 0.  1.
</event>
<event>
 7    1  0.2851651E-013  0.7246174E+02  0.7816164E-02  0.1226708E+00
        -11   -1    0    0    0    0  0.00000000000E+00  0.00000000000E+00  0.45593999997E+02  0.45594000000E+02  0.51100000000E-03 0. -1.
         11   -1    0    0    0    0 -0.00000000000E+00 -0.00000000000E+00 -0.45593999997E+02  0.45594000000E+02  0.51100000000E-03 0.  1.
    9900012    2    1    2    0    0 -0.15068786975E+02 -0.71150684854E+01 -0.85428578569E+01  0.72461736069E+02  0.70000215952E+02 0.  0.
        -12    1    1    2    0    0  0.15068786975E+02  0.71150684854E+01  0.85428578569E+01  0.18726263931E+02  0.00000000000E+00 0.  1.
         11    1    3    3    0    0  0.15429637933E+02  0.20610405839E+01  0.10569439849E+02  0.18815809151E+02  0.51100000000E-03 0. -1.
        -11    1    3    3    0    0 -0.17546003975E+01 -0.13179594350E+02  0.66260729721E+01  0.14855476198E+02  0.51100000000E-03 0.  1.
        -12    1    3    3    0    0 -0.28743824511E+02  0.40034852803E+01 -0.25738370678E+02  0.38790450720E+02  0.00000000000E+00 0.  1.
</event>
<event>
 7    1  0.2851651E-013  0.7246157E+02  0.7816164E-02  0.1226708E+00
        -11   -1    0    0    0    0  0.00000000000E+00  0.00000000000E+00  0.45593999997E+02  0.45594000000E+02  0.51100000000E-03 0.  1.
         11   -1    0    0    0    0 -0.00000000000E+00 -0.00000000000E+00 -0.45593999997E+02  0.45594000000E+02  0.51100000000E-03 0. -1.
    9900012    2    1    2    0    0 -0.15913451124E+02  0.71659504759E+01 -0.67890034879E+01  0.72461565709E+02  0.69999994027E+02 0.  0.
        -12    1    1    2    0    0  0.15913451124E+02 -0.71659504759E+01  0.67890034879E+01  0.18726434291E+02  0.00000000000E+00 0.  1.
         11    1    3    3    0    0  0.50928522776E+01  0.13574351564E+01  0.61737808071E+01  0.81175947325E+01  0.51100000000E-03 0. -1.
        -11    1    3    3    0    0 -0.50793644674E+01  0.12581018048E+01  0.23616371846E+02  0.24189166645E+02  0.51100000000E-03 0.  1.
         12    1    3    3    0    0 -0.15926938934E+02  0.45504135147E+01 -0.36579156141E+02  0.40154804332E+02  0.00000000000E+00 0. -1.
</event>
<event>
 7    1  0.2851651E-013  0.7246225E+02  0.7816164E-02  0.1226706E+00
        -11   -1    0    0    0    0  0.00000000000E+00  0.00000000000E+00  0.45593999997E+02  0.45594000000E+02  0.51100000000E-03 0.  1.
         11   -1    0    0    0    0 -0.00000000000E+00 -0.00000000000E+00 -0.45593999997E+02  0.45594000000E+02  0.51100000000E-03 0. -1.
    9900012    2    1    2    0    0  0.92513042949E+01 -0.75483533327E+01 -0.14425299298E+02  0.72462254914E+02  0.70000891838E+02 0.  0.
        -12    1    1    2    0    0 -0.92513042949E+01  0.75483533327E+01  0.14425299298E+02  0.18725745086E+02  0.00000000000E+00 0.  1.
         11    1    3    3    0    0  0.23975978724E+02  0.73274410862E+01 -0.23439594608E+01  0.25180013798E+02  0.51100000000E-03 0. -1.
        -11    1    3    3    0    0  0.48212622341E+01  0.11196614210E+02  0.86036129136E+00  0.12220841260E+02  0.51100000000E-03 0.  1.
         12    1    3    3    0    0 -0.19545936663E+02 -0.26072408629E+02 -0.12941701129E+02  0.35061399856E+02  0.00000000000E+00 0. -1.
</event>
<event>
 7    1  0.2851651E-013  0.7246157E+02  0.7816164E-02  0.1226708E+00
        -11   -1    0    0    0    0  0.00000000000E+00  0.00000000000E+00  0.45593999997E+02  0.45594000000E+02  0.51100000000E-03 0. -1.
         11   -1    0    0    0    0 -0.00000000000E+00 -0.00000000000E+00 -0.45593999997E+02  0.45594000000E+02  0.51100000000E-03 0.  1.
    9900012    2    1    2    0    0  0.95797386388E+01 -0.70837841601E+01  0.14447410331E+02  0.72461573334E+02  0.70000003960E+02 0.  0.
        -12    1    1    2    0    0 -0.95797386388E+01  0.70837841601E+01 -0.14447410331E+02  0.18726426666E+02  0.00000000000E+00 0.  1.
         11    1    3    3    0    0  0.77613514692E+00 -0.86652824669E+01  0.16134391760E+02  0.18330523825E+02  0.51100000000E-03 0. -1.
        -11    1    3    3    0    0  0.17040643427E+02 -0.22438676196E+02 -0.46805178040E+01  0.28561949601E+02  0.51100000000E-03 0.  1.
        -12    1    3    3    0    0 -0.82370399354E+01  0.24020174503E+02  0.29935363752E+01  0.25569099907E+02  0.00000000000E+00 0.  1.
</event>
<event>
 7    1  0.2851651E-013  0.7246170E+02  0.7816164E-02  0.1226708E+00
        -11   -1    0    0    0    0  0.00000000000E+00  0.00000000000E+00  0.45593999997E+02  0.45594000000E+02  0.51100000000E-03 0. -1.
         11   -1    0    0    0    0 -0.00000000000E+00 -0.00000000000E+00 -0.45593999997E+02  0.45594000000E+02  0.51100000000E-03 0.  1.
    9900012    2    1    2    0    0  0.16302145475E+02 -0.92083041881E+01 -0.34863458045E+00  0.72461698732E+02  0.70000167314E+02 0.  0.
        -12    1    1    2    0    0 -0.16302145475E+02  0.92083041881E+01  0.34863458045E+00  0.18726301268E+02  0.00000000000E+00 0.  1.
         11    1    3    3    0    0 -0.20160090865E+02 -0.16205339690E+02 -0.12131458453E+02  0.28569469414E+02  0.51100000000E-03 0. -1.
        -11    1    3    3    0    0  0.65758657212E+01 -0.27955950897E+01 -0.45330601815E+01  0.84620326612E+01  0.51100000000E-03 0.  1.
        -12    1    3    3    0    0  0.29886370619E+02  0.97926305921E+01  0.16315884054E+02  0.35430196657E+02  0.00000000000E+00 0.  1.
</event>
<event>
 7    1  0.2851651E-013  0.7246146E+02  0.7816164E-02  0.1226708E+00
        -11   -1    0    0    0    0  0.00000000000E+00  0.00000000000E+00  0.45593999997E+02  0.45594000000E+02  0.51100000000E-03 0.  1.
         11   -1    0    0    0    0 -0.00000000000E+00 -0.00000000000E+00 -0.45593999997E+02  0.45594000000E+02  0.51100000000E-03 0. -1.
    9900012    2    1    2    0    0 -0.14705127550E+02 -0.97717175703E+01 -0.62414867243E+01  0.72461457419E+02  0.69999852958E+02 0.  0.
        -12    1    1    2    0    0  0.14705127550E+02  0.97717175703E+01  0.62414867243E+01  0.18726542581E+02  0.00000000000E+00 0.  1.
         11    1    3    3    0    0 -0.23739121976E+02 -0.66693211495E+01  0.15469143608E+01  0.24706652972E+02  0.51100000000E-03 0. -1.
        -11    1    3    3    0    0  0.55993560542E+01 -0.24560975621E+02 -0.63296047844E+01  0.25974183503E+02  0.51100000000E-03 0.  1.
         12    1    3    3    0    0  0.34346383722E+01  0.21458579200E+02 -0.14587963007E+01  0.21780620943E+02  0.00000000000E+00 0. -1.
</event>
<event>
 7    1  0.2851651E-013  0.7246175E+02  0.7816164E-02  0.1226708E+00
        -11   -1    0    0    0    0  0.00000000000E+00  0.00000000000E+00  0.45593999997E+02  0.45594000000E+02  0.51100000000E-03 0. -1.
         11   -1    0    0    0    0 -0.00000000000E+00 -0.00000000000E+00 -0.45593999997E+02  0.45594000000E+02  0.51100000000E-03 0.  1.
    9900012    2    1    2    0    0 -0.98894224519E+01 -0.15895701579E+02 -0.44547978258E+00  0.72461749511E+02  0.70000233463E+02 0.  0.
        -12    1    1    2    0    0  0.98894224519E+01  0.15895701579E+02  0.44547978258E+00  0.18726250489E+02  0.00000000000E+00 0.  1.
         11    1    3    3    0    0 -0.14396596613E+02 -0.20464593165E+02 -0.10125246712E+02  0.26992261644E+02  0.51100000000E-03 0. -1.
        -11    1    3    3    0    0 -0.15629727897E+02  0.13329830337E+02  0.11308535092E+02  0.23449002903E+02  0.51100000000E-03 0.  1.
         12    1    3    3    0    0  0.20136902058E+02 -0.87609387517E+01 -0.16287681630E+01  0.22020484964E+02  0.00000000000E+00 0. -1.
</event>
<event>
 7    1  0.2851651E-013  0.7246144E+02  0.7816164E-02  0.1226708E+00
        -11   -1    0    0    0    0  0.00000000000E+00  0.00000000000E+00  0.45593999997E+02  0.45594000000E+02  0.51100000000E-03 0. -1.
         11   -1    0    0    0    0 -0.00000000000E+00 -0.00000000000E+00 -0.45593999997E+02  0.45594000000E+02  0.51100000000E-03 0.  1.
    9900012    2    1    2    0    0  0.92474251716E+01  0.17561400709E+01  0.16189043188E+02  0.72461440797E+02  0.69999831305E+02 0.  0.
        -12    1    1    2    0    0 -0.92474251716E+01 -0.17561400709E+01 -0.16189043188E+02  0.18726559203E+02  0.00000000000E+00 0.  1.
         11    1    3    3    0    0  0.73445376522E-01 -0.18573503658E+02 -0.86221633486E+01  0.20477356603E+02  0.51100000000E-03 0. -1.
        -11    1    3    3    0    0  0.16169543345E+02 -0.56632963364E+01  0.16565613791E+02  0.23831630618E+02  0.51100000000E-03 0.  1.
         12    1    3    3    0    0 -0.69955635500E+01  0.25992940066E+02  0.82455927459E+01  0.28152453576E+02  0.00000000000E+00 0. -1.
</event>
<event>
 7    1  0.2851651E-013  0.7246142E+02  0.7816164E-02  0.1226708E+00
        -11   -1    0    0    0    0  0.00000000000E+00  0.00000000000E+00  0.45593999997E+02  0.45594000000E+02  0.51100000000E-03 0.  1.
         11   -1    0    0    0    0 -0.00000000000E+00 -0.00000000000E+00 -0.45593999997E+02  0.45594000000E+02  0.51100000000E-03 0. -1.
    9900012    2    1    2    0    0  0.27914364012E+01 -0.13210167327E+01 -0.18470179506E+02  0.72461421739E+02  0.69999806478E+02 0.  0.
        -12    1    1    2    0    0 -0.27914364012E+01  0.13210167327E+01  0.18470179506E+02  0.18726578261E+02  0.00000000000E+00 0.  1.
         11    1    3    3    0    0 -0.14233572516E+02 -0.20326065398E+02 -0.15450755667E+02  0.29231308081E+02  0.51100000000E-03 0. -1.
        -11    1    3    3    0    0 -0.24449532313E+00  0.11930004887E+02 -0.16389051232E+02  0.20272784592E+02  0.51100000000E-03 0.  1.
        -12    1    3    3    0    0  0.17269504241E+02  0.70750437787E+01  0.13369627394E+02  0.22957329066E+02  0.00000000000E+00 0.  1.
</event>
<event>
 7    1  0.2851651E-013  0.7246145E+02  0.7816164E-02  0.1226708E+00
        -11   -1    0    0    0    0  0.00000000000E+00  0.00000000000E+00  0.45593999997E+02  0.45594000000E+02  0.51100000000E-03 0. -1.
         11   -1    0    0    0    0 -0.00000000000E+00 -0.00000000000E+00 -0.45593999997E+02  0.45594000000E+02  0.51100000000E-03 0.  1.
    9900012    2    1    2    0    0 -0.76374508352E+01  0.16985156599E+02 -0.19640736945E+01  0.72461447049E+02  0.69999839450E+02 0.  0.
        -12    1    1    2    0    0  0.76374508352E+01 -0.16985156599E+02  0.19640736945E+01  0.18726552951E+02  0.00000000000E+00 0.  1.
         11    1    3    3    0    0  0.31617272996E+01 -0.77302839567E+01  0.22596341782E+02  0.24090422822E+02  0.51100000000E-03 0. -1.
        -11    1    3    3    0    0  0.43726615874E+01 -0.58262098291E+01 -0.22706614654E+01  0.76302551780E+01  0.51100000000E-03 0.  1.
        -12    1    3    3    0    0 -0.15171839722E+02  0.30541650385E+02 -0.22289754011E+02  0.40740769048E+02  0.00000000000E+00 0.  1.
</event>
<event>
 7    1  0.2851651E-013  0.7246159E+02  0.7816164E-02  0.1226708E+00
        -11   -1    0    0    0    0  0.00000000000E+00  0.00000000000E+00  0.45593999997E+02  0.45594000000E+02  0.51100000000E-03 0. -1.
         11   -1    0    0    0    0 -0.00000000000E+00 -0.00000000000E+00 -0.45593999997E+02  0.45594000000E+02  0.51100000000E-03 0.  1.
    9900012    2    1    2    0    0  0.14452494617E+02  0.72944335885E+01  0.94125024874E+01  0.72461586432E+02  0.70000021023E+02 0.  0.
        -12    1    1    2    0    0 -0.14452494617E+02 -0.72944335885E+01 -0.94125024874E+01  0.18726413568E+02  0.00000000000E+00 0.  1.
         11    1    3    3    0    0 -0.76174418180E+01  0.54002808921E+01  0.32520957605E+02  0.33834910039E+02  0.51100000000E-03 0. -1.
        -11    1    3    3    0    0  0.32149935968E+01 -0.84371986419E+01 -0.98748831397E+01  0.13380426826E+02  0.51100000000E-03 0.  1.
        -12    1    3    3    0    0  0.18854942838E+02  0.10331351338E+02 -0.13233571978E+02  0.25246249567E+02  0.00000000000E+00 0.  1.
</event>
<event>
 7    1  0.2851651E-013  0.7246155E+02  0.7816164E-02  0.1226708E+00
        -11   -1    0    0    0    0  0.00000000000E+00  0.00000000000E+00  0.45593999997E+02  0.45594000000E+02  0.51100000000E-03 0. -1.
         11   -1    0    0    0    0 -0.00000000000E+00 -0.00000000000E+00 -0.45593999997E+02  0.45594000000E+02  0.51100000000E-03 0.  1.
    9900012    2    1    2    0    0  0.83521906106E+01 -0.14223127597E+02  0.88669987585E+01  0.72461545087E+02  0.69999967162E+02 0.  0.
        -12    1    1    2    0    0 -0.83521906106E+01  0.14223127597E+02 -0.88669987585E+01  0.18726454913E+02  0.00000000000E+00 0.  1.
         11    1    3    3    0    0 -0.39005455597E+01 -0.36823254566E+01 -0.85443517684E+00  0.54317433817E+01  0.51100000000E-03 0. -1.
        -11    1    3    3    0    0  0.24246674428E+02 -0.22412883617E+02 -0.15664649096E+02  0.36546132550E+02  0.51100000000E-03 0.  1.
         12    1    3    3    0    0 -0.11993938257E+02  0.11872081476E+02  0.25386083031E+02  0.30483669155E+02  0.00000000000E+00 0. -1.
</event>
<event>
 7    1  0.2851651E-013  0.7246146E+02  0.7816164E-02  0.1226708E+00
        -11   -1    0    0    0    0  0.00000000000E+00  0.00000000000E+00  0.45593999997E+02  0.45594000000E+02  0.51100000000E-03 0. -1.
         11   -1    0    0    0    0 -0.00000000000E+00 -0.00000000000E+00 -0.45593999997E+02  0.45594000000E+02  0.51100000000E-03 0.  1.
    9900012    2    1    2    0    0  0.17929776750E+02 -0.53984513095E+01  0.25118004556E+00  0.72461461018E+02  0.69999857647E+02 0.  0.
        -12    1    1    2    0    0 -0.17929776750E+02  0.53984513095E+01 -0.25118004556E+00  0.18726538982E+02  0.00000000000E+00 0.  1.
         11    1    3    3    0    0 -0.46593775751E+01 -0.22930328858E+01 -0.19963564746E+02  0.20627935351E+02  0.51100000000E-03 0. -1.
        -11    1    3    3    0    0  0.16563045807E+02 -0.11063831840E+02 -0.83326473498E+01  0.21591106352E+02  0.51100000000E-03 0.  1.
         12    1    3    3    0    0  0.60261085186E+01  0.79584134158E+01  0.28547392141E+02  0.30242419315E+02  0.00000000000E+00 0. -1.
</event>
<event>
 7    1  0.2851651E-013  0.7246157E+02  0.7816164E-02  0.1226708E+00
        -11   -1    0    0    0    0  0.00000000000E+00  0.00000000000E+00  0.45593999997E+02  0.45594000000E+02  0.51100000000E-03 0. -1.
         11   -1    0    0    0    0 -0.00000000000E+00 -0.00000000000E+00 -0.45593999997E+02  0.45594000000E+02  0.51100000000E-03 0.  1.
    9900012    2    1    2    0    0  0.15831703844E+02  0.89504807792E+01  0.44637655136E+01  0.72461570673E+02  0.70000000493E+02 0.  0.
        -12    1    1    2    0    0 -0.15831703844E+02 -0.89504807792E+01 -0.44637655136E+01  0.18726429327E+02  0.00000000000E+00 0.  1.
         11    1    3    3    0    0 -0.93901034715E+01  0.22828348856E+02  0.12591001665E+02  0.27709941860E+02  0.51100000000E-03 0. -1.
        -11    1    3    3    0    0 -0.58154918108E+00  0.45414235687E+01  0.79733921316E+01  0.91944390707E+01  0.51100000000E-03 0.  1.
        -12    1    3    3    0    0  0.25803356497E+02 -0.18419291646E+02 -0.16100628283E+02  0.35557189742E+02  0.00000000000E+00 0.  1.
</event>
<event>
 7    1  0.2851651E-013  0.7246144E+02  0.7816164E-02  0.1226708E+00
        -11   -1    0    0    0    0  0.00000000000E+00  0.00000000000E+00  0.45593999997E+02  0.45594000000E+02  0.51100000000E-03 0. -1.
         11   -1    0    0    0    0 -0.00000000000E+00 -0.00000000000E+00 -0.45593999997E+02  0.45594000000E+02  0.51100000000E-03 0.  1.
    9900012    2    1    2    0    0  0.15936172367E+02  0.71128699462E+01  0.67918819866E+01  0.72461436795E+02  0.69999826092E+02 0.  0.
        -12    1    1    2    0    0 -0.15936172367E+02 -0.71128699462E+01 -0.67918819866E+01  0.18726563205E+02  0.00000000000E+00 0.  1.
         11    1    3    3    0    0 -0.61363066813E+00  0.52216062726E+01  0.99953038785E+00  0.53517077574E+01  0.51100000000E-03 0. -1.
        -11    1    3    3    0    0 -0.16506883816E+02 -0.14289676503E+02 -0.13384474805E+02  0.25608909269E+02  0.51100000000E-03 0.  1.
         12    1    3    3    0    0  0.33056686851E+02  0.16180940176E+02  0.19176826404E+02  0.41500819768E+02  0.00000000000E+00 0. -1.
</event>
<event>
 7    1  0.2851651E-013  0.7246153E+02  0.7816164E-02  0.1226708E+00
        -11   -1    0    0    0    0  0.00000000000E+00  0.00000000000E+00  0.45593999997E+02  0.45594000000E+02  0.51100000000E-03 0. -1.
         11   -1    0    0    0    0 -0.00000000000E+00 -0.00000000000E+00 -0.45593999997E+02  0.45594000000E+02  0.51100000000E-03 0.  1.
    9900012    2    1    2    0    0  0.85740023677E+01  0.13558960378E+02  0.96603171616E+01  0.72461530744E+02  0.69999948478E+02 0.  0.
        -12    1    1    2    0    0 -0.85740023677E+01 -0.13558960378E+02 -0.96603171616E+01  0.18726469256E+02  0.00000000000E+00 0.  1.
         11    1    3    3    0    0  0.14105513029E+02  0.36511902485E+01  0.88822060511E+01  0.17064298188E+02  0.51100000000E-03 0. -1.
        -11    1    3    3    0    0  0.67044182341E+01  0.29592731474E+02  0.75162140619E+01  0.31259757741E+02  0.51100000000E-03 0.  1.
         12    1    3    3    0    0 -0.12235928896E+02 -0.19684961344E+02 -0.67381029514E+01  0.24137474815E+02  0.00000000000E+00 0. -1.
</event>
<event>
 7    1  0.2851651E-013  0.7246157E+02  0.7816164E-02  0.1226708E+00
        -11   -1    0    0    0    0  0.00000000000E+00  0.00000000000E+00  0.45593999997E+02  0.45594000000E+02  0.51100000000E-03 0. -1.
         11   -1    0    0    0    0 -0.00000000000E+00 -0.00000000000E+00 -0.45593999997E+02  0.45594000000E+02  0.51100000000E-03 0.  1.
    9900012    2    1    2    0    0 -0.11937920666E+02  0.14427856547E+02 -0.45283145962E-01  0.72461573621E+02  0.70000004334E+02 0.  0.
        -12    1    1    2    0    0  0.11937920666E+02 -0.14427856547E+02  0.45283145962E-01  0.18726426379E+02  0.00000000000E+00 0.  1.
         11    1    3    3    0    0  0.11478327809E+01  0.18658890955E+01  0.24286936162E+02  0.24385535274E+02  0.51100000000E-03 0. -1.
        -11    1    3    3    0    0  0.34778191029E+01 -0.80702320814E+01  0.36950699362E+01  0.95329645784E+01  0.51100000000E-03 0.  1.
        -12    1    3    3    0    0 -0.16563572549E+02  0.20632199532E+02 -0.28027289244E+02  0.38543073769E+02  0.00000000000E+00 0.  1.
</event>
<event>
 7    1  0.2851651E-013  0.7246150E+02  0.7816164E-02  0.1226708E+00
        -11   -1    0    0    0    0  0.00000000000E+00  0.00000000000E+00  0.45593999997E+02  0.45594000000E+02  0.51100000000E-03 0.  1.
         11   -1    0    0    0    0 -0.00000000000E+00 -0.00000000000E+00 -0.45593999997E+02  0.45594000000E+02  0.51100000000E-03 0. -1.
    9900012    2    1    2    0    0  0.11608172821E+02 -0.36133910745E+01 -0.14243436428E+02  0.72461501326E+02  0.69999910156E+02 0.  0.
        -12    1    1    2    0    0 -0.11608172821E+02  0.36133910745E+01  0.14243436428E+02  0.18726498674E+02  0.00000000000E+00 0.  1.
         11    1    3    3    0    0 -0.63433046742E+01  0.99854465669E+00 -0.18020819419E+02  0.19130722371E+02  0.51100000000E-03 0. -1.
        -11    1    3    3    0    0  0.24235638447E+02  0.17210629274E+02  0.65936278331E+01  0.30447460637E+02  0.51100000000E-03 0.  1.
         12    1    3    3    0    0 -0.62841609517E+01 -0.21822565005E+02 -0.28162448416E+01  0.22883318319E+02  0.00000000000E+00 0. -1.
</event>
<event>
 7    1  0.2851651E-013  0.7246118E+02  0.7816164E-02  0.1226709E+00
        -11   -1    0    0    0    0  0.00000000000E+00  0.00000000000E+00  0.45593999997E+02  0.45594000000E+02  0.51100000000E-03 0.  1.
         11   -1    0    0    0    0 -0.00000000000E+00 -0.00000000000E+00 -0.45593999997E+02  0.45594000000E+02  0.51100000000E-03 0. -1.
    9900012    2    1    2    0    0 -0.61715576638E+01 -0.27651028978E+01 -0.17463103441E+02  0.72461176996E+02  0.69999487654E+02 0.  0.
        -12    1    1    2    0    0  0.61715576638E+01  0.27651028978E+01  0.17463103441E+02  0.18726823004E+02  0.00000000000E+00 0.  1.
         11    1    3    3    0    0 -0.34159207403E+00  0.17347784930E+02  0.14851283586E+02  0.22839066346E+02  0.51100000000E-03 0. -1.
        -11    1    3    3    0    0 -0.16250425416E+02 -0.35988066596E+01 -0.80860396892E+01  0.18504371745E+02  0.51100000000E-03 0.  1.
        -12    1    3    3    0    0  0.10420459826E+02 -0.16514081168E+02 -0.24228347338E+02  0.31117738905E+02  0.00000000000E+00 0.  1.
</event>
<event>
 7    1  0.2851651E-013  0.7246169E+02  0.7816164E-02  0.1226708E+00
        -11   -1    0    0    0    0  0.00000000000E+00  0.00000000000E+00  0.45593999997E+02  0.45594000000E+02  0.51100000000E-03 0. -1.
         11   -1    0    0    0    0 -0.00000000000E+00 -0.00000000000E+00 -0.45593999997E+02  0.45594000000E+02  0.51100000000E-03 0.  1.
    9900012    2    1    2    0    0  0.97844979495E+01 -0.63959154759E+01  0.14629781364E+02  0.72461691296E+02  0.70000157628E+02 0.  0.
        -12    1    1    2    0    0 -0.97844979495E+01  0.63959154759E+01 -0.14629781364E+02  0.18726308704E+02  0.00000000000E+00 0.  1.
         11    1    3    3    0    0  0.95305164661E+00  0.16851175826E+02 -0.44176262522E+01  0.17446657448E+02  0.51100000000E-03 0. -1.
        -11    1    3    3    0    0 -0.93822727097E+01  0.69824329018E+01 -0.45620544500E+01  0.12553634991E+02  0.51100000000E-03 0.  1.
         12    1    3    3    0    0  0.18213719013E+02 -0.30229524203E+02  0.23609462066E+02  0.42461398857E+02  0.00000000000E+00 0. -1.
</event>
<event>
 7    1  0.2851651E-013  0.7246156E+02  0.7816164E-02  0.1226708E+00
        -11   -1    0    0    0    0  0.00000000000E+00  0.00000000000E+00  0.45593999997E+02  0.45594000000E+02  0.51100000000E-03 0.  1.
         11   -1    0    0    0    0 -0.00000000000E+00 -0.00000000000E+00 -0.45593999997E+02  0.45594000000E+02  0.51100000000E-03 0. -1.
    9900012    2    1    2    0    0 -0.79441103897E+01 -0.34733006427E+01 -0.16598394664E+02  0.72461563802E+02  0.69999991543E+02 0.  0.
        -12    1    1    2    0    0  0.79441103897E+01  0.34733006427E+01  0.16598394664E+02  0.18726436198E+02  0.00000000000E+00 0.  1.
         11    1    3    3    0    0  0.24445606785E+01 -0.27686039442E+02 -0.23257113126E+02  0.36240667324E+02  0.51100000000E-03 0. -1.
        -11    1    3    3    0    0 -0.36500425153E+01  0.44385849285E+01 -0.86053735617E+01  0.10347767920E+02  0.51100000000E-03 0.  1.
        -12    1    3    3    0    0 -0.67386285529E+01  0.19774153871E+02  0.15264092024E+02  0.25873128558E+02  0.00000000000E+00 0.  1.
</event>
<event>
 7    1  0.2851651E-013  0.7246163E+02  0.7816164E-02  0.1226708E+00
        -11   -1    0    0    0    0  0.00000000000E+00  0.00000000000E+00  0.45593999997E+02  0.45594000000E+02  0.51100000000E-03 0.  1.
         11   -1    0    0    0    0 -0.00000000000E+00 -0.00000000000E+00 -0.45593999997E+02  0.45594000000E+02  0.51100000000E-03 0. -1.
    9900012    2    1    2    0    0  0.65969874419E+01  0.64041994565E+01 -0.16313891941E+02  0.72461625971E+02  0.70000072530E+02 0.  0.
        -12    1    1    2    0    0 -0.65969874419E+01 -0.64041994565E+01  0.16313891941E+02  0.18726374029E+02  0.00000000000E+00 0.  1.
         11    1    3    3    0    0  0.39394397571E+01  0.66536963544E+01 -0.12305317823E+01  0.78297553924E+01  0.51100000000E-03 0. -1.
        -11    1    3    3    0    0  0.29604437158E+02  0.11416410528E+02 -0.24147798933E+00  0.31730355193E+02  0.51100000000E-03 0.  1.
         12    1    3    3    0    0 -0.26946889473E+02 -0.11665907426E+02 -0.14841882170E+02  0.32901515386E+02  0.00000000000E+00 0. -1.
</event>
<event>
 7    1  0.2851651E-013  0.7246175E+02  0.7816164E-02  0.1226708E+00
        -11   -1    0    0    0    0  0.00000000000E+00  0.00000000000E+00  0.45593999997E+02  0.45594000000E+02  0.51100000000E-03 0. -1.
         11   -1    0    0    0    0 -0.00000000000E+00 -0.00000000000E+00 -0.45593999997E+02  0.45594000000E+02  0.51100000000E-03 0.  1.
    9900012    2    1    2    0    0  0.15581127181E+02  0.91110964272E+01 -0.49888732830E+01  0.72461749469E+02  0.70000233407E+02 0.  0.
        -12    1    1    2    0    0 -0.15581127181E+02 -0.91110964272E+01  0.49888732830E+01  0.18726250531E+02  0.00000000000E+00 0.  1.
         11    1    3    3    0    0  0.27824037125E+02  0.50258088627E+01 -0.65188899865E+01  0.29016059752E+02  0.51100000000E-03 0. -1.
        -11    1    3    3    0    0  0.28641226180E+01  0.20620642213E+02 -0.13584481920E+01  0.20862872894E+02  0.51100000000E-03 0.  1.
        -12    1    3    3    0    0 -0.15107032562E+02 -0.16535354648E+02  0.28884648955E+01  0.22582816822E+02  0.00000000000E+00 0.  1.
</event>
<event>
 7    1  0.2851651E-013  0.7246148E+02  0.7816164E-02  0.1226708E+00
        -11   -1    0    0    0    0  0.00000000000E+00  0.00000000000E+00  0.45593999997E+02  0.45594000000E+02  0.51100000000E-03 0. -1.
         11   -1    0    0    0    0 -0.00000000000E+00 -0.00000000000E+00 -0.45593999997E+02  0.45594000000E+02  0.51100000000E-03 0.  1.
    9900012    2    1    2    0    0  0.59813032043E+01 -0.16289694651E+02  0.70393521618E+01  0.72461478201E+02  0.69999880031E+02 0.  0.
        -12    1    1    2    0    0 -0.59813032043E+01  0.16289694651E+02 -0.70393521618E+01  0.18726521799E+02  0.00000000000E+00 0.  1.
         11    1    3    3    0    0 -0.71461997066E+01 -0.16435712826E+02  0.27857273737E+02  0.33124440020E+02  0.51100000000E-03 0. -1.
        -11    1    3    3    0    0 -0.31576207889E+01 -0.15357434977E+01  0.65581797967E+01  0.74390052860E+01  0.51100000000E-03 0.  1.
        -12    1    3    3    0    0  0.16285123700E+02  0.16817616735E+01 -0.27376101372E+02  0.31898032895E+02  0.00000000000E+00 0.  1.
</event>
<event>
 7    1  0.4063153E-013  0.7246176E+02  0.7816164E-02  0.1226708E+00
        -11   -1    0    0    0    0  0.00000000000E+00  0.00000000000E+00  0.45593999997E+02  0.45594000000E+02  0.51100000000E-03 0. -1.
         11   -1    0    0    0    0 -0.00000000000E+00 -0.00000000000E+00 -0.45593999997E+02  0.45594000000E+02  0.51100000000E-03 0.  1.
    9900012    2    1    2    0    0 -0.14066413019E+02  0.61977511008E+01  0.10695611800E+02  0.72461756231E+02  0.70000242217E+02 0.  0.
        -12    1    1    2    0    0  0.14066413019E+02 -0.61977511008E+01 -0.10695611800E+02  0.18726243769E+02  0.00000000000E+00 0.  1.
         11    1    3    3    0    0  0.71322857132E+01  0.59060026365E+01 -0.53285170781E+00  0.92754675268E+01  0.51100000000E-03 0. -1.
        -11    1    3    3    0    0  0.12351257304E+01 -0.11108795040E+02 -0.20102404998E+02  0.23000816285E+02  0.51100000000E-03 0.  1.
         12    1    3    3    0    0 -0.22433824462E+02  0.11400543505E+02  0.31330868506E+02  0.40185472419E+02  0.00000000000E+00 0. -1.
</event>
<event>
 7    1  0.2851651E-013  0.7246155E+02  0.7816164E-02  0.1226708E+00
        -11   -1    0    0    0    0  0.00000000000E+00  0.00000000000E+00  0.45593999997E+02  0.45594000000E+02  0.51100000000E-03 0.  1.
         11   -1    0    0    0    0 -0.00000000000E+00 -0.00000000000E+00 -0.45593999997E+02  0.45594000000E+02  0.51100000000E-03 0. -1.
    9900012    2    1    2    0    0  0.30621274513E+01 -0.89550453460E+01 -0.16158911254E+02  0.72461551469E+02  0.69999975477E+02 0.  0.
        -12    1    1    2    0    0 -0.30621274513E+01  0.89550453460E+01  0.16158911254E+02  0.18726448531E+02  0.00000000000E+00 0.  1.
         11    1    3    3    0    0 -0.19490116941E+02  0.82435905214E+01  0.62888066484E+01  0.22076470107E+02  0.51100000000E-03 0. -1.
        -11    1    3    3    0    0  0.54294225646E+01  0.40665313550E+01 -0.22060997697E+02  0.23080358019E+02  0.51100000000E-03 0.  1.
        -12    1    3    3    0    0  0.17122821828E+02 -0.21265167222E+02 -0.38672020554E+00  0.27304723343E+02  0.00000000000E+00 0.  1.
</event>
<event>
 7    1  0.2851651E-013  0.7246157E+02  0.7816164E-02  0.1226708E+00
        -11   -1    0    0    0    0  0.00000000000E+00  0.00000000000E+00  0.45593999997E+02  0.45594000000E+02  0.51100000000E-03 0.  1.
         11   -1    0    0    0    0 -0.00000000000E+00 -0.00000000000E+00 -0.45593999997E+02  0.45594000000E+02  0.51100000000E-03 0. -1.
    9900012    2    1    2    0    0  0.13715210896E+02  0.68744634718E+01 -0.10738435649E+02  0.72461567928E+02  0.69999996917E+02 0.  0.
        -12    1    1    2    0    0 -0.13715210896E+02 -0.68744634718E+01  0.10738435649E+02  0.18726432072E+02  0.00000000000E+00 0.  1.
         11    1    3    3    0    0 -0.13423608260E+00  0.18431892475E+00 -0.96040215333E+01  0.96067279895E+01  0.51100000000E-03 0. -1.
        -11    1    3    3    0    0 -0.11501244161E+02  0.27421271037E+02  0.28193732912E+01  0.29868940198E+02  0.51100000000E-03 0.  1.
         12    1    3    3    0    0  0.25350691140E+02 -0.20731126490E+02 -0.39537874075E+01  0.32985899740E+02  0.00000000000E+00 0. -1.
</event>
<event>
 7    1  0.2851651E-013  0.7246152E+02  0.7816164E-02  0.1226708E+00
        -11   -1    0    0    0    0  0.00000000000E+00  0.00000000000E+00  0.45593999997E+02  0.45594000000E+02  0.51100000000E-03 0. -1.
         11   -1    0    0    0    0 -0.00000000000E+00 -0.00000000000E+00 -0.45593999997E+02  0.45594000000E+02  0.51100000000E-03 0.  1.
    9900012    2    1    2    0    0  0.65038847200E+01 -0.12100534296E+02  0.12726262763E+02  0.72461515797E+02  0.69999929007E+02 0.  0.
        -12    1    1    2    0    0 -0.65038847200E+01  0.12100534296E+02 -0.12726262763E+02  0.18726484203E+02  0.00000000000E+00 0.  1.
         11    1    3    3    0    0  0.31207954493E+02 -0.20126862683E+02  0.19482209465E+02  0.41935468413E+02  0.51100000000E-03 0. -1.
        -11    1    3    3    0    0 -0.12648416676E+02 -0.32541496639E+01 -0.12413114970E+01  0.13119176382E+02  0.51100000000E-03 0.  1.
        -12    1    3    3    0    0 -0.12055653097E+02  0.11280478050E+02 -0.55146352047E+01  0.17406871002E+02  0.00000000000E+00 0.  1.
</event>
<event>
 7    1  0.2851651E-013  0.7246159E+02  0.7816164E-02  0.1226708E+00
        -11   -1    0    0    0    0  0.00000000000E+00  0.00000000000E+00  0.45593999997E+02  0.45594000000E+02  0.51100000000E-03 0. -1.
         11   -1    0    0    0    0 -0.00000000000E+00 -0.00000000000E+00 -0.45593999997E+02  0.45594000000E+02  0.51100000000E-03 0.  1.
    9900012    2    1    2    0    0  0.10972246138E+02  0.61823391720E+01  0.13858816752E+02  0.72461593384E+02  0.70000030079E+02 0.  0.
        -12    1    1    2    0    0 -0.10972246138E+02 -0.61823391720E+01 -0.13858816752E+02  0.18726406616E+02  0.00000000000E+00 0.  1.
         11    1    3    3    0    0 -0.23912838858E+01 -0.99166377024E+01  0.49076199197E+01  0.11320012168E+02  0.51100000000E-03 0. -1.
        -11    1    3    3    0    0  0.28327213175E+01 -0.14974454696E+02 -0.14323902918E+02  0.20914894180E+02  0.51100000000E-03 0.  1.
        -12    1    3    3    0    0  0.10530808706E+02  0.31073431570E+02  0.23275099751E+02  0.40226687037E+02  0.00000000000E+00 0.  1.
</event>
<event>
 7    1  0.2851651E-013  0.7246157E+02  0.7816164E-02  0.1226708E+00
        -11   -1    0    0    0    0  0.00000000000E+00  0.00000000000E+00  0.45593999997E+02  0.45594000000E+02  0.51100000000E-03 0. -1.
         11   -1    0    0    0    0 -0.00000000000E+00 -0.00000000000E+00 -0.45593999997E+02  0.45594000000E+02  0.51100000000E-03 0.  1.
    9900012    2    1    2    0    0 -0.14173261710E+02  0.10213541341E+02  0.67439832889E+01  0.72461572555E+02  0.70000002945E+02 0.  0.
        -12    1    1    2    0    0  0.14173261710E+02 -0.10213541341E+02 -0.67439832889E+01  0.18726427445E+02  0.00000000000E+00 0.  1.
         11    1    3    3    0    0  0.27147862661E+00 -0.20046108153E+01  0.25539732196E+00  0.20389686655E+01  0.51100000000E-03 0. -1.
        -11    1    3    3    0    0  0.24774522733E+02 -0.18126816634E+01  0.13360919298E+02  0.28205973768E+02  0.51100000000E-03 0.  1.
        -12    1    3    3    0    0 -0.39219263070E+02  0.14030833820E+02 -0.68723333312E+01  0.42216630122E+02  0.00000000000E+00 0.  1.
</event>
<event>
 7    1  0.2851651E-013  0.7246154E+02  0.7816164E-02  0.1226708E+00
        -11   -1    0    0    0    0  0.00000000000E+00  0.00000000000E+00  0.45593999997E+02  0.45594000000E+02  0.51100000000E-03 0.  1.
         11   -1    0    0    0    0 -0.00000000000E+00 -0.00000000000E+00 -0.45593999997E+02  0.45594000000E+02  0.51100000000E-03 0. -1.
    9900012    2    1    2    0    0 -0.76964436376E+01 -0.17912059650E+01 -0.16977538673E+02  0.72461535228E+02  0.69999954319E+02 0.  0.
        -12    1    1    2    0    0  0.76964436376E+01  0.17912059650E+01  0.16977538673E+02  0.18726464772E+02  0.00000000000E+00 0.  1.
         11    1    3    3    0    0 -0.16733009709E+02 -0.10042982797E+02 -0.57108562813E+01  0.20333937078E+02  0.51100000000E-03 0. -1.
        -11    1    3    3    0    0 -0.19129175281E+02 -0.41628729439E+01 -0.80939601037E+01  0.21184122557E+02  0.51100000000E-03 0.  1.
         12    1    3    3    0    0  0.28165741353E+02  0.12414649775E+02 -0.31727222879E+01  0.30943475592E+02  0.00000000000E+00 0. -1.
</event>
<event>
 7    1  0.2851651E-013  0.7246143E+02  0.7816164E-02  0.1226708E+00
        -11   -1    0    0    0    0  0.00000000000E+00  0.00000000000E+00  0.45593999997E+02  0.45594000000E+02  0.51100000000E-03 0. -1.
         11   -1    0    0    0    0 -0.00000000000E+00 -0.00000000000E+00 -0.45593999997E+02  0.45594000000E+02  0.51100000000E-03 0.  1.
    9900012    2    1    2    0    0 -0.14629402715E+02 -0.11547652041E+02  0.18211956978E+01  0.72461429433E+02  0.69999816501E+02 0.  0.
        -12    1    1    2    0    0  0.14629402715E+02  0.11547652041E+02 -0.18211956978E+01  0.18726570567E+02  0.00000000000E+00 0.  1.
         11    1    3    3    0    0  0.13158850268E+02 -0.25842759191E+02  0.60447727120E+01  0.29623349244E+02  0.51100000000E-03 0. -1.
        -11    1    3    3    0    0 -0.21740535795E+01 -0.54615756410E+01  0.64950453054E+01  0.87601901366E+01  0.51100000000E-03 0.  1.
        -12    1    3    3    0    0 -0.25614199403E+02  0.19756682792E+02 -0.10718622319E+02  0.34077890053E+02  0.00000000000E+00 0.  1.
</event>
<event>
 7    1  0.2851651E-013  0.7246155E+02  0.7816164E-02  0.1226708E+00
        -11   -1    0    0    0    0  0.00000000000E+00  0.00000000000E+00  0.45593999997E+02  0.45594000000E+02  0.51100000000E-03 0. -1.
         11   -1    0    0    0    0 -0.00000000000E+00 -0.00000000000E+00 -0.45593999997E+02  0.45594000000E+02  0.51100000000E-03 0.  1.
    9900012    2    1    2    0    0 -0.32694689467E+01 -0.18335742197E+02 -0.19470581080E+01  0.72461550673E+02  0.69999974440E+02 0.  0.
        -12    1    1    2    0    0  0.32694689467E+01  0.18335742197E+02  0.19470581080E+01  0.18726449327E+02  0.00000000000E+00 0.  1.
         11    1    3    3    0    0 -0.10104296839E+02 -0.92305400874E+01  0.16279175129E+02  0.21267609834E+02  0.51100000000E-03 0. -1.
        -11    1    3    3    0    0  0.13310136017E+02 -0.23517802331E+02  0.65135015747E-01  0.27023156553E+02  0.51100000000E-03 0.  1.
         12    1    3    3    0    0 -0.64753081249E+01  0.14412600221E+02 -0.18291368253E+02  0.24170784286E+02  0.00000000000E+00 0. -1.
</event>
<event>
 7    1  0.2851651E-013  0.7246169E+02  0.7816164E-02  0.1226708E+00
        -11   -1    0    0    0    0  0.00000000000E+00  0.00000000000E+00  0.45593999997E+02  0.45594000000E+02  0.51100000000E-03 0.  1.
         11   -1    0    0    0    0 -0.00000000000E+00 -0.00000000000E+00 -0.45593999997E+02  0.45594000000E+02  0.51100000000E-03 0. -1.
    9900012    2    1    2    0    0  0.14372567987E+02  0.73784580684E+01 -0.94690116424E+01  0.72461694024E+02  0.70000161181E+02 0.  0.
        -12    1    1    2    0    0 -0.14372567987E+02 -0.73784580684E+01  0.94690116424E+01  0.18726305976E+02  0.00000000000E+00 0.  1.
         11    1    3    3    0    0 -0.31149497772E+01  0.81544526608E+01 -0.15484651065E+01  0.88654246801E+01  0.51100000000E-03 0. -1.
        -11    1    3    3    0    0 -0.20749958725E+02 -0.14967793033E+01  0.78395827230E+01  0.22231963316E+02  0.51100000000E-03 0.  1.
        -12    1    3    3    0    0  0.38237476489E+02  0.72078471091E+00 -0.15760129259E+02  0.41364306028E+02  0.00000000000E+00 0.  1.
</event>
<event>
 7    1  0.2851651E-013  0.7246150E+02  0.7816164E-02  0.1226708E+00
        -11   -1    0    0    0    0  0.00000000000E+00  0.00000000000E+00  0.45593999997E+02  0.45594000000E+02  0.51100000000E-03 0.  1.
         11   -1    0    0    0    0 -0.00000000000E+00 -0.00000000000E+00 -0.45593999997E+02  0.45594000000E+02  0.51100000000E-03 0. -1.
    9900012    2    1    2    0    0  0.78613497482E+01 -0.96489901383E+01 -0.13992066025E+02  0.72461501604E+02  0.69999910518E+02 0.  0.
        -12    1    1    2    0    0 -0.78613497482E+01  0.96489901383E+01  0.13992066025E+02  0.18726498396E+02  0.00000000000E+00 0.  1.
         11    1    3    3    0    0  0.82085079309E+00  0.50771893122E+01 -0.71673921452E+01  0.88217434649E+01  0.51100000000E-03 0. -1.
        -11    1    3    3    0    0 -0.14542281722E+02  0.18547956033E+02 -0.14140517482E+01  0.23611526280E+02  0.51100000000E-03 0.  1.
         12    1    3    3    0    0  0.21582780677E+02 -0.33274135483E+02 -0.54106221311E+01  0.40028231859E+02  0.00000000000E+00 0. -1.
</event>
<event>
 7    1  0.2851651E-013  0.7246152E+02  0.7816164E-02  0.1226708E+00
        -11   -1    0    0    0    0  0.00000000000E+00  0.00000000000E+00  0.45593999997E+02  0.45594000000E+02  0.51100000000E-03 0.  1.
         11   -1    0    0    0    0 -0.00000000000E+00 -0.00000000000E+00 -0.45593999997E+02  0.45594000000E+02  0.51100000000E-03 0. -1.
    9900012    2    1    2    0    0  0.99205260050E+01 -0.54253377995E+01 -0.14927492706E+02  0.72461517016E+02  0.69999930595E+02 0.  0.
        -12    1    1    2    0    0 -0.99205260050E+01  0.54253377995E+01  0.14927492706E+02  0.18726482984E+02  0.00000000000E+00 0.  1.
         11    1    3    3    0    0  0.11458626384E+02 -0.18461015313E+00  0.17004700673E+00  0.11461374951E+02  0.51100000000E-03 0. -1.
        -11    1    3    3    0    0  0.97021468740E+01  0.23801645694E+02  0.14330744768E+01  0.25743031959E+02  0.51100000000E-03 0.  1.
         12    1    3    3    0    0 -0.11240247253E+02 -0.29042373340E+02 -0.16530614190E+02  0.35257110106E+02  0.00000000000E+00 0. -1.
</event>
<event>
 7    1  0.2851651E-013  0.7246155E+02  0.7816164E-02  0.1226708E+00
        -11   -1    0    0    0    0  0.00000000000E+00  0.00000000000E+00  0.45593999997E+02  0.45594000000E+02  0.51100000000E-03 0. -1.
         11   -1    0    0    0    0 -0.00000000000E+00 -0.00000000000E+00 -0.45593999997E+02  0.45594000000E+02  0.51100000000E-03 0.  1.
    9900012    2    1    2    0    0  0.15197874422E+02 -0.29770418386E+01  0.10528134669E+02  0.72461553870E+02  0.69999978605E+02 0.  0.
        -12    1    1    2    0    0 -0.15197874422E+02  0.29770418386E+01 -0.10528134669E+02  0.18726446130E+02  0.00000000000E+00 0.  1.
         11    1    3    3    0    0 -0.70212514571E+00 -0.22052795821E+01  0.19701398446E+02  0.19836868168E+02  0.51100000000E-03 0. -1.
        -11    1    3    3    0    0  0.23653189218E+02 -0.18148980880E+02  0.31109255754E+01  0.29975602169E+02  0.51100000000E-03 0.  1.
        -12    1    3    3    0    0 -0.77531896509E+01  0.17377218624E+02 -0.12284189352E+02  0.22649083533E+02  0.00000000000E+00 0.  1.
</event>
<event>
 7    1  0.2851651E-013  0.7246156E+02  0.7816164E-02  0.1226708E+00
        -11   -1    0    0    0    0  0.00000000000E+00  0.00000000000E+00  0.45593999997E+02  0.45594000000E+02  0.51100000000E-03 0. -1.
         11   -1    0    0    0    0 -0.00000000000E+00 -0.00000000000E+00 -0.45593999997E+02  0.45594000000E+02  0.51100000000E-03 0.  1.
    9900012    2    1    2    0    0  0.21839132467E+01  0.15801969887E+02  0.98085528179E+01  0.72461563132E+02  0.69999990670E+02 0.  0.
        -12    1    1    2    0    0 -0.21839132467E+01 -0.15801969887E+02 -0.98085528179E+01  0.18726436868E+02  0.00000000000E+00 0.  1.
         11    1    3    3    0    0  0.74086532703E+01  0.30573214433E+01 -0.68634402206E+01  0.10551879909E+02  0.51100000000E-03 0. -1.
        -11    1    3    3    0    0 -0.24489007874E+02  0.16606106274E+02 -0.77296274921E+01  0.30581389990E+02  0.51100000000E-03 0.  1.
         12    1    3    3    0    0  0.19264267851E+02 -0.38614578303E+01  0.24401620531E+02  0.31328293233E+02  0.00000000000E+00 0. -1.
</event>
<event>
 7    1  0.2851651E-013  0.7246154E+02  0.7816164E-02  0.1226708E+00
        -11   -1    0    0    0    0  0.00000000000E+00  0.00000000000E+00  0.45593999997E+02  0.45594000000E+02  0.51100000000E-03 0. -1.
         11   -1    0    0    0    0 -0.00000000000E+00 -0.00000000000E+00 -0.45593999997E+02  0.45594000000E+02  0.51100000000E-03 0.  1.
    9900012    2    1    2    0    0 -0.26886367684E+01  0.10121294793E+02  0.15524526289E+02  0.72461540312E+02  0.69999960942E+02 0.  0.
        -12    1    1    2    0    0  0.26886367684E+01 -0.10121294793E+02 -0.15524526289E+02  0.18726459688E+02  0.00000000000E+00 0.  1.
         11    1    3    3    0    0  0.19254029843E+02 -0.13331104958E+02  0.19356588815E+02  0.30382783865E+02  0.51100000000E-03 0. -1.
        -11    1    3    3    0    0  0.18221368742E+01  0.16040809862E+02 -0.56861605080E+01  0.17116079732E+02  0.51100000000E-03 0.  1.
        -12    1    3    3    0    0 -0.23764803486E+02  0.74115898895E+01  0.18540979818E+01  0.24962676714E+02  0.00000000000E+00 0.  1.
</event>
<event>
 7    1  0.2851651E-013  0.7246172E+02  0.7816164E-02  0.1226708E+00
        -11   -1    0    0    0    0  0.00000000000E+00  0.00000000000E+00  0.45593999997E+02  0.45594000000E+02  0.51100000000E-03 0.  1.
         11   -1    0    0    0    0 -0.00000000000E+00 -0.00000000000E+00 -0.45593999997E+02  0.45594000000E+02  0.51100000000E-03 0. -1.
    9900012    2    1    2    0    0  0.12752430562E+01  0.11217655787E+02 -0.14940266869E+02  0.72461718460E+02  0.70000193013E+02 0.  0.
        -12    1    1    2    0    0 -0.12752430562E+01 -0.11217655787E+02  0.14940266869E+02  0.18726281540E+02  0.00000000000E+00 0.  1.
         11    1    3    3    0    0  0.92253876635E+01  0.54076572728E+00 -0.84141804450E+00  0.92794498598E+01  0.51100000000E-03 0. -1.
        -11    1    3    3    0    0  0.22709269652E+02 -0.63379205640E+01  0.36893743464E+01  0.23864024148E+02  0.51100000000E-03 0.  1.
         12    1    3    3    0    0 -0.30659414259E+02  0.17014810623E+02 -0.17788223171E+02  0.39318244453E+02  0.00000000000E+00 0. -1.
</event>
<event>
 7    1  0.2851651E-013  0.7246158E+02  0.7816164E-02  0.1226708E+00
        -11   -1    0    0    0    0  0.00000000000E+00  0.00000000000E+00  0.45593999997E+02  0.45594000000E+02  0.51100000000E-03 0.  1.
         11   -1    0    0    0    0 -0.00000000000E+00 -0.00000000000E+00 -0.45593999997E+02  0.45594000000E+02  0.51100000000E-03 0. -1.
    9900012    2    1    2    0    0  0.10911020474E+01 -0.41538066873E+01 -0.18227291212E+02  0.72461581266E+02  0.70000014293E+02 0.  0.
        -12    1    1    2    0    0 -0.10911020474E+01  0.41538066873E+01  0.18227291212E+02  0.18726418734E+02  0.00000000000E+00 0.  1.
         11    1    3    3    0    0  0.29891090642E+02 -0.10888894853E+02 -0.88498386093E+01  0.33020674956E+02  0.51100000000E-03 0. -1.
        -11    1    3    3    0    0 -0.10819848218E+02  0.61458695483E+01 -0.16001452933E+02  0.20270355798E+02  0.51100000000E-03 0.  1.
        -12    1    3    3    0    0 -0.17980140377E+02  0.58921861785E+00  0.66240003300E+01  0.19170550512E+02  0.00000000000E+00 0.  1.
</event>
<event>
 7    1  0.2851651E-013  0.7246159E+02  0.7816164E-02  0.1226708E+00
        -11   -1    0    0    0    0  0.00000000000E+00  0.00000000000E+00  0.45593999997E+02  0.45594000000E+02  0.51100000000E-03 0.  1.
         11   -1    0    0    0    0 -0.00000000000E+00 -0.00000000000E+00 -0.45593999997E+02  0.45594000000E+02  0.51100000000E-03 0. -1.
    9900012    2    1    2    0    0 -0.65625292736E+01  0.33320454592E+01 -0.17219442688E+02  0.72461587533E+02  0.70000022456E+02 0.  0.
        -12    1    1    2    0    0  0.65625292736E+01 -0.33320454592E+01  0.17219442688E+02  0.18726412467E+02  0.00000000000E+00 0.  1.
         11    1    3    3    0    0  0.10824379464E+02 -0.93232685380E+01  0.44912058851E+01  0.14975361685E+02  0.51100000000E-03 0. -1.
        -11    1    3    3    0    0 -0.88032824030E+00  0.28546039042E+02 -0.46867712862E+01  0.28941616198E+02  0.51100000000E-03 0.  1.
         12    1    3    3    0    0 -0.16506580498E+02 -0.15890725045E+02 -0.17023877287E+02  0.28544609650E+02  0.00000000000E+00 0. -1.
</event>
<event>
 7    1  0.2851651E-013  0.7246157E+02  0.7816164E-02  0.1226708E+00
        -11   -1    0    0    0    0  0.00000000000E+00  0.00000000000E+00  0.45593999997E+02  0.45594000000E+02  0.51100000000E-03 0.  1.
         11   -1    0    0    0    0 -0.00000000000E+00 -0.00000000000E+00 -0.45593999997E+02  0.45594000000E+02  0.51100000000E-03 0. -1.
    9900012    2    1    2    0    0 -0.10048981199E+02 -0.13269086623E+02 -0.85806993951E+01  0.72461572550E+02  0.70000002938E+02 0.  0.
        -12    1    1    2    0    0  0.10048981199E+02  0.13269086623E+02  0.85806993951E+01  0.18726427450E+02  0.00000000000E+00 0.  1.
         11    1    3    3    0    0 -0.23880239057E+02 -0.49505152912E+01 -0.19379173911E+02  0.31150052982E+02  0.51100000000E-03 0. -1.
        -11    1    3    3    0    0 -0.92010759024E+01  0.29188505397E+01 -0.53344487016E+01  0.11028863470E+02  0.51100000000E-03 0.  1.
        -12    1    3    3    0    0  0.23032333760E+02 -0.11237421871E+02  0.16132923218E+02  0.30282656097E+02  0.00000000000E+00 0.  1.
</event>
<event>
 7    1  0.2851651E-013  0.7246153E+02  0.7816164E-02  0.1226708E+00
        -11   -1    0    0    0    0  0.00000000000E+00  0.00000000000E+00  0.45593999997E+02  0.45594000000E+02  0.51100000000E-03 0.  1.
         11   -1    0    0    0    0 -0.00000000000E+00 -0.00000000000E+00 -0.45593999997E+02  0.45594000000E+02  0.51100000000E-03 0. -1.
    9900012    2    1    2    0    0  0.33209258935E+01  0.15822825771E+02  0.94493519185E+01  0.72461531677E+02  0.69999949694E+02 0.  0.
        -12    1    1    2    0    0 -0.33209258935E+01 -0.15822825771E+02 -0.94493519185E+01  0.18726468323E+02  0.00000000000E+00 0.  1.
         11    1    3    3    0    0 -0.78367379286E+01  0.15547069006E+02  0.11330471166E+02  0.20772707892E+02  0.51100000000E-03 0. -1.
        -11    1    3    3    0    0 -0.22923404290E+01  0.22501874387E+02 -0.96238785536E+01  0.24580647148E+02  0.51100000000E-03 0.  1.
         12    1    3    3    0    0  0.13450004251E+02 -0.22226117622E+02  0.77427593059E+01  0.27108176637E+02  0.00000000000E+00 0. -1.
</event>
<event>
 7    1  0.2851651E-013  0.7246161E+02  0.7816164E-02  0.1226708E+00
        -11   -1    0    0    0    0  0.00000000000E+00  0.00000000000E+00  0.45593999997E+02  0.45594000000E+02  0.51100000000E-03 0.  1.
         11   -1    0    0    0    0 -0.00000000000E+00 -0.00000000000E+00 -0.45593999997E+02  0.45594000000E+02  0.51100000000E-03 0. -1.
    9900012    2    1    2    0    0 -0.10689423518E+02 -0.12506278806E+02 -0.89446560183E+01  0.72461610706E+02  0.70000052643E+02 0.  0.
        -12    1    1    2    0    0  0.10689423518E+02  0.12506278806E+02  0.89446560183E+01  0.18726389294E+02  0.00000000000E+00 0.  1.
         11    1    3    3    0    0 -0.11046928075E+02  0.76856065201E+01 -0.98606113419E+01  0.16683369677E+02  0.51100000000E-03 0. -1.
        -11    1    3    3    0    0 -0.23051948650E+02 -0.50827057431E+01 -0.10285177611E+02  0.25749002175E+02  0.51100000000E-03 0.  1.
         12    1    3    3    0    0  0.23409453207E+02 -0.15109179583E+02  0.11201132935E+02  0.30029238854E+02  0.00000000000E+00 0. -1.
</event>
<event>
 7    1  0.2851651E-013  0.7246157E+02  0.7816164E-02  0.1226708E+00
        -11   -1    0    0    0    0  0.00000000000E+00  0.00000000000E+00  0.45593999997E+02  0.45594000000E+02  0.51100000000E-03 0.  1.
         11   -1    0    0    0    0 -0.00000000000E+00 -0.00000000000E+00 -0.45593999997E+02  0.45594000000E+02  0.51100000000E-03 0. -1.
    9900012    2    1    2    0    0  0.10122384545E+02 -0.11517427246E+02 -0.10750130119E+02  0.72461572236E+02  0.70000002529E+02 0.  0.
        -12    1    1    2    0    0 -0.10122384545E+02  0.11517427246E+02  0.10750130119E+02  0.18726427764E+02  0.00000000000E+00 0.  1.
         11    1    3    3    0    0 -0.42070592075E+01  0.61442603383E+01 -0.14581188741E+02  0.16372609677E+02  0.51100000000E-03 0. -1.
        -11    1    3    3    0    0 -0.13743702381E+02 -0.20446750554E+02 -0.74010596510E+01  0.25724203536E+02  0.51100000000E-03 0.  1.
         12    1    3    3    0    0  0.28073146133E+02  0.27850629695E+01  0.11232118273E+02  0.30364759022E+02  0.00000000000E+00 0. -1.
</event>
<event>
 7    1  0.2851651E-013  0.7246156E+02  0.7816164E-02  0.1226708E+00
        -11   -1    0    0    0    0  0.00000000000E+00  0.00000000000E+00  0.45593999997E+02  0.45594000000E+02  0.51100000000E-03 0. -1.
         11   -1    0    0    0    0 -0.00000000000E+00 -0.00000000000E+00 -0.45593999997E+02  0.45594000000E+02  0.51100000000E-03 0.  1.
    9900012    2    1    2    0    0  0.10827971600E+02 -0.58815328311E+01 -0.14101144149E+02  0.72461557099E+02  0.69999982811E+02 0.  0.
        -12    1    1    2    0    0 -0.10827971600E+02  0.58815328311E+01  0.14101144149E+02  0.18726442901E+02  0.00000000000E+00 0.  1.
         11    1    3    3    0    0 -0.61912508387E+01  0.20267646758E+02  0.87585323003E+01  0.22930786736E+02  0.51100000000E-03 0. -1.
        -11    1    3    3    0    0  0.18437296063E+02 -0.99955191705E+01  0.63656910576E+00  0.20982123584E+02  0.51100000000E-03 0.  1.
        -12    1    3    3    0    0 -0.14180736248E+01 -0.16153660418E+02 -0.23496245555E+02  0.28548646779E+02  0.00000000000E+00 0.  1.
</event>
<event>
 7    1  0.2851651E-013  0.7246168E+02  0.7816164E-02  0.1226708E+00
        -11   -1    0    0    0    0  0.00000000000E+00  0.00000000000E+00  0.45593999997E+02  0.45594000000E+02  0.51100000000E-03 0.  1.
         11   -1    0    0    0    0 -0.00000000000E+00 -0.00000000000E+00 -0.45593999997E+02  0.45594000000E+02  0.51100000000E-03 0. -1.
    9900012    2    1    2    0    0  0.16391850499E+02 -0.42317261597E+01 -0.80046797763E+01  0.72461677152E+02  0.70000139202E+02 0.  0.
        -12    1    1    2    0    0 -0.16391850499E+02  0.42317261597E+01  0.80046797763E+01  0.18726322848E+02  0.00000000000E+00 0.  1.
         11    1    3    3    0    0  0.79854768973E+01 -0.16749943902E+01  0.12376987467E+02  0.14824414542E+02  0.51100000000E-03 0. -1.
        -11    1    3    3    0    0 -0.40795676153E+01  0.15156551744E+01  0.17244345516E+02  0.17785036830E+02  0.51100000000E-03 0.  1.
        -12    1    3    3    0    0  0.12485941217E+02 -0.40723869438E+01 -0.37626012759E+02  0.39852225780E+02  0.00000000000E+00 0.  1.
</event>
<event>
 7    1  0.2851651E-013  0.7246159E+02  0.7816164E-02  0.1226708E+00
        -11   -1    0    0    0    0  0.00000000000E+00  0.00000000000E+00  0.45593999997E+02  0.45594000000E+02  0.51100000000E-03 0.  1.
         11   -1    0    0    0    0 -0.00000000000E+00 -0.00000000000E+00 -0.45593999997E+02  0.45594000000E+02  0.51100000000E-03 0. -1.
    9900012    2    1    2    0    0 -0.22821748359E+01 -0.16911861979E+02 -0.77109708766E+01  0.72461588987E+02  0.70000024351E+02 0.  0.
        -12    1    1    2    0    0  0.22821748359E+01  0.16911861979E+02  0.77109708766E+01  0.18726411013E+02  0.00000000000E+00 0.  1.
         11    1    3    3    0    0 -0.68492475202E+01 -0.11646876973E+02 -0.18974910876E+00  0.13512880515E+02  0.51100000000E-03 0. -1.
        -11    1    3    3    0    0 -0.22232177680E+02  0.44585122194E+01  0.10743212856E+02  0.25091127482E+02  0.51100000000E-03 0.  1.
         12    1    3    3    0    0  0.26799250364E+02 -0.97234972248E+01 -0.18264434623E+02  0.33857580990E+02  0.00000000000E+00 0. -1.
</event>
<event>
 7    1  0.2851651E-013  0.7246158E+02  0.7816164E-02  0.1226708E+00
        -11   -1    0    0    0    0  0.00000000000E+00  0.00000000000E+00  0.45593999997E+02  0.45594000000E+02  0.51100000000E-03 0.  1.
         11   -1    0    0    0    0 -0.00000000000E+00 -0.00000000000E+00 -0.45593999997E+02  0.45594000000E+02  0.51100000000E-03 0. -1.
    9900012    2    1    2    0    0  0.65201227310E+01  0.51751762680E+01 -0.16774510465E+02  0.72461584134E+02  0.70000018029E+02 0.  0.
        -12    1    1    2    0    0 -0.65201227310E+01 -0.51751762680E+01  0.16774510465E+02  0.18726415866E+02  0.00000000000E+00 0.  1.
         11    1    3    3    0    0 -0.13983203809E+02  0.92776144640E+01 -0.16151642827E+02  0.23291193297E+02  0.51100000000E-03 0. -1.
        -11    1    3    3    0    0  0.71920199568E+01 -0.77458190660E+01  0.21004929090E+02  0.23514461729E+02  0.51100000000E-03 0.  1.
         12    1    3    3    0    0  0.13311306583E+02  0.36433808700E+01 -0.21627796728E+02  0.25655929108E+02  0.00000000000E+00 0. -1.
</event>
<event>
 7    1  0.2851651E-013  0.7246157E+02  0.7816164E-02  0.1226708E+00
        -11   -1    0    0    0    0  0.00000000000E+00  0.00000000000E+00  0.45593999997E+02  0.45594000000E+02  0.51100000000E-03 0. -1.
         11   -1    0    0    0    0 -0.00000000000E+00 -0.00000000000E+00 -0.45593999997E+02  0.45594000000E+02  0.51100000000E-03 0.  1.
    9900012    2    1    2    0    0  0.29873052480E+01  0.15621756634E+02  0.98851273644E+01  0.72461574394E+02  0.70000005340E+02 0.  0.
        -12    1    1    2    0    0 -0.29873052480E+01 -0.15621756634E+02 -0.98851273644E+01  0.18726425606E+02  0.00000000000E+00 0.  1.
         11    1    3    3    0    0  0.10219615751E+02 -0.93619782771E+01  0.92993312194E+01  0.16690258978E+02  0.51100000000E-03 0.  1.
        -11    1    3    3    0    0 -0.41918239027E+00  0.14898857227E+02  0.24649253252E+02  0.28805161806E+02  0.51100000000E-03 0. -1.
         12    1    3    3    0    0 -0.68131281123E+01  0.10084877684E+02 -0.24063457107E+02  0.26966153610E+02  0.00000000000E+00 0. -1.
</event>
<event>
 7    1  0.2851651E-013  0.7246158E+02  0.7816164E-02  0.1226708E+00
        -11   -1    0    0    0    0  0.00000000000E+00  0.00000000000E+00  0.45593999997E+02  0.45594000000E+02  0.51100000000E-03 0. -1.
         11   -1    0    0    0    0 -0.00000000000E+00 -0.00000000000E+00 -0.45593999997E+02  0.45594000000E+02  0.51100000000E-03 0.  1.
    9900012    2    1    2    0    0  0.17970813238E+02  0.25271541176E+01  0.46197613348E+01  0.72461579329E+02  0.70000011769E+02 0.  0.
        -12    1    1    2    0    0 -0.17970813238E+02 -0.25271541176E+01 -0.46197613348E+01  0.18726420671E+02  0.00000000000E+00 0.  1.
         11    1    3    3    0    0 -0.35244190006E+01  0.84476827009E+01  0.13370395451E+01  0.92505430820E+01  0.51100000000E-03 0. -1.
        -11    1    3    3    0    0  0.15569983256E+01 -0.84480537594E+01 -0.26176038573E+02  0.27549570809E+02  0.51100000000E-03 0.  1.
         12    1    3    3    0    0  0.19938233913E+02  0.25275251761E+01  0.29458760363E+02  0.35661465438E+02  0.00000000000E+00 0. -1.
</event>
<event>
 7    1  0.2851651E-013  0.7246157E+02  0.7816164E-02  0.1226708E+00
        -11   -1    0    0    0    0  0.00000000000E+00  0.00000000000E+00  0.45593999997E+02  0.45594000000E+02  0.51100000000E-03 0. -1.
         11   -1    0    0    0    0 -0.00000000000E+00 -0.00000000000E+00 -0.45593999997E+02  0.45594000000E+02  0.51100000000E-03 0.  1.
    9900012    2    1    2    0    0  0.80454144151E+01  0.92765517945E+01  0.14138464994E+02  0.72461566846E+02  0.69999995507E+02 0.  0.
        -12    1    1    2    0    0 -0.80454144151E+01 -0.92765517945E+01 -0.14138464994E+02  0.18726433154E+02  0.00000000000E+00 0.  1.
         11    1    3    3    0    0 -0.13558519164E+02 -0.13262607241E+02  0.92687660835E+01  0.21110192271E+02  0.51100000000E-03 0. -1.
        -11    1    3    3    0    0 -0.11573680994E+02  0.11542218291E+01  0.56261335764E+00  0.11644692088E+02  0.51100000000E-03 0.  1.
        -12    1    3    3    0    0  0.33177614573E+02  0.21384937206E+02  0.43070855527E+01  0.39706682486E+02  0.00000000000E+00 0.  1.
</event>
<event>
 7    1  0.2851651E-013  0.7246156E+02  0.7816164E-02  0.1226708E+00
        -11   -1    0    0    0    0  0.00000000000E+00  0.00000000000E+00  0.45593999997E+02  0.45594000000E+02  0.51100000000E-03 0.  1.
         11   -1    0    0    0    0 -0.00000000000E+00 -0.00000000000E+00 -0.45593999997E+02  0.45594000000E+02  0.51100000000E-03 0. -1.
    9900012    2    1    2    0    0  0.57778265654E+01 -0.16961307464E+02 -0.54415439943E+01  0.72461557953E+02  0.69999983923E+02 0.  0.
        -12    1    1    2    0    0 -0.57778265654E+01  0.16961307464E+02  0.54415439943E+01  0.18726442047E+02  0.00000000000E+00 0.  1.
         11    1    3    3    0    0  0.13627733331E+02  0.70880318489E+01  0.55031044615E+00  0.15370691366E+02  0.51100000000E-03 0. -1.
        -11    1    3    3    0    0  0.20955716046E+02 -0.13817028230E+02 -0.82931325099E+01  0.26435361756E+02  0.51100000000E-03 0.  1.
         12    1    3    3    0    0 -0.28805622811E+02 -0.10232311083E+02  0.23012780694E+01  0.30655504830E+02  0.00000000000E+00 0. -1.
</event>
<event>
 7    1  0.2851651E-013  0.7246159E+02  0.7816164E-02  0.1226708E+00
        -11   -1    0    0    0    0  0.00000000000E+00  0.00000000000E+00  0.45593999997E+02  0.45594000000E+02  0.51100000000E-03 0.  1.
         11   -1    0    0    0    0 -0.00000000000E+00 -0.00000000000E+00 -0.45593999997E+02  0.45594000000E+02  0.51100000000E-03 0. -1.
    9900012    2    1    2    0    0 -0.87269168158E+01  0.15457483703E+02 -0.59653560989E+01  0.72461592097E+02  0.70000028402E+02 0.  0.
        -12    1    1    2    0    0  0.87269168158E+01 -0.15457483703E+02  0.59653560989E+01  0.18726407903E+02  0.00000000000E+00 0.  1.
         11    1    3    3    0    0 -0.12626610015E+02  0.25340953830E+02 -0.52359826977E+01  0.28792546545E+02  0.51100000000E-03 0. -1.
        -11    1    3    3    0    0 -0.69695113838E+01  0.14410984406E+02  0.43172335584E+01  0.16579778839E+02  0.51100000000E-03 0.  1.
        -12    1    3    3    0    0  0.10869204583E+02 -0.24294454532E+02 -0.50466069595E+01  0.27089266714E+02  0.00000000000E+00 0.  1.
</event>
<event>
 7    1  0.2851651E-013  0.7246144E+02  0.7816164E-02  0.1226708E+00
        -11   -1    0    0    0    0  0.00000000000E+00  0.00000000000E+00  0.45593999997E+02  0.45594000000E+02  0.51100000000E-03 0.  1.
         11   -1    0    0    0    0 -0.00000000000E+00 -0.00000000000E+00 -0.45593999997E+02  0.45594000000E+02  0.51100000000E-03 0. -1.
    9900012    2    1    2    0    0 -0.12623474255E+02  0.13827886615E+02  0.34855437365E+00  0.72461440234E+02  0.69999830573E+02 0.  0.
        -12    1    1    2    0    0  0.12623474255E+02 -0.13827886615E+02 -0.34855437365E+00  0.18726559766E+02  0.00000000000E+00 0.  1.
         11    1    3    3    0    0  0.26221153459E+01 -0.13601571129E+02 -0.10270816777E+02  0.17244358602E+02  0.51100000000E-03 0. -1.
        -11    1    3    3    0    0  0.75212535804E+01  0.17581369237E+01  0.18468200901E+02  0.20018360214E+02  0.51100000000E-03 0.  1.
        -12    1    3    3    0    0 -0.22766843181E+02  0.25671320820E+02 -0.78488297500E+01  0.35198721419E+02  0.00000000000E+00 0.  1.
</event>
<event>
 7    1  0.2851651E-013  0.7246158E+02  0.7816164E-02  0.1226708E+00
        -11   -1    0    0    0    0  0.00000000000E+00  0.00000000000E+00  0.45593999997E+02  0.45594000000E+02  0.51100000000E-03 0.  1.
         11   -1    0    0    0    0 -0.00000000000E+00 -0.00000000000E+00 -0.45593999997E+02  0.45594000000E+02  0.51100000000E-03 0. -1.
    9900012    2    1    2    0    0 -0.36758012987E+01  0.14748864626E+02 -0.10937937175E+02  0.72461575018E+02  0.70000006154E+02 0.  0.
        -12    1    1    2    0    0  0.36758012987E+01 -0.14748864626E+02  0.10937937175E+02  0.18726424982E+02  0.00000000000E+00 0.  1.
         11    1    3    3    0    0 -0.16690146718E+02  0.26191938009E+01 -0.31511275454E+02  0.35754463423E+02  0.51100000000E-03 0. -1.
        -11    1    3    3    0    0 -0.25949833771E+01 -0.43636067844E+01  0.10899443903E+02  0.12023846330E+02  0.51100000000E-03 0.  1.
        -12    1    3    3    0    0  0.15609328797E+02  0.16493277610E+02  0.96738943759E+01  0.24683265266E+02  0.00000000000E+00 0.  1.
</event>
<event>
 7    1  0.2851651E-013  0.7246147E+02  0.7816164E-02  0.1226708E+00
        -11   -1    0    0    0    0  0.00000000000E+00  0.00000000000E+00  0.45593999997E+02  0.45594000000E+02  0.51100000000E-03 0.  1.
         11   -1    0    0    0    0 -0.00000000000E+00 -0.00000000000E+00 -0.45593999997E+02  0.45594000000E+02  0.51100000000E-03 0. -1.
    9900012    2    1    2    0    0  0.17804903577E+02  0.52963479179E+01  0.23700051425E+01  0.72461472905E+02  0.69999873132E+02 0.  0.
        -12    1    1    2    0    0 -0.17804903577E+02 -0.52963479179E+01 -0.23700051425E+01  0.18726527095E+02  0.00000000000E+00 0.  1.
         11    1    3    3    0    0  0.14240828522E+02 -0.94585841446E+01  0.58559007317E+01  0.18070904368E+02  0.51100000000E-03 0. -1.
        -11    1    3    3    0    0  0.24854666803E+00  0.18894462521E+02  0.21629651837E+02  0.28721147753E+02  0.51100000000E-03 0.  1.
         12    1    3    3    0    0  0.33155283871E+01 -0.41395304581E+01 -0.25115547426E+02  0.25669420785E+02  0.00000000000E+00 0. -1.
</event>
<event>
 7    1  0.2851651E-013  0.7246180E+02  0.7816164E-02  0.1226707E+00
        -11   -1    0    0    0    0  0.00000000000E+00  0.00000000000E+00  0.45593999997E+02  0.45594000000E+02  0.51100000000E-03 0.  1.
         11   -1    0    0    0    0 -0.00000000000E+00 -0.00000000000E+00 -0.45593999997E+02  0.45594000000E+02  0.51100000000E-03 0. -1.
    9900012    2    1    2    0    0 -0.47358027669E+00  0.10235318585E+01 -0.18692211157E+02  0.72461797671E+02  0.70000296200E+02 0.  0.
        -12    1    1    2    0    0  0.47358027669E+00 -0.10235318585E+01  0.18692211157E+02  0.18726202329E+02  0.00000000000E+00 0.  1.
         11    1    3    3    0    0  0.15419200266E+02 -0.88154016316E+01  0.24811232678E+01  0.17933739590E+02  0.51100000000E-03 0. -1.
        -11    1    3    3    0    0 -0.39156554558E+01  0.63046854282E+00  0.14900000710E+02  0.15418815442E+02  0.51100000000E-03 0.  1.
         12    1    3    3    0    0 -0.11977125086E+02  0.92084649472E+01 -0.36073335134E+02  0.39109242638E+02  0.00000000000E+00 0. -1.
</event>
<event>
 7    1  0.2851651E-013  0.7246153E+02  0.7816164E-02  0.1226708E+00
        -11   -1    0    0    0    0  0.00000000000E+00  0.00000000000E+00  0.45593999997E+02  0.45594000000E+02  0.51100000000E-03 0.  1.
         11   -1    0    0    0    0 -0.00000000000E+00 -0.00000000000E+00 -0.45593999997E+02  0.45594000000E+02  0.51100000000E-03 0. -1.
    9900012    2    1    2    0    0  0.10388791332E+02 -0.14930629006E+02 -0.44530826534E+01  0.72461531754E+02  0.69999949794E+02 0.  0.
        -12    1    1    2    0    0 -0.10388791332E+02  0.14930629006E+02  0.44530826534E+01  0.18726468246E+02  0.00000000000E+00 0.  1.
         11    1    3    3    0    0 -0.37813572484E+01  0.36543394209E+01 -0.79754176739E+01  0.95530176687E+01  0.51100000000E-03 0. -1.
        -11    1    3    3    0    0  0.21320785169E+02  0.13324440267E+02 -0.10604388176E+02  0.27286803358E+02  0.51100000000E-03 0.  1.
        -12    1    3    3    0    0 -0.71506365892E+01 -0.31909408694E+02  0.14126723196E+02  0.35621710727E+02  0.00000000000E+00 0.  1.
</event>
<event>
 7    1  0.2851651E-013  0.7246158E+02  0.7816164E-02  0.1226708E+00
        -11   -1    0    0    0    0  0.00000000000E+00  0.00000000000E+00  0.45593999997E+02  0.45594000000E+02  0.51100000000E-03 0. -1.
         11   -1    0    0    0    0 -0.00000000000E+00 -0.00000000000E+00 -0.45593999997E+02  0.45594000000E+02  0.51100000000E-03 0.  1.
    9900012    2    1    2    0    0  0.10550009660E+02 -0.14996151931E+02  0.38067961463E+01  0.72461575529E+02  0.70000006819E+02 0.  0.
        -12    1    1    2    0    0 -0.10550009660E+02  0.14996151931E+02 -0.38067961463E+01  0.18726424471E+02  0.00000000000E+00 0.  1.
         11    1    3    3    0    0  0.93218536241E+01  0.56153288619E+01 -0.38522133107E+01  0.11544194249E+02  0.51100000000E-03 0. -1.
        -11    1    3    3    0    0  0.17608862703E+02 -0.34415148616E+02  0.17587103930E+01  0.38698418088E+02  0.51100000000E-03 0.  1.
         12    1    3    3    0    0 -0.16380706667E+02  0.13803667823E+02  0.59002990641E+01  0.22218963192E+02  0.00000000000E+00 0. -1.
</event>
<event>
 7    1  0.2851651E-013  0.7246153E+02  0.7816164E-02  0.1226708E+00
        -11   -1    0    0    0    0  0.00000000000E+00  0.00000000000E+00  0.45593999997E+02  0.45594000000E+02  0.51100000000E-03 0. -1.
         11   -1    0    0    0    0 -0.00000000000E+00 -0.00000000000E+00 -0.45593999997E+02  0.45594000000E+02  0.51100000000E-03 0.  1.
    9900012    2    1    2    0    0 -0.84868953277E+01  0.65132030875E+01  0.15369824553E+02  0.72461529068E+02  0.69999946295E+02 0.  0.
        -12    1    1    2    0    0  0.84868953277E+01 -0.65132030875E+01 -0.15369824553E+02  0.18726470932E+02  0.00000000000E+00 0.  1.
         11    1    3    3    0    0 -0.15925356644E+02  0.68902288626E+01 -0.49512965282E+01  0.18044599624E+02  0.51100000000E-03 0. -1.
        -11    1    3    3    0    0  0.24831696954E+01  0.22497118727E+02  0.21177775893E+02  0.30996526818E+02  0.51100000000E-03 0.  1.
         12    1    3    3    0    0  0.49552916206E+01 -0.22874144502E+02 -0.85665481130E+00  0.23420402627E+02  0.00000000000E+00 0. -1.
</event>
<event>
 7    1  0.2851651E-013  0.7246098E+02  0.7816164E-02  0.1226710E+00
        -11   -1    0    0    0    0  0.00000000000E+00  0.00000000000E+00  0.45593999997E+02  0.45594000000E+02  0.51100000000E-03 0. -1.
         11   -1    0    0    0    0 -0.00000000000E+00 -0.00000000000E+00 -0.45593999997E+02  0.45594000000E+02  0.51100000000E-03 0.  1.
    9900012    2    1    2    0    0  0.13187891569E+02 -0.32229196261E+01  0.12899360184E+02  0.72460982402E+02  0.69999234157E+02 0.  0.
        -12    1    1    2    0    0 -0.13187891569E+02  0.32229196261E+01 -0.12899360184E+02  0.18727017598E+02  0.00000000000E+00 0.  1.
         11    1    3    3    0    0 -0.55398968136E+01 -0.21868148390E+02  0.39801887100E+01  0.22907384686E+02  0.51100000000E-03 0. -1.
        -11    1    3    3    0    0  0.51033051850E+01 -0.12313923326E+02  0.83410575305E+01  0.15724174779E+02  0.51100000000E-03 0.  1.
        -12    1    3    3    0    0  0.13624483198E+02  0.30959152090E+02  0.57811394348E+00  0.33829422937E+02  0.00000000000E+00 0.  1.
</event>
<event>
 7    1  0.2851651E-013  0.7246163E+02  0.7816164E-02  0.1226708E+00
        -11   -1    0    0    0    0  0.00000000000E+00  0.00000000000E+00  0.45593999997E+02  0.45594000000E+02  0.51100000000E-03 0. -1.
         11   -1    0    0    0    0 -0.00000000000E+00 -0.00000000000E+00 -0.45593999997E+02  0.45594000000E+02  0.51100000000E-03 0.  1.
    9900012    2    1    2    0    0  0.24862491191E+01  0.18022619525E+02  0.44363063986E+01  0.72461626520E+02  0.70000073245E+02 0.  0.
        -12    1    1    2    0    0 -0.24862491191E+01 -0.18022619525E+02 -0.44363063986E+01  0.18726373480E+02  0.00000000000E+00 0.  1.
         11    1    3    3    0    0 -0.22239325445E+00 -0.18257179951E+02 -0.31164362781E+01  0.18522587666E+02  0.51100000000E-03 0. -1.
        -11    1    3    3    0    0 -0.15122927781E+02  0.29740419069E+02 -0.35313517554E+00  0.33366452850E+02  0.51100000000E-03 0.  1.
         12    1    3    3    0    0  0.17831570154E+02  0.65393804073E+01  0.79058778522E+01  0.20572586004E+02  0.00000000000E+00 0. -1.
</event>
<event>
 7    1  0.2851651E-013  0.7246156E+02  0.7816164E-02  0.1226708E+00
        -11   -1    0    0    0    0  0.00000000000E+00  0.00000000000E+00  0.45593999997E+02  0.45594000000E+02  0.51100000000E-03 0. -1.
         11   -1    0    0    0    0 -0.00000000000E+00 -0.00000000000E+00 -0.45593999997E+02  0.45594000000E+02  0.51100000000E-03 0.  1.
    9900012    2    1    2    0    0  0.12028163014E+02  0.59505547309E+01  0.13061156315E+02  0.72461558496E+02  0.69999984631E+02 0.  0.
        -12    1    1    2    0    0 -0.12028163014E+02 -0.59505547309E+01 -0.13061156315E+02  0.18726441504E+02  0.00000000000E+00 0.  1.
         11    1    3    3    0    0  0.92561385142E+01  0.68092508597E+01  0.13868554983E+02  0.18010519566E+02  0.51100000000E-03 0. -1.
        -11    1    3    3    0    0 -0.95591836905E+01  0.10621326837E+02  0.21916125905E+02  0.26163087577E+02  0.51100000000E-03 0.  1.
         12    1    3    3    0    0  0.12331208190E+02 -0.11480022966E+02 -0.22723524573E+02  0.28287951353E+02  0.00000000000E+00 0. -1.
</event>
<event>
 7    1  0.2851651E-013  0.7246160E+02  0.7816164E-02  0.1226708E+00
        -11   -1    0    0    0    0  0.00000000000E+00  0.00000000000E+00  0.45593999997E+02  0.45594000000E+02  0.51100000000E-03 0.  1.
         11   -1    0    0    0    0 -0.00000000000E+00 -0.00000000000E+00 -0.45593999997E+02  0.45594000000E+02  0.51100000000E-03 0. -1.
    9900012    2    1    2    0    0 -0.18392478146E+02 -0.79089277366E+00 -0.34306264225E+01  0.72461602552E+02  0.70000042021E+02 0.  0.
        -12    1    1    2    0    0  0.18392478146E+02  0.79089277366E+00  0.34306264225E+01  0.18726397448E+02  0.00000000000E+00 0.  1.
         11    1    3    3    0    0  0.13974897010E+01 -0.10551318463E+02 -0.19134845840E+02  0.21895790106E+02  0.51100000000E-03 0.  1.
        -11    1    3    3    0    0 -0.12701966191E+02  0.34579591889E+01 -0.14099228164E+02  0.19289522077E+02  0.51100000000E-03 0. -1.
        -12    1    3    3    0    0 -0.70880016562E+01  0.63024665000E+01  0.29803447582E+02  0.31276290369E+02  0.00000000000E+00 0.  1.
</event>
<event>
 7    1  0.2851651E-013  0.7246161E+02  0.7816164E-02  0.1226708E+00
        -11   -1    0    0    0    0  0.00000000000E+00  0.00000000000E+00  0.45593999997E+02  0.45594000000E+02  0.51100000000E-03 0.  1.
         11   -1    0    0    0    0 -0.00000000000E+00 -0.00000000000E+00 -0.45593999997E+02  0.45594000000E+02  0.51100000000E-03 0. -1.
    9900012    2    1    2    0    0 -0.13063766101E+02 -0.11372896827E+01 -0.13368698600E+02  0.72461614475E+02  0.70000057553E+02 0.  0.
        -12    1    1    2    0    0  0.13063766101E+02  0.11372896827E+01  0.13368698600E+02  0.18726385525E+02  0.00000000000E+00 0.  1.
         11    1    3    3    0    0 -0.28193953283E+02 -0.11231949818E+02 -0.10672937408E+02  0.32170907535E+02  0.51100000000E-03 0. -1.
        -11    1    3    3    0    0 -0.90583155300E+01 -0.26815814570E+01  0.64592580219E+01  0.11444036605E+02  0.51100000000E-03 0.  1.
        -12    1    3    3    0    0  0.24188502711E+02  0.12776241593E+02 -0.91550192139E+01  0.28846670336E+02  0.00000000000E+00 0.  1.
</event>
<event>
 7    1  0.2851651E-013  0.7246156E+02  0.7816164E-02  0.1226708E+00
        -11   -1    0    0    0    0  0.00000000000E+00  0.00000000000E+00  0.45593999997E+02  0.45594000000E+02  0.51100000000E-03 0. -1.
         11   -1    0    0    0    0 -0.00000000000E+00 -0.00000000000E+00 -0.45593999997E+02  0.45594000000E+02  0.51100000000E-03 0.  1.
    9900012    2    1    2    0    0 -0.11259659205E+01 -0.13882035576E+02  0.12518022723E+02  0.72461558697E+02  0.69999984892E+02 0.  0.
        -12    1    1    2    0    0  0.11259659205E+01  0.13882035576E+02 -0.12518022723E+02  0.18726441303E+02  0.00000000000E+00 0.  1.
         11    1    3    3    0    0  0.12431641622E+01 -0.86805036192E-01  0.21582964047E+00  0.12647430345E+01  0.51100000000E-03 0. -1.
        -11    1    3    3    0    0  0.43603018954E+01 -0.69706452622E+01 -0.28304418769E+02  0.29474433838E+02  0.51100000000E-03 0.  1.
         12    1    3    3    0    0 -0.67294319781E+01 -0.68245852775E+01  0.40606611852E+02  0.41722381824E+02  0.00000000000E+00 0. -1.
</event>
<event>
 7    1  0.2851651E-013  0.7246157E+02  0.7816164E-02  0.1226708E+00
        -11   -1    0    0    0    0  0.00000000000E+00  0.00000000000E+00  0.45593999997E+02  0.45594000000E+02  0.51100000000E-03 0.  1.
         11   -1    0    0    0    0 -0.00000000000E+00 -0.00000000000E+00 -0.45593999997E+02  0.45594000000E+02  0.51100000000E-03 0. -1.
    9900012    2    1    2    0    0  0.17497813386E+01 -0.17014907855E+01 -0.18566702030E+02  0.72461568682E+02  0.69999997900E+02 0.  0.
        -12    1    1    2    0    0 -0.17497813386E+01  0.17014907855E+01  0.18566702030E+02  0.18726431318E+02  0.00000000000E+00 0.  1.
         11    1    3    3    0    0  0.14458003310E+01 -0.65417401509E+01 -0.21539288044E+01  0.70373370215E+01  0.51100000000E-03 0. -1.
        -11    1    3    3    0    0  0.23646709383E+02 -0.17989246166E+02 -0.13527827406E+02  0.32646316129E+02  0.51100000000E-03 0.  1.
         12    1    3    3    0    0 -0.23342728375E+02  0.22829495531E+02 -0.28849458200E+01  0.32777915531E+02  0.00000000000E+00 0. -1.
</event>
<event>
 7    1  0.2851651E-013  0.7246185E+02  0.7816164E-02  0.1226707E+00
        -11   -1    0    0    0    0  0.00000000000E+00  0.00000000000E+00  0.45593999997E+02  0.45594000000E+02  0.51100000000E-03 0. -1.
         11   -1    0    0    0    0 -0.00000000000E+00 -0.00000000000E+00 -0.45593999997E+02  0.45594000000E+02  0.51100000000E-03 0.  1.
    9900012    2    1    2    0    0  0.90554920159E+01 -0.16107096297E+02  0.30378151009E+01  0.72461846968E+02  0.70000360418E+02 0.  0.
        -12    1    1    2    0    0 -0.90554920159E+01  0.16107096297E+02 -0.30378151009E+01  0.18726153032E+02  0.00000000000E+00 0.  1.
         11    1    3    3    0    0 -0.15154128183E+02 -0.60913569168E+01  0.85825916570E+01  0.18450287529E+02  0.51100000000E-03 0. -1.
        -11    1    3    3    0    0  0.20191092482E+02 -0.22865134883E+02  0.11227148000E+02  0.32504514476E+02  0.51100000000E-03 0.  1.
        -12    1    3    3    0    0  0.40185277167E+01  0.12849395502E+02 -0.16771924556E+02  0.21507044964E+02  0.00000000000E+00 0.  1.
</event>
<event>
 7    1  0.2851651E-013  0.7246155E+02  0.7816164E-02  0.1226708E+00
        -11   -1    0    0    0    0  0.00000000000E+00  0.00000000000E+00  0.45593999997E+02  0.45594000000E+02  0.51100000000E-03 0.  1.
         11   -1    0    0    0    0 -0.00000000000E+00 -0.00000000000E+00 -0.45593999997E+02  0.45594000000E+02  0.51100000000E-03 0. -1.
    9900012    2    1    2    0    0 -0.68725926407E+01  0.13760413932E+02 -0.10681677421E+02  0.72461554697E+02  0.69999979681E+02 0.  0.
        -12    1    1    2    0    0  0.68725926407E+01 -0.13760413932E+02  0.10681677421E+02  0.18726445303E+02  0.00000000000E+00 0.  1.
         11    1    3    3    0    0  0.56661433287E+01  0.41133743038E+00 -0.16603566752E+01  0.59187129727E+01  0.51100000000E-03 0. -1.
        -11    1    3    3    0    0  0.20354521873E+02  0.15024486944E+02 -0.19541760246E+02  0.31967517301E+02  0.51100000000E-03 0.  1.
        -12    1    3    3    0    0 -0.32893257843E+02 -0.16754104431E+01  0.10520439500E+02  0.34575324423E+02  0.00000000000E+00 0.  1.
</event>
<event>
 7    1  0.2851651E-013  0.7246154E+02  0.7816164E-02  0.1226708E+00
        -11   -1    0    0    0    0  0.00000000000E+00  0.00000000000E+00  0.45593999997E+02  0.45594000000E+02  0.51100000000E-03 0. -1.
         11   -1    0    0    0    0 -0.00000000000E+00 -0.00000000000E+00 -0.45593999997E+02  0.45594000000E+02  0.51100000000E-03 0.  1.
    9900012    2    1    2    0    0 -0.39575041391E+01  0.16847741217E+02  0.71534625941E+01  0.72461541440E+02  0.69999962412E+02 0.  0.
        -12    1    1    2    0    0  0.39575041391E+01 -0.16847741217E+02 -0.71534625941E+01  0.18726458560E+02  0.00000000000E+00 0.  1.
         11    1    3    3    0    0 -0.11981652815E+02 -0.17720394821E+01  0.93710110141E+00  0.12148180392E+02  0.51100000000E-03 0. -1.
        -11    1    3    3    0    0  0.14265643777E+02 -0.16927949469E+02  0.94650156622E+01  0.24075933779E+02  0.51100000000E-03 0.  1.
         12    1    3    3    0    0 -0.62414951012E+01  0.35547730168E+02 -0.32486541696E+01  0.36237427269E+02  0.00000000000E+00 0. -1.
</event>
<event>
 7    1  0.2851651E-013  0.7246158E+02  0.7816164E-02  0.1226708E+00
        -11   -1    0    0    0    0  0.00000000000E+00  0.00000000000E+00  0.45593999997E+02  0.45594000000E+02  0.51100000000E-03 0. -1.
         11   -1    0    0    0    0 -0.00000000000E+00 -0.00000000000E+00 -0.45593999997E+02  0.45594000000E+02  0.51100000000E-03 0.  1.
    9900012    2    1    2    0    0  0.62614442777E+01  0.17439734291E+02  0.27071441990E+01  0.72461584265E+02  0.70000018199E+02 0.  0.
        -12    1    1    2    0    0 -0.62614442777E+01 -0.17439734291E+02 -0.27071441990E+01  0.18726415735E+02  0.00000000000E+00 0.  1.
         11    1    3    3    0    0  0.18824588012E+02  0.10850043502E+01  0.86694024845E+01  0.20753334382E+02  0.51100000000E-03 0. -1.
        -11    1    3    3    0    0  0.55659916445E+01  0.48319570727E+01 -0.23087924979E+02  0.24235931017E+02  0.51100000000E-03 0.  1.
         12    1    3    3    0    0 -0.18129135379E+02  0.11522772868E+02  0.17125666694E+02  0.27472318866E+02  0.00000000000E+00 0. -1.
</event>
<event>
 7    1  0.2851651E-013  0.7246156E+02  0.7816164E-02  0.1226708E+00
        -11   -1    0    0    0    0  0.00000000000E+00  0.00000000000E+00  0.45593999997E+02  0.45594000000E+02  0.51100000000E-03 0. -1.
         11   -1    0    0    0    0 -0.00000000000E+00 -0.00000000000E+00 -0.45593999997E+02  0.45594000000E+02  0.51100000000E-03 0.  1.
    9900012    2    1    2    0    0  0.13403585809E+02 -0.48871834778E+01  0.12130078293E+02  0.72461562157E+02  0.69999989400E+02 0.  0.
        -12    1    1    2    0    0 -0.13403585809E+02  0.48871834778E+01 -0.12130078293E+02  0.18726437843E+02  0.00000000000E+00 0.  1.
         11    1    3    3    0    0 -0.20289143941E+02  0.23032710182E+01 -0.11579067026E+02  0.23474011432E+02  0.51100000000E-03 0. -1.
        -11    1    3    3    0    0  0.20207527542E+02  0.67934237722E+01  0.47480203160E+01  0.21841210431E+02  0.51100000000E-03 0.  1.
        -12    1    3    3    0    0  0.13485202208E+02 -0.13983878268E+02  0.18961125003E+02  0.27146340295E+02  0.00000000000E+00 0.  1.
</event>
<event>
 7    1  0.2851651E-013  0.7246149E+02  0.7816164E-02  0.1226708E+00
        -11   -1    0    0    0    0  0.00000000000E+00  0.00000000000E+00  0.45593999997E+02  0.45594000000E+02  0.51100000000E-03 0.  1.
         11   -1    0    0    0    0 -0.00000000000E+00 -0.00000000000E+00 -0.45593999997E+02  0.45594000000E+02  0.51100000000E-03 0. -1.
    9900012    2    1    2    0    0 -0.26187854065E+01  0.11899335811E+02 -0.14220759216E+02  0.72461488781E+02  0.69999893813E+02 0.  0.
        -12    1    1    2    0    0  0.26187854065E+01 -0.11899335811E+02  0.14220759216E+02  0.18726511219E+02  0.00000000000E+00 0.  1.
         11    1    3    3    0    0 -0.13459675290E+01  0.19066484267E+02 -0.11487490374E+02  0.22300333770E+02  0.51100000000E-03 0. -1.
        -11    1    3    3    0    0  0.28952286250E+01  0.16379739181E+02  0.13362121250E+02  0.21335990462E+02  0.51100000000E-03 0.  1.
        -12    1    3    3    0    0 -0.41680465025E+01 -0.23546887637E+02 -0.16095390093E+02  0.28825164549E+02  0.00000000000E+00 0.  1.
</event>
<event>
 7    1  0.2851651E-013  0.7246163E+02  0.7816164E-02  0.1226708E+00
        -11   -1    0    0    0    0  0.00000000000E+00  0.00000000000E+00  0.45593999997E+02  0.45594000000E+02  0.51100000000E-03 0. -1.
         11   -1    0    0    0    0 -0.00000000000E+00 -0.00000000000E+00 -0.45593999997E+02  0.45594000000E+02  0.51100000000E-03 0.  1.
    9900012    2    1    2    0    0  0.64102269236E+01  0.15917627038E+02  0.74976702591E+01  0.72461630383E+02  0.70000078276E+02 0.  0.
        -12    1    1    2    0    0 -0.64102269236E+01 -0.15917627038E+02 -0.74976702591E+01  0.18726369617E+02  0.00000000000E+00 0.  1.
         11    1    3    3    0    0  0.29366974477E+02 -0.64384470286E+01  0.10587295634E+02  0.31874184212E+02  0.51100000000E-03 0. -1.
        -11    1    3    3    0    0 -0.29237987456E+00  0.52021866803E+01  0.84361000049E+01  0.99154432983E+01  0.51100000000E-03 0.  1.
        -12    1    3    3    0    0 -0.22664367679E+02  0.17153887386E+02 -0.11525725380E+02  0.30672002873E+02  0.00000000000E+00 0.  1.
</event>
<event>
 7    1  0.2851651E-013  0.7246152E+02  0.7816164E-02  0.1226708E+00
        -11   -1    0    0    0    0  0.00000000000E+00  0.00000000000E+00  0.45593999997E+02  0.45594000000E+02  0.51100000000E-03 0.  1.
         11   -1    0    0    0    0 -0.00000000000E+00 -0.00000000000E+00 -0.45593999997E+02  0.45594000000E+02  0.51100000000E-03 0. -1.
    9900012    2    1    2    0    0  0.66878753015E+01  0.13932693191E+02  0.10575140526E+02  0.72461515740E+02  0.69999928933E+02 0.  0.
        -12    1    1    2    0    0 -0.66878753015E+01 -0.13932693191E+02 -0.10575140526E+02  0.18726484260E+02  0.00000000000E+00 0.  1.
         11    1    3    3    0    0  0.14340399453E+02  0.65800052656E+01  0.41080843267E+01  0.16303983650E+02  0.51100000000E-03 0. -1.
        -11    1    3    3    0    0 -0.27911759933E+02  0.33178327900E+01  0.17123841000E+02  0.32913527429E+02  0.51100000000E-03 0.  1.
         12    1    3    3    0    0  0.20259235782E+02  0.40348551351E+01 -0.10656784800E+02  0.23244004661E+02  0.00000000000E+00 0. -1.
</event>
<event>
 7    1  0.2851651E-013  0.7246158E+02  0.7816164E-02  0.1226708E+00
        -11   -1    0    0    0    0  0.00000000000E+00  0.00000000000E+00  0.45593999997E+02  0.45594000000E+02  0.51100000000E-03 0. -1.
         11   -1    0    0    0    0 -0.00000000000E+00 -0.00000000000E+00 -0.45593999997E+02  0.45594000000E+02  0.51100000000E-03 0.  1.
    9900012    2    1    2    0    0  0.99494893380E+01 -0.12748102904E+02  0.94431101305E+01  0.72461580303E+02  0.70000013038E+02 0.  0.
        -12    1    1    2    0    0 -0.99494893380E+01  0.12748102904E+02 -0.94431101305E+01  0.18726419697E+02  0.00000000000E+00 0.  1.
         11    1    3    3    0    0 -0.11394657693E+02 -0.87975898308E+01 -0.19034455372E+00  0.14396945582E+02  0.51100000000E-03 0.  1.
        -11    1    3    3    0    0  0.25610873253E+02 -0.16209282086E+02  0.24030815985E+02  0.38679940172E+02  0.51100000000E-03 0. -1.
         12    1    3    3    0    0 -0.42667262225E+01  0.12258769013E+02 -0.14397361301E+02  0.19384694550E+02  0.00000000000E+00 0. -1.
</event>
<event>
 7    1  0.3672802E-013  0.7246148E+02  0.7816164E-02  0.1226708E+00
        -11   -1    0    0    0    0  0.00000000000E+00  0.00000000000E+00  0.45593999997E+02  0.45594000000E+02  0.51100000000E-03 0.  1.
         11   -1    0    0    0    0 -0.00000000000E+00 -0.00000000000E+00 -0.45593999997E+02  0.45594000000E+02  0.51100000000E-03 0. -1.
    9900012    2    1    2    0    0 -0.10187347691E+02 -0.15437100268E+02  0.29319817377E+01  0.72461477777E+02  0.69999879479E+02 0.  0.
        -12    1    1    2    0    0  0.10187347691E+02  0.15437100268E+02 -0.29319817377E+01  0.18726522223E+02  0.00000000000E+00 0.  1.
         11    1    3    3    0    0 -0.51227682976E+01  0.11827215883E+02  0.45780279457E+01  0.13677870109E+02  0.51100000000E-03 0. -1.
        -11    1    3    3    0    0  0.12719855120E+02  0.10532594813E+02 -0.38364376547E+01  0.16954306884E+02  0.51100000000E-03 0.  1.
         12    1    3    3    0    0 -0.17784434513E+02 -0.37796910964E+02  0.21903914467E+01  0.41829300784E+02  0.00000000000E+00 0. -1.
</event>
<event>
 7    1  0.2851651E-013  0.7246141E+02  0.7816164E-02  0.1226708E+00
        -11   -1    0    0    0    0  0.00000000000E+00  0.00000000000E+00  0.45593999997E+02  0.45594000000E+02  0.51100000000E-03 0. -1.
         11   -1    0    0    0    0 -0.00000000000E+00 -0.00000000000E+00 -0.45593999997E+02  0.45594000000E+02  0.51100000000E-03 0.  1.
    9900012    2    1    2    0    0 -0.14718599237E+02 -0.67644147941E+01  0.93963156958E+01  0.72461408755E+02  0.69999789565E+02 0.  0.
        -12    1    1    2    0    0  0.14718599237E+02  0.67644147941E+01 -0.93963156958E+01  0.18726591245E+02  0.00000000000E+00 0.  1.
         11    1    3    3    0    0 -0.15214676014E+02  0.29465010650E+01 -0.24096615817E+01  0.15683580711E+02  0.51100000000E-03 0.  1.
        -11    1    3    3    0    0  0.98536924885E+01 -0.17037211189E+02  0.29500161203E+02  0.35462957181E+02  0.51100000000E-03 0. -1.
         12    1    3    3    0    0 -0.93576157120E+01  0.73262953303E+01 -0.17694183926E+02  0.21314870862E+02  0.00000000000E+00 0. -1.
</event>
<event>
 7    1  0.2851651E-013  0.7246157E+02  0.7816164E-02  0.1226708E+00
        -11   -1    0    0    0    0  0.00000000000E+00  0.00000000000E+00  0.45593999997E+02  0.45594000000E+02  0.51100000000E-03 0.  1.
         11   -1    0    0    0    0 -0.00000000000E+00 -0.00000000000E+00 -0.45593999997E+02  0.45594000000E+02  0.51100000000E-03 0. -1.
    9900012    2    1    2    0    0  0.12184183137E+02 -0.10833648413E+02 -0.92117874192E+01  0.72461567235E+02  0.69999996014E+02 0.  0.
        -12    1    1    2    0    0 -0.12184183137E+02  0.10833648413E+02  0.92117874192E+01  0.18726432765E+02  0.00000000000E+00 0.  1.
         11    1    3    3    0    0  0.44128718594E+01  0.53616152512E+01 -0.13222745853E+02  0.14935239010E+02  0.51100000000E-03 0. -1.
        -11    1    3    3    0    0  0.21599695230E+02  0.11073185537E+02 -0.66152848331E+01  0.25157986121E+02  0.51100000000E-03 0.  1.
        -12    1    3    3    0    0 -0.13828383952E+02 -0.27268449201E+02  0.10626243267E+02  0.32368342103E+02  0.00000000000E+00 0.  1.
</event>
<event>
 7    1  0.2851651E-013  0.7246158E+02  0.7816164E-02  0.1226708E+00
        -11   -1    0    0    0    0  0.00000000000E+00  0.00000000000E+00  0.45593999997E+02  0.45594000000E+02  0.51100000000E-03 0. -1.
         11   -1    0    0    0    0 -0.00000000000E+00 -0.00000000000E+00 -0.45593999997E+02  0.45594000000E+02  0.51100000000E-03 0.  1.
    9900012    2    1    2    0    0  0.10953835535E+02 -0.11444763398E+02  0.99854786768E+01  0.72461577315E+02  0.70000009146E+02 0.  0.
        -12    1    1    2    0    0 -0.10953835535E+02  0.11444763398E+02 -0.99854786768E+01  0.18726422685E+02  0.00000000000E+00 0.  1.
         11    1    3    3    0    0  0.28303952036E+02 -0.14303061312E+02  0.86584905572E+01  0.32873404490E+02  0.51100000000E-03 0. -1.
        -11    1    3    3    0    0  0.52347366798E+01 -0.10140052437E+01 -0.11963834604E+02  0.13098244670E+02  0.51100000000E-03 0.  1.
         12    1    3    3    0    0 -0.22584853181E+02  0.38723031579E+01  0.13290822724E+02  0.26489928154E+02  0.00000000000E+00 0. -1.
</event>
<event>
 7    1  0.2851651E-013  0.7246158E+02  0.7816164E-02  0.1226708E+00
        -11   -1    0    0    0    0  0.00000000000E+00  0.00000000000E+00  0.45593999997E+02  0.45594000000E+02  0.51100000000E-03 0.  1.
         11   -1    0    0    0    0 -0.00000000000E+00 -0.00000000000E+00 -0.45593999997E+02  0.45594000000E+02  0.51100000000E-03 0. -1.
    9900012    2    1    2    0    0  0.17819784339E+02 -0.50927459847E+01 -0.26829098313E+01  0.72461580676E+02  0.70000013524E+02 0.  0.
        -12    1    1    2    0    0 -0.17819784339E+02  0.50927459847E+01  0.26829098313E+01  0.18726419324E+02  0.00000000000E+00 0.  1.
         11    1    3    3    0    0  0.56227665221E+01  0.93290636658E+01 -0.62272616062E+01  0.12546940648E+02  0.51100000000E-03 0. -1.
        -11    1    3    3    0    0 -0.20997488586E+02 -0.18750562306E+01 -0.80743456551E+01  0.22574441761E+02  0.51100000000E-03 0.  1.
        -12    1    3    3    0    0  0.33194506403E+02 -0.12546753420E+02  0.11618697430E+02  0.37340198268E+02  0.00000000000E+00 0.  1.
</event>
<event>
 7    1  0.2851651E-013  0.7246153E+02  0.7816164E-02  0.1226708E+00
        -11   -1    0    0    0    0  0.00000000000E+00  0.00000000000E+00  0.45593999997E+02  0.45594000000E+02  0.51100000000E-03 0.  1.
         11   -1    0    0    0    0 -0.00000000000E+00 -0.00000000000E+00 -0.45593999997E+02  0.45594000000E+02  0.51100000000E-03 0. -1.
    9900012    2    1    2    0    0 -0.11680242688E+02 -0.24157958627E+01  0.14436640198E+02  0.72461528920E+02  0.69999946103E+02 0.  0.
        -12    1    1    2    0    0  0.11680242688E+02  0.24157958627E+01 -0.14436640198E+02  0.18726471080E+02  0.00000000000E+00 0.  1.
         11    1    3    3    0    0  0.44480012097E+01  0.62265981239E+01 -0.17604689937E+02  0.19195841919E+02  0.51100000000E-03 0. -1.
        -11    1    3    3    0    0 -0.14842633715E+02 -0.14480816013E+02  0.66208262023E-01  0.20736494203E+02  0.51100000000E-03 0.  1.
        -12    1    3    3    0    0 -0.12856101819E+01  0.58384220269E+01  0.31975121873E+02  0.32529192798E+02  0.00000000000E+00 0.  1.
</event>
<event>
 7    1  0.2851651E-013  0.7246155E+02  0.7816164E-02  0.1226708E+00
        -11   -1    0    0    0    0  0.00000000000E+00  0.00000000000E+00  0.45593999997E+02  0.45594000000E+02  0.51100000000E-03 0.  1.
         11   -1    0    0    0    0 -0.00000000000E+00 -0.00000000000E+00 -0.45593999997E+02  0.45594000000E+02  0.51100000000E-03 0. -1.
    9900012    2    1    2    0    0  0.74933215812E+01  0.15469636567E+02  0.74310337630E+01  0.72461553817E+02  0.69999978536E+02 0.  0.
        -12    1    1    2    0    0 -0.74933215812E+01 -0.15469636567E+02 -0.74310337630E+01  0.18726446183E+02  0.00000000000E+00 0.  1.
         11    1    3    3    0    0 -0.22217837856E+02  0.12579013499E+02 -0.10408054940E+02  0.27571570639E+02  0.51100000000E-03 0. -1.
        -11    1    3    3    0    0  0.30907879231E+01  0.83145231245E+01 -0.42874146852E+01  0.98522175025E+01  0.51100000000E-03 0.  1.
         12    1    3    3    0    0  0.26620371514E+02 -0.54239000565E+01  0.22126503389E+02  0.35037765676E+02  0.00000000000E+00 0. -1.
</event>
<event>
 7    1  0.2851651E-013  0.7246145E+02  0.7816164E-02  0.1226708E+00
        -11   -1    0    0    0    0  0.00000000000E+00  0.00000000000E+00  0.45593999997E+02  0.45594000000E+02  0.51100000000E-03 0.  1.
         11   -1    0    0    0    0 -0.00000000000E+00 -0.00000000000E+00 -0.45593999997E+02  0.45594000000E+02  0.51100000000E-03 0. -1.
    9900012    2    1    2    0    0  0.17867476533E+02  0.43591418802E+01  0.35263218618E+01  0.72461447155E+02  0.69999839588E+02 0.  0.
        -12    1    1    2    0    0 -0.17867476533E+02 -0.43591418802E+01 -0.35263218618E+01  0.18726552845E+02  0.00000000000E+00 0.  1.
         11    1    3    3    0    0  0.45308394630E+01  0.25555334993E+02 -0.12584493303E+02  0.28843944335E+02  0.51100000000E-03 0. -1.
        -11    1    3    3    0    0 -0.43449576482E+01 -0.77412129263E+00 -0.68608079703E+01  0.81577329575E+01  0.51100000000E-03 0.  1.
        -12    1    3    3    0    0  0.17681594718E+02 -0.20422071820E+02  0.22971623136E+02  0.35459769862E+02  0.00000000000E+00 0.  1.
</event>
<event>
 7    1  0.2851651E-013  0.7246156E+02  0.7816164E-02  0.1226708E+00
        -11   -1    0    0    0    0  0.00000000000E+00  0.00000000000E+00  0.45593999997E+02  0.45594000000E+02  0.51100000000E-03 0.  1.
         11   -1    0    0    0    0 -0.00000000000E+00 -0.00000000000E+00 -0.45593999997E+02  0.45594000000E+02  0.51100000000E-03 0. -1.
    9900012    2    1    2    0    0 -0.46336452808E+01 -0.17375150181E+02 -0.52261754674E+01  0.72461563542E+02  0.69999991203E+02 0.  0.
        -12    1    1    2    0    0  0.46336452808E+01  0.17375150181E+02  0.52261754674E+01  0.18726436458E+02  0.00000000000E+00 0.  1.
         11    1    3    3    0    0  0.84013175474E+01  0.66457206021E+01 -0.21340104608E+02  0.23877767982E+02  0.51100000000E-03 0. -1.
        -11    1    3    3    0    0  0.92906062560E+01 -0.12059056170E+02 -0.45579920559E+01  0.15890610188E+02  0.51100000000E-03 0.  1.
        -12    1    3    3    0    0 -0.22325569084E+02 -0.11961814613E+02  0.20671921197E+02  0.32693185371E+02  0.00000000000E+00 0.  1.
</event>
<event>
 7    1  0.2851651E-013  0.7246153E+02  0.7816164E-02  0.1226708E+00
        -11   -1    0    0    0    0  0.00000000000E+00  0.00000000000E+00  0.45593999997E+02  0.45594000000E+02  0.51100000000E-03 0.  1.
         11   -1    0    0    0    0 -0.00000000000E+00 -0.00000000000E+00 -0.45593999997E+02  0.45594000000E+02  0.51100000000E-03 0. -1.
    9900012    2    1    2    0    0 -0.13491200514E+02 -0.52862549174E+00 -0.12976465885E+02  0.72461532018E+02  0.69999950137E+02 0.  0.
        -12    1    1    2    0    0  0.13491200514E+02  0.52862549174E+00  0.12976465885E+02  0.18726467982E+02  0.00000000000E+00 0.  1.
         11    1    3    3    0    0  0.27140981158E+01  0.28058242230E+01 -0.19366532459E+02  0.19756051171E+02  0.51100000000E-03 0. -1.
        -11    1    3    3    0    0 -0.69660985835E+01 -0.15210284620E+02 -0.17666608775E+02  0.24330810787E+02  0.51100000000E-03 0.  1.
        -12    1    3    3    0    0 -0.92392000466E+01  0.11875834905E+02  0.24056675348E+02  0.28374670060E+02  0.00000000000E+00 0.  1.
</event>
<event>
 7    1  0.2851651E-013  0.7246160E+02  0.7816164E-02  0.1226708E+00
        -11   -1    0    0    0    0  0.00000000000E+00  0.00000000000E+00  0.45593999997E+02  0.45594000000E+02  0.51100000000E-03 0. -1.
         11   -1    0    0    0    0 -0.00000000000E+00 -0.00000000000E+00 -0.45593999997E+02  0.45594000000E+02  0.51100000000E-03 0.  1.
    9900012    2    1    2    0    0  0.16142325791E+02 -0.86412783238E+01 -0.39283334437E+01  0.72461596804E+02  0.70000034534E+02 0.  0.
        -12    1    1    2    0    0 -0.16142325791E+02  0.86412783238E+01  0.39283334437E+01  0.18726403196E+02  0.00000000000E+00 0.  1.
         11    1    3    3    0    0  0.79388946680E+00 -0.18744281664E+01  0.40390453525E+01  0.45230110609E+01  0.51100000000E-03 0. -1.
        -11    1    3    3    0    0 -0.25793751897E+02 -0.18747623448E+00 -0.24668779005E+01  0.25912125948E+02  0.51100000000E-03 0.  1.
         12    1    3    3    0    0  0.41142188221E+02 -0.65793739229E+01 -0.55005008957E+01  0.42026459796E+02  0.00000000000E+00 0. -1.
</event>
<event>
 7    1  0.2851651E-013  0.7246153E+02  0.7816164E-02  0.1226708E+00
        -11   -1    0    0    0    0  0.00000000000E+00  0.00000000000E+00  0.45593999997E+02  0.45594000000E+02  0.51100000000E-03 0.  1.
         11   -1    0    0    0    0 -0.00000000000E+00 -0.00000000000E+00 -0.45593999997E+02  0.45594000000E+02  0.51100000000E-03 0. -1.
    9900012    2    1    2    0    0  0.58479413744E+01 -0.10740238103E+02  0.14182015319E+02  0.72461529661E+02  0.69999947068E+02 0.  0.
        -12    1    1    2    0    0 -0.58479413744E+01  0.10740238103E+02 -0.14182015319E+02  0.18726470339E+02  0.00000000000E+00 0.  1.
         11    1    3    3    0    0 -0.20979195090E+02  0.13532713558E+02  0.57065342055E+01  0.25609090100E+02  0.51100000000E-03 0. -1.
        -11    1    3    3    0    0 -0.51910598899E+01 -0.35234397589E+01  0.58993214013E+01  0.86118362602E+01  0.51100000000E-03 0.  1.
        -12    1    3    3    0    0  0.32018196354E+02 -0.20749511903E+02  0.25761597119E+01  0.38240603301E+02  0.00000000000E+00 0.  1.
</event>
<event>
 7    1  0.2851651E-013  0.7246156E+02  0.7816164E-02  0.1226708E+00
        -11   -1    0    0    0    0  0.00000000000E+00  0.00000000000E+00  0.45593999997E+02  0.45594000000E+02  0.51100000000E-03 0. -1.
         11   -1    0    0    0    0 -0.00000000000E+00 -0.00000000000E+00 -0.45593999997E+02  0.45594000000E+02  0.51100000000E-03 0.  1.
    9900012    2    1    2    0    0 -0.50820168005E+01 -0.11606194243E+02  0.13789452266E+02  0.72461557910E+02  0.69999983868E+02 0.  0.
        -12    1    1    2    0    0  0.50820168005E+01  0.11606194243E+02 -0.13789452266E+02  0.18726442090E+02  0.00000000000E+00 0.  1.
         11    1    3    3    0    0  0.15181956940E+02  0.12926454594E+01  0.22177733591E+02  0.26907519698E+02  0.51100000000E-03 0. -1.
        -11    1    3    3    0    0 -0.22669742302E+02  0.58991461479E+01  0.27280608878E+01  0.23583033260E+02  0.51100000000E-03 0.  1.
        -12    1    3    3    0    0  0.24057685615E+01 -0.18797985850E+02 -0.11116342214E+02  0.21971004952E+02  0.00000000000E+00 0.  1.
</event>
<event>
 7    1  0.2851651E-013  0.7246155E+02  0.7816164E-02  0.1226708E+00
        -11   -1    0    0    0    0  0.00000000000E+00  0.00000000000E+00  0.45593999997E+02  0.45594000000E+02  0.51100000000E-03 0.  1.
         11   -1    0    0    0    0 -0.00000000000E+00 -0.00000000000E+00 -0.45593999997E+02  0.45594000000E+02  0.51100000000E-03 0. -1.
    9900012    2    1    2    0    0  0.16597588154E+02  0.44481651510E+01 -0.74440360035E+01  0.72461554054E+02  0.69999978844E+02 0.  0.
        -12    1    1    2    0    0 -0.16597588154E+02 -0.44481651510E+01  0.74440360035E+01  0.18726445946E+02  0.00000000000E+00 0.  1.
         11    1    3    3    0    0 -0.15976913311E+02  0.52024712097E+01 -0.20820823341E+02  0.26755077098E+02  0.51100000000E-03 0. -1.
        -11    1    3    3    0    0 -0.15671885632E+01  0.77277491386E+01 -0.47208960354E+00  0.78991806915E+01  0.51100000000E-03 0.  1.
        -12    1    3    3    0    0  0.34141690028E+02 -0.84820551973E+01  0.13848876941E+02  0.37807296265E+02  0.00000000000E+00 0.  1.
</event>
<event>
 7    1  0.2851651E-013  0.7246157E+02  0.7816164E-02  0.1226708E+00
        -11   -1    0    0    0    0  0.00000000000E+00  0.00000000000E+00  0.45593999997E+02  0.45594000000E+02  0.51100000000E-03 0.  1.
         11   -1    0    0    0    0 -0.00000000000E+00 -0.00000000000E+00 -0.45593999997E+02  0.45594000000E+02  0.51100000000E-03 0. -1.
    9900012    2    1    2    0    0 -0.13826272584E+02  0.11200621865E+02  0.58360553240E+01  0.72461567198E+02  0.69999995966E+02 0.  0.
        -12    1    1    2    0    0  0.13826272584E+02 -0.11200621865E+02 -0.58360553240E+01  0.18726432802E+02  0.00000000000E+00 0.  1.
         11    1    3    3    0    0  0.65546690174E+01  0.78308396731E+01 -0.12640259404E+02  0.16249981353E+02  0.51100000000E-03 0. -1.
        -11    1    3    3    0    0  0.12700227865E+02  0.78276367981E+00  0.19185832707E+02  0.23021830590E+02  0.51100000000E-03 0.  1.
         12    1    3    3    0    0 -0.33081169467E+02  0.25870185125E+01 -0.70951797834E+00  0.33189755254E+02  0.00000000000E+00 0. -1.
</event>
<event>
 7    1  0.2851651E-013  0.7246172E+02  0.7816164E-02  0.1226708E+00
        -11   -1    0    0    0    0  0.00000000000E+00  0.00000000000E+00  0.45593999997E+02  0.45594000000E+02  0.51100000000E-03 0. -1.
         11   -1    0    0    0    0 -0.00000000000E+00 -0.00000000000E+00 -0.45593999997E+02  0.45594000000E+02  0.51100000000E-03 0.  1.
    9900012    2    1    2    0    0 -0.93949401352E+01 -0.22493992416E+01  0.16042094125E+02  0.72461722179E+02  0.70000197858E+02 0.  0.
        -12    1    1    2    0    0  0.93949401352E+01  0.22493992416E+01 -0.16042094125E+02  0.18726277821E+02  0.00000000000E+00 0.  1.
         11    1    3    3    0    0 -0.67107847229E+01  0.82605098067E+01 -0.20674783584E+01  0.10841822766E+02  0.51100000000E-03 0. -1.
        -11    1    3    3    0    0 -0.29438486700E+02 -0.70866674385E+01  0.16772167120E+02  0.34614317049E+02  0.51100000000E-03 0.  1.
         12    1    3    3    0    0  0.26754331288E+02 -0.34232416098E+01  0.13374053630E+01  0.27005582365E+02  0.00000000000E+00 0. -1.
</event>
<event>
 7    1  0.2851651E-013  0.7246156E+02  0.7816164E-02  0.1226708E+00
        -11   -1    0    0    0    0  0.00000000000E+00  0.00000000000E+00  0.45593999997E+02  0.45594000000E+02  0.51100000000E-03 0.  1.
         11   -1    0    0    0    0 -0.00000000000E+00 -0.00000000000E+00 -0.45593999997E+02  0.45594000000E+02  0.51100000000E-03 0. -1.
    9900012    2    1    2    0    0  0.30020334624E+01  0.98712809566E+01 -0.15627707944E+02  0.72461557513E+02  0.69999983351E+02 0.  0.
        -12    1    1    2    0    0 -0.30020334624E+01 -0.98712809566E+01  0.15627707944E+02  0.18726442487E+02  0.00000000000E+00 0.  1.
         11    1    3    3    0    0  0.14305972079E+02 -0.11070989484E+02 -0.77993477328E+01  0.19699174363E+02  0.51100000000E-03 0. -1.
        -11    1    3    3    0    0 -0.15003361251E+02 -0.63747090792E+00  0.14934462136E+02  0.21178889903E+02  0.51100000000E-03 0.  1.
         12    1    3    3    0    0  0.36994226344E+01  0.21579741348E+02 -0.22762822347E+02  0.31583493247E+02  0.00000000000E+00 0. -1.
</event>
<event>
 7    1  0.2851651E-013  0.7246153E+02  0.7816164E-02  0.1226708E+00
        -11   -1    0    0    0    0  0.00000000000E+00  0.00000000000E+00  0.45593999997E+02  0.45594000000E+02  0.51100000000E-03 0.  1.
         11   -1    0    0    0    0 -0.00000000000E+00 -0.00000000000E+00 -0.45593999997E+02  0.45594000000E+02  0.51100000000E-03 0. -1.
    9900012    2    1    2    0    0  0.14530124905E+02 -0.11408019768E+02  0.30680845674E+01  0.72461532428E+02  0.69999950673E+02 0.  0.
        -12    1    1    2    0    0 -0.14530124905E+02  0.11408019768E+02 -0.30680845674E+01  0.18726467572E+02  0.00000000000E+00 0.  1.
         11    1    3    3    0    0  0.63410051155E-01 -0.21414986804E+01 -0.86005690209E+01  0.88633980604E+01  0.51100000000E-03 0. -1.
        -11    1    3    3    0    0 -0.23764434530E+00  0.24682841608E+02 -0.38536925527E+00  0.24686993629E+02  0.51100000000E-03 0.  1.
         12    1    3    3    0    0  0.14704359200E+02 -0.33949362696E+02  0.12054022844E+02  0.38911140739E+02  0.00000000000E+00 0. -1.
</event>
<event>
 7    1  0.2851651E-013  0.7246177E+02  0.7816164E-02  0.1226707E+00
        -11   -1    0    0    0    0  0.00000000000E+00  0.00000000000E+00  0.45593999997E+02  0.45594000000E+02  0.51100000000E-03 0. -1.
         11   -1    0    0    0    0 -0.00000000000E+00 -0.00000000000E+00 -0.45593999997E+02  0.45594000000E+02  0.51100000000E-03 0.  1.
    9900012    2    1    2    0    0  0.18524062222E+02 -0.24584315024E+01  0.12193208098E+01  0.72461774810E+02  0.70000266419E+02 0.  0.
        -12    1    1    2    0    0 -0.18524062222E+02  0.24584315024E+01 -0.12193208098E+01  0.18726225190E+02  0.00000000000E+00 0.  1.
         11    1    3    3    0    0 -0.11127173012E+02 -0.21749181119E+02  0.11355244660E+02  0.26940349666E+02  0.51100000000E-03 0. -1.
        -11    1    3    3    0    0  0.82846927694E+01  0.16997580451E+02  0.46055696362E+01  0.19461889615E+02  0.51100000000E-03 0.  1.
        -12    1    3    3    0    0  0.21366542465E+02  0.22931691660E+01 -0.14741493487E+02  0.26059535528E+02  0.00000000000E+00 0.  1.
</event>
<event>
 7    1  0.2851651E-013  0.7246159E+02  0.7816164E-02  0.1226708E+00
        -11   -1    0    0    0    0  0.00000000000E+00  0.00000000000E+00  0.45593999997E+02  0.45594000000E+02  0.51100000000E-03 0.  1.
         11   -1    0    0    0    0 -0.00000000000E+00 -0.00000000000E+00 -0.45593999997E+02  0.45594000000E+02  0.51100000000E-03 0. -1.
    9900012    2    1    2    0    0  0.79646685101E+01  0.22699490219E+01 -0.16795527359E+02  0.72461592114E+02  0.70000028425E+02 0.  0.
        -12    1    1    2    0    0 -0.79646685101E+01 -0.22699490219E+01  0.16795527359E+02  0.18726407886E+02  0.00000000000E+00 0.  1.
         11    1    3    3    0    0  0.19087416535E+02  0.48572381477E+01  0.12402110829E+02  0.23275192495E+02  0.51100000000E-03 0. -1.
        -11    1    3    3    0    0  0.82485487074E+01 -0.38097146039E+01  0.46210924297E+01  0.10193477162E+02  0.51100000000E-03 0.  1.
         12    1    3    3    0    0 -0.19371296733E+02  0.12224254781E+01 -0.33818730618E+02  0.38992922457E+02  0.00000000000E+00 0. -1.
</event>
<event>
 7    1  0.2851651E-013  0.7246161E+02  0.7816164E-02  0.1226708E+00
        -11   -1    0    0    0    0  0.00000000000E+00  0.00000000000E+00  0.45593999997E+02  0.45594000000E+02  0.51100000000E-03 0.  1.
         11   -1    0    0    0    0 -0.00000000000E+00 -0.00000000000E+00 -0.45593999997E+02  0.45594000000E+02  0.51100000000E-03 0. -1.
    9900012    2    1    2    0    0 -0.22070022746E+01  0.18412512230E+02 -0.26050297112E+01  0.72461610987E+02  0.70000053010E+02 0.  0.
        -12    1    1    2    0    0  0.22070022746E+01 -0.18412512230E+02  0.26050297112E+01  0.18726389013E+02  0.00000000000E+00 0.  1.
         11    1    3    3    0    0  0.93444325007E+01 -0.66209388574E+01 -0.20399675815E+02  0.23394487037E+02  0.51100000000E-03 0. -1.
        -11    1    3    3    0    0  0.23507349398E+01 -0.84314585002E+01  0.13180176957E+00  0.87540173158E+01  0.51100000000E-03 0.  1.
        -12    1    3    3    0    0 -0.13902169715E+02  0.33464909588E+02  0.17662844334E+02  0.40313106634E+02  0.00000000000E+00 0.  1.
</event>
<event>
 7    1  0.3340676E-013  0.7246162E+02  0.7816164E-02  0.1226708E+00
        -11   -1    0    0    0    0  0.00000000000E+00  0.00000000000E+00  0.45593999997E+02  0.45594000000E+02  0.51100000000E-03 0.  1.
         11   -1    0    0    0    0 -0.00000000000E+00 -0.00000000000E+00 -0.45593999997E+02  0.45594000000E+02  0.51100000000E-03 0. -1.
    9900012    2    1    2    0    0 -0.15359949676E+02 -0.13588645196E+01 -0.10625574196E+02  0.72461617706E+02  0.70000061762E+02 0.  0.
        -12    1    1    2    0    0  0.15359949676E+02  0.13588645196E+01  0.10625574196E+02  0.18726382294E+02  0.00000000000E+00 0.  1.
         11    1    3    3    0    0 -0.32845403246E+01  0.74874011474E+01  0.52899757349E+01  0.97382351904E+01  0.51100000000E-03 0. -1.
        -11    1    3    3    0    0  0.22469850668E+01  0.23091232752E+02  0.22125856857E+01  0.23305568166E+02  0.51100000000E-03 0.  1.
         12    1    3    3    0    0 -0.14322394418E+02 -0.31937498419E+02 -0.18128135617E+02  0.39417814349E+02  0.00000000000E+00 0. -1.
</event>
<event>
 7    1  0.2851651E-013  0.7246156E+02  0.7816164E-02  0.1226708E+00
        -11   -1    0    0    0    0  0.00000000000E+00  0.00000000000E+00  0.45593999997E+02  0.45594000000E+02  0.51100000000E-03 0.  1.
         11   -1    0    0    0    0 -0.00000000000E+00 -0.00000000000E+00 -0.45593999997E+02  0.45594000000E+02  0.51100000000E-03 0. -1.
    9900012    2    1    2    0    0 -0.14104791003E+02 -0.12303981316E+02 -0.58869697874E+00  0.72461557476E+02  0.69999983302E+02 0.  0.
        -12    1    1    2    0    0  0.14104791003E+02  0.12303981316E+02  0.58869697874E+00  0.18726442524E+02  0.00000000000E+00 0.  1.
         11    1    3    3    0    0 -0.65455978146E+01  0.44377776933E+01  0.51505557698E-01  0.79083104826E+01  0.51100000000E-03 0. -1.
        -11    1    3    3    0    0 -0.27463131045E+02  0.83284582033E+01  0.10648951850E+02  0.30610242707E+02  0.51100000000E-03 0.  1.
        -12    1    3    3    0    0  0.19903937856E+02 -0.25070217212E+02 -0.11289154386E+02  0.33943004287E+02  0.00000000000E+00 0.  1.
</event>
<event>
 7    1  0.2851651E-013  0.7246152E+02  0.7816164E-02  0.1226708E+00
        -11   -1    0    0    0    0  0.00000000000E+00  0.00000000000E+00  0.45593999997E+02  0.45594000000E+02  0.51100000000E-03 0.  1.
         11   -1    0    0    0    0 -0.00000000000E+00 -0.00000000000E+00 -0.45593999997E+02  0.45594000000E+02  0.51100000000E-03 0. -1.
    9900012    2    1    2    0    0  0.12813128964E+02 -0.13655428563E+02  0.18487394074E+00  0.72461516575E+02  0.69999930020E+02 0.  0.
        -12    1    1    2    0    0 -0.12813128964E+02  0.13655428563E+02 -0.18487394074E+00  0.18726483425E+02  0.00000000000E+00 0.  1.
         11    1    3    3    0    0  0.37215106437E+01 -0.50920255354E+00 -0.38086052876E+01  0.53492432371E+01  0.51100000000E-03 0. -1.
        -11    1    3    3    0    0  0.33896107365E+02 -0.21661173047E+02  0.65755474023E+01  0.40760156234E+02  0.51100000000E-03 0.  1.
         12    1    3    3    0    0 -0.24804489045E+02  0.85149470373E+01 -0.25820681739E+01  0.26352117104E+02  0.00000000000E+00 0. -1.
</event>
<event>
 7    1  0.2851651E-013  0.7246160E+02  0.7816164E-02  0.1226708E+00
        -11   -1    0    0    0    0  0.00000000000E+00  0.00000000000E+00  0.45593999997E+02  0.45594000000E+02  0.51100000000E-03 0.  1.
         11   -1    0    0    0    0 -0.00000000000E+00 -0.00000000000E+00 -0.45593999997E+02  0.45594000000E+02  0.51100000000E-03 0. -1.
    9900012    2    1    2    0    0  0.84512118685E+01 -0.14551001994E+02 -0.82172628225E+01  0.72461600203E+02  0.70000038961E+02 0.  0.
        -12    1    1    2    0    0 -0.84512118685E+01  0.14551001994E+02  0.82172628225E+01  0.18726399797E+02  0.00000000000E+00 0.  1.
         11    1    3    3    0    0  0.16146729799E+02  0.98170815513E+01 -0.34843860968E+01  0.19215434424E+02  0.51100000000E-03 0. -1.
        -11    1    3    3    0    0 -0.89097545999E+01 -0.33616365633E+02  0.96611878324E+01  0.36094075913E+02  0.51100000000E-03 0.  1.
         12    1    3    3    0    0  0.12142366697E+01  0.92482820877E+01 -0.14394064558E+02  0.17152089866E+02  0.00000000000E+00 0. -1.
</event>
<event>
 7    1  0.2851651E-013  0.7246147E+02  0.7816164E-02  0.1226708E+00
        -11   -1    0    0    0    0  0.00000000000E+00  0.00000000000E+00  0.45593999997E+02  0.45594000000E+02  0.51100000000E-03 0.  1.
         11   -1    0    0    0    0 -0.00000000000E+00 -0.00000000000E+00 -0.45593999997E+02  0.45594000000E+02  0.51100000000E-03 0. -1.
    9900012    2    1    2    0    0  0.12162999788E+02 -0.38261893492E+01  0.13715129384E+02  0.72461466343E+02  0.69999864584E+02 0.  0.
        -12    1    1    2    0    0 -0.12162999788E+02  0.38261893492E+01 -0.13715129384E+02  0.18726533657E+02  0.00000000000E+00 0.  1.
         11    1    3    3    0    0 -0.91625600291E+01 -0.13535138334E+02  0.35445553245E+01  0.16724722680E+02  0.51100000000E-03 0. -1.
        -11    1    3    3    0    0  0.53845656972E+01 -0.16702924347E+02 -0.86851749496E+01  0.19580947211E+02  0.51100000000E-03 0.  1.
        -12    1    3    3    0    0  0.15940994120E+02  0.26411873332E+02  0.18855749009E+02  0.36155796453E+02  0.00000000000E+00 0.  1.
</event>
<event>
 7    1  0.2851651E-013  0.7246157E+02  0.7816164E-02  0.1226708E+00
        -11   -1    0    0    0    0  0.00000000000E+00  0.00000000000E+00  0.45593999997E+02  0.45594000000E+02  0.51100000000E-03 0.  1.
         11   -1    0    0    0    0 -0.00000000000E+00 -0.00000000000E+00 -0.45593999997E+02  0.45594000000E+02  0.51100000000E-03 0. -1.
    9900012    2    1    2    0    0  0.15580346905E+02 -0.49647681937E+01 -0.91259489352E+01  0.72461572769E+02  0.70000003223E+02 0.  0.
        -12    1    1    2    0    0 -0.15580346905E+02  0.49647681937E+01  0.91259489352E+01  0.18726427231E+02  0.00000000000E+00 0.  1.
         11    1    3    3    0    0  0.39304470657E+02 -0.21497512851E+01 -0.11095172437E+02  0.40897013288E+02  0.51100000000E-03 0. -1.
        -11    1    3    3    0    0 -0.78874560437E+01  0.68414366838E+01  0.67207173792E+01  0.12417135785E+02  0.51100000000E-03 0.  1.
        -12    1    3    3    0    0 -0.15836667709E+02 -0.96564535924E+01 -0.47514938775E+01  0.19147423696E+02  0.00000000000E+00 0.  1.
</event>
<event>
 7    1  0.2851651E-013  0.7246154E+02  0.7816164E-02  0.1226708E+00
        -11   -1    0    0    0    0  0.00000000000E+00  0.00000000000E+00  0.45593999997E+02  0.45594000000E+02  0.51100000000E-03 0. -1.
         11   -1    0    0    0    0 -0.00000000000E+00 -0.00000000000E+00 -0.45593999997E+02  0.45594000000E+02  0.51100000000E-03 0.  1.
    9900012    2    1    2    0    0 -0.86863299169E+00  0.18360996704E+02 -0.35776300347E+01  0.72461543851E+02  0.69999965553E+02 0.  0.
        -12    1    1    2    0    0  0.86863299169E+00 -0.18360996704E+02  0.35776300347E+01  0.18726456149E+02  0.00000000000E+00 0.  1.
         11    1    3    3    0    0 -0.27805320461E+02  0.49046908929E+01  0.49450452423E+01  0.28664356113E+02  0.51100000000E-03 0. -1.
        -11    1    3    3    0    0 -0.66111073263E+01  0.40307236342E+01  0.62979782064E+00  0.77685338804E+01  0.51100000000E-03 0.  1.
        -12    1    3    3    0    0  0.33547794795E+02  0.94255821768E+01 -0.91524730976E+01  0.36028653858E+02  0.00000000000E+00 0.  1.
</event>
<event>
 7    1  0.2851651E-013  0.7246120E+02  0.7816164E-02  0.1226709E+00
        -11   -1    0    0    0    0  0.00000000000E+00  0.00000000000E+00  0.45593999997E+02  0.45594000000E+02  0.51100000000E-03 0. -1.
         11   -1    0    0    0    0 -0.00000000000E+00 -0.00000000000E+00 -0.45593999997E+02  0.45594000000E+02  0.51100000000E-03 0.  1.
    9900012    2    1    2    0    0 -0.17984601114E+02 -0.15348767758E+01  0.49891339539E+01  0.72461196174E+02  0.69999512637E+02 0.  0.
        -12    1    1    2    0    0  0.17984601114E+02  0.15348767758E+01 -0.49891339539E+01  0.18726803826E+02  0.00000000000E+00 0.  1.
         11    1    3    3    0    0 -0.60794149727E+00 -0.63630420968E+01  0.20654683403E+02  0.21621143456E+02  0.51100000000E-03 0. -1.
        -11    1    3    3    0    0  0.85061077692E+01 -0.10864167972E+02  0.44493004809E+01  0.14497596012E+02  0.51100000000E-03 0.  1.
         12    1    3    3    0    0 -0.25882767386E+02  0.15692333293E+02 -0.20114849930E+02  0.36342456706E+02  0.00000000000E+00 0. -1.
</event>
<event>
 7    1  0.2851651E-013  0.7246156E+02  0.7816164E-02  0.1226708E+00
        -11   -1    0    0    0    0  0.00000000000E+00  0.00000000000E+00  0.45593999997E+02  0.45594000000E+02  0.51100000000E-03 0.  1.
         11   -1    0    0    0    0 -0.00000000000E+00 -0.00000000000E+00 -0.45593999997E+02  0.45594000000E+02  0.51100000000E-03 0. -1.
    9900012    2    1    2    0    0 -0.74205041948E+01 -0.15681286478E+02 -0.70507485687E+01  0.72461556572E+02  0.69999982124E+02 0.  0.
        -12    1    1    2    0    0  0.74205041948E+01  0.15681286478E+02  0.70507485687E+01  0.18726443428E+02  0.00000000000E+00 0.  1.
         11    1    3    3    0    0  0.20136949118E+02 -0.13982973140E+02 -0.84423288910E+01  0.25928616913E+02  0.51100000000E-03 0. -1.
        -11    1    3    3    0    0 -0.14992962392E+02 -0.19171954238E+02  0.46118649672E+01  0.24771395789E+02  0.51100000000E-03 0.  1.
         12    1    3    3    0    0 -0.12564490921E+02  0.17473640900E+02 -0.32202846449E+01  0.21761543870E+02  0.00000000000E+00 0. -1.
</event>
<event>
 7    1  0.2851651E-013  0.7246157E+02  0.7816164E-02  0.1226708E+00
        -11   -1    0    0    0    0  0.00000000000E+00  0.00000000000E+00  0.45593999997E+02  0.45594000000E+02  0.51100000000E-03 0.  1.
         11   -1    0    0    0    0 -0.00000000000E+00 -0.00000000000E+00 -0.45593999997E+02  0.45594000000E+02  0.51100000000E-03 0. -1.
    9900012    2    1    2    0    0 -0.12392575055E+02 -0.10780427725E+02  0.89936367906E+01  0.72461573722E+02  0.70000004465E+02 0.  0.
        -12    1    1    2    0    0  0.12392575055E+02  0.10780427725E+02 -0.89936367906E+01  0.18726426278E+02  0.00000000000E+00 0.  1.
         11    1    3    3    0    0  0.18717701863E+01 -0.98045266769E+01 -0.20693826133E+02  0.22975349993E+02  0.51100000000E-03 0. -1.
        -11    1    3    3    0    0 -0.20945951586E+01 -0.15014832118E+01 -0.87725638884E+01  0.91432848665E+01  0.51100000000E-03 0.  1.
        -12    1    3    3    0    0 -0.12169750082E+02  0.52558216354E+00  0.38460026812E+02  0.40342938863E+02  0.00000000000E+00 0.  1.
</event>
<event>
 7    1  0.2851651E-013  0.7246156E+02  0.7816164E-02  0.1226708E+00
        -11   -1    0    0    0    0  0.00000000000E+00  0.00000000000E+00  0.45593999997E+02  0.45594000000E+02  0.51100000000E-03 0. -1.
         11   -1    0    0    0    0 -0.00000000000E+00 -0.00000000000E+00 -0.45593999997E+02  0.45594000000E+02  0.51100000000E-03 0.  1.
    9900012    2    1    2    0    0 -0.91182946975E+01  0.58510066181E+01  0.15274227798E+02  0.72461558494E+02  0.69999984628E+02 0.  0.
        -12    1    1    2    0    0  0.91182946975E+01 -0.58510066181E+01 -0.15274227798E+02  0.18726441506E+02  0.00000000000E+00 0.  1.
         11    1    3    3    0    0 -0.67346477755E+00 -0.28553961153E+01  0.33951757566E+02  0.34078272901E+02  0.51100000000E-03 0. -1.
        -11    1    3    3    0    0  0.18540609081E+01 -0.10538534320E+02 -0.10731234523E+02  0.15154459480E+02  0.51100000000E-03 0.  1.
        -12    1    3    3    0    0 -0.10298890828E+02  0.19244937054E+02 -0.79462952447E+01  0.23228826114E+02  0.00000000000E+00 0.  1.
</event>
<event>
 7    1  0.2851651E-013  0.7246168E+02  0.7816164E-02  0.1226708E+00
        -11   -1    0    0    0    0  0.00000000000E+00  0.00000000000E+00  0.45593999997E+02  0.45594000000E+02  0.51100000000E-03 0.  1.
         11   -1    0    0    0    0 -0.00000000000E+00 -0.00000000000E+00 -0.45593999997E+02  0.45594000000E+02  0.51100000000E-03 0. -1.
    9900012    2    1    2    0    0  0.78816760253E+01  0.13026606850E+02 -0.10902370272E+02  0.72461682141E+02  0.70000145701E+02 0.  0.
        -12    1    1    2    0    0 -0.78816760253E+01 -0.13026606850E+02  0.10902370272E+02  0.18726317859E+02  0.00000000000E+00 0.  1.
         11    1    3    3    0    0  0.17111048465E+02  0.93192977459E+01  0.14988922500E+02  0.24582617599E+02  0.51100000000E-03 0. -1.
        -11    1    3    3    0    0  0.15323659001E+02  0.34063986988E+01 -0.93276256243E+01  0.18259865206E+02  0.51100000000E-03 0.  1.
         12    1    3    3    0    0 -0.24553031440E+02  0.30091040565E+00 -0.16563667148E+02  0.29619199337E+02  0.00000000000E+00 0. -1.
</event>
<event>
 7    1  0.2851651E-013  0.7246152E+02  0.7816164E-02  0.1226708E+00
        -11   -1    0    0    0    0  0.00000000000E+00  0.00000000000E+00  0.45593999997E+02  0.45594000000E+02  0.51100000000E-03 0. -1.
         11   -1    0    0    0    0 -0.00000000000E+00 -0.00000000000E+00 -0.45593999997E+02  0.45594000000E+02  0.51100000000E-03 0.  1.
    9900012    2    1    2    0    0 -0.95771818562E+01 -0.77462040616E+01  0.14105138692E+02  0.72461520694E+02  0.69999935387E+02 0.  0.
        -12    1    1    2    0    0  0.95771818562E+01  0.77462040616E+01 -0.14105138692E+02  0.18726479306E+02  0.00000000000E+00 0.  1.
         11    1    3    3    0    0 -0.44783783133E+01  0.15201623399E+01  0.11145189807E+02  0.12107106259E+02  0.51100000000E-03 0. -1.
        -11    1    3    3    0    0  0.20415686734E+02  0.86460523040E+01  0.15180720714E+02  0.26870220820E+02  0.51100000000E-03 0.  1.
         12    1    3    3    0    0 -0.25514490277E+02 -0.17912418705E+02 -0.12220771830E+02  0.33484193616E+02  0.00000000000E+00 0. -1.
</event>
<event>
 7    1  0.2851651E-013  0.7246154E+02  0.7816164E-02  0.1226708E+00
        -11   -1    0    0    0    0  0.00000000000E+00  0.00000000000E+00  0.45593999997E+02  0.45594000000E+02  0.51100000000E-03 0.  1.
         11   -1    0    0    0    0 -0.00000000000E+00 -0.00000000000E+00 -0.45593999997E+02  0.45594000000E+02  0.51100000000E-03 0. -1.
    9900012    2    1    2    0    0 -0.42009547086E+01 -0.11788123028E+02 -0.13930984809E+02  0.72461542707E+02  0.69999964063E+02 0.  0.
        -12    1    1    2    0    0  0.42009547086E+01  0.11788123028E+02  0.13930984809E+02  0.18726457293E+02  0.00000000000E+00 0.  1.
         11    1    3    3    0    0  0.79210461918E+01 -0.10801648881E+01 -0.22145632851E+02  0.23544400259E+02  0.51100000000E-03 0. -1.
        -11    1    3    3    0    0  0.77776066972E+01  0.11375041549E+02  0.12838057278E+02  0.18833439704E+02  0.51100000000E-03 0.  1.
         12    1    3    3    0    0 -0.19899607598E+02 -0.22082999689E+02 -0.46234092358E+01  0.30083702744E+02  0.00000000000E+00 0. -1.
</event>
<event>
 7    1  0.2851651E-013  0.7246160E+02  0.7816164E-02  0.1226708E+00
        -11   -1    0    0    0    0  0.00000000000E+00  0.00000000000E+00  0.45593999997E+02  0.45594000000E+02  0.51100000000E-03 0. -1.
         11   -1    0    0    0    0 -0.00000000000E+00 -0.00000000000E+00 -0.45593999997E+02  0.45594000000E+02  0.51100000000E-03 0.  1.
    9900012    2    1    2    0    0 -0.91473277533E+01  0.78897044735E+00  0.16321212513E+02  0.72461599991E+02  0.70000038686E+02 0.  0.
        -12    1    1    2    0    0  0.91473277533E+01 -0.78897044735E+00 -0.16321212513E+02  0.18726400009E+02  0.00000000000E+00 0.  1.
         11    1    3    3    0    0  0.25857182003E+01 -0.13474755686E+01 -0.40374840840E+01  0.49802517014E+01  0.51100000000E-03 0. -1.
        -11    1    3    3    0    0 -0.99944025048E+01 -0.27707525755E+02 -0.29100501568E+01  0.29598369162E+02  0.51100000000E-03 0.  1.
         12    1    3    3    0    0 -0.17386434488E+01  0.29843971771E+02  0.23268746754E+02  0.37882979128E+02  0.00000000000E+00 0. -1.
</event>
<event>
 7    1  0.2851651E-013  0.7246169E+02  0.7816164E-02  0.1226708E+00
        -11   -1    0    0    0    0  0.00000000000E+00  0.00000000000E+00  0.45593999997E+02  0.45594000000E+02  0.51100000000E-03 0.  1.
         11   -1    0    0    0    0 -0.00000000000E+00 -0.00000000000E+00 -0.45593999997E+02  0.45594000000E+02  0.51100000000E-03 0. -1.
    9900012    2    1    2    0    0 -0.10885928656E+02 -0.68085048623E+01 -0.13631419220E+02  0.72461687733E+02  0.70000152986E+02 0.  0.
        -12    1    1    2    0    0  0.10885928656E+02  0.68085048623E+01  0.13631419220E+02  0.18726312267E+02  0.00000000000E+00 0.  1.
         11    1    3    3    0    0  0.15799285113E+02 -0.17578444777E+02  0.26964960493E+01  0.23788447239E+02  0.51100000000E-03 0. -1.
        -11    1    3    3    0    0  0.41511798416E+01 -0.34718014623E+01  0.59577264266E+01  0.80486150303E+01  0.51100000000E-03 0.  1.
        -12    1    3    3    0    0 -0.30836393610E+02  0.14241741377E+02 -0.22285641696E+02  0.40624625464E+02  0.00000000000E+00 0.  1.
</event>
<event>
 7    1  0.2851651E-013  0.7246154E+02  0.7816164E-02  0.1226708E+00
        -11   -1    0    0    0    0  0.00000000000E+00  0.00000000000E+00  0.45593999997E+02  0.45594000000E+02  0.51100000000E-03 0. -1.
         11   -1    0    0    0    0 -0.00000000000E+00 -0.00000000000E+00 -0.45593999997E+02  0.45594000000E+02  0.51100000000E-03 0.  1.
    9900012    2    1    2    0    0 -0.11199738242E+02 -0.14177550421E+02  0.49237265298E+01  0.72461543967E+02  0.69999965703E+02 0.  0.
        -12    1    1    2    0    0  0.11199738242E+02  0.14177550421E+02 -0.49237265298E+01  0.18726456033E+02  0.00000000000E+00 0.  1.
         11    1    3    3    0    0 -0.10886750821E+02 -0.51736228961E+01  0.23586381661E+00  0.12055842953E+02  0.51100000000E-03 0. -1.
        -11    1    3    3    0    0 -0.29743551449E+02 -0.14223690516E+01  0.36053999363E+01  0.29995014510E+02  0.51100000000E-03 0.  1.
         12    1    3    3    0    0  0.29430564029E+02 -0.75815584735E+01  0.10824627769E+01  0.30410686503E+02  0.00000000000E+00 0. -1.
</event>
<event>
 7    1  0.2851651E-013  0.7246160E+02  0.7816164E-02  0.1226708E+00
        -11   -1    0    0    0    0  0.00000000000E+00  0.00000000000E+00  0.45593999997E+02  0.45594000000E+02  0.51100000000E-03 0. -1.
         11   -1    0    0    0    0 -0.00000000000E+00 -0.00000000000E+00 -0.45593999997E+02  0.45594000000E+02  0.51100000000E-03 0.  1.
    9900012    2    1    2    0    0 -0.39018144282E+01 -0.39422870487E+00  0.18311157484E+02  0.72461599905E+02  0.70000038574E+02 0.  0.
        -12    1    1    2    0    0  0.39018144282E+01  0.39422870487E+00 -0.18311157484E+02  0.18726400095E+02  0.00000000000E+00 0.  1.
         11    1    3    3    0    0 -0.12709946692E+02  0.50231360149E+01  0.33475567965E+02  0.36157824757E+02  0.51100000000E-03 0. -1.
        -11    1    3    3    0    0  0.10323387446E+02 -0.25273867157E+01  0.77527774665E+01  0.13155438825E+02  0.51100000000E-03 0.  1.
        -12    1    3    3    0    0 -0.15152551815E+01 -0.28899780041E+01 -0.22917187947E+02  0.23148336323E+02  0.00000000000E+00 0.  1.
</event>
<event>
 7    1  0.2851651E-013  0.7246115E+02  0.7816164E-02  0.1226709E+00
        -11   -1    0    0    0    0  0.00000000000E+00  0.00000000000E+00  0.45593999997E+02  0.45594000000E+02  0.51100000000E-03 0. -1.
         11   -1    0    0    0    0 -0.00000000000E+00 -0.00000000000E+00 -0.45593999997E+02  0.45594000000E+02  0.51100000000E-03 0.  1.
    9900012    2    1    2    0    0  0.14668272476E+02  0.94045103138E+01  0.68623434419E+01  0.72461153251E+02  0.69999456721E+02 0.  0.
        -12    1    1    2    0    0 -0.14668272476E+02 -0.94045103138E+01 -0.68623434419E+01  0.18726846749E+02  0.00000000000E+00 0.  1.
         11    1    3    3    0    0  0.28217921345E+02  0.10454472208E+01  0.16891060655E+02  0.32903677230E+02  0.51100000000E-03 0. -1.
        -11    1    3    3    0    0  0.36014151814E+01  0.13496086699E+02  0.63022561791E+01  0.15324261179E+02  0.51100000000E-03 0.  1.
        -12    1    3    3    0    0 -0.17151064051E+02 -0.51370236056E+01 -0.16330973392E+02  0.24233214841E+02  0.00000000000E+00 0.  1.
</event>
<event>
 7    1  0.2851651E-013  0.7246155E+02  0.7816164E-02  0.1226708E+00
        -11   -1    0    0    0    0  0.00000000000E+00  0.00000000000E+00  0.45593999997E+02  0.45594000000E+02  0.51100000000E-03 0.  1.
         11   -1    0    0    0    0 -0.00000000000E+00 -0.00000000000E+00 -0.45593999997E+02  0.45594000000E+02  0.51100000000E-03 0. -1.
    9900012    2    1    2    0    0  0.13843395494E+02 -0.68782404803E+01 -0.10570245267E+02  0.72461551433E+02  0.69999975430E+02 0.  0.
        -12    1    1    2    0    0 -0.13843395494E+02  0.68782404803E+01  0.10570245267E+02  0.18726448567E+02  0.00000000000E+00 0.  1.
         11    1    3    3    0    0 -0.92741863973E+00 -0.24828828408E+02 -0.85606068321E+01  0.26279551271E+02  0.51100000000E-03 0. -1.
        -11    1    3    3    0    0 -0.13641683445E+02  0.89974063563E+01 -0.33081568143E+00  0.16344977443E+02  0.51100000000E-03 0.  1.
        -12    1    3    3    0    0  0.28412497579E+02  0.89531815710E+01 -0.16788227535E+01  0.29837022719E+02  0.00000000000E+00 0.  1.
</event>
<event>
 7    1  0.2851651E-013  0.7246159E+02  0.7816164E-02  0.1226708E+00
        -11   -1    0    0    0    0  0.00000000000E+00  0.00000000000E+00  0.45593999997E+02  0.45594000000E+02  0.51100000000E-03 0. -1.
         11   -1    0    0    0    0 -0.00000000000E+00 -0.00000000000E+00 -0.45593999997E+02  0.45594000000E+02  0.51100000000E-03 0.  1.
    9900012    2    1    2    0    0  0.83887314400E+01  0.11405657065E+02  0.12256366140E+02  0.72461592463E+02  0.70000028879E+02 0.  0.
        -12    1    1    2    0    0 -0.83887314400E+01 -0.11405657065E+02 -0.12256366140E+02  0.18726407537E+02  0.00000000000E+00 0.  1.
         11    1    3    3    0    0 -0.52726908041E+01  0.26495423687E+02  0.82900549695E+01  0.28258339589E+02  0.51100000000E-03 0. -1.
        -11    1    3    3    0    0 -0.55032678399E+01  0.99738769212E+01  0.54275499038E+01  0.12618338875E+02  0.51100000000E-03 0.  1.
        -12    1    3    3    0    0  0.19164690084E+02 -0.25063643543E+02 -0.14612387330E+01  0.31584913999E+02  0.00000000000E+00 0.  1.
</event>
<event>
 7    1  0.2851651E-013  0.7246156E+02  0.7816164E-02  0.1226708E+00
        -11   -1    0    0    0    0  0.00000000000E+00  0.00000000000E+00  0.45593999997E+02  0.45594000000E+02  0.51100000000E-03 0. -1.
         11   -1    0    0    0    0 -0.00000000000E+00 -0.00000000000E+00 -0.45593999997E+02  0.45594000000E+02  0.51100000000E-03 0.  1.
    9900012    2    1    2    0    0  0.11697538954E+02  0.28801698242E+01  0.14337078119E+02  0.72461558673E+02  0.69999984861E+02 0.  0.
        -12    1    1    2    0    0 -0.11697538954E+02 -0.28801698242E+01 -0.14337078119E+02  0.18726441327E+02  0.00000000000E+00 0.  1.
         11    1    3    3    0    0 -0.46698844902E+01  0.19447843903E+02  0.31978130364E+02  0.37717731579E+02  0.51100000000E-03 0. -1.
        -11    1    3    3    0    0 -0.26257957639E+01  0.30617255382E+00  0.14027293138E+01  0.29926902304E+01  0.51100000000E-03 0.  1.
        -12    1    3    3    0    0  0.18993219208E+02 -0.16873846632E+02 -0.19043781559E+02  0.31751136864E+02  0.00000000000E+00 0.  1.
</event>
<event>
 7    1  0.2851651E-013  0.7246157E+02  0.7816164E-02  0.1226708E+00
        -11   -1    0    0    0    0  0.00000000000E+00  0.00000000000E+00  0.45593999997E+02  0.45594000000E+02  0.51100000000E-03 0. -1.
         11   -1    0    0    0    0 -0.00000000000E+00 -0.00000000000E+00 -0.45593999997E+02  0.45594000000E+02  0.51100000000E-03 0.  1.
    9900012    2    1    2    0    0  0.14882713740E+02 -0.95205610899E+01  0.62082864487E+01  0.72461572889E+02  0.70000003379E+02 0.  0.
        -12    1    1    2    0    0 -0.14882713740E+02  0.95205610899E+01 -0.62082864487E+01  0.18726427111E+02  0.00000000000E+00 0.  1.
         11    1    3    3    0    0 -0.55694801662E+01 -0.22590076316E+01  0.18723489816E+01  0.62950707519E+01  0.51100000000E-03 0. -1.
        -11    1    3    3    0    0  0.22007899581E+02  0.11247883098E+02 -0.22570882599E+02  0.33470991316E+02  0.51100000000E-03 0.  1.
         12    1    3    3    0    0 -0.15557056751E+01 -0.18509436556E+02  0.26906820066E+02  0.32695510820E+02  0.00000000000E+00 0. -1.
</event>
<event>
 7    1  0.2851651E-013  0.7246157E+02  0.7816164E-02  0.1226708E+00
        -11   -1    0    0    0    0  0.00000000000E+00  0.00000000000E+00  0.45593999997E+02  0.45594000000E+02  0.51100000000E-03 0.  1.
         11   -1    0    0    0    0 -0.00000000000E+00 -0.00000000000E+00 -0.45593999997E+02  0.45594000000E+02  0.51100000000E-03 0. -1.
    9900012    2    1    2    0    0  0.18232199517E+02 -0.40702631553E+01  0.13034312689E+01  0.72461572832E+02  0.70000003306E+02 0.  0.
        -12    1    1    2    0    0 -0.18232199517E+02  0.40702631553E+01 -0.13034312689E+01  0.18726427168E+02  0.00000000000E+00 0.  1.
         11    1    3    3    0    0  0.39334982480E+02 -0.38435275143E+01  0.12404400179E+02  0.41423214439E+02  0.51100000000E-03 0. -1.
        -11    1    3    3    0    0  0.31921720122E+01  0.30573305332E+01 -0.23608524696E+01  0.50110734168E+01  0.51100000000E-03 0.  1.
        -12    1    3    3    0    0 -0.24294954974E+02 -0.32840661742E+01 -0.87401164404E+01  0.26027284976E+02  0.00000000000E+00 0.  1.
</event>
<event>
 7    1  0.2851651E-013  0.7246156E+02  0.7816164E-02  0.1226708E+00
        -11   -1    0    0    0    0  0.00000000000E+00  0.00000000000E+00  0.45593999997E+02  0.45594000000E+02  0.51100000000E-03 0.  1.
         11   -1    0    0    0    0 -0.00000000000E+00 -0.00000000000E+00 -0.45593999997E+02  0.45594000000E+02  0.51100000000E-03 0. -1.
    9900012    2    1    2    0    0 -0.12078553308E+02 -0.13711613616E+02 -0.40962983390E+01  0.72461562590E+02  0.69999989964E+02 0.  0.
        -12    1    1    2    0    0  0.12078553308E+02  0.13711613616E+02  0.40962983390E+01  0.18726437410E+02  0.00000000000E+00 0.  1.
         11    1    3    3    0    0 -0.42039916130E+01  0.28068153709E+01  0.91986412696E+01  0.10496035417E+02  0.51100000000E-03 0. -1.
        -11    1    3    3    0    0  0.11351683457E+02 -0.32082917526E+02 -0.32199622210E+00  0.34033483456E+02  0.51100000000E-03 0.  1.
         12    1    3    3    0    0 -0.19226245152E+02  0.15564488539E+02 -0.12972943386E+02  0.27932043717E+02  0.00000000000E+00 0. -1.
</event>
<event>
 7    1  0.2851651E-013  0.7246156E+02  0.7816164E-02  0.1226708E+00
        -11   -1    0    0    0    0  0.00000000000E+00  0.00000000000E+00  0.45593999997E+02  0.45594000000E+02  0.51100000000E-03 0.  1.
         11   -1    0    0    0    0 -0.00000000000E+00 -0.00000000000E+00 -0.45593999997E+02  0.45594000000E+02  0.51100000000E-03 0. -1.
    9900012    2    1    2    0    0  0.72505933135E+01  0.58952586123E+01 -0.16228192732E+02  0.72461563691E+02  0.69999991397E+02 0.  0.
        -12    1    1    2    0    0 -0.72505933135E+01 -0.58952586123E+01  0.16228192732E+02  0.18726436309E+02  0.00000000000E+00 0.  1.
         11    1    3    3    0    0 -0.20174519051E+02 -0.11693565028E+01 -0.12735605094E+02  0.23886696108E+02  0.51100000000E-03 0. -1.
        -11    1    3    3    0    0  0.54635404757E+01  0.21445323380E+02 -0.28776915021E+01  0.22316659204E+02  0.51100000000E-03 0.  1.
        -12    1    3    3    0    0  0.21961571889E+02 -0.14380708265E+02 -0.61489613574E+00  0.26258208379E+02  0.00000000000E+00 0.  1.
</event>
<event>
 7    1  0.2851651E-013  0.7246172E+02  0.7816164E-02  0.1226708E+00
        -11   -1    0    0    0    0  0.00000000000E+00  0.00000000000E+00  0.45593999997E+02  0.45594000000E+02  0.51100000000E-03 0. -1.
         11   -1    0    0    0    0 -0.00000000000E+00 -0.00000000000E+00 -0.45593999997E+02  0.45594000000E+02  0.51100000000E-03 0.  1.
    9900012    2    1    2    0    0 -0.97464863970E+01  0.15081054987E+02 -0.53142613519E+01  0.72461719261E+02  0.70000194056E+02 0.  0.
        -12    1    1    2    0    0  0.97464863970E+01 -0.15081054987E+02  0.53142613519E+01  0.18726280739E+02  0.00000000000E+00 0.  1.
         11    1    3    3    0    0  0.68986272570E+01 -0.67392270798E+01 -0.55171053230E+01  0.11110656644E+02  0.51100000000E-03 0. -1.
        -11    1    3    3    0    0 -0.12058551179E+02 -0.10478679809E+02 -0.17940423291E+02  0.24022284970E+02  0.51100000000E-03 0.  1.
        -12    1    3    3    0    0 -0.45865624753E+01  0.32298961876E+02  0.18143267262E+02  0.37328777646E+02  0.00000000000E+00 0.  1.
</event>
<event>
 7    1  0.2851651E-013  0.7246156E+02  0.7816164E-02  0.1226708E+00
        -11   -1    0    0    0    0  0.00000000000E+00  0.00000000000E+00  0.45593999997E+02  0.45594000000E+02  0.51100000000E-03 0. -1.
         11   -1    0    0    0    0 -0.00000000000E+00 -0.00000000000E+00 -0.45593999997E+02  0.45594000000E+02  0.51100000000E-03 0.  1.
    9900012    2    1    2    0    0 -0.60333799138E+01 -0.15264361560E+02  0.90153904585E+01  0.72461556875E+02  0.69999982518E+02 0.  0.
        -12    1    1    2    0    0  0.60333799138E+01  0.15264361560E+02 -0.90153904585E+01  0.18726443125E+02  0.00000000000E+00 0.  1.
         11    1    3    3    0    0 -0.11250740753E+02 -0.19815817868E+02  0.11616917748E+02  0.25577306026E+02  0.51100000000E-03 0. -1.
        -11    1    3    3    0    0  0.32400521065E+01  0.21332575856E+02  0.11879092927E+02  0.24631069391E+02  0.51100000000E-03 0.  1.
         12    1    3    3    0    0  0.19773087329E+01 -0.16781119548E+02 -0.14480620217E+02  0.22253181458E+02  0.00000000000E+00 0. -1.
</event>
<event>
 7    1  0.2851651E-013  0.7246157E+02  0.7816164E-02  0.1226708E+00
        -11   -1    0    0    0    0  0.00000000000E+00  0.00000000000E+00  0.45593999997E+02  0.45594000000E+02  0.51100000000E-03 0.  1.
         11   -1    0    0    0    0 -0.00000000000E+00 -0.00000000000E+00 -0.45593999997E+02  0.45594000000E+02  0.51100000000E-03 0. -1.
    9900012    2    1    2    0    0  0.58963173585E+01 -0.16561950099E+02 -0.64509386840E+01  0.72461565225E+02  0.69999993396E+02 0.  0.
        -12    1    1    2    0    0 -0.58963173585E+01  0.16561950099E+02  0.64509386840E+01  0.18726434775E+02  0.00000000000E+00 0.  1.
         11    1    3    3    0    0  0.21779804837E+01 -0.30812772298E+01  0.29771383505E+01  0.48063729957E+01  0.51100000000E-03 0. -1.
        -11    1    3    3    0    0 -0.20817454844E+01  0.21629499236E+02  0.13256382064E+02  0.25453891002E+02  0.51100000000E-03 0.  1.
         12    1    3    3    0    0  0.58000823591E+01 -0.35110172105E+02 -0.22684459099E+02  0.42201301227E+02  0.00000000000E+00 0. -1.
</event>
<event>
 7    1  0.2851651E-013  0.7246155E+02  0.7816164E-02  0.1226708E+00
        -11   -1    0    0    0    0  0.00000000000E+00  0.00000000000E+00  0.45593999997E+02  0.45594000000E+02  0.51100000000E-03 0.  1.
         11   -1    0    0    0    0 -0.00000000000E+00 -0.00000000000E+00 -0.45593999997E+02  0.45594000000E+02  0.51100000000E-03 0. -1.
    9900012    2    1    2    0    0  0.37670134983E+01  0.12335680401E+02 -0.13576474351E+02  0.72461546586E+02  0.69999969115E+02 0.  0.
        -12    1    1    2    0    0 -0.37670134983E+01 -0.12335680401E+02  0.13576474351E+02  0.18726453414E+02  0.00000000000E+00 0.  1.
         11    1    3    3    0    0 -0.18013901341E+02  0.18553696614E+02 -0.20121978527E+02  0.32766359573E+02  0.51100000000E-03 0. -1.
        -11    1    3    3    0    0  0.13956395608E+02  0.11744514820E+02  0.82680584943E+01  0.20026866911E+02  0.51100000000E-03 0.  1.
        -12    1    3    3    0    0  0.78245192305E+01 -0.17962531032E+02 -0.17225543183E+01  0.19668320102E+02  0.00000000000E+00 0.  1.
</event>
<event>
 7    1  0.2851651E-013  0.7246153E+02  0.7816164E-02  0.1226708E+00
        -11   -1    0    0    0    0  0.00000000000E+00  0.00000000000E+00  0.45593999997E+02  0.45594000000E+02  0.51100000000E-03 0.  1.
         11   -1    0    0    0    0 -0.00000000000E+00 -0.00000000000E+00 -0.45593999997E+02  0.45594000000E+02  0.51100000000E-03 0. -1.
    9900012    2    1    2    0    0  0.14378095458E+02  0.11997957615E+02 -0.23646761731E-02  0.72461531526E+02  0.69999949497E+02 0.  0.
        -12    1    1    2    0    0 -0.14378095458E+02 -0.11997957615E+02  0.23646761731E-02  0.18726468474E+02  0.00000000000E+00 0.  1.
         11    1    3    3    0    0  0.14756483172E+02 -0.17849066830E+02 -0.26324951103E+01  0.23308217716E+02  0.51100000000E-03 0. -1.
        -11    1    3    3    0    0 -0.15783060934E+02  0.10852794964E+02 -0.10022869400E+02  0.21618188690E+02  0.51100000000E-03 0.  1.
        -12    1    3    3    0    0  0.15404673220E+02  0.18994229481E+02  0.12652999834E+02  0.27535125120E+02  0.00000000000E+00 0.  1.
</event>
<event>
 7    1  0.2851651E-013  0.7246161E+02  0.7816164E-02  0.1226708E+00
        -11   -1    0    0    0    0  0.00000000000E+00  0.00000000000E+00  0.45593999997E+02  0.45594000000E+02  0.51100000000E-03 0.  1.
         11   -1    0    0    0    0 -0.00000000000E+00 -0.00000000000E+00 -0.45593999997E+02  0.45594000000E+02  0.51100000000E-03 0. -1.
    9900012    2    1    2    0    0  0.76426041634E+01  0.62257840913E+01 -0.15921928913E+02  0.72461612034E+02  0.70000054373E+02 0.  0.
        -12    1    1    2    0    0 -0.76426041634E+01 -0.62257840913E+01  0.15921928913E+02  0.18726387966E+02  0.00000000000E+00 0.  1.
         11    1    3    3    0    0 -0.10098204084E+02 -0.90173937664E+01 -0.12036771293E+02  0.18115490043E+02  0.51100000000E-03 0. -1.
        -11    1    3    3    0    0 -0.48290126850E+01 -0.53180345810E+01  0.16254229698E+02  0.17770786101E+02  0.51100000000E-03 0.  1.
         12    1    3    3    0    0  0.22569820933E+02  0.20561212439E+02 -0.20139387318E+02  0.36575335890E+02  0.00000000000E+00 0. -1.
</event>
<event>
 7    1  0.2851651E-013  0.7246160E+02  0.7816164E-02  0.1226708E+00
        -11   -1    0    0    0    0  0.00000000000E+00  0.00000000000E+00  0.45593999997E+02  0.45594000000E+02  0.51100000000E-03 0.  1.
         11   -1    0    0    0    0 -0.00000000000E+00 -0.00000000000E+00 -0.45593999997E+02  0.45594000000E+02  0.51100000000E-03 0. -1.
    9900012    2    1    2    0    0  0.28991377651E+01  0.83166173447E+01 -0.16525945436E+02  0.72461601617E+02  0.70000040804E+02 0.  0.
        -12    1    1    2    0    0 -0.28991377651E+01 -0.83166173447E+01  0.16525945436E+02  0.18726398383E+02  0.00000000000E+00 0.  1.
         11    1    3    3    0    0 -0.27366423092E+02  0.11009790461E+02  0.41314014393E+01  0.29785987930E+02  0.51100000000E-03 0. -1.
        -11    1    3    3    0    0 -0.17612884490E+01  0.94251454059E+00 -0.76684593427E+01  0.79243762916E+01  0.51100000000E-03 0.  1.
        -12    1    3    3    0    0  0.32026849306E+02 -0.36356876573E+01 -0.12988887532E+02  0.34751237396E+02  0.00000000000E+00 0.  1.
</event>
<event>
 7    1  0.2851651E-013  0.7246163E+02  0.7816164E-02  0.1226708E+00
        -11   -1    0    0    0    0  0.00000000000E+00  0.00000000000E+00  0.45593999997E+02  0.45594000000E+02  0.51100000000E-03 0.  1.
         11   -1    0    0    0    0 -0.00000000000E+00 -0.00000000000E+00 -0.45593999997E+02  0.45594000000E+02  0.51100000000E-03 0. -1.
    9900012    2    1    2    0    0  0.11674240836E+02  0.99064781516E+01  0.10781967421E+02  0.72461627422E+02  0.70000074420E+02 0.  0.
        -12    1    1    2    0    0 -0.11674240836E+02 -0.99064781516E+01 -0.10781967421E+02  0.18726372578E+02  0.00000000000E+00 0.  1.
         11    1    3    3    0    0 -0.77489448881E+01 -0.90675393314E+01  0.27408874953E+01  0.12238418236E+02  0.51100000000E-03 0. -1.
        -11    1    3    3    0    0  0.15204632918E+02 -0.16499588205E+02  0.97386745614E+01  0.24459334733E+02  0.51100000000E-03 0.  1.
         12    1    3    3    0    0  0.42185528058E+01  0.35473605688E+02 -0.16975946361E+01  0.35763874453E+02  0.00000000000E+00 0. -1.
</event>
<event>
 7    1  0.2851651E-013  0.7246158E+02  0.7816164E-02  0.1226708E+00
        -11   -1    0    0    0    0  0.00000000000E+00  0.00000000000E+00  0.45593999997E+02  0.45594000000E+02  0.51100000000E-03 0.  1.
         11   -1    0    0    0    0 -0.00000000000E+00 -0.00000000000E+00 -0.45593999997E+02  0.45594000000E+02  0.51100000000E-03 0. -1.
    9900012    2    1    2    0    0 -0.16756385746E+02 -0.40552702896E+01 -0.73114367424E+01  0.72461580491E+02  0.70000013283E+02 0.  0.
        -12    1    1    2    0    0  0.16756385746E+02  0.40552702896E+01  0.73114367424E+01  0.18726419509E+02  0.00000000000E+00 0.  1.
         11    1    3    3    0    0  0.10361918526E+02 -0.58748274486E+01 -0.82306418601E+01  0.14478481232E+02  0.51100000000E-03 0. -1.
        -11    1    3    3    0    0 -0.27313407740E+02  0.23616641033E+02  0.19543370948E+01  0.36160578118E+02  0.51100000000E-03 0.  1.
         12    1    3    3    0    0  0.19510346871E+00 -0.21797083874E+02 -0.10351319771E+01  0.21822521142E+02  0.00000000000E+00 0. -1.
</event>
<event>
 7    1  0.2851651E-013  0.7246166E+02  0.7816164E-02  0.1226708E+00
        -11   -1    0    0    0    0  0.00000000000E+00  0.00000000000E+00  0.45593999997E+02  0.45594000000E+02  0.51100000000E-03 0.  1.
         11   -1    0    0    0    0 -0.00000000000E+00 -0.00000000000E+00 -0.45593999997E+02  0.45594000000E+02  0.51100000000E-03 0. -1.
    9900012    2    1    2    0    0 -0.17435617404E+01 -0.12989092685E+02 -0.13376076393E+02  0.72461656097E+02  0.70000111774E+02 0.  0.
        -12    1    1    2    0    0  0.17435617404E+01  0.12989092685E+02  0.13376076393E+02  0.18726343903E+02  0.00000000000E+00 0.  1.
         11    1    3    3    0    0 -0.73223079608E+01 -0.80074077568E+01 -0.27915011292E+02  0.29949668254E+02  0.51100000000E-03 0. -1.
        -11    1    3    3    0    0  0.60896659919E+01 -0.20507963509E+02  0.23400285742E+00  0.21394283273E+02  0.51100000000E-03 0.  1.
         12    1    3    3    0    0 -0.51091977157E+00  0.15526278581E+02  0.14304932042E+02  0.21117704570E+02  0.00000000000E+00 0. -1.
</event>
<event>
 7    1  0.2851651E-013  0.7246156E+02  0.7816164E-02  0.1226708E+00
        -11   -1    0    0    0    0  0.00000000000E+00  0.00000000000E+00  0.45593999997E+02  0.45594000000E+02  0.51100000000E-03 0. -1.
         11   -1    0    0    0    0 -0.00000000000E+00 -0.00000000000E+00 -0.45593999997E+02  0.45594000000E+02  0.51100000000E-03 0.  1.
    9900012    2    1    2    0    0 -0.15242285231E+02 -0.54708814289E+01  0.94032831993E+01  0.72461560466E+02  0.69999987197E+02 0.  0.
        -12    1    1    2    0    0  0.15242285231E+02  0.54708814289E+01 -0.94032831993E+01  0.18726439534E+02  0.00000000000E+00 0.  1.
         11    1    3    3    0    0 -0.17919651802E+02 -0.16768360662E+00  0.26518961523E+02  0.32006208133E+02  0.51100000000E-03 0. -1.
        -11    1    3    3    0    0  0.14412787405E+01 -0.20610016219E+02 -0.13496359212E+02  0.24677961123E+02  0.51100000000E-03 0.  1.
         12    1    3    3    0    0  0.12360878302E+01  0.15306818397E+02 -0.36193191124E+01  0.15777391210E+02  0.00000000000E+00 0. -1.
</event>
<event>
 7    1  0.2851651E-013  0.7246160E+02  0.7816164E-02  0.1226708E+00
        -11   -1    0    0    0    0  0.00000000000E+00  0.00000000000E+00  0.45593999997E+02  0.45594000000E+02  0.51100000000E-03 0. -1.
         11   -1    0    0    0    0 -0.00000000000E+00 -0.00000000000E+00 -0.45593999997E+02  0.45594000000E+02  0.51100000000E-03 0.  1.
    9900012    2    1    2    0    0  0.96398795865E+01 -0.12437361796E+02  0.10151982693E+02  0.72461601534E+02  0.70000040696E+02 0.  0.
        -12    1    1    2    0    0 -0.96398795865E+01  0.12437361796E+02 -0.10151982693E+02  0.18726398466E+02  0.00000000000E+00 0.  1.
         11    1    3    3    0    0  0.25148686270E+01  0.10893396901E+02 -0.13397119109E+02  0.17449167915E+02  0.51100000000E-03 0. -1.
        -11    1    3    3    0    0  0.19767126578E+02 -0.76319849770E+01 -0.32944045715E+01  0.21443870676E+02  0.51100000000E-03 0.  1.
         12    1    3    3    0    0 -0.12642115618E+02 -0.15698773720E+02  0.26843506374E+02  0.33568562943E+02  0.00000000000E+00 0. -1.
</event>
<event>
 7    1  0.2851651E-013  0.7246158E+02  0.7816164E-02  0.1226708E+00
        -11   -1    0    0    0    0  0.00000000000E+00  0.00000000000E+00  0.45593999997E+02  0.45594000000E+02  0.51100000000E-03 0. -1.
         11   -1    0    0    0    0 -0.00000000000E+00 -0.00000000000E+00 -0.45593999997E+02  0.45594000000E+02  0.51100000000E-03 0.  1.
    9900012    2    1    2    0    0 -0.14039302811E+02 -0.10858561951E+02  0.59722925445E+01  0.72461583650E+02  0.70000017398E+02 0.  0.
        -12    1    1    2    0    0  0.14039302811E+02  0.10858561951E+02 -0.59722925445E+01  0.18726416350E+02  0.00000000000E+00 0.  1.
         11    1    3    3    0    0 -0.52293718015E+01  0.40693694935E+01  0.68948354382E+00  0.66619430598E+01  0.51100000000E-03 0. -1.
        -11    1    3    3    0    0 -0.19234604664E+02  0.19163369289E+02  0.11720972863E+02  0.29573399267E+02  0.51100000000E-03 0.  1.
         12    1    3    3    0    0  0.10424673654E+02 -0.34091300734E+02 -0.64381638619E+01  0.36226241324E+02  0.00000000000E+00 0. -1.
</event>
<event>
 7    1  0.2851651E-013  0.7246135E+02  0.7816164E-02  0.1226709E+00
        -11   -1    0    0    0    0  0.00000000000E+00  0.00000000000E+00  0.45593999997E+02  0.45594000000E+02  0.51100000000E-03 0.  1.
         11   -1    0    0    0    0 -0.00000000000E+00 -0.00000000000E+00 -0.45593999997E+02  0.45594000000E+02  0.51100000000E-03 0. -1.
    9900012    2    1    2    0    0 -0.88746662075E+00 -0.17426295432E+02  0.67988194692E+01  0.72461352792E+02  0.69999716662E+02 0.  0.
        -12    1    1    2    0    0  0.88746662075E+00  0.17426295432E+02 -0.67988194692E+01  0.18726647208E+02  0.00000000000E+00 0.  1.
         11    1    3    3    0    0  0.18622981810E+02 -0.15548275115E+02 -0.22426809886E+02  0.33038252261E+02  0.51100000000E-03 0. -1.
        -11    1    3    3    0    0 -0.13734773420E+02 -0.35487660396E+01  0.59494224194E+01  0.15382892078E+02  0.51100000000E-03 0.  1.
        -12    1    3    3    0    0 -0.57756750110E+01  0.16707457227E+01  0.23276206936E+02  0.24040208452E+02  0.00000000000E+00 0.  1.
</event>
<event>
 7    1  0.2851651E-013  0.7246157E+02  0.7816164E-02  0.1226708E+00
        -11   -1    0    0    0    0  0.00000000000E+00  0.00000000000E+00  0.45593999997E+02  0.45594000000E+02  0.51100000000E-03 0. -1.
         11   -1    0    0    0    0 -0.00000000000E+00 -0.00000000000E+00 -0.45593999997E+02  0.45594000000E+02  0.51100000000E-03 0.  1.
    9900012    2    1    2    0    0  0.13894713292E+02  0.12403609514E+02 -0.19407702445E+01  0.72461570132E+02  0.69999999788E+02 0.  0.
        -12    1    1    2    0    0 -0.13894713292E+02 -0.12403609514E+02  0.19407702445E+01  0.18726429868E+02  0.00000000000E+00 0.  1.
         11    1    3    3    0    0  0.15410663746E+01  0.33953081093E+02 -0.64442199101E+00  0.33994144809E+02  0.51100000000E-03 0. -1.
        -11    1    3    3    0    0 -0.22398622455E+01  0.42701679230E+01 -0.67663893115E+01  0.83087509016E+01  0.51100000000E-03 0.  1.
        -12    1    3    3    0    0  0.14593509163E+02 -0.25819639502E+02  0.54700410580E+01  0.30158674422E+02  0.00000000000E+00 0.  1.
</event>
<event>
 7    1  0.2851651E-013  0.7246155E+02  0.7816164E-02  0.1226708E+00
        -11   -1    0    0    0    0  0.00000000000E+00  0.00000000000E+00  0.45593999997E+02  0.45594000000E+02  0.51100000000E-03 0. -1.
         11   -1    0    0    0    0 -0.00000000000E+00 -0.00000000000E+00 -0.45593999997E+02  0.45594000000E+02  0.51100000000E-03 0.  1.
    9900012    2    1    2    0    0 -0.15497722521E+02  0.35935009512E+01  0.98786226328E+01  0.72461552458E+02  0.69999976764E+02 0.  0.
        -12    1    1    2    0    0  0.15497722521E+02 -0.35935009512E+01 -0.98786226328E+01  0.18726447542E+02  0.00000000000E+00 0.  1.
         11    1    3    3    0    0  0.68516305959E+01 -0.84038725731E+01  0.73945438219E+01  0.13124374067E+02  0.51100000000E-03 0. -1.
        -11    1    3    3    0    0  0.88355173919E+01 -0.14240593812E+02 -0.58286561949E+01  0.17743565397E+02  0.51100000000E-03 0.  1.
         12    1    3    3    0    0 -0.31184870509E+02  0.26237967336E+02  0.83127350058E+01  0.41593612994E+02  0.00000000000E+00 0. -1.
</event>
<event>
 7    1  0.2851651E-013  0.7246154E+02  0.7816164E-02  0.1226708E+00
        -11   -1    0    0    0    0  0.00000000000E+00  0.00000000000E+00  0.45593999997E+02  0.45594000000E+02  0.51100000000E-03 0.  1.
         11   -1    0    0    0    0 -0.00000000000E+00 -0.00000000000E+00 -0.45593999997E+02  0.45594000000E+02  0.51100000000E-03 0. -1.
    9900012    2    1    2    0    0 -0.12975270271E+02 -0.72096806162E+01  0.11416794199E+02  0.72461539497E+02  0.69999959881E+02 0.  0.
        -12    1    1    2    0    0  0.12975270271E+02  0.72096806162E+01 -0.11416794199E+02  0.18726460503E+02  0.00000000000E+00 0.  1.
         11    1    3    3    0    0 -0.56156642077E+01 -0.83178189381E+01  0.13891679380E+01  0.10131711810E+02  0.51100000000E-03 0. -1.
        -11    1    3    3    0    0  0.11936280999E+02 -0.61646208191E+01  0.30465838384E+02  0.33296316052E+02  0.51100000000E-03 0.  1.
         12    1    3    3    0    0 -0.19295887063E+02  0.72727591410E+01 -0.20438212123E+02  0.29033511635E+02  0.00000000000E+00 0. -1.
</event>
<event>
 7    1  0.2851651E-013  0.7246156E+02  0.7816164E-02  0.1226708E+00
        -11   -1    0    0    0    0  0.00000000000E+00  0.00000000000E+00  0.45593999997E+02  0.45594000000E+02  0.51100000000E-03 0.  1.
         11   -1    0    0    0    0 -0.00000000000E+00 -0.00000000000E+00 -0.45593999997E+02  0.45594000000E+02  0.51100000000E-03 0. -1.
    9900012    2    1    2    0    0  0.16012280167E+02  0.97064698702E+01 -0.26620732455E+00  0.72461560407E+02  0.69999987120E+02 0.  0.
        -12    1    1    2    0    0 -0.16012280167E+02 -0.97064698702E+01  0.26620732455E+00  0.18726439593E+02  0.00000000000E+00 0.  1.
         11    1    3    3    0    0  0.12246209734E+02 -0.52837626130E+01  0.67344113196E+01  0.14941221379E+02  0.51100000000E-03 0. -1.
        -11    1    3    3    0    0  0.10302072691E+02  0.34372009337E+02 -0.89246151744E+01  0.36975890576E+02  0.51100000000E-03 0.  1.
         12    1    3    3    0    0 -0.65360022581E+01 -0.19381776854E+02  0.19239965302E+01  0.20544448452E+02  0.00000000000E+00 0. -1.
</event>
<event>
 7    1  0.2851651E-013  0.7246156E+02  0.7816164E-02  0.1226708E+00
        -11   -1    0    0    0    0  0.00000000000E+00  0.00000000000E+00  0.45593999997E+02  0.45594000000E+02  0.51100000000E-03 0.  1.
         11   -1    0    0    0    0 -0.00000000000E+00 -0.00000000000E+00 -0.45593999997E+02  0.45594000000E+02  0.51100000000E-03 0. -1.
    9900012    2    1    2    0    0 -0.46775337197E+01  0.17548954581E+02  0.45644741512E+01  0.72461560059E+02  0.69999986667E+02 0.  0.
        -12    1    1    2    0    0  0.46775337197E+01 -0.17548954581E+02 -0.45644741512E+01  0.18726439941E+02  0.00000000000E+00 0.  1.
         11    1    3    3    0    0 -0.13872577414E+02  0.93560850409E+01 -0.17964087176E+02  0.24549809770E+02  0.51100000000E-03 0. -1.
        -11    1    3    3    0    0 -0.36745328037E+01  0.22348905764E+02  0.85146782074E+01  0.24196601526E+02  0.51100000000E-03 0.  1.
        -12    1    3    3    0    0  0.12869576498E+02 -0.14156036224E+02  0.14013883119E+02  0.23715148764E+02  0.00000000000E+00 0.  1.
</event>
<event>
 7    1  0.2851651E-013  0.7246162E+02  0.7816164E-02  0.1226708E+00
        -11   -1    0    0    0    0  0.00000000000E+00  0.00000000000E+00  0.45593999997E+02  0.45594000000E+02  0.51100000000E-03 0. -1.
         11   -1    0    0    0    0 -0.00000000000E+00 -0.00000000000E+00 -0.45593999997E+02  0.45594000000E+02  0.51100000000E-03 0.  1.
    9900012    2    1    2    0    0 -0.12021158758E+02  0.14358014599E+02 -0.12760294108E+00  0.72461624920E+02  0.70000071160E+02 0.  0.
        -12    1    1    2    0    0  0.12021158758E+02 -0.14358014599E+02  0.12760294108E+00  0.18726375080E+02  0.00000000000E+00 0.  1.
         11    1    3    3    0    0 -0.18852183110E+02 -0.44433111775E+01  0.15764223629E+02  0.24973156971E+02  0.51100000000E-03 0. -1.
        -11    1    3    3    0    0 -0.19089843430E+01  0.29035841965E+01  0.12953996406E+02  0.13411973962E+02  0.51100000000E-03 0.  1.
        -12    1    3    3    0    0  0.87400086947E+01  0.15897741580E+02 -0.28845822976E+02  0.34076493987E+02  0.00000000000E+00 0.  1.
</event>
<event>
 7    1  0.2851651E-013  0.7246155E+02  0.7816164E-02  0.1226708E+00
        -11   -1    0    0    0    0  0.00000000000E+00  0.00000000000E+00  0.45593999997E+02  0.45594000000E+02  0.51100000000E-03 0.  1.
         11   -1    0    0    0    0 -0.00000000000E+00 -0.00000000000E+00 -0.45593999997E+02  0.45594000000E+02  0.51100000000E-03 0. -1.
    9900012    2    1    2    0    0 -0.47804991725E+01 -0.14603898879E+02 -0.10702935264E+02  0.72461551910E+02  0.69999976051E+02 0.  0.
        -12    1    1    2    0    0  0.47804991725E+01  0.14603898879E+02  0.10702935264E+02  0.18726448090E+02  0.00000000000E+00 0.  1.
         11    1    3    3    0    0 -0.13155002293E+02 -0.87741663960E+01 -0.14097550540E+02  0.21184452147E+02  0.51100000000E-03 0. -1.
        -11    1    3    3    0    0 -0.11434746516E+02 -0.17048930436E+02  0.15284371095E+02  0.25593582339E+02  0.51100000000E-03 0.  1.
        -12    1    3    3    0    0  0.19809249637E+02  0.11219197952E+02 -0.11889755818E+02  0.25683517424E+02  0.00000000000E+00 0.  1.
</event>
<event>
 7    1  0.2851651E-013  0.7246160E+02  0.7816164E-02  0.1226708E+00
        -11   -1    0    0    0    0  0.00000000000E+00  0.00000000000E+00  0.45593999997E+02  0.45594000000E+02  0.51100000000E-03 0. -1.
         11   -1    0    0    0    0 -0.00000000000E+00 -0.00000000000E+00 -0.45593999997E+02  0.45594000000E+02  0.51100000000E-03 0.  1.
    9900012    2    1    2    0    0  0.13887036060E+00  0.42185279051E+01  0.18244524113E+02  0.72461603583E+02  0.70000043364E+02 0.  0.
        -12    1    1    2    0    0 -0.13887036060E+00 -0.42185279051E+01 -0.18244524113E+02  0.18726396417E+02  0.00000000000E+00 0.  1.
         11    1    3    3    0    0  0.48789636895E+01  0.79207956515E+01  0.12027300074E+02  0.15205237182E+02  0.51100000000E-03 0. -1.
        -11    1    3    3    0    0  0.24970153547E+02 -0.62113062922E+01  0.91197304703E+01  0.27299420838E+02  0.51100000000E-03 0.  1.
         12    1    3    3    0    0 -0.29710246876E+02  0.25090385457E+01 -0.29025064310E+01  0.29956945562E+02  0.00000000000E+00 0. -1.
</event>
<event>
 7    1  0.2851651E-013  0.7246160E+02  0.7816164E-02  0.1226708E+00
        -11   -1    0    0    0    0  0.00000000000E+00  0.00000000000E+00  0.45593999997E+02  0.45594000000E+02  0.51100000000E-03 0.  1.
         11   -1    0    0    0    0 -0.00000000000E+00 -0.00000000000E+00 -0.45593999997E+02  0.45594000000E+02  0.51100000000E-03 0. -1.
    9900012    2    1    2    0    0 -0.58927467827E+00  0.18021313931E+02  0.50560051359E+01  0.72461596491E+02  0.70000034126E+02 0.  0.
        -12    1    1    2    0    0  0.58927467827E+00 -0.18021313931E+02 -0.50560051359E+01  0.18726403509E+02  0.00000000000E+00 0.  1.
         11    1    3    3    0    0  0.25617670174E+02  0.17585034377E+02  0.20605724090E+02  0.37283968736E+02  0.51100000000E-03 0.  1.
        -11    1    3    3    0    0 -0.11174712662E+02  0.63109379083E+01 -0.97930017124E-01  0.12834006814E+02  0.51100000000E-03 0. -1.
        -12    1    3    3    0    0 -0.15032232190E+02 -0.58746583542E+01 -0.15451788937E+02  0.22343620941E+02  0.00000000000E+00 0.  1.
</event>
<event>
 7    1  0.2851651E-013  0.7246162E+02  0.7816164E-02  0.1226708E+00
        -11   -1    0    0    0    0  0.00000000000E+00  0.00000000000E+00  0.45593999997E+02  0.45594000000E+02  0.51100000000E-03 0. -1.
         11   -1    0    0    0    0 -0.00000000000E+00 -0.00000000000E+00 -0.45593999997E+02  0.45594000000E+02  0.51100000000E-03 0.  1.
    9900012    2    1    2    0    0  0.14477736522E+02 -0.33851187486E+01  0.11384790092E+02  0.72461619432E+02  0.70000064011E+02 0.  0.
        -12    1    1    2    0    0 -0.14477736522E+02  0.33851187486E+01 -0.11384790092E+02  0.18726380568E+02  0.00000000000E+00 0.  1.
         11    1    3    3    0    0  0.14125267044E-01  0.25464780412E+02 -0.78945406370E+01  0.26660439102E+02  0.51100000000E-03 0. -1.
        -11    1    3    3    0    0 -0.69851171374E+01 -0.13002973094E+02  0.85343098608E+01  0.17050032720E+02  0.51100000000E-03 0.  1.
        -12    1    3    3    0    0  0.21448728392E+02 -0.15846926067E+02  0.10745020868E+02  0.28751147610E+02  0.00000000000E+00 0.  1.
</event>
<event>
 7    1  0.2851651E-013  0.7246156E+02  0.7816164E-02  0.1226708E+00
        -11   -1    0    0    0    0  0.00000000000E+00  0.00000000000E+00  0.45593999997E+02  0.45594000000E+02  0.51100000000E-03 0.  1.
         11   -1    0    0    0    0 -0.00000000000E+00 -0.00000000000E+00 -0.45593999997E+02  0.45594000000E+02  0.51100000000E-03 0. -1.
    9900012    2    1    2    0    0  0.16082390005E+02 -0.60365382708E+00 -0.95745504869E+01  0.72461556578E+02  0.69999982132E+02 0.  0.
        -12    1    1    2    0    0 -0.16082390005E+02  0.60365382708E+00  0.95745504869E+01  0.18726443422E+02  0.00000000000E+00 0.  1.
         11    1    3    3    0    0  0.14848553042E+02 -0.22408134072E+02 -0.23596474085E+02  0.35768667706E+02  0.51100000000E-03 0. -1.
        -11    1    3    3    0    0  0.72508016985E+01 -0.33443157120E+01  0.23608247673E+01  0.83265879384E+01  0.51100000000E-03 0.  1.
        -12    1    3    3    0    0 -0.60169647352E+01  0.25148795956E+02  0.11661098831E+02  0.28366300933E+02  0.00000000000E+00 0.  1.
</event>
<event>
 7    1  0.2851651E-013  0.7246155E+02  0.7816164E-02  0.1226708E+00
        -11   -1    0    0    0    0  0.00000000000E+00  0.00000000000E+00  0.45593999997E+02  0.45594000000E+02  0.51100000000E-03 0.  1.
         11   -1    0    0    0    0 -0.00000000000E+00 -0.00000000000E+00 -0.45593999997E+02  0.45594000000E+02  0.51100000000E-03 0. -1.
    9900012    2    1    2    0    0 -0.10057444788E+02 -0.10976292712E+02  0.11359958279E+02  0.72461552140E+02  0.69999976350E+02 0.  0.
        -12    1    1    2    0    0  0.10057444788E+02  0.10976292712E+02 -0.11359958279E+02  0.18726447860E+02  0.00000000000E+00 0.  1.
         11    1    3    3    0    0  0.11038414575E+02 -0.38314475746E+01 -0.65718069099E+01  0.13405791031E+02  0.51100000000E-03 0. -1.
        -11    1    3    3    0    0  0.17230521793E+02 -0.12481120585E+01  0.79331864437E+01  0.19010105533E+02  0.51100000000E-03 0.  1.
         12    1    3    3    0    0 -0.38326381156E+02 -0.58967330788E+01  0.99985787451E+01  0.40045655575E+02  0.00000000000E+00 0. -1.
</event>
<event>
 7    1  0.2851651E-013  0.7246154E+02  0.7816164E-02  0.1226708E+00
        -11   -1    0    0    0    0  0.00000000000E+00  0.00000000000E+00  0.45593999997E+02  0.45594000000E+02  0.51100000000E-03 0. -1.
         11   -1    0    0    0    0 -0.00000000000E+00 -0.00000000000E+00 -0.45593999997E+02  0.45594000000E+02  0.51100000000E-03 0.  1.
    9900012    2    1    2    0    0  0.12635770907E+01  0.41796898955E+00  0.18679107168E+02  0.72461538248E+02  0.69999958254E+02 0.  0.
        -12    1    1    2    0    0 -0.12635770907E+01 -0.41796898955E+00 -0.18679107168E+02  0.18726461752E+02  0.00000000000E+00 0.  1.
         11    1    3    3    0    0 -0.22618843647E+02 -0.10308272878E+02  0.13536257081E+02  0.28303760062E+02  0.51100000000E-03 0. -1.
        -11    1    3    3    0    0  0.55259777589E+01 -0.16557256978E+01  0.17759857535E+02  0.18673253538E+02  0.51100000000E-03 0.  1.
        -12    1    3    3    0    0  0.18356442978E+02  0.12381967565E+02 -0.12617007447E+02  0.25484524648E+02  0.00000000000E+00 0.  1.
</event>
<event>
 7    1  0.2851651E-013  0.7246156E+02  0.7816164E-02  0.1226708E+00
        -11   -1    0    0    0    0  0.00000000000E+00  0.00000000000E+00  0.45593999997E+02  0.45594000000E+02  0.51100000000E-03 0. -1.
         11   -1    0    0    0    0 -0.00000000000E+00 -0.00000000000E+00 -0.45593999997E+02  0.45594000000E+02  0.51100000000E-03 0.  1.
    9900012    2    1    2    0    0 -0.68693203829E+01 -0.12883783926E+02  0.11726049273E+02  0.72461556603E+02  0.69999982164E+02 0.  0.
        -12    1    1    2    0    0  0.68693203829E+01  0.12883783926E+02 -0.11726049273E+02  0.18726443397E+02  0.00000000000E+00 0.  1.
         11    1    3    3    0    0 -0.86624853352E+01 -0.14356518799E+02  0.21522067944E+02  0.27282736172E+02  0.51100000000E-03 0. -1.
        -11    1    3    3    0    0 -0.38875537659E+01 -0.11147561855E+02  0.13591541026E+02  0.18003088550E+02  0.51100000000E-03 0.  1.
        -12    1    3    3    0    0  0.56807187181E+01  0.12620296729E+02 -0.23387559697E+02  0.27175731881E+02  0.00000000000E+00 0.  1.
</event>
<event>
 7    1  0.2851651E-013  0.7246160E+02  0.7816164E-02  0.1226708E+00
        -11   -1    0    0    0    0  0.00000000000E+00  0.00000000000E+00  0.45593999997E+02  0.45594000000E+02  0.51100000000E-03 0. -1.
         11   -1    0    0    0    0 -0.00000000000E+00 -0.00000000000E+00 -0.45593999997E+02  0.45594000000E+02  0.51100000000E-03 0.  1.
    9900012    2    1    2    0    0  0.99300552370E+01 -0.33098956731E+00  0.15873327079E+02  0.72461599821E+02  0.70000038465E+02 0.  0.
        -12    1    1    2    0    0 -0.99300552370E+01  0.33098956731E+00 -0.15873327079E+02  0.18726400179E+02  0.00000000000E+00 0.  1.
         11    1    3    3    0    0 -0.34045630441E+01 -0.86239781712E+01  0.22221992446E+02  0.24078641938E+02  0.51100000000E-03 0. -1.
        -11    1    3    3    0    0 -0.12216031837E+02  0.13836226459E+02  0.60816019129E+01  0.19433437127E+02  0.51100000000E-03 0.  1.
         12    1    3    3    0    0  0.25550650118E+02 -0.55432378552E+01 -0.12430267281E+02  0.28949520757E+02  0.00000000000E+00 0. -1.
</event>
<event>
 7    1  0.2851651E-013  0.7246150E+02  0.7816164E-02  0.1226708E+00
        -11   -1    0    0    0    0  0.00000000000E+00  0.00000000000E+00  0.45593999997E+02  0.45594000000E+02  0.51100000000E-03 0.  1.
         11   -1    0    0    0    0 -0.00000000000E+00 -0.00000000000E+00 -0.45593999997E+02  0.45594000000E+02  0.51100000000E-03 0. -1.
    9900012    2    1    2    0    0  0.64340063724E+01  0.15116136628E+02 -0.89881936917E+01  0.72461504054E+02  0.69999913710E+02 0.  0.
        -12    1    1    2    0    0 -0.64340063724E+01 -0.15116136628E+02  0.89881936917E+01  0.18726495946E+02  0.00000000000E+00 0.  1.
         11    1    3    3    0    0  0.43588745988E+01  0.12056334329E+01  0.38836139533E+01  0.59611909332E+01  0.51100000000E-03 0. -1.
        -11    1    3    3    0    0  0.20660389114E+02  0.15738174124E+01  0.18654333510E+02  0.27880328882E+02  0.51100000000E-03 0.  1.
         12    1    3    3    0    0 -0.18585257340E+02  0.12336685783E+02 -0.31526141155E+02  0.38619984239E+02  0.00000000000E+00 0. -1.
</event>
<event>
 7    1  0.2851651E-013  0.7246156E+02  0.7816164E-02  0.1226708E+00
        -11   -1    0    0    0    0  0.00000000000E+00  0.00000000000E+00  0.45593999997E+02  0.45594000000E+02  0.51100000000E-03 0. -1.
         11   -1    0    0    0    0 -0.00000000000E+00 -0.00000000000E+00 -0.45593999997E+02  0.45594000000E+02  0.51100000000E-03 0.  1.
    9900012    2    1    2    0    0 -0.23203812922E+01  0.16622534346E+02  0.83058210339E+01  0.72461561992E+02  0.69999989184E+02 0.  0.
        -12    1    1    2    0    0  0.23203812922E+01 -0.16622534346E+02 -0.83058210339E+01  0.18726438008E+02  0.00000000000E+00 0.  1.
         11    1    3    3    0    0  0.62035586518E+01  0.18098263667E+01 -0.13846040308E+02  0.15279805100E+02  0.51100000000E-03 0. -1.
        -11    1    3    3    0    0 -0.14714236296E+02  0.18153130598E+02 -0.91530757930E+01  0.25096288511E+02  0.51100000000E-03 0.  1.
         12    1    3    3    0    0  0.61902963524E+01 -0.33404226187E+01  0.31304937135E+02  0.32085468381E+02  0.00000000000E+00 0. -1.
</event>
<event>
 7    1  0.2851651E-013  0.7246160E+02  0.7816164E-02  0.1226708E+00
        -11   -1    0    0    0    0  0.00000000000E+00  0.00000000000E+00  0.45593999997E+02  0.45594000000E+02  0.51100000000E-03 0. -1.
         11   -1    0    0    0    0 -0.00000000000E+00 -0.00000000000E+00 -0.45593999997E+02  0.45594000000E+02  0.51100000000E-03 0.  1.
    9900012    2    1    2    0    0  0.39225544557E+01 -0.31474712798E+01  0.18038435948E+02  0.72461596705E+02  0.70000034405E+02 0.  0.
        -12    1    1    2    0    0 -0.39225544557E+01  0.31474712798E+01 -0.18038435948E+02  0.18726403295E+02  0.00000000000E+00 0.  1.
         11    1    3    3    0    0 -0.16444520526E+01  0.23679536387E+01  0.10922273896E+02  0.11296348716E+02  0.51100000000E-03 0. -1.
        -11    1    3    3    0    0 -0.17496088811E+02 -0.22400733825E+02  0.14117708955E+02  0.31736661859E+02  0.51100000000E-03 0.  1.
        -12    1    3    3    0    0  0.23063095319E+02  0.16885308906E+02 -0.70015469031E+01  0.29428586130E+02  0.00000000000E+00 0.  1.
</event>
<event>
 7    1  0.2851651E-013  0.7246159E+02  0.7816164E-02  0.1226708E+00
        -11   -1    0    0    0    0  0.00000000000E+00  0.00000000000E+00  0.45593999997E+02  0.45594000000E+02  0.51100000000E-03 0. -1.
         11   -1    0    0    0    0 -0.00000000000E+00 -0.00000000000E+00 -0.45593999997E+02  0.45594000000E+02  0.51100000000E-03 0.  1.
    9900012    2    1    2    0    0  0.28814627842E+01 -0.12249198651E+02  0.13868407220E+02  0.72461590462E+02  0.70000026272E+02 0.  0.
        -12    1    1    2    0    0 -0.28814627842E+01  0.12249198651E+02 -0.13868407220E+02  0.18726409538E+02  0.00000000000E+00 0.  1.
         11    1    3    3    0    0 -0.37799212155E+01  0.36999196864E+01  0.29798240832E+02  0.30264044129E+02  0.51100000000E-03 0. -1.
        -11    1    3    3    0    0  0.22191388593E+01  0.10376889267E+02 -0.10548458908E+02  0.14962432748E+02  0.51100000000E-03 0.  1.
        -12    1    3    3    0    0  0.44422451404E+01 -0.26326007604E+02 -0.53813747037E+01  0.27235113585E+02  0.00000000000E+00 0.  1.
</event>
<event>
 7    1  0.2851651E-013  0.7246162E+02  0.7816164E-02  0.1226708E+00
        -11   -1    0    0    0    0  0.00000000000E+00  0.00000000000E+00  0.45593999997E+02  0.45594000000E+02  0.51100000000E-03 0.  1.
         11   -1    0    0    0    0 -0.00000000000E+00 -0.00000000000E+00 -0.45593999997E+02  0.45594000000E+02  0.51100000000E-03 0. -1.
    9900012    2    1    2    0    0  0.27052038966E+01 -0.81878728547E+01 -0.16622815193E+02  0.72461618210E+02  0.70000062419E+02 0.  0.
        -12    1    1    2    0    0 -0.27052038966E+01  0.81878728547E+01  0.16622815193E+02  0.18726381790E+02  0.00000000000E+00 0.  1.
         11    1    3    3    0    0 -0.66168898019E+01  0.10662862614E+02 -0.28042725211E+02  0.30722537448E+02  0.51100000000E-03 0. -1.
        -11    1    3    3    0    0 -0.67806079565E+00 -0.76683501742E+01 -0.11803311449E+02  0.14091895623E+02  0.51100000000E-03 0.  1.
        -12    1    3    3    0    0  0.10000154494E+02 -0.11182385294E+02  0.23223221467E+02  0.27647185138E+02  0.00000000000E+00 0.  1.
</event>
<event>
 7    1  0.2851651E-013  0.7246156E+02  0.7816164E-02  0.1226708E+00
        -11   -1    0    0    0    0  0.00000000000E+00  0.00000000000E+00  0.45593999997E+02  0.45594000000E+02  0.51100000000E-03 0.  1.
         11   -1    0    0    0    0 -0.00000000000E+00 -0.00000000000E+00 -0.45593999997E+02  0.45594000000E+02  0.51100000000E-03 0. -1.
    9900012    2    1    2    0    0  0.84358809606E+00  0.18165831403E+02  0.44688348152E+01  0.72461559974E+02  0.69999986556E+02 0.  0.
        -12    1    1    2    0    0 -0.84358809606E+00 -0.18165831403E+02 -0.44688348152E+01  0.18726440026E+02  0.00000000000E+00 0.  1.
         11    1    3    3    0    0  0.85170194252E-01 -0.80868912887E+00 -0.80574770349E+01  0.80984053059E+01  0.51100000000E-03 0. -1.
        -11    1    3    3    0    0  0.21755962421E+02  0.31675200365E+02  0.53653787906E+01  0.38799839031E+02  0.51100000000E-03 0.  1.
         12    1    3    3    0    0 -0.20997544520E+02 -0.12700679832E+02  0.71609330596E+01  0.25563315637E+02  0.00000000000E+00 0. -1.
</event>
<event>
 7    1  0.2851651E-013  0.7246160E+02  0.7816164E-02  0.1226708E+00
        -11   -1    0    0    0    0  0.00000000000E+00  0.00000000000E+00  0.45593999997E+02  0.45594000000E+02  0.51100000000E-03 0.  1.
         11   -1    0    0    0    0 -0.00000000000E+00 -0.00000000000E+00 -0.45593999997E+02  0.45594000000E+02  0.51100000000E-03 0. -1.
    9900012    2    1    2    0    0 -0.11504388271E+02  0.86821703389E+01 -0.11956039551E+02  0.72461603843E+02  0.70000043703E+02 0.  0.
        -12    1    1    2    0    0  0.11504388271E+02 -0.86821703389E+01  0.11956039551E+02  0.18726396157E+02  0.00000000000E+00 0.  1.
         11    1    3    3    0    0 -0.97592503140E+01 -0.64891024472E+01  0.10911597260E+02  0.16012943898E+02  0.51100000000E-03 0.  1.
        -11    1    3    3    0    0 -0.75239929348E+01  0.20030111428E+02 -0.35664514993E+02  0.41590545361E+02  0.51100000000E-03 0. -1.
         12    1    3    3    0    0  0.57788549777E+01 -0.48588386415E+01  0.12796878182E+02  0.14858114584E+02  0.00000000000E+00 0. -1.
</event>
<event>
 7    1  0.2851651E-013  0.7246162E+02  0.7816164E-02  0.1226708E+00
        -11   -1    0    0    0    0  0.00000000000E+00  0.00000000000E+00  0.45593999997E+02  0.45594000000E+02  0.51100000000E-03 0. -1.
         11   -1    0    0    0    0 -0.00000000000E+00 -0.00000000000E+00 -0.45593999997E+02  0.45594000000E+02  0.51100000000E-03 0.  1.
    9900012    2    1    2    0    0  0.17788441615E+02 -0.26209623106E+01  0.52325179382E+01  0.72461619077E+02  0.70000063548E+02 0.  0.
        -12    1    1    2    0    0 -0.17788441615E+02  0.26209623106E+01 -0.52325179382E+01  0.18726380923E+02  0.00000000000E+00 0.  1.
         11    1    3    3    0    0  0.34923594295E+02 -0.76876300674E+01  0.20189098862E+02  0.41065274962E+02  0.51100000000E-03 0. -1.
        -11    1    3    3    0    0 -0.28873074815E+00  0.25606941791E-01  0.48795276989E+01  0.48881297022E+01  0.51100000000E-03 0.  1.
        -12    1    3    3    0    0 -0.16846421933E+02  0.50410608150E+01 -0.19836108623E+02  0.26508214413E+02  0.00000000000E+00 0.  1.
</event>
<event>
 7    1  0.2851651E-013  0.7246159E+02  0.7816164E-02  0.1226708E+00
        -11   -1    0    0    0    0  0.00000000000E+00  0.00000000000E+00  0.45593999997E+02  0.45594000000E+02  0.51100000000E-03 0. -1.
         11   -1    0    0    0    0 -0.00000000000E+00 -0.00000000000E+00 -0.45593999997E+02  0.45594000000E+02  0.51100000000E-03 0.  1.
    9900012    2    1    2    0    0  0.69567351559E+01 -0.12107839348E+02  0.12477275014E+02  0.72461592724E+02  0.70000029218E+02 0.  0.
        -12    1    1    2    0    0 -0.69567351559E+01  0.12107839348E+02 -0.12477275014E+02  0.18726407276E+02  0.00000000000E+00 0.  1.
         11    1    3    3    0    0 -0.42868021412E+01 -0.24368290550E+02  0.21149403080E+02  0.32549769705E+02  0.51100000000E-03 0. -1.
        -11    1    3    3    0    0  0.11675819832E+02 -0.10330475018E+02 -0.74638983857E+01  0.17284480386E+02  0.51100000000E-03 0.  1.
        -12    1    3    3    0    0 -0.43228253442E+00  0.22590926220E+02 -0.12082296805E+01  0.22627342633E+02  0.00000000000E+00 0.  1.
</event>
<event>
 7    1  0.2851651E-013  0.7246158E+02  0.7816164E-02  0.1226708E+00
        -11   -1    0    0    0    0  0.00000000000E+00  0.00000000000E+00  0.45593999997E+02  0.45594000000E+02  0.51100000000E-03 0.  1.
         11   -1    0    0    0    0 -0.00000000000E+00 -0.00000000000E+00 -0.45593999997E+02  0.45594000000E+02  0.51100000000E-03 0. -1.
    9900012    2    1    2    0    0  0.91503587834E+01 -0.26032589355E+01 -0.16129867703E+02  0.72461584030E+02  0.70000017894E+02 0.  0.
        -12    1    1    2    0    0 -0.91503587834E+01  0.26032589355E+01  0.16129867703E+02  0.18726415970E+02  0.00000000000E+00 0.  1.
         11    1    3    3    0    0  0.82115186427E+01  0.19804758236E+02 -0.24861299433E+02  0.32828976484E+02  0.51100000000E-03 0. -1.
        -11    1    3    3    0    0 -0.10724045407E+02 -0.12639270636E+02 -0.67772292563E+01  0.17907739912E+02  0.51100000000E-03 0.  1.
        -12    1    3    3    0    0  0.11662885547E+02 -0.97687465357E+01  0.15508660986E+02  0.21724867635E+02  0.00000000000E+00 0.  1.
</event>
<event>
 7    1  0.3422074E-013  0.7246157E+02  0.7816164E-02  0.1226708E+00
        -11   -1    0    0    0    0  0.00000000000E+00  0.00000000000E+00  0.45593999997E+02  0.45594000000E+02  0.51100000000E-03 0.  1.
         11   -1    0    0    0    0 -0.00000000000E+00 -0.00000000000E+00 -0.45593999997E+02  0.45594000000E+02  0.51100000000E-03 0. -1.
    9900012    2    1    2    0    0 -0.11105266975E+02 -0.13854664944E+02  0.59498362700E+01  0.72461568227E+02  0.69999997307E+02 0.  0.
        -12    1    1    2    0    0  0.11105266975E+02  0.13854664944E+02 -0.59498362700E+01  0.18726431773E+02  0.00000000000E+00 0.  1.
         11    1    3    3    0    0 -0.16979841746E+01 -0.13082399907E+02 -0.17519983895E+01  0.13307961384E+02  0.51100000000E-03 0. -1.
        -11    1    3    3    0    0  0.18986114278E+02 -0.28369418594E+01  0.20373119239E+02  0.27992584059E+02  0.51100000000E-03 0.  1.
         12    1    3    3    0    0 -0.28393397079E+02  0.20646768218E+01 -0.12671284580E+02  0.31161022784E+02  0.00000000000E+00 0. -1.
</event>
<event>
 7    1  0.2851651E-013  0.7246163E+02  0.7816164E-02  0.1226708E+00
        -11   -1    0    0    0    0  0.00000000000E+00  0.00000000000E+00  0.45593999997E+02  0.45594000000E+02  0.51100000000E-03 0.  1.
         11   -1    0    0    0    0 -0.00000000000E+00 -0.00000000000E+00 -0.45593999997E+02  0.45594000000E+02  0.51100000000E-03 0. -1.
    9900012    2    1    2    0    0 -0.14652709513E+02 -0.10610699286E+02 -0.48361403805E+01  0.72461625839E+02  0.70000072357E+02 0.  0.
        -12    1    1    2    0    0  0.14652709513E+02  0.10610699286E+02  0.48361403805E+01  0.18726374161E+02  0.00000000000E+00 0.  1.
         11    1    3    3    0    0 -0.38535086230E+01  0.71429847364E+00 -0.95809333767E+00  0.40345624449E+01  0.51100000000E-03 0. -1.
        -11    1    3    3    0    0 -0.31720890586E+02  0.14666610117E+02 -0.23431800468E+01  0.35025916760E+02  0.51100000000E-03 0.  1.
         12    1    3    3    0    0  0.20921689696E+02 -0.25991607877E+02 -0.15348669961E+01  0.33401146634E+02  0.00000000000E+00 0. -1.
</event>
<event>
 7    1  0.2851651E-013  0.7246137E+02  0.7816164E-02  0.1226709E+00
        -11   -1    0    0    0    0  0.00000000000E+00  0.00000000000E+00  0.45593999997E+02  0.45594000000E+02  0.51100000000E-03 0.  1.
         11   -1    0    0    0    0 -0.00000000000E+00 -0.00000000000E+00 -0.45593999997E+02  0.45594000000E+02  0.51100000000E-03 0. -1.
    9900012    2    1    2    0    0  0.11643011074E+02 -0.14666358943E+02  0.15810441650E+00  0.72461366867E+02  0.69999734997E+02 0.  0.
        -12    1    1    2    0    0 -0.11643011074E+02  0.14666358943E+02 -0.15810441650E+00  0.18726633133E+02  0.00000000000E+00 0.  1.
         11    1    3    3    0    0 -0.83206587446E+01 -0.23806462394E+02 -0.82221913001E+01  0.26525185083E+02  0.51100000000E-03 0. -1.
        -11    1    3    3    0    0 -0.83229399283E+01 -0.83970409030E+01  0.11564511577E+01  0.11879352024E+02  0.51100000000E-03 0.  1.
        -12    1    3    3    0    0  0.28286609746E+02  0.17537144354E+02  0.72238445589E+01  0.34056829759E+02  0.00000000000E+00 0.  1.
</event>
<event>
 7    1  0.2851651E-013  0.7246157E+02  0.7816164E-02  0.1226708E+00
        -11   -1    0    0    0    0  0.00000000000E+00  0.00000000000E+00  0.45593999997E+02  0.45594000000E+02  0.51100000000E-03 0. -1.
         11   -1    0    0    0    0 -0.00000000000E+00 -0.00000000000E+00 -0.45593999997E+02  0.45594000000E+02  0.51100000000E-03 0.  1.
    9900012    2    1    2    0    0 -0.17202155451E+02 -0.52972633705E+01  0.51675973299E+01  0.72461569119E+02  0.69999998469E+02 0.  0.
        -12    1    1    2    0    0  0.17202155451E+02  0.52972633705E+01 -0.51675973299E+01  0.18726430881E+02  0.00000000000E+00 0.  1.
         11    1    3    3    0    0 -0.60041294372E+01  0.97936701374E+01 -0.11380978599E+02  0.16170721047E+02  0.51100000000E-03 0.  1.
        -11    1    3    3    0    0  0.14837931220E+02 -0.15718041049E+01  0.21870375679E+02  0.26475424522E+02  0.51100000000E-03 0. -1.
         12    1    3    3    0    0 -0.26035957233E+02 -0.13519129403E+02 -0.53217997506E+01  0.29815423550E+02  0.00000000000E+00 0. -1.
</event>
<event>
 7    1  0.2851651E-013  0.7246159E+02  0.7816164E-02  0.1226708E+00
        -11   -1    0    0    0    0  0.00000000000E+00  0.00000000000E+00  0.45593999997E+02  0.45594000000E+02  0.51100000000E-03 0.  1.
         11   -1    0    0    0    0 -0.00000000000E+00 -0.00000000000E+00 -0.45593999997E+02  0.45594000000E+02  0.51100000000E-03 0. -1.
    9900012    2    1    2    0    0  0.49210944265E+01  0.58016594066E+01 -0.17111454314E+02  0.72461593752E+02  0.70000030558E+02 0.  0.
        -12    1    1    2    0    0 -0.49210944265E+01 -0.58016594066E+01  0.17111454314E+02  0.18726406248E+02  0.00000000000E+00 0.  1.
         11    1    3    3    0    0  0.21765753960E+01  0.25305359086E+02 -0.26561538930E+02  0.36750701075E+02  0.51100000000E-03 0. -1.
        -11    1    3    3    0    0  0.71251383223E+00  0.42172576070E+01 -0.59711779183E+01  0.73449236672E+01  0.51100000000E-03 0.  1.
        -12    1    3    3    0    0  0.20320051983E+01 -0.23720957286E+02  0.15421262534E+02  0.28365969009E+02  0.00000000000E+00 0.  1.
</event>
<event>
 7    1  0.2851651E-013  0.7246157E+02  0.7816164E-02  0.1226708E+00
        -11   -1    0    0    0    0  0.00000000000E+00  0.00000000000E+00  0.45593999997E+02  0.45594000000E+02  0.51100000000E-03 0.  1.
         11   -1    0    0    0    0 -0.00000000000E+00 -0.00000000000E+00 -0.45593999997E+02  0.45594000000E+02  0.51100000000E-03 0. -1.
    9900012    2    1    2    0    0  0.95720063973E+01 -0.15984264495E+02  0.18866036651E+01  0.72461567043E+02  0.69999995764E+02 0.  0.
        -12    1    1    2    0    0 -0.95720063973E+01  0.15984264495E+02 -0.18866036651E+01  0.18726432957E+02  0.00000000000E+00 0.  1.
         11    1    3    3    0    0 -0.41990358034E+00  0.36046511725E+01 -0.77611734155E+00  0.37110897970E+01  0.51100000000E-03 0. -1.
        -11    1    3    3    0    0  0.17326310467E+02  0.20550665277E+02  0.68299430658E+01  0.27734076518E+02  0.51100000000E-03 0.  1.
         12    1    3    3    0    0 -0.73344004899E+01 -0.40139580945E+02 -0.41672220592E+01  0.41016400728E+02  0.00000000000E+00 0. -1.
</event>
<event>
 7    1  0.2851651E-013  0.7246155E+02  0.7816164E-02  0.1226708E+00
        -11   -1    0    0    0    0  0.00000000000E+00  0.00000000000E+00  0.45593999997E+02  0.45594000000E+02  0.51100000000E-03 0.  1.
         11   -1    0    0    0    0 -0.00000000000E+00 -0.00000000000E+00 -0.45593999997E+02  0.45594000000E+02  0.51100000000E-03 0. -1.
    9900012    2    1    2    0    0  0.13859102923E+02  0.11593633049E+02 -0.49186240548E+01  0.72461550158E+02  0.69999973768E+02 0.  0.
        -12    1    1    2    0    0 -0.13859102923E+02 -0.11593633049E+02  0.49186240548E+01  0.18726449842E+02  0.00000000000E+00 0.  1.
         11    1    3    3    0    0  0.76591383417E+01 -0.91793638334E+01 -0.32065783687E+02  0.34221887795E+02  0.51100000000E-03 0. -1.
        -11    1    3    3    0    0  0.22645101788E+01 -0.21154933815E+01  0.97449338265E+00  0.32485313930E+01  0.51100000000E-03 0.  1.
        -12    1    3    3    0    0  0.39354544021E+01  0.22888490264E+02  0.26172666250E+02  0.34991130970E+02  0.00000000000E+00 0.  1.
</event>
<event>
 7    1  0.2851651E-013  0.7246157E+02  0.7816164E-02  0.1226708E+00
        -11   -1    0    0    0    0  0.00000000000E+00  0.00000000000E+00  0.45593999997E+02  0.45594000000E+02  0.51100000000E-03 0. -1.
         11   -1    0    0    0    0 -0.00000000000E+00 -0.00000000000E+00 -0.45593999997E+02  0.45594000000E+02  0.51100000000E-03 0.  1.
    9900012    2    1    2    0    0  0.27845385491E+01 -0.17369600216E+02 -0.64204818763E+01  0.72461568035E+02  0.69999997057E+02 0.  0.
        -12    1    1    2    0    0 -0.27845385491E+01  0.17369600216E+02  0.64204818763E+01  0.18726431965E+02  0.00000000000E+00 0.  1.
         11    1    3    3    0    0  0.17863103342E+02  0.26517338039E+01 -0.91357562779E+01  0.20238186584E+02  0.51100000000E-03 0. -1.
        -11    1    3    3    0    0 -0.27400919408E+01  0.22113247161E+01 -0.18669924685E+02  0.18999056526E+02  0.51100000000E-03 0.  1.
        -12    1    3    3    0    0 -0.12338472852E+02 -0.22232658736E+02  0.21385199087E+02  0.33224324926E+02  0.00000000000E+00 0.  1.
</event>
<event>
 7    1  0.2851651E-013  0.7246160E+02  0.7816164E-02  0.1226708E+00
        -11   -1    0    0    0    0  0.00000000000E+00  0.00000000000E+00  0.45593999997E+02  0.45594000000E+02  0.51100000000E-03 0. -1.
         11   -1    0    0    0    0 -0.00000000000E+00 -0.00000000000E+00 -0.45593999997E+02  0.45594000000E+02  0.51100000000E-03 0.  1.
    9900012    2    1    2    0    0 -0.63064103207E+01  0.11613924756E+01  0.17594269605E+02  0.72461602414E+02  0.70000041842E+02 0.  0.
        -12    1    1    2    0    0  0.63064103207E+01 -0.11613924756E+01 -0.17594269605E+02  0.18726397586E+02  0.00000000000E+00 0.  1.
         11    1    3    3    0    0 -0.11943930353E+01 -0.13802700538E+02  0.11321722750E+02  0.17891968119E+02  0.51100000000E-03 0. -1.
        -11    1    3    3    0    0 -0.21118030951E+02 -0.52637434810E+01  0.15988697939E+02  0.27005863969E+02  0.51100000000E-03 0.  1.
        -12    1    3    3    0    0  0.16006013666E+02  0.20227836494E+02 -0.97161510841E+01  0.27563770326E+02  0.00000000000E+00 0.  1.
</event>
<event>
 7    1  0.2851651E-013  0.7246161E+02  0.7816164E-02  0.1226708E+00
        -11   -1    0    0    0    0  0.00000000000E+00  0.00000000000E+00  0.45593999997E+02  0.45594000000E+02  0.51100000000E-03 0.  1.
         11   -1    0    0    0    0 -0.00000000000E+00 -0.00000000000E+00 -0.45593999997E+02  0.45594000000E+02  0.51100000000E-03 0. -1.
    9900012    2    1    2    0    0 -0.12167242629E+02 -0.11457029886E+02 -0.84482231765E+01  0.72461606812E+02  0.70000047571E+02 0.  0.
        -12    1    1    2    0    0  0.12167242629E+02  0.11457029886E+02  0.84482231765E+01  0.18726393188E+02  0.00000000000E+00 0.  1.
         11    1    3    3    0    0 -0.22714795423E+02 -0.72576332297E+01 -0.19419584375E+02  0.30753136893E+02  0.51100000000E-03 0. -1.
        -11    1    3    3    0    0 -0.95035396091E+01 -0.14658934521E+02  0.65968527827E+01  0.18674048659E+02  0.51100000000E-03 0.  1.
         12    1    3    3    0    0  0.20051092403E+02  0.10459537866E+02  0.43745084159E+01  0.23034421260E+02  0.00000000000E+00 0. -1.
</event>
<event>
 7    1  0.2851651E-013  0.7246159E+02  0.7816164E-02  0.1226708E+00
        -11   -1    0    0    0    0  0.00000000000E+00  0.00000000000E+00  0.45593999997E+02  0.45594000000E+02  0.51100000000E-03 0. -1.
         11   -1    0    0    0    0 -0.00000000000E+00 -0.00000000000E+00 -0.45593999997E+02  0.45594000000E+02  0.51100000000E-03 0.  1.
    9900012    2    1    2    0    0  0.15105228881E+02  0.65841624282E+01 -0.88971558114E+01  0.72461587745E+02  0.70000022733E+02 0.  0.
        -12    1    1    2    0    0 -0.15105228881E+02 -0.65841624282E+01  0.88971558114E+01  0.18726412255E+02  0.00000000000E+00 0.  1.
         11    1    3    3    0    0  0.28600792384E+02 -0.24537859132E+02 -0.20561987620E+01  0.37740426725E+02  0.51100000000E-03 0. -1.
        -11    1    3    3    0    0 -0.86906518734E+00  0.12057659424E+01 -0.81487822786E+00  0.16950435378E+01  0.51100000000E-03 0.  1.
        -12    1    3    3    0    0 -0.12626498316E+02  0.29916255618E+02 -0.60260788216E+01  0.33026117482E+02  0.00000000000E+00 0.  1.
</event>
<event>
 7    1  0.2851651E-013  0.7246157E+02  0.7816164E-02  0.1226708E+00
        -11   -1    0    0    0    0  0.00000000000E+00  0.00000000000E+00  0.45593999997E+02  0.45594000000E+02  0.51100000000E-03 0. -1.
         11   -1    0    0    0    0 -0.00000000000E+00 -0.00000000000E+00 -0.45593999997E+02  0.45594000000E+02  0.51100000000E-03 0.  1.
    9900012    2    1    2    0    0  0.15676358285E+02 -0.97862427944E+01  0.30265889968E+01  0.72461574872E+02  0.70000005964E+02 0.  0.
        -12    1    1    2    0    0 -0.15676358285E+02  0.97862427944E+01 -0.30265889968E+01  0.18726425128E+02  0.00000000000E+00 0.  1.
         11    1    3    3    0    0  0.28814192888E+02  0.94442227256E+01 -0.10098293777E+02  0.31959765208E+02  0.51100000000E-03 0. -1.
        -11    1    3    3    0    0  0.89503324663E+01 -0.62232788298E+01  0.97905756104E+01  0.14652406686E+02  0.51100000000E-03 0.  1.
        -12    1    3    3    0    0 -0.22088167069E+02 -0.13007186690E+02  0.33343071635E+01  0.25849402978E+02  0.00000000000E+00 0.  1.
</event>
<event>
 7    1  0.2851651E-013  0.7246159E+02  0.7816164E-02  0.1226708E+00
        -11   -1    0    0    0    0  0.00000000000E+00  0.00000000000E+00  0.45593999997E+02  0.45594000000E+02  0.51100000000E-03 0.  1.
         11   -1    0    0    0    0 -0.00000000000E+00 -0.00000000000E+00 -0.45593999997E+02  0.45594000000E+02  0.51100000000E-03 0. -1.
    9900012    2    1    2    0    0 -0.12887678482E+02 -0.13020608936E+02 -0.38794431781E+01  0.72461585685E+02  0.70000020050E+02 0.  0.
        -12    1    1    2    0    0  0.12887678482E+02  0.13020608936E+02  0.38794431781E+01  0.18726414315E+02  0.00000000000E+00 0.  1.
         11    1    3    3    0    0 -0.21470487077E+02  0.19658034339E+02  0.65032378585E+01  0.29828044393E+02  0.51100000000E-03 0. -1.
        -11    1    3    3    0    0 -0.66407458414E+01 -0.55792258482E+01 -0.74123678409E+01  0.11409227128E+02  0.51100000000E-03 0.  1.
        -12    1    3    3    0    0  0.15223554437E+02 -0.27099417426E+02 -0.29703131957E+01  0.31224314164E+02  0.00000000000E+00 0.  1.
</event>
<event>
 7    1  0.2851651E-013  0.7246161E+02  0.7816164E-02  0.1226708E+00
        -11   -1    0    0    0    0  0.00000000000E+00  0.00000000000E+00  0.45593999997E+02  0.45594000000E+02  0.51100000000E-03 0.  1.
         11   -1    0    0    0    0 -0.00000000000E+00 -0.00000000000E+00 -0.45593999997E+02  0.45594000000E+02  0.51100000000E-03 0. -1.
    9900012    2    1    2    0    0  0.16313061150E+02 -0.91295957614E+01  0.11010077106E+01  0.72461609509E+02  0.70000051084E+02 0.  0.
        -12    1    1    2    0    0 -0.16313061150E+02  0.91295957614E+01 -0.11010077106E+01  0.18726390491E+02  0.00000000000E+00 0.  1.
         11    1    3    3    0    0  0.19805487550E+02  0.37679969331E+01 -0.61697888492E+01  0.21083676925E+02  0.51100000000E-03 0. -1.
        -11    1    3    3    0    0 -0.49504826936E+01 -0.19136102447E+02 -0.17126379949E+02  0.26153596047E+02  0.51100000000E-03 0.  1.
        -12    1    3    3    0    0  0.14580562933E+01  0.62385097522E+01  0.24397176509E+02  0.25224336537E+02  0.00000000000E+00 0.  1.
</event>
<event>
 7    1  0.2851651E-013  0.7246154E+02  0.7816164E-02  0.1226708E+00
        -11   -1    0    0    0    0  0.00000000000E+00  0.00000000000E+00  0.45593999997E+02  0.45594000000E+02  0.51100000000E-03 0.  1.
         11   -1    0    0    0    0 -0.00000000000E+00 -0.00000000000E+00 -0.45593999997E+02  0.45594000000E+02  0.51100000000E-03 0. -1.
    9900012    2    1    2    0    0  0.13434994285E+02 -0.37885846467E+01 -0.12483102216E+02  0.72461540484E+02  0.69999961166E+02 0.  0.
        -12    1    1    2    0    0 -0.13434994285E+02  0.37885846467E+01  0.12483102216E+02  0.18726459516E+02  0.00000000000E+00 0.  1.
         11    1    3    3    0    0  0.22838343614E+02 -0.38529347162E+01 -0.23452286111E+02  0.32961261642E+02  0.51100000000E-03 0. -1.
        -11    1    3    3    0    0  0.78667567673E+01 -0.37345595463E+00 -0.97437165107E+01  0.12528581048E+02  0.51100000000E-03 0.  1.
        -12    1    3    3    0    0 -0.17270106096E+02  0.43780602416E+00  0.20712900405E+02  0.26971697793E+02  0.00000000000E+00 0.  1.
</event>
<event>
 7    1  0.2851651E-013  0.7246147E+02  0.7816164E-02  0.1226708E+00
        -11   -1    0    0    0    0  0.00000000000E+00  0.00000000000E+00  0.45593999997E+02  0.45594000000E+02  0.51100000000E-03 0.  1.
         11   -1    0    0    0    0 -0.00000000000E+00 -0.00000000000E+00 -0.45593999997E+02  0.45594000000E+02  0.51100000000E-03 0. -1.
    9900012    2    1    2    0    0  0.28786612732E+01  0.17857061834E+02  0.48498931051E+01  0.72461473061E+02  0.69999873335E+02 0.  0.
        -12    1    1    2    0    0 -0.28786612732E+01 -0.17857061834E+02 -0.48498931051E+01  0.18726526939E+02  0.00000000000E+00 0.  1.
         11    1    3    3    0    0  0.18406546575E+01  0.24913020542E+01  0.84269023842E+00  0.32100969756E+01  0.51100000000E-03 0. -1.
        -11    1    3    3    0    0  0.31974823205E+02  0.11649379667E+02 -0.94376222709E+01  0.35315238638E+02  0.51100000000E-03 0.  1.
         12    1    3    3    0    0 -0.30936816590E+02  0.37163801127E+01  0.13444825138E+02  0.33936137447E+02  0.00000000000E+00 0. -1.
</event>
<event>
 7    1  0.2851651E-013  0.7246160E+02  0.7816164E-02  0.1226708E+00
        -11   -1    0    0    0    0  0.00000000000E+00  0.00000000000E+00  0.45593999997E+02  0.45594000000E+02  0.51100000000E-03 0. -1.
         11   -1    0    0    0    0 -0.00000000000E+00 -0.00000000000E+00 -0.45593999997E+02  0.45594000000E+02  0.51100000000E-03 0.  1.
    9900012    2    1    2    0    0  0.17769987850E+02  0.31480646012E+01  0.49995310789E+01  0.72461599119E+02  0.70000037550E+02 0.  0.
        -12    1    1    2    0    0 -0.17769987850E+02 -0.31480646012E+01 -0.49995310789E+01  0.18726400881E+02  0.00000000000E+00 0.  1.
         11    1    3    3    0    0  0.11727797922E+02  0.14063480817E+02  0.24579319927E+02  0.30650704807E+02  0.51100000000E-03 0. -1.
        -11    1    3    3    0    0  0.14325548155E+02 -0.25446966874E+01  0.43112624506E+01  0.15175104459E+02  0.51100000000E-03 0.  1.
         12    1    3    3    0    0 -0.82833582270E+01 -0.83707195287E+01 -0.23891051299E+02  0.26635789853E+02  0.00000000000E+00 0. -1.
</event>
<event>
 7    1  0.2851651E-013  0.7246156E+02  0.7816164E-02  0.1226708E+00
        -11   -1    0    0    0    0  0.00000000000E+00  0.00000000000E+00  0.45593999997E+02  0.45594000000E+02  0.51100000000E-03 0. -1.
         11   -1    0    0    0    0 -0.00000000000E+00 -0.00000000000E+00 -0.45593999997E+02  0.45594000000E+02  0.51100000000E-03 0.  1.
    9900012    2    1    2    0    0 -0.12258402677E+02  0.11116822295E+02  0.87651228403E+01  0.72461560068E+02  0.69999986678E+02 0.  0.
        -12    1    1    2    0    0  0.12258402677E+02 -0.11116822295E+02 -0.87651228403E+01  0.18726439932E+02  0.00000000000E+00 0.  1.
         11    1    3    3    0    0 -0.29387422359E+02  0.19865474826E+02  0.11960214644E+02  0.37434000822E+02  0.51100000000E-03 0. -1.
        -11    1    3    3    0    0 -0.50085789106E+01  0.21957768777E+01 -0.81746979841E+01  0.98352928880E+01  0.51100000000E-03 0.  1.
        -12    1    3    3    0    0  0.22137598593E+02 -0.10944429408E+02  0.49796061803E+01  0.25192266358E+02  0.00000000000E+00 0.  1.
</event>
<event>
 7    1  0.2851651E-013  0.7246160E+02  0.7816164E-02  0.1226708E+00
        -11   -1    0    0    0    0  0.00000000000E+00  0.00000000000E+00  0.45593999997E+02  0.45594000000E+02  0.51100000000E-03 0.  1.
         11   -1    0    0    0    0 -0.00000000000E+00 -0.00000000000E+00 -0.45593999997E+02  0.45594000000E+02  0.51100000000E-03 0. -1.
    9900012    2    1    2    0    0  0.11027793362E+02  0.46551836848E+01 -0.14401215317E+02  0.72461602477E+02  0.70000041924E+02 0.  0.
        -12    1    1    2    0    0 -0.11027793362E+02 -0.46551836848E+01  0.14401215317E+02  0.18726397523E+02  0.00000000000E+00 0.  1.
         11    1    3    3    0    0  0.17141165750E+02  0.11621995281E+02  0.66503788439E+00  0.20720342980E+02  0.51100000000E-03 0. -1.
        -11    1    3    3    0    0 -0.23710331078E+01  0.20053597332E+02  0.75397941784E+00  0.20207351365E+02  0.51100000000E-03 0.  1.
         12    1    3    3    0    0 -0.37423392797E+01 -0.27020408928E+02 -0.15820232619E+02  0.31533908132E+02  0.00000000000E+00 0. -1.
</event>
<event>
 7    1  0.2851651E-013  0.7246157E+02  0.7816164E-02  0.1226708E+00
        -11   -1    0    0    0    0  0.00000000000E+00  0.00000000000E+00  0.45593999997E+02  0.45594000000E+02  0.51100000000E-03 0.  1.
         11   -1    0    0    0    0 -0.00000000000E+00 -0.00000000000E+00 -0.45593999997E+02  0.45594000000E+02  0.51100000000E-03 0. -1.
    9900012    2    1    2    0    0  0.16283860119E+02  0.91359632656E+01 -0.14315071606E+01  0.72461571139E+02  0.70000001100E+02 0.  0.
        -12    1    1    2    0    0 -0.16283860119E+02 -0.91359632656E+01  0.14315071606E+01  0.18726428861E+02  0.00000000000E+00 0.  1.
         11    1    3    3    0    0  0.27247116437E+02  0.20359548635E+00 -0.39969458594E+01  0.27539469525E+02  0.51100000000E-03 0. -1.
        -11    1    3    3    0    0  0.78123310093E+01  0.10822436359E+02 -0.14337093636E+02  0.19588514460E+02  0.51100000000E-03 0.  1.
        -12    1    3    3    0    0 -0.18775587328E+02 -0.18900685799E+01  0.16902532335E+02  0.25333587154E+02  0.00000000000E+00 0.  1.
</event>
<event>
 7    1  0.2851651E-013  0.7246153E+02  0.7816164E-02  0.1226708E+00
        -11   -1    0    0    0    0  0.00000000000E+00  0.00000000000E+00  0.45593999997E+02  0.45594000000E+02  0.51100000000E-03 0.  1.
         11   -1    0    0    0    0 -0.00000000000E+00 -0.00000000000E+00 -0.45593999997E+02  0.45594000000E+02  0.51100000000E-03 0. -1.
    9900012    2    1    2    0    0  0.10101803376E+02  0.15637974185E+02 -0.20219114711E+01  0.72461526919E+02  0.69999943496E+02 0.  0.
        -12    1    1    2    0    0 -0.10101803376E+02 -0.15637974185E+02  0.20219114711E+01  0.18726473081E+02  0.00000000000E+00 0.  1.
         11    1    3    3    0    0 -0.16504975954E+02  0.19996089012E+02 -0.15647294219E+02  0.30283586704E+02  0.51100000000E-03 0. -1.
        -11    1    3    3    0    0 -0.30021545347E+01  0.57475898398E+01 -0.25378884202E+01  0.69633755256E+01  0.51100000000E-03 0.  1.
        -12    1    3    3    0    0  0.29608933865E+02 -0.10105704667E+02  0.16163271168E+02  0.35214564690E+02  0.00000000000E+00 0.  1.
</event>
<event>
 7    1  0.2851651E-013  0.7246156E+02  0.7816164E-02  0.1226708E+00
        -11   -1    0    0    0    0  0.00000000000E+00  0.00000000000E+00  0.45593999997E+02  0.45594000000E+02  0.51100000000E-03 0. -1.
         11   -1    0    0    0    0 -0.00000000000E+00 -0.00000000000E+00 -0.45593999997E+02  0.45594000000E+02  0.51100000000E-03 0.  1.
    9900012    2    1    2    0    0  0.89505575412E+01 -0.15150479614E+02 -0.64054763553E+01  0.72461557728E+02  0.69999983630E+02 0.  0.
        -12    1    1    2    0    0 -0.89505575412E+01  0.15150479614E+02  0.64054763553E+01  0.18726442272E+02  0.00000000000E+00 0.  1.
         11    1    3    3    0    0 -0.22214110361E+02  0.25810789847E+01 -0.19259013475E+02  0.29513357453E+02  0.51100000000E-03 0. -1.
        -11    1    3    3    0    0  0.86975027356E+01  0.27567642986E+01 -0.16302778587E+01  0.92684469784E+01  0.51100000000E-03 0.  1.
         12    1    3    3    0    0  0.22467165167E+02 -0.20488322897E+02  0.14483814978E+02  0.33679753296E+02  0.00000000000E+00 0. -1.
</event>
<event>
 7    1  0.2851651E-013  0.7246157E+02  0.7816164E-02  0.1226708E+00
        -11   -1    0    0    0    0  0.00000000000E+00  0.00000000000E+00  0.45593999997E+02  0.45594000000E+02  0.51100000000E-03 0. -1.
         11   -1    0    0    0    0 -0.00000000000E+00 -0.00000000000E+00 -0.45593999997E+02  0.45594000000E+02  0.51100000000E-03 0.  1.
    9900012    2    1    2    0    0  0.45641042454E+01 -0.13878326945E+02  0.11714948094E+02  0.72461574415E+02  0.70000005368E+02 0.  0.
        -12    1    1    2    0    0 -0.45641042454E+01  0.13878326945E+02 -0.11714948094E+02  0.18726425585E+02  0.00000000000E+00 0.  1.
         11    1    3    3    0    0  0.87520163298E+01 -0.12206288671E+02  0.37128250754E+01  0.15471791857E+02  0.51100000000E-03 0. -1.
        -11    1    3    3    0    0 -0.16238492987E+01 -0.17889367244E+02  0.26653341807E+02  0.32141359285E+02  0.51100000000E-03 0.  1.
        -12    1    3    3    0    0 -0.25640627858E+01  0.16217328970E+02 -0.18651218789E+02  0.24848423274E+02  0.00000000000E+00 0.  1.
</event>
<event>
 7    1  0.2851651E-013  0.7246164E+02  0.7816164E-02  0.1226708E+00
        -11   -1    0    0    0    0  0.00000000000E+00  0.00000000000E+00  0.45593999997E+02  0.45594000000E+02  0.51100000000E-03 0. -1.
         11   -1    0    0    0    0 -0.00000000000E+00 -0.00000000000E+00 -0.45593999997E+02  0.45594000000E+02  0.51100000000E-03 0.  1.
    9900012    2    1    2    0    0  0.11475739993E+02 -0.13234394946E+02  0.66207694569E+01  0.72461644076E+02  0.70000096115E+02 0.  0.
        -12    1    1    2    0    0 -0.11475739993E+02  0.13234394946E+02 -0.66207694569E+01  0.18726355924E+02  0.00000000000E+00 0.  1.
         11    1    3    3    0    0  0.22796530975E+02 -0.18482884804E+01  0.14314116851E+02  0.26981325695E+02  0.51100000000E-03 0. -1.
        -11    1    3    3    0    0  0.71018897286E+01 -0.21901721697E+02 -0.76681420205E+01  0.24267728640E+02  0.51100000000E-03 0.  1.
        -12    1    3    3    0    0 -0.18422680710E+02  0.10515615232E+02 -0.25205373237E-01  0.21212589742E+02  0.00000000000E+00 0.  1.
</event>
<event>
 7    1  0.2851651E-013  0.7246120E+02  0.7816164E-02  0.1226709E+00
        -11   -1    0    0    0    0  0.00000000000E+00  0.00000000000E+00  0.45593999997E+02  0.45594000000E+02  0.51100000000E-03 0.  1.
         11   -1    0    0    0    0 -0.00000000000E+00 -0.00000000000E+00 -0.45593999997E+02  0.45594000000E+02  0.51100000000E-03 0. -1.
    9900012    2    1    2    0    0  0.17407060236E+02  0.60130211088E+01  0.33957103826E+01  0.72461200543E+02  0.69999518328E+02 0.  0.
        -12    1    1    2    0    0 -0.17407060236E+02 -0.60130211088E+01 -0.33957103826E+01  0.18726799457E+02  0.00000000000E+00 0.  1.
         11    1    3    3    0    0  0.17095908387E+02 -0.26908954842E+01 -0.18786252480E+01  0.17408050872E+02  0.51100000000E-03 0. -1.
        -11    1    3    3    0    0  0.18205129162E+02 -0.15309427108E+02  0.77153180259E+01  0.25006627495E+02  0.51100000000E-03 0.  1.
         12    1    3    3    0    0 -0.17893977313E+02  0.24013343701E+02 -0.24409823952E+01  0.30046522175E+02  0.00000000000E+00 0. -1.
</event>
<event>
 7    1  0.2851651E-013  0.7246167E+02  0.7816164E-02  0.1226708E+00
        -11   -1    0    0    0    0  0.00000000000E+00  0.00000000000E+00  0.45593999997E+02  0.45594000000E+02  0.51100000000E-03 0.  1.
         11   -1    0    0    0    0 -0.00000000000E+00 -0.00000000000E+00 -0.45593999997E+02  0.45594000000E+02  0.51100000000E-03 0. -1.
    9900012    2    1    2    0    0  0.19470983282E+01  0.46954413501E+01 -0.18023234738E+02  0.72461672229E+02  0.70000132788E+02 0.  0.
        -12    1    1    2    0    0 -0.19470983282E+01 -0.46954413501E+01  0.18023234738E+02  0.18726327771E+02  0.00000000000E+00 0.  1.
         11    1    3    3    0    0 -0.86629361015E+01  0.19951913043E+02 -0.23758051424E+02  0.32211338124E+02  0.51100000000E-03 0. -1.
        -11    1    3    3    0    0  0.19737086935E+02  0.29656601132E+00 -0.34086404551E+01  0.20031459810E+02  0.51100000000E-03 0.  1.
         12    1    3    3    0    0 -0.91270525057E+01 -0.15553037705E+02  0.91434571409E+01  0.20218874295E+02  0.00000000000E+00 0. -1.
</event>
<event>
 7    1  0.2851651E-013  0.7246186E+02  0.7816164E-02  0.1226707E+00
        -11   -1    0    0    0    0  0.00000000000E+00  0.00000000000E+00  0.45593999997E+02  0.45594000000E+02  0.51100000000E-03 0.  1.
         11   -1    0    0    0    0 -0.00000000000E+00 -0.00000000000E+00 -0.45593999997E+02  0.45594000000E+02  0.51100000000E-03 0. -1.
    9900012    2    1    2    0    0 -0.87355333932E+01  0.86228739952E+01 -0.14142304392E+02  0.72461861233E+02  0.70000379001E+02 0.  0.
        -12    1    1    2    0    0  0.87355333932E+01 -0.86228739952E+01  0.14142304392E+02  0.18726138767E+02  0.00000000000E+00 0.  1.
         11    1    3    3    0    0  0.18575139659E+02  0.83815582428E+01 -0.17156355678E+02  0.26638822654E+02  0.51100000000E-03 0. -1.
        -11    1    3    3    0    0 -0.26896937948E+02  0.14121952398E+02  0.73868335557E+01  0.31264038779E+02  0.51100000000E-03 0.  1.
         12    1    3    3    0    0 -0.41373510479E+00 -0.13880636646E+02 -0.43727822691E+01  0.14558999801E+02  0.00000000000E+00 0. -1.
</event>
<event>
 7    1  0.2851651E-013  0.7246159E+02  0.7816164E-02  0.1226708E+00
        -11   -1    0    0    0    0  0.00000000000E+00  0.00000000000E+00  0.45593999997E+02  0.45594000000E+02  0.51100000000E-03 0.  1.
         11   -1    0    0    0    0 -0.00000000000E+00 -0.00000000000E+00 -0.45593999997E+02  0.45594000000E+02  0.51100000000E-03 0. -1.
    9900012    2    1    2    0    0 -0.20304038975E+01  0.58692401226E+00 -0.18606758392E+02  0.72461588768E+02  0.70000024065E+02 0.  0.
        -12    1    1    2    0    0  0.20304038975E+01 -0.58692401226E+00  0.18606758392E+02  0.18726411232E+02  0.00000000000E+00 0.  1.
         11    1    3    3    0    0  0.46498738491E+01  0.25850989101E+01 -0.28809748172E+02  0.29296853981E+02  0.51100000000E-03 0. -1.
        -11    1    3    3    0    0  0.11012592842E+02 -0.15607262593E+02  0.13407632105E+01  0.19148407062E+02  0.51100000000E-03 0.  1.
        -12    1    3    3    0    0 -0.17692870589E+02  0.13609087696E+02  0.88622265696E+01  0.24016327724E+02  0.00000000000E+00 0.  1.
</event>
<event>
 7    1  0.2851651E-013  0.7246157E+02  0.7816164E-02  0.1226708E+00
        -11   -1    0    0    0    0  0.00000000000E+00  0.00000000000E+00  0.45593999997E+02  0.45594000000E+02  0.51100000000E-03 0. -1.
         11   -1    0    0    0    0 -0.00000000000E+00 -0.00000000000E+00 -0.45593999997E+02  0.45594000000E+02  0.51100000000E-03 0.  1.
    9900012    2    1    2    0    0  0.13320829223E+02 -0.12642451542E+02 -0.36610117480E+01  0.72461572706E+02  0.70000003142E+02 0.  0.
        -12    1    1    2    0    0 -0.13320829223E+02  0.12642451542E+02  0.36610117480E+01  0.18726427294E+02  0.00000000000E+00 0.  1.
         11    1    3    3    0    0  0.64416907817E+01  0.36166690083E+01  0.12094396867E+02  0.14172159704E+02  0.51100000000E-03 0. -1.
        -11    1    3    3    0    0 -0.38468110879E+01 -0.34628264993E+02 -0.93336559752E+01  0.36069818770E+02  0.51100000000E-03 0.  1.
         12    1    3    3    0    0  0.10725949529E+02  0.18369144443E+02 -0.64217526401E+01  0.22219594232E+02  0.00000000000E+00 0. -1.
</event>
<event>
 7    1  0.2851651E-013  0.7246155E+02  0.7816164E-02  0.1226708E+00
        -11   -1    0    0    0    0  0.00000000000E+00  0.00000000000E+00  0.45593999997E+02  0.45594000000E+02  0.51100000000E-03 0.  1.
         11   -1    0    0    0    0 -0.00000000000E+00 -0.00000000000E+00 -0.45593999997E+02  0.45594000000E+02  0.51100000000E-03 0. -1.
    9900012    2    1    2    0    0 -0.71701813965E+01  0.17206091820E+02 -0.17940960944E+01  0.72461551384E+02  0.69999975366E+02 0.  0.
        -12    1    1    2    0    0  0.71701813965E+01 -0.17206091820E+02  0.17940960944E+01  0.18726448616E+02  0.00000000000E+00 0.  1.
         11    1    3    3    0    0 -0.50879181217E+01  0.20163158067E+02  0.53983769855E+01  0.21484467142E+02  0.51100000000E-03 0. -1.
        -11    1    3    3    0    0 -0.84000617774E+01  0.20109862587E+02  0.73339768616E+01  0.22994669556E+02  0.51100000000E-03 0.  1.
        -12    1    3    3    0    0  0.63177985026E+01 -0.23066928834E+02 -0.14526449942E+02  0.27982414686E+02  0.00000000000E+00 0.  1.
</event>
<event>
 7    1  0.2851651E-013  0.7246129E+02  0.7816164E-02  0.1226709E+00
        -11   -1    0    0    0    0  0.00000000000E+00  0.00000000000E+00  0.45593999997E+02  0.45594000000E+02  0.51100000000E-03 0.  1.
         11   -1    0    0    0    0 -0.00000000000E+00 -0.00000000000E+00 -0.45593999997E+02  0.45594000000E+02  0.51100000000E-03 0. -1.
    9900012    2    1    2    0    0  0.18516795172E+02  0.28626703654E+00  0.27813843038E+01  0.72461287771E+02  0.69999631960E+02 0.  0.
        -12    1    1    2    0    0 -0.18516795172E+02 -0.28626703654E+00 -0.27813843038E+01  0.18726712229E+02  0.00000000000E+00 0.  1.
         11    1    3    3    0    0 -0.10822485996E+02 -0.15035849399E+00  0.69912834759E+01  0.12885140888E+02  0.51100000000E-03 0. -1.
        -11    1    3    3    0    0 -0.41192838866E+01  0.46508780181E+01  0.18103223866E+02  0.19139641602E+02  0.51100000000E-03 0.  1.
        -12    1    3    3    0    0  0.33458565055E+02 -0.42142524875E+01 -0.22313123038E+02  0.40436505280E+02  0.00000000000E+00 0.  1.
</event>
<event>
 7    1  0.2851651E-013  0.7246156E+02  0.7816164E-02  0.1226708E+00
        -11   -1    0    0    0    0  0.00000000000E+00  0.00000000000E+00  0.45593999997E+02  0.45594000000E+02  0.51100000000E-03 0.  1.
         11   -1    0    0    0    0 -0.00000000000E+00 -0.00000000000E+00 -0.45593999997E+02  0.45594000000E+02  0.51100000000E-03 0. -1.
    9900012    2    1    2    0    0 -0.59777831749E+01  0.78564574224E+00 -0.17729312364E+02  0.72461557524E+02  0.69999983364E+02 0.  0.
        -12    1    1    2    0    0  0.59777831749E+01 -0.78564574224E+00  0.17729312364E+02  0.18726442476E+02  0.00000000000E+00 0.  1.
         11    1    3    3    0    0  0.32328330612E+01 -0.85548196192E+01  0.33683305517E+01  0.97458606232E+01  0.51100000000E-03 0. -1.
        -11    1    3    3    0    0 -0.30922117920E+02  0.89554945055E+01  0.34977990948E+00  0.32194729456E+02  0.51100000000E-03 0.  1.
         12    1    3    3    0    0  0.21711501684E+02  0.38497085600E+00 -0.21447422825E+02  0.30520967445E+02  0.00000000000E+00 0. -1.
</event>
<event>
 7    1  0.2851651E-013  0.7246162E+02  0.7816164E-02  0.1226708E+00
        -11   -1    0    0    0    0  0.00000000000E+00  0.00000000000E+00  0.45593999997E+02  0.45594000000E+02  0.51100000000E-03 0.  1.
         11   -1    0    0    0    0 -0.00000000000E+00 -0.00000000000E+00 -0.45593999997E+02  0.45594000000E+02  0.51100000000E-03 0. -1.
    9900012    2    1    2    0    0 -0.11574110250E+02  0.58814960789E+01 -0.13495376567E+02  0.72461622537E+02  0.70000068056E+02 0.  0.
        -12    1    1    2    0    0  0.11574110250E+02 -0.58814960789E+01  0.13495376567E+02  0.18726377463E+02  0.00000000000E+00 0.  1.
         11    1    3    3    0    0 -0.28720668216E+01 -0.85184943328E+00 -0.11736231276E+02  0.12112536485E+02  0.51100000000E-03 0. -1.
        -11    1    3    3    0    0 -0.13620393008E+01  0.33010190006E+02 -0.69455355596E+00  0.33045577620E+02  0.51100000000E-03 0.  1.
         12    1    3    3    0    0 -0.73400041273E+01 -0.26276844494E+02 -0.10645917354E+01  0.27303508432E+02  0.00000000000E+00 0. -1.
</event>
<event>
 7    1  0.3299427E-013  0.7246162E+02  0.7816164E-02  0.1226708E+00
        -11   -1    0    0    0    0  0.00000000000E+00  0.00000000000E+00  0.45593999997E+02  0.45594000000E+02  0.51100000000E-03 0. -1.
         11   -1    0    0    0    0 -0.00000000000E+00 -0.00000000000E+00 -0.45593999997E+02  0.45594000000E+02  0.51100000000E-03 0.  1.
    9900012    2    1    2    0    0  0.60556890794E+01  0.56122664673E+01  0.16807985767E+02  0.72461620460E+02  0.70000065350E+02 0.  0.
        -12    1    1    2    0    0 -0.60556890794E+01 -0.56122664673E+01 -0.16807985767E+02  0.18726379540E+02  0.00000000000E+00 0.  1.
         11    1    3    3    0    0  0.11159332473E+02  0.23245380722E+01  0.53776850580E+00  0.11411545633E+02  0.51100000000E-03 0. -1.
        -11    1    3    3    0    0  0.16346942059E+02 -0.15234277612E+02 -0.80033783277E+01  0.23735201578E+02  0.51100000000E-03 0.  1.
         12    1    3    3    0    0 -0.21450585453E+02  0.18522006007E+02  0.24273595589E+02  0.37314873249E+02  0.00000000000E+00 0. -1.
</event>
<event>
 7    1  0.2851651E-013  0.7246152E+02  0.7816164E-02  0.1226708E+00
        -11   -1    0    0    0    0  0.00000000000E+00  0.00000000000E+00  0.45593999997E+02  0.45594000000E+02  0.51100000000E-03 0. -1.
         11   -1    0    0    0    0 -0.00000000000E+00 -0.00000000000E+00 -0.45593999997E+02  0.45594000000E+02  0.51100000000E-03 0.  1.
    9900012    2    1    2    0    0 -0.57275644753E+01  0.45906479402E+01  0.17227944073E+02  0.72461518742E+02  0.69999932843E+02 0.  0.
        -12    1    1    2    0    0  0.57275644753E+01 -0.45906479402E+01 -0.17227944073E+02  0.18726481258E+02  0.00000000000E+00 0.  1.
         11    1    3    3    0    0  0.10305969186E+02  0.40994710279E+00  0.13690696280E+02  0.17141068298E+02  0.51100000000E-03 0. -1.
        -11    1    3    3    0    0  0.16723309348E+02  0.71769543125E+01 -0.87682094772E+01  0.20200476392E+02  0.51100000000E-03 0.  1.
         12    1    3    3    0    0 -0.32756843009E+02 -0.29962534751E+01  0.12305457270E+02  0.35119974052E+02  0.00000000000E+00 0. -1.
</event>
<event>
 7    1  0.2851651E-013  0.7246156E+02  0.7816164E-02  0.1226708E+00
        -11   -1    0    0    0    0  0.00000000000E+00  0.00000000000E+00  0.45593999997E+02  0.45594000000E+02  0.51100000000E-03 0.  1.
         11   -1    0    0    0    0 -0.00000000000E+00 -0.00000000000E+00 -0.45593999997E+02  0.45594000000E+02  0.51100000000E-03 0. -1.
    9900012    2    1    2    0    0  0.54105937059E+01  0.15944423811E+02 -0.81963730140E+01  0.72461555983E+02  0.69999981357E+02 0.  0.
        -12    1    1    2    0    0 -0.54105937059E+01 -0.15944423811E+02  0.81963730140E+01  0.18726444017E+02  0.00000000000E+00 0.  1.
         11    1    3    3    0    0 -0.53226142205E+01 -0.13031196511E+02 -0.34711976752E+01  0.14497983246E+02  0.51100000000E-03 0. -1.
        -11    1    3    3    0    0  0.39355588644E+01  0.15828718936E+01 -0.23620791322E+02  0.23998664337E+02  0.51100000000E-03 0.  1.
        -12    1    3    3    0    0  0.67976490620E+01  0.27392748428E+02  0.18895615984E+02  0.33964908400E+02  0.00000000000E+00 0.  1.
</event>
<event>
 7    1  0.2851651E-013  0.7246158E+02  0.7816164E-02  0.1226708E+00
        -11   -1    0    0    0    0  0.00000000000E+00  0.00000000000E+00  0.45593999997E+02  0.45594000000E+02  0.51100000000E-03 0.  1.
         11   -1    0    0    0    0 -0.00000000000E+00 -0.00000000000E+00 -0.45593999997E+02  0.45594000000E+02  0.51100000000E-03 0. -1.
    9900012    2    1    2    0    0  0.87100294667E+01 -0.12759640896E+02  0.10583274982E+02  0.72461581270E+02  0.70000014298E+02 0.  0.
        -12    1    1    2    0    0 -0.87100294667E+01  0.12759640896E+02 -0.10583274982E+02  0.18726418730E+02  0.00000000000E+00 0.  1.
         11    1    3    3    0    0  0.10816002718E+02 -0.39766402633E+01  0.32045214027E+01  0.11961126212E+02  0.51100000000E-03 0. -1.
        -11    1    3    3    0    0 -0.97880048451E+00 -0.19290307058E+01  0.33449949407E+02  0.33519819890E+02  0.51100000000E-03 0.  1.
         12    1    3    3    0    0 -0.11271727668E+01 -0.68539699271E+01 -0.26071195827E+02  0.26980635168E+02  0.00000000000E+00 0. -1.
</event>
<event>
 7    1  0.2851651E-013  0.7246155E+02  0.7816164E-02  0.1226708E+00
        -11   -1    0    0    0    0  0.00000000000E+00  0.00000000000E+00  0.45593999997E+02  0.45594000000E+02  0.51100000000E-03 0. -1.
         11   -1    0    0    0    0 -0.00000000000E+00 -0.00000000000E+00 -0.45593999997E+02  0.45594000000E+02  0.51100000000E-03 0.  1.
    9900012    2    1    2    0    0  0.56569593593E+01  0.13258214755E+02  0.11954015493E+02  0.72461549881E+02  0.69999973407E+02 0.  0.
        -12    1    1    2    0    0 -0.56569593593E+01 -0.13258214755E+02 -0.11954015493E+02  0.18726450119E+02  0.00000000000E+00 0.  1.
         11    1    3    3    0    0 -0.16560280342E+01 -0.65833623300E+01  0.29663143788E+02  0.30430004733E+02  0.51100000000E-03 0. -1.
        -11    1    3    3    0    0 -0.50671774301E+01  0.43565024892E+00  0.67452131082E+01  0.84477203069E+01  0.51100000000E-03 0.  1.
        -12    1    3    3    0    0  0.12380164824E+02  0.19405926836E+02 -0.24454341404E+02  0.33583824840E+02  0.00000000000E+00 0.  1.
</event>
<event>
 7    1  0.2851651E-013  0.7246152E+02  0.7816164E-02  0.1226708E+00
        -11   -1    0    0    0    0  0.00000000000E+00  0.00000000000E+00  0.45593999997E+02  0.45594000000E+02  0.51100000000E-03 0.  1.
         11   -1    0    0    0    0 -0.00000000000E+00 -0.00000000000E+00 -0.45593999997E+02  0.45594000000E+02  0.51100000000E-03 0. -1.
    9900012    2    1    2    0    0 -0.31445853519E+01 -0.16412039267E+02 -0.84520721509E+01  0.72461522125E+02  0.69999937251E+02 0.  0.
        -12    1    1    2    0    0  0.31445853519E+01  0.16412039267E+02  0.84520721509E+01  0.18726477875E+02  0.00000000000E+00 0.  1.
         11    1    3    3    0    0 -0.56277180240E+01 -0.57032774450E+01  0.11581002879E+02  0.14082549901E+02  0.51100000000E-03 0. -1.
        -11    1    3    3    0    0 -0.20388752119E+02  0.54774001010E+01 -0.21744052386E+02  0.30306879405E+02  0.51100000000E-03 0.  1.
        -12    1    3    3    0    0  0.22871884791E+02 -0.16186161923E+02  0.17109773558E+01  0.28072092819E+02  0.00000000000E+00 0.  1.
</event>
<event>
 7    1  0.2851651E-013  0.7246160E+02  0.7816164E-02  0.1226708E+00
        -11   -1    0    0    0    0  0.00000000000E+00  0.00000000000E+00  0.45593999997E+02  0.45594000000E+02  0.51100000000E-03 0.  1.
         11   -1    0    0    0    0 -0.00000000000E+00 -0.00000000000E+00 -0.45593999997E+02  0.45594000000E+02  0.51100000000E-03 0. -1.
    9900012    2    1    2    0    0  0.19720049163E+01  0.76125205899E+00 -0.18606710836E+02  0.72461601621E+02  0.70000040809E+02 0.  0.
        -12    1    1    2    0    0 -0.19720049163E+01 -0.76125205899E+00  0.18606710836E+02  0.18726398379E+02  0.00000000000E+00 0.  1.
         11    1    3    3    0    0  0.28346880707E+01  0.62542857828E+01 -0.37980116404E+01  0.78470656804E+01  0.51100000000E-03 0. -1.
        -11    1    3    3    0    0  0.23743139759E+02  0.14902662693E+02 -0.16645211494E+02  0.32601980107E+02  0.51100000000E-03 0.  1.
        -12    1    3    3    0    0 -0.24605822914E+02 -0.20395696417E+02  0.18365122983E+01  0.32012555834E+02  0.00000000000E+00 0.  1.
</event>
<event>
 7    1  0.2851651E-013  0.7246155E+02  0.7816164E-02  0.1226708E+00
        -11   -1    0    0    0    0  0.00000000000E+00  0.00000000000E+00  0.45593999997E+02  0.45594000000E+02  0.51100000000E-03 0. -1.
         11   -1    0    0    0    0 -0.00000000000E+00 -0.00000000000E+00 -0.45593999997E+02  0.45594000000E+02  0.51100000000E-03 0.  1.
    9900012    2    1    2    0    0  0.51099440501E+01 -0.87729781780E+01  0.15735415995E+02  0.72461548365E+02  0.69999971433E+02 0.  0.
        -12    1    1    2    0    0 -0.51099440501E+01  0.87729781780E+01 -0.15735415995E+02  0.18726451635E+02  0.00000000000E+00 0.  1.
         11    1    3    3    0    0  0.31525483146E+01 -0.13738175906E+01  0.27640838312E+02  0.27853938294E+02  0.51100000000E-03 0. -1.
        -11    1    3    3    0    0 -0.15077496499E+02  0.67752920684E+01  0.43871781170E+01  0.17102128972E+02  0.51100000000E-03 0.  1.
        -12    1    3    3    0    0  0.17034892235E+02 -0.14174452656E+02 -0.16292600434E+02  0.27505481098E+02  0.00000000000E+00 0.  1.
</event>
<event>
 7    1  0.2851651E-013  0.7246159E+02  0.7816164E-02  0.1226708E+00
        -11   -1    0    0    0    0  0.00000000000E+00  0.00000000000E+00  0.45593999997E+02  0.45594000000E+02  0.51100000000E-03 0.  1.
         11   -1    0    0    0    0 -0.00000000000E+00 -0.00000000000E+00 -0.45593999997E+02  0.45594000000E+02  0.51100000000E-03 0. -1.
    9900012    2    1    2    0    0  0.17772766579E+02 -0.52231918700E+01  0.27432718302E+01  0.72461588024E+02  0.70000023096E+02 0.  0.
        -12    1    1    2    0    0 -0.17772766579E+02  0.52231918700E+01 -0.27432718302E+01  0.18726411976E+02  0.00000000000E+00 0.  1.
         11    1    3    3    0    0  0.11736902019E+02 -0.50603426727E+00  0.11748375598E+01  0.11806404331E+02  0.51100000000E-03 0. -1.
        -11    1    3    3    0    0  0.18659906327E+02 -0.26921773810E+02  0.91520813705E+01  0.34010801268E+02  0.51100000000E-03 0.  1.
         12    1    3    3    0    0 -0.12624041767E+02  0.22204616207E+02 -0.75836471001E+01  0.26644382425E+02  0.00000000000E+00 0. -1.
</event>
<event>
 7    1  0.2851651E-013  0.7246157E+02  0.7816164E-02  0.1226708E+00
        -11   -1    0    0    0    0  0.00000000000E+00  0.00000000000E+00  0.45593999997E+02  0.45594000000E+02  0.51100000000E-03 0.  1.
         11   -1    0    0    0    0 -0.00000000000E+00 -0.00000000000E+00 -0.45593999997E+02  0.45594000000E+02  0.51100000000E-03 0. -1.
    9900012    2    1    2    0    0 -0.35351322598E+01  0.56204812511E+01 -0.17509777654E+02  0.72461567262E+02  0.69999996050E+02 0.  0.
        -12    1    1    2    0    0  0.35351322598E+01 -0.56204812511E+01  0.17509777654E+02  0.18726432738E+02  0.00000000000E+00 0.  1.
         11    1    3    3    0    0  0.19173475956E+02 -0.10102406143E+02 -0.79598059219E+01  0.23087643896E+02  0.51100000000E-03 0. -1.
        -11    1    3    3    0    0 -0.18862668077E+02 -0.47943526186E+01 -0.18323231560E+02  0.26730635590E+02  0.51100000000E-03 0.  1.
        -12    1    3    3    0    0 -0.38459401386E+01  0.20517240012E+02  0.87732598274E+01  0.22643287775E+02  0.00000000000E+00 0.  1.
</event>
<event>
 7    1  0.2851651E-013  0.7246147E+02  0.7816164E-02  0.1226708E+00
        -11   -1    0    0    0    0  0.00000000000E+00  0.00000000000E+00  0.45593999997E+02  0.45594000000E+02  0.51100000000E-03 0.  1.
         11   -1    0    0    0    0 -0.00000000000E+00 -0.00000000000E+00 -0.45593999997E+02  0.45594000000E+02  0.51100000000E-03 0. -1.
    9900012    2    1    2    0    0 -0.35389135506E-02 -0.12980634374E+02 -0.13497635011E+02  0.72461467161E+02  0.69999865650E+02 0.  0.
        -12    1    1    2    0    0  0.35389135506E-02  0.12980634374E+02  0.13497635011E+02  0.18726532839E+02  0.00000000000E+00 0.  1.
         11    1    3    3    0    0  0.49029348602E+01  0.10839261663E+02 -0.31428462750E+02  0.33604711496E+02  0.51100000000E-03 0. -1.
        -11    1    3    3    0    0 -0.11175165271E+02 -0.34109600879E+01  0.11886753361E+02  0.16667749497E+02  0.51100000000E-03 0.  1.
        -12    1    3    3    0    0  0.62686914977E+01 -0.20408935948E+02  0.60440743786E+01  0.22189006168E+02  0.00000000000E+00 0.  1.
</event>
<event>
 7    1  0.2851651E-013  0.7246193E+02  0.7816164E-02  0.1226707E+00
        -11   -1    0    0    0    0  0.00000000000E+00  0.00000000000E+00  0.45593999997E+02  0.45594000000E+02  0.51100000000E-03 0.  1.
         11   -1    0    0    0    0 -0.00000000000E+00 -0.00000000000E+00 -0.45593999997E+02  0.45594000000E+02  0.51100000000E-03 0. -1.
    9900012    2    1    2    0    0  0.27281998306E+01 -0.18237659662E+02  0.32573441312E+01  0.72461932739E+02  0.70000472150E+02 0.  0.
        -12    1    1    2    0    0 -0.27281998306E+01  0.18237659662E+02 -0.32573441312E+01  0.18726067261E+02  0.00000000000E+00 0.  1.
         11    1    3    3    0    0 -0.12704245867E+02  0.10480647855E+02  0.23988795541E+02  0.29098181288E+02  0.51100000000E-03 0.  1.
        -11    1    3    3    0    0 -0.41356969831E+00 -0.19591009399E+02 -0.12964894666E+02  0.23496109957E+02  0.51100000000E-03 0. -1.
        -12    1    3    3    0    0  0.15846015396E+02 -0.91272981184E+01 -0.77665567436E+01  0.19867641494E+02  0.00000000000E+00 0.  1.
</event>
<event>
 7    1  0.2851651E-013  0.7246154E+02  0.7816164E-02  0.1226708E+00
        -11   -1    0    0    0    0  0.00000000000E+00  0.00000000000E+00  0.45593999997E+02  0.45594000000E+02  0.51100000000E-03 0. -1.
         11   -1    0    0    0    0 -0.00000000000E+00 -0.00000000000E+00 -0.45593999997E+02  0.45594000000E+02  0.51100000000E-03 0.  1.
    9900012    2    1    2    0    0  0.16606458115E+02 -0.33314044718E+01 -0.79879624737E+01  0.72461541409E+02  0.69999962372E+02 0.  0.
        -12    1    1    2    0    0 -0.16606458115E+02  0.33314044718E+01  0.79879624737E+01  0.18726458591E+02  0.00000000000E+00 0.  1.
         11    1    3    3    0    0  0.36981614433E+01  0.18866135260E+02  0.13002818065E+02  0.23209496669E+02  0.51100000000E-03 0. -1.
        -11    1    3    3    0    0 -0.12726649639E+02 -0.59669411410E+01 -0.86009351930E+01  0.16478716093E+02  0.51100000000E-03 0.  1.
         12    1    3    3    0    0  0.25634946310E+02 -0.16230598591E+02 -0.12389845346E+02  0.32773328648E+02  0.00000000000E+00 0. -1.
</event>
<event>
 7    1  0.2851651E-013  0.7246156E+02  0.7816164E-02  0.1226708E+00
        -11   -1    0    0    0    0  0.00000000000E+00  0.00000000000E+00  0.45593999997E+02  0.45594000000E+02  0.51100000000E-03 0.  1.
         11   -1    0    0    0    0 -0.00000000000E+00 -0.00000000000E+00 -0.45593999997E+02  0.45594000000E+02  0.51100000000E-03 0. -1.
    9900012    2    1    2    0    0 -0.61298764626E+01 -0.47242708276E+01 -0.17052434902E+02  0.72461557295E+02  0.69999983066E+02 0.  0.
        -12    1    1    2    0    0  0.61298764626E+01  0.47242708276E+01  0.17052434902E+02  0.18726442705E+02  0.00000000000E+00 0.  1.
         11    1    3    3    0    0  0.45751233646E+01  0.23214716002E+00 -0.26948673370E+01  0.53148806506E+01  0.51100000000E-03 0. -1.
        -11    1    3    3    0    0  0.48148592413E+00 -0.27606544976E+02 -0.27242938853E+02  0.38788282662E+02  0.51100000000E-03 0.  1.
        -12    1    3    3    0    0 -0.11186485751E+02  0.22650126989E+02  0.12885371288E+02  0.28358393983E+02  0.00000000000E+00 0.  1.
</event>
<event>
 7    1  0.2851651E-013  0.7246159E+02  0.7816164E-02  0.1226708E+00
        -11   -1    0    0    0    0  0.00000000000E+00  0.00000000000E+00  0.45593999997E+02  0.45594000000E+02  0.51100000000E-03 0.  1.
         11   -1    0    0    0    0 -0.00000000000E+00 -0.00000000000E+00 -0.45593999997E+02  0.45594000000E+02  0.51100000000E-03 0. -1.
    9900012    2    1    2    0    0 -0.16745359167E+02  0.75281897688E+01  0.36875269260E+01  0.72461586845E+02  0.70000021560E+02 0.  0.
        -12    1    1    2    0    0  0.16745359167E+02 -0.75281897688E+01 -0.36875269260E+01  0.18726413155E+02  0.00000000000E+00 0.  1.
         11    1    3    3    0    0 -0.66839040218E+01 -0.50178369358E+01  0.71197852787E+01  0.10979280630E+02  0.51100000000E-03 0. -1.
        -11    1    3    3    0    0  0.10287660693E+02  0.10334186267E+02  0.23498748387E+02  0.27655425224E+02  0.51100000000E-03 0.  1.
         12    1    3    3    0    0 -0.20349115838E+02  0.22118404372E+01 -0.26931006740E+02  0.33826880990E+02  0.00000000000E+00 0. -1.
</event>
<event>
 7    1  0.2851651E-013  0.7246155E+02  0.7816164E-02  0.1226708E+00
        -11   -1    0    0    0    0  0.00000000000E+00  0.00000000000E+00  0.45593999997E+02  0.45594000000E+02  0.51100000000E-03 0.  1.
         11   -1    0    0    0    0 -0.00000000000E+00 -0.00000000000E+00 -0.45593999997E+02  0.45594000000E+02  0.51100000000E-03 0. -1.
    9900012    2    1    2    0    0  0.16786269212E+02 -0.82863634742E+01 -0.48725796959E+00  0.72461546144E+02  0.69999968539E+02 0.  0.
        -12    1    1    2    0    0 -0.16786269212E+02  0.82863634742E+01  0.48725796959E+00  0.18726453856E+02  0.00000000000E+00 0.  1.
         11    1    3    3    0    0  0.11005773373E+02 -0.11322311172E+01 -0.10714779595E+02  0.15401801741E+02  0.51100000000E-03 0. -1.
        -11    1    3    3    0    0  0.29704986369E+02  0.12481868406E+01  0.10973633663E+02  0.31691715347E+02  0.51100000000E-03 0.  1.
         12    1    3    3    0    0 -0.23924490530E+02 -0.84023191976E+01 -0.74611203795E+00  0.25368029056E+02  0.00000000000E+00 0. -1.
</event>
<event>
 7    1  0.2851651E-013  0.7246170E+02  0.7816164E-02  0.1226708E+00
        -11   -1    0    0    0    0  0.00000000000E+00  0.00000000000E+00  0.45593999997E+02  0.45594000000E+02  0.51100000000E-03 0.  1.
         11   -1    0    0    0    0 -0.00000000000E+00 -0.00000000000E+00 -0.45593999997E+02  0.45594000000E+02  0.51100000000E-03 0. -1.
    9900012    2    1    2    0    0 -0.61167395758E+00 -0.18399899426E+02  0.34269295883E+01  0.72461700570E+02  0.70000169709E+02 0.  0.
        -12    1    1    2    0    0  0.61167395758E+00  0.18399899426E+02 -0.34269295883E+01  0.18726299430E+02  0.00000000000E+00 0.  1.
         11    1    3    3    0    0 -0.26497547420E+02  0.50770630021E+01  0.76838830226E+01  0.28052426750E+02  0.51100000000E-03 0. -1.
        -11    1    3    3    0    0  0.41034238949E+01 -0.12034479787E+01  0.94504076217E+01  0.10372877092E+02  0.51100000000E-03 0.  1.
         12    1    3    3    0    0  0.21782449568E+02 -0.22273514450E+02 -0.13707361056E+02  0.34036396728E+02  0.00000000000E+00 0. -1.
</event>
<event>
 7    1  0.2851651E-013  0.7246178E+02  0.7816164E-02  0.1226707E+00
        -11   -1    0    0    0    0  0.00000000000E+00  0.00000000000E+00  0.45593999997E+02  0.45594000000E+02  0.51100000000E-03 0.  1.
         11   -1    0    0    0    0 -0.00000000000E+00 -0.00000000000E+00 -0.45593999997E+02  0.45594000000E+02  0.51100000000E-03 0. -1.
    9900012    2    1    2    0    0  0.64422746815E+01  0.17254775513E+02  0.33824990965E+01  0.72461775575E+02  0.70000267416E+02 0.  0.
        -12    1    1    2    0    0 -0.64422746815E+01 -0.17254775513E+02 -0.33824990965E+01  0.18726224425E+02  0.00000000000E+00 0.  1.
         11    1    3    3    0    0  0.22038839976E+02  0.28228273804E+02  0.10295008097E+02  0.37263025929E+02  0.51100000000E-03 0. -1.
        -11    1    3    3    0    0  0.55465202064E+01  0.53922894632E+01 -0.22681408877E+01  0.80613358324E+01  0.51100000000E-03 0.  1.
        -12    1    3    3    0    0 -0.21143085501E+02 -0.16365787754E+02 -0.46443681129E+01  0.27137413814E+02  0.00000000000E+00 0.  1.
</event>
<event>
 7    1  0.2851651E-013  0.7246158E+02  0.7816164E-02  0.1226708E+00
        -11   -1    0    0    0    0  0.00000000000E+00  0.00000000000E+00  0.45593999997E+02  0.45594000000E+02  0.51100000000E-03 0.  1.
         11   -1    0    0    0    0 -0.00000000000E+00 -0.00000000000E+00 -0.45593999997E+02  0.45594000000E+02  0.51100000000E-03 0. -1.
    9900012    2    1    2    0    0 -0.14190113065E+02  0.86197617832E+01 -0.86613703783E+01  0.72461576454E+02  0.70000008024E+02 0.  0.
        -12    1    1    2    0    0  0.14190113065E+02 -0.86197617832E+01  0.86613703783E+01  0.18726423546E+02  0.00000000000E+00 0.  1.
         11    1    3    3    0    0  0.85068379588E+01 -0.20708615064E+01  0.96809419918E+01  0.13052792711E+02  0.51100000000E-03 0. -1.
        -11    1    3    3    0    0 -0.10802152819E+02 -0.17415554041E+02  0.48706890416E+01  0.21064463916E+02  0.51100000000E-03 0.  1.
         12    1    3    3    0    0 -0.11894798205E+02  0.28106177331E+02 -0.23213001412E+02  0.38344319827E+02  0.00000000000E+00 0. -1.
</event>
<event>
 7    1  0.3910955E-013  0.7246150E+02  0.7816164E-02  0.1226708E+00
        -11   -1    0    0    0    0  0.00000000000E+00  0.00000000000E+00  0.45593999997E+02  0.45594000000E+02  0.51100000000E-03 0. -1.
         11   -1    0    0    0    0 -0.00000000000E+00 -0.00000000000E+00 -0.45593999997E+02  0.45594000000E+02  0.51100000000E-03 0.  1.
    9900012    2    1    2    0    0  0.87061564385E+00 -0.47301185388E+01  0.18098334068E+02  0.72461503023E+02  0.69999912367E+02 0.  0.
        -12    1    1    2    0    0 -0.87061564385E+00  0.47301185388E+01 -0.18098334068E+02  0.18726496977E+02  0.00000000000E+00 0.  1.
         11    1    3    3    0    0 -0.19249359403E+02 -0.28796709694E+01  0.66295411774E+01  0.20561642901E+02  0.51100000000E-03 0. -1.
        -11    1    3    3    0    0  0.16992252352E+02 -0.23152467741E+02  0.34530004918E+01  0.28925708550E+02  0.51100000000E-03 0.  1.
         12    1    3    3    0    0  0.31277226951E+01  0.21302020172E+02  0.80157923988E+01  0.22974151572E+02  0.00000000000E+00 0. -1.
</event>
<event>
 7    1  0.2851651E-013  0.7246157E+02  0.7816164E-02  0.1226708E+00
        -11   -1    0    0    0    0  0.00000000000E+00  0.00000000000E+00  0.45593999997E+02  0.45594000000E+02  0.51100000000E-03 0. -1.
         11   -1    0    0    0    0 -0.00000000000E+00 -0.00000000000E+00 -0.45593999997E+02  0.45594000000E+02  0.51100000000E-03 0.  1.
    9900012    2    1    2    0    0 -0.13204933540E+02  0.99460108439E+01 -0.87969214750E+01  0.72461568708E+02  0.69999997933E+02 0.  0.
        -12    1    1    2    0    0  0.13204933540E+02 -0.99460108439E+01  0.87969214750E+01  0.18726431292E+02  0.00000000000E+00 0.  1.
         11    1    3    3    0    0 -0.90971514924E+01 -0.10856995246E+02 -0.33287281889E+01  0.14550358850E+02  0.51100000000E-03 0. -1.
        -11    1    3    3    0    0 -0.11397729419E+02 -0.16111850491E+02  0.86249438290E+00  0.19754590833E+02  0.51100000000E-03 0.  1.
         12    1    3    3    0    0  0.72899473720E+01  0.36914856581E+02 -0.63306876690E+01  0.38156619025E+02  0.00000000000E+00 0. -1.
</event>
<event>
 7    1  0.2851651E-013  0.7246159E+02  0.7816164E-02  0.1226708E+00
        -11   -1    0    0    0    0  0.00000000000E+00  0.00000000000E+00  0.45593999997E+02  0.45594000000E+02  0.51100000000E-03 0. -1.
         11   -1    0    0    0    0 -0.00000000000E+00 -0.00000000000E+00 -0.45593999997E+02  0.45594000000E+02  0.51100000000E-03 0.  1.
    9900012    2    1    2    0    0  0.10332970680E+02 -0.15524144013E+02  0.17056583324E+01  0.72461585481E+02  0.70000019783E+02 0.  0.
        -12    1    1    2    0    0 -0.10332970680E+02  0.15524144013E+02 -0.17056583324E+01  0.18726414519E+02  0.00000000000E+00 0.  1.
         11    1    3    3    0    0  0.39194406405E+01  0.89005381878E+01  0.79691955780E+01  0.12573371600E+02  0.51100000000E-03 0. -1.
        -11    1    3    3    0    0 -0.92567524071E+01  0.14584099590E+02 -0.43146134462E+01  0.17804474590E+02  0.51100000000E-03 0.  1.
        -12    1    3    3    0    0  0.15670282447E+02 -0.39008781790E+02 -0.19489237994E+01  0.42083739291E+02  0.00000000000E+00 0.  1.
</event>
<event>
 7    1  0.2851651E-013  0.7246157E+02  0.7816164E-02  0.1226708E+00
        -11   -1    0    0    0    0  0.00000000000E+00  0.00000000000E+00  0.45593999997E+02  0.45594000000E+02  0.51100000000E-03 0.  1.
         11   -1    0    0    0    0 -0.00000000000E+00 -0.00000000000E+00 -0.45593999997E+02  0.45594000000E+02  0.51100000000E-03 0. -1.
    9900012    2    1    2    0    0  0.31364708983E+01  0.10443319630E+02 -0.15224288412E+02  0.72461565950E+02  0.69999994340E+02 0.  0.
        -12    1    1    2    0    0 -0.31364708983E+01 -0.10443319630E+02  0.15224288412E+02  0.18726434050E+02  0.00000000000E+00 0.  1.
         11    1    3    3    0    0  0.14207743562E+02 -0.10909319058E+01 -0.38598692270E+02  0.41144977273E+02  0.51100000000E-03 0. -1.
        -11    1    3    3    0    0 -0.16769840485E+00 -0.13181342191E+01 -0.10136145388E+01  0.16712316623E+01  0.51100000000E-03 0.  1.
        -12    1    3    3    0    0 -0.10903574259E+02  0.12852385754E+02  0.24388018397E+02  0.29645357015E+02  0.00000000000E+00 0.  1.
</event>
<event>
 7    1  0.2851651E-013  0.7246160E+02  0.7816164E-02  0.1226708E+00
        -11   -1    0    0    0    0  0.00000000000E+00  0.00000000000E+00  0.45593999997E+02  0.45594000000E+02  0.51100000000E-03 0. -1.
         11   -1    0    0    0    0 -0.00000000000E+00 -0.00000000000E+00 -0.45593999997E+02  0.45594000000E+02  0.51100000000E-03 0.  1.
    9900012    2    1    2    0    0 -0.16278017864E+02  0.88460951075E+01  0.27296085862E+01  0.72461600792E+02  0.70000039729E+02 0.  0.
        -12    1    1    2    0    0  0.16278017864E+02 -0.88460951075E+01 -0.27296085862E+01  0.18726399208E+02  0.00000000000E+00 0.  1.
         11    1    3    3    0    0  0.50869468874E+00  0.36330255614E+01  0.15641128881E+00  0.36717992550E+01  0.51100000000E-03 0. -1.
        -11    1    3    3    0    0 -0.83619943447E+01 -0.23005971100E+00 -0.31852536984E+02  0.32932658403E+02  0.51100000000E-03 0.  1.
         12    1    3    3    0    0 -0.84247182085E+01  0.54431292571E+01  0.34425734281E+02  0.35857143135E+02  0.00000000000E+00 0. -1.
</event>
<event>
 7    1  0.2984549E-013  0.7246157E+02  0.7816164E-02  0.1226708E+00
        -11   -1    0    0    0    0  0.00000000000E+00  0.00000000000E+00  0.45593999997E+02  0.45594000000E+02  0.51100000000E-03 0. -1.
         11   -1    0    0    0    0 -0.00000000000E+00 -0.00000000000E+00 -0.45593999997E+02  0.45594000000E+02  0.51100000000E-03 0.  1.
    9900012    2    1    2    0    0  0.57316762068E+00  0.13614321587E+02  0.12845266890E+02  0.72461570685E+02  0.70000000509E+02 0.  0.
        -12    1    1    2    0    0 -0.57316762068E+00 -0.13614321587E+02 -0.12845266890E+02  0.18726429315E+02  0.00000000000E+00 0.  1.
         11    1    3    3    0    0  0.43427832775E+01  0.48562633946E+01 -0.29163827866E+01  0.71378112592E+01  0.51100000000E-03 0. -1.
        -11    1    3    3    0    0 -0.15272371873E+02 -0.20796847163E+02 -0.64604747454E+01  0.26598720434E+02  0.51100000000E-03 0.  1.
         12    1    3    3    0    0  0.11502756216E+02  0.29554905355E+02  0.22222124422E+02  0.38725038992E+02  0.00000000000E+00 0. -1.
</event>
<event>
 7    1  0.2851651E-013  0.7246155E+02  0.7816164E-02  0.1226708E+00
        -11   -1    0    0    0    0  0.00000000000E+00  0.00000000000E+00  0.45593999997E+02  0.45594000000E+02  0.51100000000E-03 0.  1.
         11   -1    0    0    0    0 -0.00000000000E+00 -0.00000000000E+00 -0.45593999997E+02  0.45594000000E+02  0.51100000000E-03 0. -1.
    9900012    2    1    2    0    0 -0.87713104743E+01  0.46486703199E+01 -0.15878728983E+02  0.72461546591E+02  0.69999969122E+02 0.  0.
        -12    1    1    2    0    0  0.87713104743E+01 -0.46486703199E+01  0.15878728983E+02  0.18726453409E+02  0.00000000000E+00 0.  1.
         11    1    3    3    0    0 -0.24554701588E+02 -0.50342945561E+00 -0.24842723658E+02  0.34933475783E+02  0.51100000000E-03 0. -1.
        -11    1    3    3    0    0  0.93937570137E+01 -0.12339756017E+02 -0.24283216174E+01  0.15697420028E+02  0.51100000000E-03 0.  1.
        -12    1    3    3    0    0  0.63896340996E+01  0.17491855792E+02  0.11392316292E+02  0.21830650780E+02  0.00000000000E+00 0.  1.
</event>
<event>
 7    1  0.2851651E-013  0.7246145E+02  0.7816164E-02  0.1226708E+00
        -11   -1    0    0    0    0  0.00000000000E+00  0.00000000000E+00  0.45593999997E+02  0.45594000000E+02  0.51100000000E-03 0.  1.
         11   -1    0    0    0    0 -0.00000000000E+00 -0.00000000000E+00 -0.45593999997E+02  0.45594000000E+02  0.51100000000E-03 0. -1.
    9900012    2    1    2    0    0  0.15251697596E+02 -0.61628915300E+01 -0.89492078492E+01  0.72461445787E+02  0.69999837806E+02 0.  0.
        -12    1    1    2    0    0 -0.15251697596E+02  0.61628915300E+01  0.89492078492E+01  0.18726554213E+02  0.00000000000E+00 0.  1.
         11    1    3    3    0    0 -0.20203544789E+01  0.52429333696E+00 -0.76924210450E+01  0.79705744785E+01  0.51100000000E-03 0. -1.
        -11    1    3    3    0    0 -0.17553062314E+02  0.13998668055E+02 -0.71418568112E+01  0.23560110842E+02  0.51100000000E-03 0.  1.
         12    1    3    3    0    0  0.34825114389E+02 -0.20685852922E+02  0.58850700069E+01  0.40930760466E+02  0.00000000000E+00 0. -1.
</event>
<event>
 7    1  0.2851651E-013  0.7246156E+02  0.7816164E-02  0.1226708E+00
        -11   -1    0    0    0    0  0.00000000000E+00  0.00000000000E+00  0.45593999997E+02  0.45594000000E+02  0.51100000000E-03 0. -1.
         11   -1    0    0    0    0 -0.00000000000E+00 -0.00000000000E+00 -0.45593999997E+02  0.45594000000E+02  0.51100000000E-03 0.  1.
    9900012    2    1    2    0    0  0.35173106753E+01  0.10577279211E+02  0.15047572279E+02  0.72461555026E+02  0.69999980110E+02 0.  0.
        -12    1    1    2    0    0 -0.35173106753E+01 -0.10577279211E+02 -0.15047572279E+02  0.18726444974E+02  0.00000000000E+00 0.  1.
         11    1    3    3    0    0  0.25116538528E+01  0.34381486578E+01  0.56663386629E+01  0.70877828249E+01  0.51100000000E-03 0. -1.
        -11    1    3    3    0    0 -0.69548854031E+01  0.34655538131E+02  0.38185256172E+00  0.35348586475E+02  0.51100000000E-03 0.  1.
         12    1    3    3    0    0  0.79605422256E+01 -0.27516407578E+02  0.89993810544E+01  0.30025185726E+02  0.00000000000E+00 0. -1.
</event>
<event>
 7    1  0.2851651E-013  0.7246154E+02  0.7816164E-02  0.1226708E+00
        -11   -1    0    0    0    0  0.00000000000E+00  0.00000000000E+00  0.45593999997E+02  0.45594000000E+02  0.51100000000E-03 0. -1.
         11   -1    0    0    0    0 -0.00000000000E+00 -0.00000000000E+00 -0.45593999997E+02  0.45594000000E+02  0.51100000000E-03 0.  1.
    9900012    2    1    2    0    0  0.50942080598E+01  0.11672522018E+02  0.13728853303E+02  0.72461544408E+02  0.69999966278E+02 0.  0.
        -12    1    1    2    0    0 -0.50942080598E+01 -0.11672522018E+02 -0.13728853303E+02  0.18726455592E+02  0.00000000000E+00 0.  1.
         11    1    3    3    0    0  0.33649448170E+01  0.21157236331E+01  0.11424116521E+02  0.12095849646E+02  0.51100000000E-03 0. -1.
        -11    1    3    3    0    0 -0.32042182535E+01  0.13966135318E+02 -0.26869007534E+02  0.30451001896E+02  0.51100000000E-03 0.  1.
         12    1    3    3    0    0  0.49334814963E+01 -0.44093369330E+01  0.29173744316E+02  0.29914692866E+02  0.00000000000E+00 0. -1.
</event>
<event>
 7    1  0.2851651E-013  0.7246151E+02  0.7816164E-02  0.1226708E+00
        -11   -1    0    0    0    0  0.00000000000E+00  0.00000000000E+00  0.45593999997E+02  0.45594000000E+02  0.51100000000E-03 0. -1.
         11   -1    0    0    0    0 -0.00000000000E+00 -0.00000000000E+00 -0.45593999997E+02  0.45594000000E+02  0.51100000000E-03 0.  1.
    9900012    2    1    2    0    0 -0.65663279372E+01 -0.10258878814E+02  0.14223935040E+02  0.72461505797E+02  0.69999915980E+02 0.  0.
        -12    1    1    2    0    0  0.65663279372E+01  0.10258878814E+02 -0.14223935040E+02  0.18726494203E+02  0.00000000000E+00 0.  1.
         11    1    3    3    0    0  0.79379635786E+01 -0.11653412607E+01  0.13790139042E+02  0.15954222673E+02  0.51100000000E-03 0. -1.
        -11    1    3    3    0    0  0.10045339465E+02 -0.11046519722E+02  0.20066643449E+02  0.25012089527E+02  0.51100000000E-03 0.  1.
         12    1    3    3    0    0 -0.24549630981E+02  0.19529821685E+01 -0.19632847451E+02  0.31495193597E+02  0.00000000000E+00 0. -1.
</event>
<event>
 7    1  0.2851651E-013  0.7246161E+02  0.7816164E-02  0.1226708E+00
        -11   -1    0    0    0    0  0.00000000000E+00  0.00000000000E+00  0.45593999997E+02  0.45594000000E+02  0.51100000000E-03 0. -1.
         11   -1    0    0    0    0 -0.00000000000E+00 -0.00000000000E+00 -0.45593999997E+02  0.45594000000E+02  0.51100000000E-03 0.  1.
    9900012    2    1    2    0    0 -0.18601443119E+02  0.21425796972E+01  0.27107237837E+00  0.72461606484E+02  0.70000047144E+02 0.  0.
        -12    1    1    2    0    0  0.18601443119E+02 -0.21425796972E+01 -0.27107237837E+00  0.18726393516E+02  0.00000000000E+00 0.  1.
         11    1    3    3    0    0 -0.95556391564E+01  0.85578679404E+01  0.27671695973E+02  0.30500329534E+02  0.51100000000E-03 0. -1.
        -11    1    3    3    0    0 -0.11065348158E+02  0.72327649652E+00  0.23197216913E+01  0.11328996767E+02  0.51100000000E-03 0.  1.
         12    1    3    3    0    0  0.20195441955E+01 -0.71385647398E+01 -0.29720345286E+02  0.30632280183E+02  0.00000000000E+00 0. -1.
</event>
<event>
 7    1  0.2851651E-013  0.7246148E+02  0.7816164E-02  0.1226708E+00
        -11   -1    0    0    0    0  0.00000000000E+00  0.00000000000E+00  0.45593999997E+02  0.45594000000E+02  0.51100000000E-03 0. -1.
         11   -1    0    0    0    0 -0.00000000000E+00 -0.00000000000E+00 -0.45593999997E+02  0.45594000000E+02  0.51100000000E-03 0.  1.
    9900012    2    1    2    0    0  0.13631612069E+02  0.12417296273E+01  0.12779667285E+02  0.72461477739E+02  0.69999879430E+02 0.  0.
        -12    1    1    2    0    0 -0.13631612069E+02 -0.12417296273E+01 -0.12779667285E+02  0.18726522261E+02  0.00000000000E+00 0.  1.
         11    1    3    3    0    0  0.93351378467E+01  0.28511787108E+01 -0.39899732580E+00  0.97689926699E+01  0.51100000000E-03 0. -1.
        -11    1    3    3    0    0  0.22908841613E+02 -0.23221528275E+02  0.48429162937E+01  0.32977389799E+02  0.51100000000E-03 0.  1.
        -12    1    3    3    0    0 -0.18612367391E+02  0.21612079192E+02  0.83357483173E+01  0.29715095270E+02  0.00000000000E+00 0.  1.
</event>
<event>
 7    1  0.2851651E-013  0.7246156E+02  0.7816164E-02  0.1226708E+00
        -11   -1    0    0    0    0  0.00000000000E+00  0.00000000000E+00  0.45593999997E+02  0.45594000000E+02  0.51100000000E-03 0.  1.
         11   -1    0    0    0    0 -0.00000000000E+00 -0.00000000000E+00 -0.45593999997E+02  0.45594000000E+02  0.51100000000E-03 0. -1.
    9900012    2    1    2    0    0 -0.13539676664E+02 -0.40616580756E+00 -0.12930262383E+02  0.72461561468E+02  0.69999988501E+02 0.  0.
        -12    1    1    2    0    0  0.13539676664E+02  0.40616580756E+00  0.12930262383E+02  0.18726438532E+02  0.00000000000E+00 0.  1.
         11    1    3    3    0    0 -0.92600105472E+01  0.15046616493E+02  0.55147482099E+01  0.18508401101E+02  0.51100000000E-03 0. -1.
        -11    1    3    3    0    0 -0.11564491629E+02  0.10965724012E+02  0.61965965229E+01  0.17099192334E+02  0.51100000000E-03 0.  1.
         12    1    3    3    0    0  0.72848255131E+01 -0.26418506312E+02 -0.24641607116E+02  0.36853968033E+02  0.00000000000E+00 0. -1.
</event>
<event>
 7    1  0.2851651E-013  0.7246158E+02  0.7816164E-02  0.1226708E+00
        -11   -1    0    0    0    0  0.00000000000E+00  0.00000000000E+00  0.45593999997E+02  0.45594000000E+02  0.51100000000E-03 0.  1.
         11   -1    0    0    0    0 -0.00000000000E+00 -0.00000000000E+00 -0.45593999997E+02  0.45594000000E+02  0.51100000000E-03 0. -1.
    9900012    2    1    2    0    0 -0.11606297051E+02  0.13651929835E+02 -0.54403701971E+01  0.72461576227E+02  0.70000007728E+02 0.  0.
        -12    1    1    2    0    0  0.11606297051E+02 -0.13651929835E+02  0.54403701971E+01  0.18726423773E+02  0.00000000000E+00 0.  1.
         11    1    3    3    0    0  0.95596995461E+01  0.16006701321E+02 -0.22329130980E+02  0.29089386951E+02  0.51100000000E-03 0. -1.
        -11    1    3    3    0    0  0.26084701702E+01 -0.53399671228E+01 -0.72403238677E+01  0.93670515890E+01  0.51100000000E-03 0.  1.
         12    1    3    3    0    0 -0.23774466767E+02  0.29851956366E+01  0.24129084650E+02  0.34005137687E+02  0.00000000000E+00 0. -1.
</event>
<event>
 7    1  0.2851651E-013  0.7246155E+02  0.7816164E-02  0.1226708E+00
        -11   -1    0    0    0    0  0.00000000000E+00  0.00000000000E+00  0.45593999997E+02  0.45594000000E+02  0.51100000000E-03 0. -1.
         11   -1    0    0    0    0 -0.00000000000E+00 -0.00000000000E+00 -0.45593999997E+02  0.45594000000E+02  0.51100000000E-03 0.  1.
    9900012    2    1    2    0    0 -0.16565585256E+02  0.10708102521E+01  0.86668688962E+01  0.72461551700E+02  0.69999975777E+02 0.  0.
        -12    1    1    2    0    0  0.16565585256E+02 -0.10708102521E+01 -0.86668688962E+01  0.18726448300E+02  0.00000000000E+00 0.  1.
         11    1    3    3    0    0  0.23138278517E+02  0.67444177371E+01  0.82070806467E+01  0.25460229307E+02  0.51100000000E-03 0. -1.
        -11    1    3    3    0    0  0.23036682115E+01 -0.87705213476E+00  0.38647736596E+01  0.45839484484E+01  0.51100000000E-03 0.  1.
        -12    1    3    3    0    0 -0.42007531985E+02 -0.47965553503E+01 -0.34049854101E+01  0.42417373944E+02  0.00000000000E+00 0.  1.
</event>
<event>
 7    1  0.2851651E-013  0.7246165E+02  0.7816164E-02  0.1226708E+00
        -11   -1    0    0    0    0  0.00000000000E+00  0.00000000000E+00  0.45593999997E+02  0.45594000000E+02  0.51100000000E-03 0.  1.
         11   -1    0    0    0    0 -0.00000000000E+00 -0.00000000000E+00 -0.45593999997E+02  0.45594000000E+02  0.51100000000E-03 0. -1.
    9900012    2    1    2    0    0  0.95676204536E+01 -0.15336413960E+02 -0.48919415985E+01  0.72461653669E+02  0.70000108611E+02 0.  0.
        -12    1    1    2    0    0 -0.95676204536E+01  0.15336413960E+02  0.48919415985E+01  0.18726346331E+02  0.00000000000E+00 0.  1.
         11    1    3    3    0    0  0.29812768213E+01 -0.21107965963E+01  0.92805693884E+01  0.99735872278E+01  0.51100000000E-03 0. -1.
        -11    1    3    3    0    0 -0.21568970032E+01 -0.11477316310E+02  0.22175406476E+02  0.25062514778E+02  0.51100000000E-03 0.  1.
         12    1    3    3    0    0  0.87432406354E+01 -0.17483010540E+01 -0.36347917463E+02  0.37425551663E+02  0.00000000000E+00 0. -1.
</event>
<event>
 7    1  0.2851651E-013  0.7246159E+02  0.7816164E-02  0.1226708E+00
        -11   -1    0    0    0    0  0.00000000000E+00  0.00000000000E+00  0.45593999997E+02  0.45594000000E+02  0.51100000000E-03 0. -1.
         11   -1    0    0    0    0 -0.00000000000E+00 -0.00000000000E+00 -0.45593999997E+02  0.45594000000E+02  0.51100000000E-03 0.  1.
    9900012    2    1    2    0    0  0.68715710882E+01  0.97776972808E+00  0.17392637760E+02  0.72461591612E+02  0.70000027770E+02 0.  0.
        -12    1    1    2    0    0 -0.68715710882E+01 -0.97776972808E+00 -0.17392637760E+02  0.18726408388E+02  0.00000000000E+00 0.  1.
         11    1    3    3    0    0 -0.55761903164E+01 -0.16710352210E+02 -0.83124347846E+00  0.17635779978E+02  0.51100000000E-03 0. -1.
        -11    1    3    3    0    0  0.12819971662E+02 -0.55900970827E+01 -0.10762565154E+02  0.17647483327E+02  0.51100000000E-03 0.  1.
        -12    1    3    3    0    0 -0.37221025767E+00  0.23278219021E+02  0.28986446392E+02  0.37178328307E+02  0.00000000000E+00 0.  1.
</event>
<event>
 7    1  0.2851651E-013  0.7246153E+02  0.7816164E-02  0.1226708E+00
        -11   -1    0    0    0    0  0.00000000000E+00  0.00000000000E+00  0.45593999997E+02  0.45594000000E+02  0.51100000000E-03 0.  1.
         11   -1    0    0    0    0 -0.00000000000E+00 -0.00000000000E+00 -0.45593999997E+02  0.45594000000E+02  0.51100000000E-03 0. -1.
    9900012    2    1    2    0    0  0.29578335245E+01  0.38796548278E+01 -0.18079827909E+02  0.72461530019E+02  0.69999947533E+02 0.  0.
        -12    1    1    2    0    0 -0.29578335245E+01 -0.38796548278E+01  0.18079827909E+02  0.18726469981E+02  0.00000000000E+00 0.  1.
         11    1    3    3    0    0  0.31249634975E+02  0.15527945769E+02 -0.31815542266E+01  0.35039678558E+02  0.51100000000E-03 0. -1.
        -11    1    3    3    0    0 -0.20732429272E+01  0.28125937658E+01  0.84256013715E+00  0.35942909972E+01  0.51100000000E-03 0.  1.
        -12    1    3    3    0    0 -0.26218558524E+02 -0.14460884707E+02 -0.15740833820E+02  0.33827560463E+02  0.00000000000E+00 0.  1.
</event>
<event>
 7    1  0.2851651E-013  0.7246157E+02  0.7816164E-02  0.1226708E+00
        -11   -1    0    0    0    0  0.00000000000E+00  0.00000000000E+00  0.45593999997E+02  0.45594000000E+02  0.51100000000E-03 0.  1.
         11   -1    0    0    0    0 -0.00000000000E+00 -0.00000000000E+00 -0.45593999997E+02  0.45594000000E+02  0.51100000000E-03 0. -1.
    9900012    2    1    2    0    0  0.15977350799E+02 -0.81463441610E+00 -0.97334286095E+01  0.72461574813E+02  0.70000005886E+02 0.  0.
        -12    1    1    2    0    0 -0.15977350799E+02  0.81463441610E+00  0.97334286095E+01  0.18726425187E+02  0.00000000000E+00 0.  1.
         11    1    3    3    0    0 -0.19425889255E+02  0.28823280770E+01 -0.13385422141E+02  0.23766415688E+02  0.51100000000E-03 0. -1.
        -11    1    3    3    0    0 -0.24798049092E+01  0.29445693647E+01  0.90713458585E+01  0.98544019137E+01  0.51100000000E-03 0.  1.
        -12    1    3    3    0    0  0.37883044963E+02 -0.66415318578E+01 -0.54193523269E+01  0.38840757211E+02  0.00000000000E+00 0.  1.
</event>
<event>
 7    1  0.2851651E-013  0.7246157E+02  0.7816164E-02  0.1226708E+00
        -11   -1    0    0    0    0  0.00000000000E+00  0.00000000000E+00  0.45593999997E+02  0.45594000000E+02  0.51100000000E-03 0. -1.
         11   -1    0    0    0    0 -0.00000000000E+00 -0.00000000000E+00 -0.45593999997E+02  0.45594000000E+02  0.51100000000E-03 0.  1.
    9900012    2    1    2    0    0  0.48765328912E+01 -0.67289694698E+01  0.16781528328E+02  0.72461566912E+02  0.69999995594E+02 0.  0.
        -12    1    1    2    0    0 -0.48765328912E+01  0.67289694698E+01 -0.16781528328E+02  0.18726433088E+02  0.00000000000E+00 0.  1.
         11    1    3    3    0    0 -0.52788027225E+01 -0.17762019320E+02  0.19100316627E+02  0.26611598674E+02  0.51100000000E-03 0. -1.
        -11    1    3    3    0    0 -0.82223612568E+01 -0.81829197795E+01  0.11109645146E+02  0.16062117429E+02  0.51100000000E-03 0.  1.
        -12    1    3    3    0    0  0.18377696871E+02  0.19215969629E+02 -0.13428433445E+02  0.29787850809E+02  0.00000000000E+00 0.  1.
</event>
<event>
 7    1  0.2851651E-013  0.7246152E+02  0.7816164E-02  0.1226708E+00
        -11   -1    0    0    0    0  0.00000000000E+00  0.00000000000E+00  0.45593999997E+02  0.45594000000E+02  0.51100000000E-03 0. -1.
         11   -1    0    0    0    0 -0.00000000000E+00 -0.00000000000E+00 -0.45593999997E+02  0.45594000000E+02  0.51100000000E-03 0.  1.
    9900012    2    1    2    0    0  0.15737100084E+01 -0.50092759187E+00  0.18653513467E+02  0.72461519916E+02  0.69999934373E+02 0.  0.
        -12    1    1    2    0    0 -0.15737100084E+01  0.50092759187E+00 -0.18653513467E+02  0.18726480084E+02  0.00000000000E+00 0.  1.
         11    1    3    3    0    0 -0.27371272678E+01  0.19932623364E+02  0.84404063195E+01  0.21818382134E+02  0.51100000000E-03 0. -1.
        -11    1    3    3    0    0 -0.52454818855E+01 -0.34211568845E+01  0.25246027984E+02  0.26011176902E+02  0.51100000000E-03 0.  1.
        -12    1    3    3    0    0  0.95563191617E+01 -0.17012394071E+02 -0.15032920836E+02  0.24631960880E+02  0.00000000000E+00 0.  1.
</event>
<event>
 7    1  0.2851651E-013  0.7246158E+02  0.7816164E-02  0.1226708E+00
        -11   -1    0    0    0    0  0.00000000000E+00  0.00000000000E+00  0.45593999997E+02  0.45594000000E+02  0.51100000000E-03 0.  1.
         11   -1    0    0    0    0 -0.00000000000E+00 -0.00000000000E+00 -0.45593999997E+02  0.45594000000E+02  0.51100000000E-03 0. -1.
    9900012    2    1    2    0    0 -0.74314800122E+01 -0.16540789407E+02 -0.46748334042E+01  0.72461583452E+02  0.70000017140E+02 0.  0.
        -12    1    1    2    0    0  0.74314800122E+01  0.16540789407E+02  0.46748334042E+01  0.18726416548E+02  0.00000000000E+00 0.  1.
         11    1    3    3    0    0  0.54233534916E+01 -0.99398055938E+01  0.16997529807E+01  0.11449963266E+02  0.51100000000E-03 0. -1.
        -11    1    3    3    0    0  0.58324077713E+01 -0.23102681832E+02 -0.21295774910E+02  0.31957173178E+02  0.51100000000E-03 0.  1.
         12    1    3    3    0    0 -0.18687241275E+02  0.16501698019E+02  0.14921188525E+02  0.29054447008E+02  0.00000000000E+00 0. -1.
</event>
<event>
 7    1  0.2851651E-013  0.7246157E+02  0.7816164E-02  0.1226708E+00
        -11   -1    0    0    0    0  0.00000000000E+00  0.00000000000E+00  0.45593999997E+02  0.45594000000E+02  0.51100000000E-03 0.  1.
         11   -1    0    0    0    0 -0.00000000000E+00 -0.00000000000E+00 -0.45593999997E+02  0.45594000000E+02  0.51100000000E-03 0. -1.
    9900012    2    1    2    0    0  0.12988347815E+02  0.10295001170E+02  0.87175173616E+01  0.72461565822E+02  0.69999994174E+02 0.  0.
        -12    1    1    2    0    0 -0.12988347815E+02 -0.10295001170E+02 -0.87175173616E+01  0.18726434178E+02  0.00000000000E+00 0.  1.
         11    1    3    3    0    0  0.53171479066E+01 -0.19366624735E+01 -0.23224665432E+01  0.61169089010E+01  0.51100000000E-03 0. -1.
        -11    1    3    3    0    0  0.22014069619E+02  0.11653323066E+02  0.32240594832E+02  0.40741565447E+02  0.51100000000E-03 0.  1.
         12    1    3    3    0    0 -0.14342869711E+02  0.57834057735E+00 -0.21200610927E+02  0.25603091474E+02  0.00000000000E+00 0. -1.
</event>
<event>
 7    1  0.2851651E-013  0.7246160E+02  0.7816164E-02  0.1226708E+00
        -11   -1    0    0    0    0  0.00000000000E+00  0.00000000000E+00  0.45593999997E+02  0.45594000000E+02  0.51100000000E-03 0. -1.
         11   -1    0    0    0    0 -0.00000000000E+00 -0.00000000000E+00 -0.45593999997E+02  0.45594000000E+02  0.51100000000E-03 0.  1.
    9900012    2    1    2    0    0 -0.52514174062E+01 -0.17869215260E+02  0.19472646437E+01  0.72461599428E+02  0.70000037952E+02 0.  0.
        -12    1    1    2    0    0  0.52514174062E+01  0.17869215260E+02 -0.19472646437E+01  0.18726400572E+02  0.00000000000E+00 0.  1.
         11    1    3    3    0    0 -0.79623342627E+01  0.80767070961E+01 -0.24006138214E+01  0.11592881928E+02  0.51100000000E-03 0. -1.
        -11    1    3    3    0    0  0.13609322682E+01  0.13357409636E+02 -0.12257483837E+02  0.18180166091E+02  0.51100000000E-03 0.  1.
         12    1    3    3    0    0  0.13499845883E+01 -0.39303331993E+02  0.16605362302E+02  0.42688551408E+02  0.00000000000E+00 0. -1.
</event>
<event>
 7    1  0.2851651E-013  0.7246158E+02  0.7816164E-02  0.1226708E+00
        -11   -1    0    0    0    0  0.00000000000E+00  0.00000000000E+00  0.45593999997E+02  0.45594000000E+02  0.51100000000E-03 0.  1.
         11   -1    0    0    0    0 -0.00000000000E+00 -0.00000000000E+00 -0.45593999997E+02  0.45594000000E+02  0.51100000000E-03 0. -1.
    9900012    2    1    2    0    0 -0.73942927754E+01  0.10664480220E+02 -0.13500817444E+02  0.72461580810E+02  0.70000013699E+02 0.  0.
        -12    1    1    2    0    0  0.73942927754E+01 -0.10664480220E+02  0.13500817444E+02  0.18726419190E+02  0.00000000000E+00 0.  1.
         11    1    3    3    0    0 -0.57554368588E+00  0.12066290351E+02  0.12020936853E+02  0.17041993324E+02  0.51100000000E-03 0. -1.
        -11    1    3    3    0    0  0.17450207042E+02  0.89575889433E+00 -0.25656922422E+02  0.31041742513E+02  0.51100000000E-03 0.  1.
         12    1    3    3    0    0 -0.24268956132E+02 -0.22975690252E+01  0.13516812537E+00  0.24377844974E+02  0.00000000000E+00 0. -1.
</event>
<event>
 7    1  0.2851651E-013  0.7246157E+02  0.7816164E-02  0.1226708E+00
        -11   -1    0    0    0    0  0.00000000000E+00  0.00000000000E+00  0.45593999997E+02  0.45594000000E+02  0.51100000000E-03 0.  1.
         11   -1    0    0    0    0 -0.00000000000E+00 -0.00000000000E+00 -0.45593999997E+02  0.45594000000E+02  0.51100000000E-03 0. -1.
    9900012    2    1    2    0    0 -0.10066810152E+02 -0.12128869879E+02 -0.10110829425E+02  0.72461574210E+02  0.70000005101E+02 0.  0.
        -12    1    1    2    0    0  0.10066810152E+02  0.12128869879E+02  0.10110829425E+02  0.18726425790E+02  0.00000000000E+00 0.  1.
         11    1    3    3    0    0 -0.36056580624E+02 -0.62773363729E+01  0.22605619712E+01  0.36668680082E+02  0.51100000000E-03 0. -1.
        -11    1    3    3    0    0 -0.27930867523E+01 -0.13114278946E+01 -0.47665470063E+01  0.56781288602E+01  0.51100000000E-03 0.  1.
        -12    1    3    3    0    0  0.28782857225E+02 -0.45401056120E+01 -0.76048443901E+01  0.30114765268E+02  0.00000000000E+00 0.  1.
</event>
<event>
 7    1  0.2851651E-013  0.7246156E+02  0.7816164E-02  0.1226708E+00
        -11   -1    0    0    0    0  0.00000000000E+00  0.00000000000E+00  0.45593999997E+02  0.45594000000E+02  0.51100000000E-03 0.  1.
         11   -1    0    0    0    0 -0.00000000000E+00 -0.00000000000E+00 -0.45593999997E+02  0.45594000000E+02  0.51100000000E-03 0. -1.
    9900012    2    1    2    0    0 -0.16889649397E+02  0.53643004488E+01  0.60533985130E+01  0.72461558544E+02  0.69999984693E+02 0.  0.
        -12    1    1    2    0    0  0.16889649397E+02 -0.53643004488E+01 -0.60533985130E+01  0.18726441456E+02  0.00000000000E+00 0.  1.
         11    1    3    3    0    0 -0.12037783067E+02 -0.10845163726E+02 -0.80178553410E+01  0.18077936883E+02  0.51100000000E-03 0. -1.
        -11    1    3    3    0    0 -0.96440621793E+01 -0.16199317623E+02  0.32535430666E+00  0.18855547790E+02  0.51100000000E-03 0.  1.
        -12    1    3    3    0    0  0.47921958489E+01  0.32408781798E+02  0.13745899547E+02  0.35528073872E+02  0.00000000000E+00 0.  1.
</event>
<event>
 7    1  0.2851651E-013  0.7246134E+02  0.7816164E-02  0.1226709E+00
        -11   -1    0    0    0    0  0.00000000000E+00  0.00000000000E+00  0.45593999997E+02  0.45594000000E+02  0.51100000000E-03 0.  1.
         11   -1    0    0    0    0 -0.00000000000E+00 -0.00000000000E+00 -0.45593999997E+02  0.45594000000E+02  0.51100000000E-03 0. -1.
    9900012    2    1    2    0    0 -0.16670742129E+02  0.81896677964E+00 -0.84913825890E+01  0.72461336442E+02  0.69999695364E+02 0.  0.
        -12    1    1    2    0    0  0.16670742129E+02 -0.81896677964E+00  0.84913825890E+01  0.18726663558E+02  0.00000000000E+00 0.  1.
         11    1    3    3    0    0 -0.97852855425E+01 -0.14613235425E+02 -0.34228643353E+02  0.38482443904E+02  0.51100000000E-03 0. -1.
        -11    1    3    3    0    0  0.39020623363E+00 -0.31468543483E-01 -0.16506408862E+01  0.16964276496E+01  0.51100000000E-03 0.  1.
        -12    1    3    3    0    0 -0.72756628204E+01  0.15463670748E+02  0.27387901651E+02  0.32282464889E+02  0.00000000000E+00 0.  1.
</event>
<event>
 7    1  0.2851651E-013  0.7246153E+02  0.7816164E-02  0.1226708E+00
        -11   -1    0    0    0    0  0.00000000000E+00  0.00000000000E+00  0.45593999997E+02  0.45594000000E+02  0.51100000000E-03 0. -1.
         11   -1    0    0    0    0 -0.00000000000E+00 -0.00000000000E+00 -0.45593999997E+02  0.45594000000E+02  0.51100000000E-03 0.  1.
    9900012    2    1    2    0    0  0.17935703767E+02  0.47874695935E+01 -0.24639863652E+01  0.72461533074E+02  0.69999951514E+02 0.  0.
        -12    1    1    2    0    0 -0.17935703767E+02 -0.47874695935E+01  0.24639863652E+01  0.18726466926E+02  0.00000000000E+00 0.  1.
         11    1    3    3    0    0 -0.94434906466E-01  0.21333877019E+02  0.17165605723E+02  0.27382498913E+02  0.51100000000E-03 0. -1.
        -11    1    3    3    0    0  0.15388971842E+02 -0.31139356174E+01  0.53557067196E+01  0.16589172496E+02  0.51100000000E-03 0.  1.
        -12    1    3    3    0    0  0.26411668315E+01 -0.13432471808E+02 -0.24985298808E+02  0.28489861664E+02  0.00000000000E+00 0.  1.
</event>
<event>
 7    1  0.2851651E-013  0.7246156E+02  0.7816164E-02  0.1226708E+00
        -11   -1    0    0    0    0  0.00000000000E+00  0.00000000000E+00  0.45593999997E+02  0.45594000000E+02  0.51100000000E-03 0. -1.
         11   -1    0    0    0    0 -0.00000000000E+00 -0.00000000000E+00 -0.45593999997E+02  0.45594000000E+02  0.51100000000E-03 0.  1.
    9900012    2    1    2    0    0 -0.15481683632E+02 -0.10086853963E+02  0.30417639518E+01  0.72461562034E+02  0.69999989239E+02 0.  0.
        -12    1    1    2    0    0  0.15481683632E+02  0.10086853963E+02 -0.30417639518E+01  0.18726437966E+02  0.00000000000E+00 0.  1.
         11    1    3    3    0    0  0.99906760304E+00 -0.69116452933E+01  0.11781377473E+02  0.13695613610E+02  0.51100000000E-03 0. -1.
        -11    1    3    3    0    0 -0.30545249217E+02 -0.14709414404E+02 -0.17967970030E+02  0.38369611271E+02  0.51100000000E-03 0.  1.
         12    1    3    3    0    0  0.14064497982E+02  0.11534205734E+02  0.92283565087E+01  0.20396337153E+02  0.00000000000E+00 0. -1.
</event>
<event>
 7    1  0.2851651E-013  0.7246161E+02  0.7816164E-02  0.1226708E+00
        -11   -1    0    0    0    0  0.00000000000E+00  0.00000000000E+00  0.45593999997E+02  0.45594000000E+02  0.51100000000E-03 0.  1.
         11   -1    0    0    0    0 -0.00000000000E+00 -0.00000000000E+00 -0.45593999997E+02  0.45594000000E+02  0.51100000000E-03 0. -1.
    9900012    2    1    2    0    0  0.16774163797E+02  0.10408724108E+01  0.82596458384E+01  0.72461608574E+02  0.70000049866E+02 0.  0.
        -12    1    1    2    0    0 -0.16774163797E+02 -0.10408724108E+01 -0.82596458384E+01  0.18726391426E+02  0.00000000000E+00 0.  1.
         11    1    3    3    0    0 -0.14404409621E+02 -0.93323707710E+00  0.14284449838E+02  0.20307719108E+02  0.51100000000E-03 0. -1.
        -11    1    3    3    0    0  0.19644016313E+02 -0.18896816389E+02  0.10577334813E+01  0.27278120297E+02  0.51100000000E-03 0.  1.
        -12    1    3    3    0    0  0.11534557105E+02  0.20870925877E+02 -0.70825374805E+01  0.24875769169E+02  0.00000000000E+00 0.  1.
</event>
<event>
 7    1  0.2851651E-013  0.7246101E+02  0.7816164E-02  0.1226709E+00
        -11   -1    0    0    0    0  0.00000000000E+00  0.00000000000E+00  0.45593999997E+02  0.45594000000E+02  0.51100000000E-03 0.  1.
         11   -1    0    0    0    0 -0.00000000000E+00 -0.00000000000E+00 -0.45593999997E+02  0.45594000000E+02  0.51100000000E-03 0. -1.
    9900012    2    1    2    0    0  0.16003756675E+02 -0.97243423216E+01  0.13023810796E+00  0.72461013503E+02  0.69999274672E+02 0.  0.
        -12    1    1    2    0    0 -0.16003756675E+02  0.97243423216E+01 -0.13023810796E+00  0.18726986497E+02  0.00000000000E+00 0.  1.
         11    1    3    3    0    0  0.17658758426E+01  0.13293259575E+02  0.69652580321E+01  0.15111051827E+02  0.51100000000E-03 0. -1.
        -11    1    3    3    0    0  0.64560209662E+01  0.14116725914E+02  0.69160687906E+01  0.16993944952E+02  0.51100000000E-03 0.  1.
        -12    1    3    3    0    0  0.77818598663E+01 -0.37134327811E+02 -0.13751088715E+02  0.40356016723E+02  0.00000000000E+00 0.  1.
</event>
<event>
 7    1  0.2851651E-013  0.7246154E+02  0.7816164E-02  0.1226708E+00
        -11   -1    0    0    0    0  0.00000000000E+00  0.00000000000E+00  0.45593999997E+02  0.45594000000E+02  0.51100000000E-03 0.  1.
         11   -1    0    0    0    0 -0.00000000000E+00 -0.00000000000E+00 -0.45593999997E+02  0.45594000000E+02  0.51100000000E-03 0. -1.
    9900012    2    1    2    0    0  0.99951701468E+01 -0.10321542140E+02 -0.12010108352E+02  0.72461538481E+02  0.69999958557E+02 0.  0.
        -12    1    1    2    0    0 -0.99951701468E+01  0.10321542140E+02  0.12010108352E+02  0.18726461519E+02  0.00000000000E+00 0.  1.
         11    1    3    3    0    0 -0.43268067045E+01 -0.14443073120E+02  0.17460596163E+01  0.15178021672E+02  0.51100000000E-03 0. -1.
        -11    1    3    3    0    0  0.58046415250E+01 -0.77319750821E+01  0.19057594487E+02  0.21369820069E+02  0.51100000000E-03 0.  1.
        -12    1    3    3    0    0  0.85173353263E+01  0.11853506063E+02 -0.32813762455E+02  0.35913696740E+02  0.00000000000E+00 0.  1.
</event>
<event>
 7    1  0.2962366E-013  0.7246162E+02  0.7816164E-02  0.1226708E+00
        -11   -1    0    0    0    0  0.00000000000E+00  0.00000000000E+00  0.45593999997E+02  0.45594000000E+02  0.51100000000E-03 0.  1.
         11   -1    0    0    0    0 -0.00000000000E+00 -0.00000000000E+00 -0.45593999997E+02  0.45594000000E+02  0.51100000000E-03 0. -1.
    9900012    2    1    2    0    0 -0.15651557438E+02 -0.95592864590E+01 -0.37849854160E+01  0.72461619612E+02  0.70000064245E+02 0.  0.
        -12    1    1    2    0    0  0.15651557438E+02  0.95592864590E+01  0.37849854160E+01  0.18726380388E+02  0.00000000000E+00 0.  1.
         11    1    3    3    0    0  0.14337592034E+01  0.93558233404E+01 -0.10402594559E+02  0.14064176821E+02  0.51100000000E-03 0. -1.
        -11    1    3    3    0    0  0.35748531658E+01 -0.11748147541E+02  0.26268649497E+02  0.28997249739E+02  0.51100000000E-03 0.  1.
         12    1    3    3    0    0 -0.20660169807E+02 -0.71669622585E+01 -0.19651040354E+02  0.29400193052E+02  0.00000000000E+00 0. -1.
</event>
<event>
 7    1  0.2851651E-013  0.7246158E+02  0.7816164E-02  0.1226708E+00
        -11   -1    0    0    0    0  0.00000000000E+00  0.00000000000E+00  0.45593999997E+02  0.45594000000E+02  0.51100000000E-03 0.  1.
         11   -1    0    0    0    0 -0.00000000000E+00 -0.00000000000E+00 -0.45593999997E+02  0.45594000000E+02  0.51100000000E-03 0. -1.
    9900012    2    1    2    0    0  0.18217091292E+02  0.37627940549E+01 -0.21582020387E+01  0.72461578285E+02  0.70000010409E+02 0.  0.
        -12    1    1    2    0    0 -0.18217091292E+02 -0.37627940549E+01  0.21582020387E+01  0.18726421715E+02  0.00000000000E+00 0.  1.
         11    1    3    3    0    0  0.83935871207E+01  0.38735307425E+01  0.70302994589E+01  0.11613856203E+02  0.51100000000E-03 0. -1.
        -11    1    3    3    0    0  0.28062617786E+02  0.10504111384E+02  0.10731606294E+02  0.31827884738E+02  0.51100000000E-03 0.  1.
         12    1    3    3    0    0 -0.18239113615E+02 -0.10614848071E+02 -0.19920107791E+02  0.29019837344E+02  0.00000000000E+00 0. -1.
</event>
<event>
 7    1  0.2851651E-013  0.7246158E+02  0.7816164E-02  0.1226708E+00
        -11   -1    0    0    0    0  0.00000000000E+00  0.00000000000E+00  0.45593999997E+02  0.45594000000E+02  0.51100000000E-03 0. -1.
         11   -1    0    0    0    0 -0.00000000000E+00 -0.00000000000E+00 -0.45593999997E+02  0.45594000000E+02  0.51100000000E-03 0.  1.
    9900012    2    1    2    0    0  0.67157224182E+01 -0.16296111524E+02 -0.63257079374E+01  0.72461581247E+02  0.70000014268E+02 0.  0.
        -12    1    1    2    0    0 -0.67157224182E+01  0.16296111524E+02  0.63257079374E+01  0.18726418753E+02  0.00000000000E+00 0.  1.
         11    1    3    3    0    0  0.21097041464E+02 -0.28662503245E+02 -0.25357467199E+02  0.43699260792E+02  0.51100000000E-03 0.  1.
        -11    1    3    3    0    0 -0.31652476503E+01 -0.16830005148E+01  0.33472712230E+01  0.49046415080E+01  0.51100000000E-03 0. -1.
        -12    1    3    3    0    0 -0.11216071395E+02  0.14049392236E+02  0.15684488038E+02  0.23857678947E+02  0.00000000000E+00 0.  1.
</event>
<event>
 7    1  0.2851651E-013  0.7246159E+02  0.7816164E-02  0.1226708E+00
        -11   -1    0    0    0    0  0.00000000000E+00  0.00000000000E+00  0.45593999997E+02  0.45594000000E+02  0.51100000000E-03 0.  1.
         11   -1    0    0    0    0 -0.00000000000E+00 -0.00000000000E+00 -0.45593999997E+02  0.45594000000E+02  0.51100000000E-03 0. -1.
    9900012    2    1    2    0    0 -0.25368901705E+01 -0.17294708487E+02 -0.67182985271E+01  0.72461593818E+02  0.70000030644E+02 0.  0.
        -12    1    1    2    0    0  0.25368901705E+01  0.17294708487E+02  0.67182985271E+01  0.18726406182E+02  0.00000000000E+00 0.  1.
         11    1    3    3    0    0 -0.18497799021E+02 -0.11075286763E+01 -0.16964873814E+02  0.25123736430E+02  0.51100000000E-03 0. -1.
        -11    1    3    3    0    0 -0.12506058529E+02 -0.93677831169E+01  0.90149567144E+01  0.18039576083E+02  0.51100000000E-03 0.  1.
        -12    1    3    3    0    0  0.28466967380E+02 -0.68193966943E+01  0.12316185730E+01  0.29298281304E+02  0.00000000000E+00 0.  1.
</event>
<event>
 7    1  0.2851651E-013  0.7246160E+02  0.7816164E-02  0.1226708E+00
        -11   -1    0    0    0    0  0.00000000000E+00  0.00000000000E+00  0.45593999997E+02  0.45594000000E+02  0.51100000000E-03 0.  1.
         11   -1    0    0    0    0 -0.00000000000E+00 -0.00000000000E+00 -0.45593999997E+02  0.45594000000E+02  0.51100000000E-03 0. -1.
    9900012    2    1    2    0    0 -0.31217975051E+01  0.75233440121E+01 -0.16862134656E+02  0.72461603926E+02  0.70000043811E+02 0.  0.
        -12    1    1    2    0    0  0.31217975051E+01 -0.75233440121E+01  0.16862134656E+02  0.18726396074E+02  0.00000000000E+00 0.  1.
         11    1    3    3    0    0 -0.34911404965E+01  0.75714680149E+01 -0.19721046441E+02  0.21411092052E+02  0.51100000000E-03 0. -1.
        -11    1    3    3    0    0  0.15302007246E+02 -0.16386828450E+02 -0.10960480639E+02  0.24956195794E+02  0.51100000000E-03 0.  1.
        -12    1    3    3    0    0 -0.14932664255E+02  0.16338704447E+02  0.13819392423E+02  0.26094316080E+02  0.00000000000E+00 0.  1.
</event>
<event>
 7    1  0.2851651E-013  0.7246154E+02  0.7816164E-02  0.1226708E+00
        -11   -1    0    0    0    0  0.00000000000E+00  0.00000000000E+00  0.45593999997E+02  0.45594000000E+02  0.51100000000E-03 0. -1.
         11   -1    0    0    0    0 -0.00000000000E+00 -0.00000000000E+00 -0.45593999997E+02  0.45594000000E+02  0.51100000000E-03 0.  1.
    9900012    2    1    2    0    0  0.11368640769E+02 -0.14880454279E+02  0.80434320810E-01  0.72461537917E+02  0.69999957822E+02 0.  0.
        -12    1    1    2    0    0 -0.11368640769E+02  0.14880454279E+02 -0.80434320810E-01  0.18726462083E+02  0.00000000000E+00 0.  1.
         11    1    3    3    0    0 -0.34614437921E+01 -0.22627650681E+02 -0.99985440656E+01  0.24979252434E+02  0.51100000000E-03 0. -1.
        -11    1    3    3    0    0 -0.13849171173E+02  0.95693442450E+01 -0.54969898016E+00  0.16842626300E+02  0.51100000000E-03 0.  1.
         12    1    3    3    0    0  0.28679255734E+02 -0.18221478420E+01  0.10628677367E+02  0.30639659182E+02  0.00000000000E+00 0. -1.
</event>
<event>
 7    1  0.3189438E-013  0.7246157E+02  0.7816164E-02  0.1226708E+00
        -11   -1    0    0    0    0  0.00000000000E+00  0.00000000000E+00  0.45593999997E+02  0.45594000000E+02  0.51100000000E-03 0. -1.
         11   -1    0    0    0    0 -0.00000000000E+00 -0.00000000000E+00 -0.45593999997E+02  0.45594000000E+02  0.51100000000E-03 0.  1.
    9900012    2    1    2    0    0 -0.93635114086E+01  0.13884790106E+02 -0.83795286294E+01  0.72461568353E+02  0.69999997470E+02 0.  0.
        -12    1    1    2    0    0  0.93635114086E+01 -0.13884790106E+02  0.83795286294E+01  0.18726431647E+02  0.00000000000E+00 0.  1.
         11    1    3    3    0    0 -0.11909813306E+02 -0.99809396660E+01 -0.40288836607E+01  0.16052872435E+02  0.51100000000E-03 0. -1.
        -11    1    3    3    0    0 -0.14132128460E+01  0.32273397953E+02  0.14486528536E+02  0.35403797753E+02  0.51100000000E-03 0.  1.
         12    1    3    3    0    0  0.39595147438E+01 -0.84076681811E+01 -0.18837173505E+02  0.21004898165E+02  0.00000000000E+00 0. -1.
</event>
<event>
 7    1  0.3127329E-013  0.7246159E+02  0.7816164E-02  0.1226708E+00
        -11   -1    0    0    0    0  0.00000000000E+00  0.00000000000E+00  0.45593999997E+02  0.45594000000E+02  0.51100000000E-03 0.  1.
         11   -1    0    0    0    0 -0.00000000000E+00 -0.00000000000E+00 -0.45593999997E+02  0.45594000000E+02  0.51100000000E-03 0. -1.
    9900012    2    1    2    0    0 -0.16273537684E+02 -0.87269433562E+01 -0.31129994202E+01  0.72461592590E+02  0.70000029045E+02 0.  0.
        -12    1    1    2    0    0  0.16273537684E+02  0.87269433562E+01  0.31129994202E+01  0.18726407410E+02  0.00000000000E+00 0.  1.
         11    1    3    3    0    0 -0.74530642039E+00 -0.14158418327E+02  0.16254717217E+02  0.21569240211E+02  0.51100000000E-03 0. -1.
        -11    1    3    3    0    0  0.12218318978E+02  0.13093230137E+02 -0.43678372913E+01  0.18433610523E+02  0.51100000000E-03 0.  1.
         12    1    3    3    0    0 -0.27746550241E+02 -0.76617551662E+01 -0.14999879346E+02  0.32458741856E+02  0.00000000000E+00 0. -1.
</event>
<event>
 7    1  0.2851651E-013  0.7246156E+02  0.7816164E-02  0.1226708E+00
        -11   -1    0    0    0    0  0.00000000000E+00  0.00000000000E+00  0.45593999997E+02  0.45594000000E+02  0.51100000000E-03 0.  1.
         11   -1    0    0    0    0 -0.00000000000E+00 -0.00000000000E+00 -0.45593999997E+02  0.45594000000E+02  0.51100000000E-03 0. -1.
    9900012    2    1    2    0    0 -0.62389192540E+01 -0.15942722680E+02 -0.75884817666E+01  0.72461559456E+02  0.69999985881E+02 0.  0.
        -12    1    1    2    0    0  0.62389192540E+01  0.15942722680E+02  0.75884817666E+01  0.18726440544E+02  0.00000000000E+00 0.  1.
         11    1    3    3    0    0 -0.15250277183E+02 -0.20680675807E+02 -0.26921172473E+02  0.37215733683E+02  0.51100000000E-03 0. -1.
        -11    1    3    3    0    0 -0.93651037686E+00  0.15418584615E+01 -0.68350655925E+01  0.70691230797E+01  0.51100000000E-03 0.  1.
        -12    1    3    3    0    0  0.99478683055E+01  0.31960946658E+01  0.26167756299E+02  0.28176702693E+02  0.00000000000E+00 0.  1.
</event>
<event>
 7    1  0.2851651E-013  0.7246155E+02  0.7816164E-02  0.1226708E+00
        -11   -1    0    0    0    0  0.00000000000E+00  0.00000000000E+00  0.45593999997E+02  0.45594000000E+02  0.51100000000E-03 0.  1.
         11   -1    0    0    0    0 -0.00000000000E+00 -0.00000000000E+00 -0.45593999997E+02  0.45594000000E+02  0.51100000000E-03 0. -1.
    9900012    2    1    2    0    0 -0.14630511798E+02  0.97674436261E+01  0.64206887827E+01  0.72461546120E+02  0.69999968509E+02 0.  0.
        -12    1    1    2    0    0  0.14630511798E+02 -0.97674436261E+01 -0.64206887827E+01  0.18726453880E+02  0.00000000000E+00 0.  1.
         11    1    3    3    0    0 -0.17381328640E+02  0.21876631859E+02 -0.24930403651E+02  0.37446263275E+02  0.51100000000E-03 0. -1.
        -11    1    3    3    0    0 -0.55172615057E+00 -0.22877578077E+01  0.41455821568E+00  0.23895807806E+01  0.51100000000E-03 0.  1.
        -12    1    3    3    0    0  0.33025429923E+01 -0.98214304252E+01  0.30936534218E+02  0.32625702065E+02  0.00000000000E+00 0.  1.
</event>
<event>
 7    1  0.2851651E-013  0.7246155E+02  0.7816164E-02  0.1226708E+00
        -11   -1    0    0    0    0  0.00000000000E+00  0.00000000000E+00  0.45593999997E+02  0.45594000000E+02  0.51100000000E-03 0.  1.
         11   -1    0    0    0    0 -0.00000000000E+00 -0.00000000000E+00 -0.45593999997E+02  0.45594000000E+02  0.51100000000E-03 0. -1.
    9900012    2    1    2    0    0  0.13038713715E+01 -0.11392267625E+02 -0.14805270286E+02  0.72461551580E+02  0.69999975621E+02 0.  0.
        -12    1    1    2    0    0 -0.13038713715E+01  0.11392267625E+02  0.14805270286E+02  0.18726448420E+02  0.00000000000E+00 0.  1.
         11    1    3    3    0    0 -0.22587520409E+01  0.23192111970E+01  0.17010404643E+02  0.17315731799E+02  0.51100000000E-03 0. -1.
        -11    1    3    3    0    0  0.13013989309E+02  0.11063658685E+02 -0.59091107070E+01  0.18074458521E+02  0.51100000000E-03 0.  1.
         12    1    3    3    0    0 -0.94513658967E+01 -0.24775137507E+02 -0.25906564222E+02  0.37071361259E+02  0.00000000000E+00 0. -1.
</event>
<event>
 7    1  0.2983042E-013  0.7246158E+02  0.7816164E-02  0.1226708E+00
        -11   -1    0    0    0    0  0.00000000000E+00  0.00000000000E+00  0.45593999997E+02  0.45594000000E+02  0.51100000000E-03 0.  1.
         11   -1    0    0    0    0 -0.00000000000E+00 -0.00000000000E+00 -0.45593999997E+02  0.45594000000E+02  0.51100000000E-03 0. -1.
    9900012    2    1    2    0    0 -0.97088853430E+01 -0.15196511677E+02 -0.50479967279E+01  0.72461583025E+02  0.70000016584E+02 0.  0.
        -12    1    1    2    0    0  0.97088853430E+01  0.15196511677E+02  0.50479967279E+01  0.18726416975E+02  0.00000000000E+00 0.  1.
         11    1    3    3    0    0  0.11476595578E+01  0.70653365220E+01  0.38570281126E+01  0.81309758794E+01  0.51100000000E-03 0. -1.
        -11    1    3    3    0    0  0.22753428184E+02  0.10991323465E+01 -0.31318405116E+01  0.22994238654E+02  0.51100000000E-03 0.  1.
         12    1    3    3    0    0 -0.33609973084E+02 -0.23360980546E+02 -0.57731843289E+01  0.41336368492E+02  0.00000000000E+00 0. -1.
</event>
<event>
 7    1  0.2851651E-013  0.7246152E+02  0.7816164E-02  0.1226708E+00
        -11   -1    0    0    0    0  0.00000000000E+00  0.00000000000E+00  0.45593999997E+02  0.45594000000E+02  0.51100000000E-03 0. -1.
         11   -1    0    0    0    0 -0.00000000000E+00 -0.00000000000E+00 -0.45593999997E+02  0.45594000000E+02  0.51100000000E-03 0.  1.
    9900012    2    1    2    0    0 -0.50927146003E+01  0.40436376272E+01  0.17561157932E+02  0.72461521015E+02  0.69999935804E+02 0.  0.
        -12    1    1    2    0    0  0.50927146003E+01 -0.40436376272E+01 -0.17561157932E+02  0.18726478985E+02  0.00000000000E+00 0.  1.
         11    1    3    3    0    0  0.52798771685E+01  0.48821089263E+01 -0.14989852093E+02  0.16625515226E+02  0.51100000000E-03 0. -1.
        -11    1    3    3    0    0 -0.13930287068E+02 -0.20785818847E+02  0.16311441508E+02  0.29869152771E+02  0.51100000000E-03 0.  1.
         12    1    3    3    0    0  0.35576952995E+01  0.19947347547E+02  0.16239568517E+02  0.25966853018E+02  0.00000000000E+00 0. -1.
</event>
<event>
 7    1  0.2851651E-013  0.7246152E+02  0.7816164E-02  0.1226708E+00
        -11   -1    0    0    0    0  0.00000000000E+00  0.00000000000E+00  0.45593999997E+02  0.45594000000E+02  0.51100000000E-03 0. -1.
         11   -1    0    0    0    0 -0.00000000000E+00 -0.00000000000E+00 -0.45593999997E+02  0.45594000000E+02  0.51100000000E-03 0.  1.
    9900012    2    1    2    0    0 -0.55289247998E+00 -0.24037294032E+01  0.18563331929E+02  0.72461524158E+02  0.69999939899E+02 0.  0.
        -12    1    1    2    0    0  0.55289247998E+00  0.24037294032E+01 -0.18563331929E+02  0.18726475842E+02  0.00000000000E+00 0.  1.
         11    1    3    3    0    0  0.15237368750E+02  0.19024262499E+02  0.71845882140E+01  0.25410987351E+02  0.51100000000E-03 0. -1.
        -11    1    3    3    0    0 -0.13471658313E+02 -0.30794062141E+01 -0.11254297267E+02  0.17822107832E+02  0.51100000000E-03 0.  1.
        -12    1    3    3    0    0 -0.23186029168E+01 -0.18348585688E+02  0.22633040983E+02  0.29228428975E+02  0.00000000000E+00 0.  1.
</event>
<event>
 7    1  0.2851651E-013  0.7246233E+02  0.7816164E-02  0.1226706E+00
        -11   -1    0    0    0    0  0.00000000000E+00  0.00000000000E+00  0.45593999997E+02  0.45594000000E+02  0.51100000000E-03 0. -1.
         11   -1    0    0    0    0 -0.00000000000E+00 -0.00000000000E+00 -0.45593999997E+02  0.45594000000E+02  0.51100000000E-03 0.  1.
    9900012    2    1    2    0    0 -0.57059616356E+01  0.95865778868E+01  0.15039620668E+02  0.72462331424E+02  0.70000991506E+02 0.  0.
        -12    1    1    2    0    0  0.57059616356E+01 -0.95865778868E+01 -0.15039620668E+02  0.18725668576E+02  0.00000000000E+00 0.  1.
         11    1    3    3    0    0 -0.14032627105E+02  0.10462990398E+02 -0.37165245831E+01  0.17894170749E+02  0.51100000000E-03 0. -1.
        -11    1    3    3    0    0 -0.43447409628E+01  0.21095256107E+02 -0.22230226281E+01  0.21652446378E+02  0.51100000000E-03 0.  1.
        -12    1    3    3    0    0  0.12671406433E+02 -0.21971668618E+02  0.20979167879E+02  0.32915714298E+02  0.00000000000E+00 0.  1.
</event>
<event>
 7    1  0.2851651E-013  0.7246163E+02  0.7816164E-02  0.1226708E+00
        -11   -1    0    0    0    0  0.00000000000E+00  0.00000000000E+00  0.45593999997E+02  0.45594000000E+02  0.51100000000E-03 0.  1.
         11   -1    0    0    0    0 -0.00000000000E+00 -0.00000000000E+00 -0.45593999997E+02  0.45594000000E+02  0.51100000000E-03 0. -1.
    9900012    2    1    2    0    0 -0.99428382022E+01 -0.40870296515E+01 -0.15333398536E+02  0.72461629461E+02  0.70000077076E+02 0.  0.
        -12    1    1    2    0    0  0.99428382022E+01  0.40870296515E+01  0.15333398536E+02  0.18726370539E+02  0.00000000000E+00 0.  1.
         11    1    3    3    0    0 -0.57782749786E+01 -0.10269209323E+02 -0.11775337262E+02  0.16658441996E+02  0.51100000000E-03 0. -1.
        -11    1    3    3    0    0 -0.11300801594E+02 -0.32036559707E+01 -0.27065540793E+02  0.29504491640E+02  0.51100000000E-03 0.  1.
        -12    1    3    3    0    0  0.71362383699E+01  0.93858356422E+01  0.23507479519E+02  0.26298695825E+02  0.00000000000E+00 0.  1.
</event>
<event>
 7    1  0.2851651E-013  0.7246156E+02  0.7816164E-02  0.1226708E+00
        -11   -1    0    0    0    0  0.00000000000E+00  0.00000000000E+00  0.45593999997E+02  0.45594000000E+02  0.51100000000E-03 0. -1.
         11   -1    0    0    0    0 -0.00000000000E+00 -0.00000000000E+00 -0.45593999997E+02  0.45594000000E+02  0.51100000000E-03 0.  1.
    9900012    2    1    2    0    0  0.67220801154E+01 -0.16429967175E+02 -0.59623357445E+01  0.72461558000E+02  0.69999983985E+02 0.  0.
        -12    1    1    2    0    0 -0.67220801154E+01  0.16429967175E+02  0.59623357445E+01  0.18726442000E+02  0.00000000000E+00 0.  1.
         11    1    3    3    0    0  0.21687762613E+02 -0.58630288047E+01  0.33402893136E+01  0.22713249149E+02  0.51100000000E-03 0. -1.
        -11    1    3    3    0    0  0.13661443434E+02 -0.11367333884E+02  0.39285783192E+01  0.18201237436E+02  0.51100000000E-03 0.  1.
         12    1    3    3    0    0 -0.28627125932E+02  0.80039551374E+00 -0.13231203377E+02  0.31547071416E+02  0.00000000000E+00 0. -1.
</event>
<event>
 7    1  0.2851651E-013  0.7246156E+02  0.7816164E-02  0.1226708E+00
        -11   -1    0    0    0    0  0.00000000000E+00  0.00000000000E+00  0.45593999997E+02  0.45594000000E+02  0.51100000000E-03 0. -1.
         11   -1    0    0    0    0 -0.00000000000E+00 -0.00000000000E+00 -0.45593999997E+02  0.45594000000E+02  0.51100000000E-03 0.  1.
    9900012    2    1    2    0    0 -0.44345228671E+01 -0.18162187311E+02  0.10721406565E+01  0.72461560762E+02  0.69999987582E+02 0.  0.
        -12    1    1    2    0    0  0.44345228671E+01  0.18162187311E+02 -0.10721406565E+01  0.18726439238E+02  0.00000000000E+00 0.  1.
         11    1    3    3    0    0 -0.10226455893E+02  0.50345089215E+00 -0.10112469540E+01  0.10288658007E+02  0.51100000000E-03 0. -1.
        -11    1    3    3    0    0 -0.14557050880E+02 -0.33744779203E+02 -0.11104255928E+00  0.36750920867E+02  0.51100000000E-03 0.  1.
         12    1    3    3    0    0  0.20348983906E+02  0.15079141001E+02  0.21944301698E+01  0.25421981888E+02  0.00000000000E+00 0. -1.
</event>
<event>
 7    1  0.2851651E-013  0.7246161E+02  0.7816164E-02  0.1226708E+00
        -11   -1    0    0    0    0  0.00000000000E+00  0.00000000000E+00  0.45593999997E+02  0.45594000000E+02  0.51100000000E-03 0.  1.
         11   -1    0    0    0    0 -0.00000000000E+00 -0.00000000000E+00 -0.45593999997E+02  0.45594000000E+02  0.51100000000E-03 0. -1.
    9900012    2    1    2    0    0 -0.39683917908E+01 -0.45366377448E+01 -0.17729873759E+02  0.72461611161E+02  0.70000053237E+02 0.  0.
        -12    1    1    2    0    0  0.39683917908E+01  0.45366377448E+01  0.17729873759E+02  0.18726388839E+02  0.00000000000E+00 0.  1.
         11    1    3    3    0    0 -0.69078763923E+01 -0.13716774860E+02 -0.37505262022E+02  0.40527932940E+02  0.51100000000E-03 0. -1.
        -11    1    3    3    0    0  0.19038578946E+01 -0.11282768993E+01 -0.47880441579E+01  0.52747559909E+01  0.51100000000E-03 0.  1.
        -12    1    3    3    0    0  0.10356267070E+01  0.10308414014E+02  0.24563432421E+02  0.26658922230E+02  0.00000000000E+00 0.  1.
</event>
<event>
 7    1  0.2851651E-013  0.7246156E+02  0.7816164E-02  0.1226708E+00
        -11   -1    0    0    0    0  0.00000000000E+00  0.00000000000E+00  0.45593999997E+02  0.45594000000E+02  0.51100000000E-03 0. -1.
         11   -1    0    0    0    0 -0.00000000000E+00 -0.00000000000E+00 -0.45593999997E+02  0.45594000000E+02  0.51100000000E-03 0.  1.
    9900012    2    1    2    0    0  0.14087119626E+02 -0.10555178985E+02 -0.63891307695E+01  0.72461555203E+02  0.69999980341E+02 0.  0.
        -12    1    1    2    0    0 -0.14087119626E+02  0.10555178985E+02  0.63891307695E+01  0.18726444797E+02  0.00000000000E+00 0.  1.
         11    1    3    3    0    0  0.23119296910E+02 -0.22960828790E+01 -0.14711331450E+02  0.27499039247E+02  0.51100000000E-03 0. -1.
        -11    1    3    3    0    0  0.85974283602E+01 -0.20675886744E+02  0.19478789730E+01  0.22476705716E+02  0.51100000000E-03 0.  1.
        -12    1    3    3    0    0 -0.17629605645E+02  0.12416790639E+02  0.63743217077E+01  0.22485810241E+02  0.00000000000E+00 0.  1.
</event>
<event>
 7    1  0.3503978E-013  0.7246155E+02  0.7816164E-02  0.1226708E+00
        -11   -1    0    0    0    0  0.00000000000E+00  0.00000000000E+00  0.45593999997E+02  0.45594000000E+02  0.51100000000E-03 0.  1.
         11   -1    0    0    0    0 -0.00000000000E+00 -0.00000000000E+00 -0.45593999997E+02  0.45594000000E+02  0.51100000000E-03 0. -1.
    9900012    2    1    2    0    0 -0.15610799821E+02  0.76132003727E+01 -0.70015681049E+01  0.72461552209E+02  0.69999976440E+02 0.  0.
        -12    1    1    2    0    0  0.15610799821E+02 -0.76132003727E+01  0.70015681049E+01  0.18726447791E+02  0.00000000000E+00 0.  1.
         11    1    3    3    0    0 -0.16986029948E+02 -0.34689226013E+01  0.12581669561E+02  0.21420948780E+02  0.51100000000E-03 0. -1.
        -11    1    3    3    0    0  0.13671708099E+02 -0.13762955003E+02 -0.74635000483E+01  0.20785532612E+02  0.51100000000E-03 0.  1.
         12    1    3    3    0    0 -0.12296477971E+02  0.24845077977E+02 -0.12119737618E+02  0.30255070817E+02  0.00000000000E+00 0. -1.
</event>
<event>
 7    1  0.2851651E-013  0.7246155E+02  0.7816164E-02  0.1226708E+00
        -11   -1    0    0    0    0  0.00000000000E+00  0.00000000000E+00  0.45593999997E+02  0.45594000000E+02  0.51100000000E-03 0. -1.
         11   -1    0    0    0    0 -0.00000000000E+00 -0.00000000000E+00 -0.45593999997E+02  0.45594000000E+02  0.51100000000E-03 0.  1.
    9900012    2    1    2    0    0  0.12727260868E+02  0.13453684236E+02 -0.27740101318E+01  0.72461550232E+02  0.69999973865E+02 0.  0.
        -12    1    1    2    0    0 -0.12727260868E+02 -0.13453684236E+02  0.27740101318E+01  0.18726449768E+02  0.00000000000E+00 0.  1.
         11    1    3    3    0    0  0.36094596047E+01  0.28343073975E+02 -0.90354628847E+01  0.29966608597E+02  0.51100000000E-03 0. -1.
        -11    1    3    3    0    0 -0.12334002374E+02 -0.13111631277E+02 -0.43156756442E+01  0.18511281582E+02  0.51100000000E-03 0.  1.
        -12    1    3    3    0    0  0.21451803637E+02 -0.17777584623E+01  0.10577128397E+02  0.23983660053E+02  0.00000000000E+00 0.  1.
</event>
<event>
 7    1  0.2851651E-013  0.7246157E+02  0.7816164E-02  0.1226708E+00
        -11   -1    0    0    0    0  0.00000000000E+00  0.00000000000E+00  0.45593999997E+02  0.45594000000E+02  0.51100000000E-03 0.  1.
         11   -1    0    0    0    0 -0.00000000000E+00 -0.00000000000E+00 -0.45593999997E+02  0.45594000000E+02  0.51100000000E-03 0. -1.
    9900012    2    1    2    0    0  0.10060563569E+02  0.15560918277E+02  0.27059262584E+01  0.72461570712E+02  0.70000000544E+02 0.  0.
        -12    1    1    2    0    0 -0.10060563569E+02 -0.15560918277E+02 -0.27059262584E+01  0.18726429288E+02  0.00000000000E+00 0.  1.
         11    1    3    3    0    0  0.83880899478E+01  0.24220760079E+02 -0.44778006630E+01  0.26020299207E+02  0.51100000000E-03 0. -1.
        -11    1    3    3    0    0 -0.20878180708E+01  0.16100641901E+02  0.12919373446E+02  0.20748490654E+02  0.51100000000E-03 0.  1.
        -12    1    3    3    0    0  0.37602916922E+01 -0.24760483703E+02 -0.57356465246E+01  0.25692780851E+02  0.00000000000E+00 0.  1.
</event>
<event>
 7    1  0.2851651E-013  0.7246160E+02  0.7816164E-02  0.1226708E+00
        -11   -1    0    0    0    0  0.00000000000E+00  0.00000000000E+00  0.45593999997E+02  0.45594000000E+02  0.51100000000E-03 0.  1.
         11   -1    0    0    0    0 -0.00000000000E+00 -0.00000000000E+00 -0.45593999997E+02  0.45594000000E+02  0.51100000000E-03 0. -1.
    9900012    2    1    2    0    0  0.16399042930E+02  0.90308337229E+01 -0.43987301127E+00  0.72461600052E+02  0.70000038765E+02 0.  0.
        -12    1    1    2    0    0 -0.16399042930E+02 -0.90308337229E+01  0.43987301127E+00  0.18726399948E+02  0.00000000000E+00 0.  1.
         11    1    3    3    0    0 -0.20229236015E+02 -0.27628357946E+01 -0.48982445272E+01  0.20996381857E+02  0.51100000000E-03 0. -1.
        -11    1    3    3    0    0 -0.65520856528E+01  0.25772259491E+00  0.93440648616E-01  0.65578181397E+01  0.51100000000E-03 0.  1.
        -12    1    3    3    0    0  0.43180364598E+02  0.11535946923E+02  0.43649308673E+01  0.44907400055E+02  0.00000000000E+00 0.  1.
</event>
<event>
 7    1  0.2851651E-013  0.7246157E+02  0.7816164E-02  0.1226708E+00
        -11   -1    0    0    0    0  0.00000000000E+00  0.00000000000E+00  0.45593999997E+02  0.45594000000E+02  0.51100000000E-03 0.  1.
         11   -1    0    0    0    0 -0.00000000000E+00 -0.00000000000E+00 -0.45593999997E+02  0.45594000000E+02  0.51100000000E-03 0. -1.
    9900012    2    1    2    0    0 -0.16325395333E+02 -0.88014489706E+01 -0.25875071137E+01  0.72461568684E+02  0.69999997902E+02 0.  0.
        -12    1    1    2    0    0  0.16325395333E+02  0.88014489706E+01  0.25875071137E+01  0.18726431316E+02  0.00000000000E+00 0.  1.
         11    1    3    3    0    0 -0.60635630163E+01  0.60015732598E+01 -0.11829649284E+02  0.14585139029E+02  0.51100000000E-03 0. -1.
        -11    1    3    3    0    0 -0.16097972231E+02  0.10440291658E+02 -0.13452557669E+02  0.23433218045E+02  0.51100000000E-03 0.  1.
        -12    1    3    3    0    0  0.58361399143E+01 -0.25243313888E+02  0.22694699840E+02  0.34443211609E+02  0.00000000000E+00 0.  1.
</event>
<event>
 7    1  0.2851651E-013  0.7246152E+02  0.7816164E-02  0.1226708E+00
        -11   -1    0    0    0    0  0.00000000000E+00  0.00000000000E+00  0.45593999997E+02  0.45594000000E+02  0.51100000000E-03 0.  1.
         11   -1    0    0    0    0 -0.00000000000E+00 -0.00000000000E+00 -0.45593999997E+02  0.45594000000E+02  0.51100000000E-03 0. -1.
    9900012    2    1    2    0    0  0.18604427656E+02 -0.18540589922E+00  0.21264527387E+01  0.72461523957E+02  0.69999939637E+02 0.  0.
        -12    1    1    2    0    0 -0.18604427656E+02  0.18540589922E+00 -0.21264527387E+01  0.18726476043E+02  0.00000000000E+00 0.  1.
         11    1    3    3    0    0  0.19973023857E+02  0.85058062494E+01 -0.12987544870E+02  0.25297168694E+02  0.51100000000E-03 0. -1.
        -11    1    3    3    0    0 -0.15844783707E+02  0.10867022089E+02  0.14750106536E+01  0.19269794926E+02  0.51100000000E-03 0.  1.
         12    1    3    3    0    0  0.14476187506E+02 -0.19558234237E+02  0.13638986955E+02  0.27894560336E+02  0.00000000000E+00 0. -1.
</event>
<event>
 7    1  0.2851651E-013  0.7246155E+02  0.7816164E-02  0.1226708E+00
        -11   -1    0    0    0    0  0.00000000000E+00  0.00000000000E+00  0.45593999997E+02  0.45594000000E+02  0.51100000000E-03 0.  1.
         11   -1    0    0    0    0 -0.00000000000E+00 -0.00000000000E+00 -0.45593999997E+02  0.45594000000E+02  0.51100000000E-03 0. -1.
    9900012    2    1    2    0    0  0.80279117826E+00  0.13174331607E+02 -0.13284297384E+02  0.72461546947E+02  0.69999969585E+02 0.  0.
        -12    1    1    2    0    0 -0.80279117826E+00 -0.13174331607E+02  0.13284297384E+02  0.18726453053E+02  0.00000000000E+00 0.  1.
         11    1    3    3    0    0 -0.44969837131E+01 -0.42838017592E+01  0.52276132171E+01  0.81179899136E+01  0.51100000000E-03 0. -1.
        -11    1    3    3    0    0 -0.26643725347E+02  0.93622901433E+01 -0.12330865166E+02  0.30815431412E+02  0.51100000000E-03 0.  1.
         12    1    3    3    0    0  0.31943500239E+02  0.80958432228E+01 -0.61810454357E+01  0.33528125621E+02  0.00000000000E+00 0. -1.
</event>
<event>
 7    1  0.2851651E-013  0.7246153E+02  0.7816164E-02  0.1226708E+00
        -11   -1    0    0    0    0  0.00000000000E+00  0.00000000000E+00  0.45593999997E+02  0.45594000000E+02  0.51100000000E-03 0. -1.
         11   -1    0    0    0    0 -0.00000000000E+00 -0.00000000000E+00 -0.45593999997E+02  0.45594000000E+02  0.51100000000E-03 0.  1.
    9900012    2    1    2    0    0 -0.11480977542E+02 -0.35933886942E+01  0.14351144554E+02  0.72461531095E+02  0.69999948936E+02 0.  0.
        -12    1    1    2    0    0  0.11480977542E+02  0.35933886942E+01 -0.14351144554E+02  0.18726468905E+02  0.00000000000E+00 0.  1.
         11    1    3    3    0    0 -0.10178763570E+02 -0.23921649920E+01  0.25724210326E+02  0.27768051396E+02  0.51100000000E-03 0. -1.
        -11    1    3    3    0    0 -0.99731785001E+01 -0.18796788045E+02  0.13353352678E+01  0.21320568725E+02  0.51100000000E-03 0.  1.
         12    1    3    3    0    0  0.86709645284E+01  0.17595564343E+02 -0.12708401040E+02  0.23372910974E+02  0.00000000000E+00 0. -1.
</event>
<event>
 7    1  0.2851651E-013  0.7246158E+02  0.7816164E-02  0.1226708E+00
        -11   -1    0    0    0    0  0.00000000000E+00  0.00000000000E+00  0.45593999997E+02  0.45594000000E+02  0.51100000000E-03 0. -1.
         11   -1    0    0    0    0 -0.00000000000E+00 -0.00000000000E+00 -0.45593999997E+02  0.45594000000E+02  0.51100000000E-03 0.  1.
    9900012    2    1    2    0    0  0.17846721450E+02 -0.27292992600E+01  0.49723602781E+01  0.72461577285E+02  0.70000009107E+02 0.  0.
        -12    1    1    2    0    0 -0.17846721450E+02  0.27292992600E+01 -0.49723602781E+01  0.18726422715E+02  0.00000000000E+00 0.  1.
         11    1    3    3    0    0  0.78939515781E+01  0.69258711147E+01  0.14924768587E+02  0.18249133674E+02  0.51100000000E-03 0. -1.
        -11    1    3    3    0    0 -0.77828593058E+01  0.16706441269E+02 -0.12606437489E+02  0.22329360610E+02  0.51100000000E-03 0.  1.
        -12    1    3    3    0    0  0.17735629178E+02 -0.26361611644E+02  0.26540291795E+01  0.31883083001E+02  0.00000000000E+00 0.  1.
</event>
<event>
 7    1  0.2851651E-013  0.7246105E+02  0.7816164E-02  0.1226709E+00
        -11   -1    0    0    0    0  0.00000000000E+00  0.00000000000E+00  0.45593999997E+02  0.45594000000E+02  0.51100000000E-03 0. -1.
         11   -1    0    0    0    0 -0.00000000000E+00 -0.00000000000E+00 -0.45593999997E+02  0.45594000000E+02  0.51100000000E-03 0.  1.
    9900012    2    1    2    0    0 -0.14404188321E+02 -0.28695082730E+00  0.11963929413E+02  0.72461051798E+02  0.69999324559E+02 0.  0.
        -12    1    1    2    0    0  0.14404188321E+02  0.28695082730E+00 -0.11963929413E+02  0.18726948202E+02  0.00000000000E+00 0.  1.
         11    1    3    3    0    0  0.12233637526E+01 -0.21315713808E+02  0.15802107672E+01  0.21409188222E+02  0.51100000000E-03 0. -1.
        -11    1    3    3    0    0  0.13644996167E+02  0.60680274587E+01  0.10364575725E+02  0.18177769606E+02  0.51100000000E-03 0.  1.
         12    1    3    3    0    0 -0.29272548241E+02  0.14960735522E+02  0.19142921042E-01  0.32874093969E+02  0.00000000000E+00 0. -1.
</event>
<event>
 7    1  0.2851651E-013  0.7246170E+02  0.7816164E-02  0.1226708E+00
        -11   -1    0    0    0    0  0.00000000000E+00  0.00000000000E+00  0.45593999997E+02  0.45594000000E+02  0.51100000000E-03 0. -1.
         11   -1    0    0    0    0 -0.00000000000E+00 -0.00000000000E+00 -0.45593999997E+02  0.45594000000E+02  0.51100000000E-03 0.  1.
    9900012    2    1    2    0    0 -0.60081917964E+01  0.15543574014E+02  0.85424336603E+01  0.72461702058E+02  0.70000171646E+02 0.  0.
        -12    1    1    2    0    0  0.60081917964E+01 -0.15543574014E+02 -0.85424336603E+01  0.18726297942E+02  0.00000000000E+00 0.  1.
         11    1    3    3    0    0 -0.91216387949E+01 -0.18962697844E+00  0.95779390678E-01  0.91241123759E+01  0.51100000000E-03 0. -1.
        -11    1    3    3    0    0 -0.40418054730E+01 -0.22779258090E+02 -0.56860603511E+00  0.23142041908E+02  0.51100000000E-03 0.  1.
         12    1    3    3    0    0  0.71552524715E+01  0.38512459082E+02  0.90152603047E+01  0.40195547774E+02  0.00000000000E+00 0. -1.
</event>
<event>
 7    1  0.2851651E-013  0.7246157E+02  0.7816164E-02  0.1226708E+00
        -11   -1    0    0    0    0  0.00000000000E+00  0.00000000000E+00  0.45593999997E+02  0.45594000000E+02  0.51100000000E-03 0.  1.
         11   -1    0    0    0    0 -0.00000000000E+00 -0.00000000000E+00 -0.45593999997E+02  0.45594000000E+02  0.51100000000E-03 0. -1.
    9900012    2    1    2    0    0 -0.10419528589E+02  0.15451169567E+02  0.18368632058E+01  0.72461567252E+02  0.69999996037E+02 0.  0.
        -12    1    1    2    0    0  0.10419528589E+02 -0.15451169567E+02 -0.18368632058E+01  0.18726432748E+02  0.00000000000E+00 0.  1.
         11    1    3    3    0    0 -0.17728721038E+02  0.29379989357E+02  0.19476740138E+02  0.39456745062E+02  0.51100000000E-03 0. -1.
        -11    1    3    3    0    0 -0.58179336629E+01 -0.52348542838E+01  0.17577594391E+01  0.80213321827E+01  0.51100000000E-03 0.  1.
        -12    1    3    3    0    0  0.13127126112E+02 -0.86939655055E+01 -0.19397636371E+02  0.24983490007E+02  0.00000000000E+00 0.  1.
</event>
<event>
 7    1  0.2851651E-013  0.7246149E+02  0.7816164E-02  0.1226708E+00
        -11   -1    0    0    0    0  0.00000000000E+00  0.00000000000E+00  0.45593999997E+02  0.45594000000E+02  0.51100000000E-03 0.  1.
         11   -1    0    0    0    0 -0.00000000000E+00 -0.00000000000E+00 -0.45593999997E+02  0.45594000000E+02  0.51100000000E-03 0. -1.
    9900012    2    1    2    0    0  0.15363522770E+02  0.99342155776E+01 -0.39944621093E+01  0.72461489417E+02  0.69999894643E+02 0.  0.
        -12    1    1    2    0    0 -0.15363522770E+02 -0.99342155776E+01  0.39944621093E+01  0.18726510583E+02  0.00000000000E+00 0.  1.
         11    1    3    3    0    0 -0.12599208828E+02 -0.25164239322E+01 -0.15275538197E+02  0.19960323644E+02  0.51100000000E-03 0. -1.
        -11    1    3    3    0    0 -0.50792993360E+01  0.14235233766E+02  0.12161038483E+02  0.19399278836E+02  0.51100000000E-03 0.  1.
         12    1    3    3    0    0  0.33042030935E+02 -0.17845942561E+01 -0.87996239503E+00  0.33101886937E+02  0.00000000000E+00 0. -1.
</event>
<event>
 7    1  0.2851651E-013  0.7246152E+02  0.7816164E-02  0.1226708E+00
        -11   -1    0    0    0    0  0.00000000000E+00  0.00000000000E+00  0.45593999997E+02  0.45594000000E+02  0.51100000000E-03 0.  1.
         11   -1    0    0    0    0 -0.00000000000E+00 -0.00000000000E+00 -0.45593999997E+02  0.45594000000E+02  0.51100000000E-03 0. -1.
    9900012    2    1    2    0    0 -0.40740397162E+01 -0.70788269685E+01 -0.16851516851E+02  0.72461515785E+02  0.69999928992E+02 0.  0.
        -12    1    1    2    0    0  0.40740397162E+01  0.70788269685E+01  0.16851516851E+02  0.18726484215E+02  0.00000000000E+00 0.  1.
         11    1    3    3    0    0  0.34416798794E+01  0.21653030725E+01 -0.27734808802E-01  0.40662596165E+01  0.51100000000E-03 0. -1.
        -11    1    3    3    0    0  0.19495313462E+02  0.16810015179E+02 -0.17031030628E+02  0.30865836483E+02  0.51100000000E-03 0.  1.
         12    1    3    3    0    0 -0.27011033057E+02 -0.26054145220E+02  0.20724858528E+00  0.37529419686E+02  0.00000000000E+00 0. -1.
</event>
<event>
 7    1  0.2851651E-013  0.7246160E+02  0.7816164E-02  0.1226708E+00
        -11   -1    0    0    0    0  0.00000000000E+00  0.00000000000E+00  0.45593999997E+02  0.45594000000E+02  0.51100000000E-03 0. -1.
         11   -1    0    0    0    0 -0.00000000000E+00 -0.00000000000E+00 -0.45593999997E+02  0.45594000000E+02  0.51100000000E-03 0.  1.
    9900012    2    1    2    0    0  0.17030633771E+02 -0.27891887038E+01  0.72702114450E+01  0.72461600594E+02  0.70000039471E+02 0.  0.
        -12    1    1    2    0    0 -0.17030633771E+02  0.27891887038E+01 -0.72702114450E+01  0.18726399406E+02  0.00000000000E+00 0.  1.
         11    1    3    3    0    0  0.13531509764E+01  0.19174305258E+01  0.11110689801E+02  0.11355834865E+02  0.51100000000E-03 0. -1.
        -11    1    3    3    0    0  0.30925804856E+02  0.16349047112E+02 -0.26416123532E+01  0.35080975807E+02  0.51100000000E-03 0.  1.
        -12    1    3    3    0    0 -0.15248322062E+02 -0.21055666341E+02 -0.11988660024E+01  0.26024789922E+02  0.00000000000E+00 0.  1.
</event>
<event>
 7    1  0.2851651E-013  0.7246163E+02  0.7816164E-02  0.1226708E+00
        -11   -1    0    0    0    0  0.00000000000E+00  0.00000000000E+00  0.45593999997E+02  0.45594000000E+02  0.51100000000E-03 0.  1.
         11   -1    0    0    0    0 -0.00000000000E+00 -0.00000000000E+00 -0.45593999997E+02  0.45594000000E+02  0.51100000000E-03 0. -1.
    9900012    2    1    2    0    0  0.30401091628E+01  0.18304213666E+02  0.25279281045E+01  0.72461630300E+02  0.70000078168E+02 0.  0.
        -12    1    1    2    0    0 -0.30401091628E+01 -0.18304213666E+02 -0.25279281045E+01  0.18726369700E+02  0.00000000000E+00 0.  1.
         11    1    3    3    0    0  0.16253506445E+02  0.29719064028E+02 -0.18235665544E+02  0.38469971881E+02  0.51100000000E-03 0. -1.
        -11    1    3    3    0    0 -0.70645285184E+01  0.47614261584E+01  0.26077615568E+01  0.89094984622E+01  0.51100000000E-03 0.  1.
        -12    1    3    3    0    0 -0.61488687637E+01 -0.16176276520E+02  0.18155832092E+02  0.25082159956E+02  0.00000000000E+00 0.  1.
</event>
<event>
 7    1  0.2851651E-013  0.7246161E+02  0.7816164E-02  0.1226708E+00
        -11   -1    0    0    0    0  0.00000000000E+00  0.00000000000E+00  0.45593999997E+02  0.45594000000E+02  0.51100000000E-03 0. -1.
         11   -1    0    0    0    0 -0.00000000000E+00 -0.00000000000E+00 -0.45593999997E+02  0.45594000000E+02  0.51100000000E-03 0.  1.
    9900012    2    1    2    0    0  0.16513456967E+02  0.85104357247E+01 -0.23571232045E+01  0.72461606674E+02  0.70000047391E+02 0.  0.
        -12    1    1    2    0    0 -0.16513456967E+02 -0.85104357247E+01  0.23571232045E+01  0.18726393326E+02  0.00000000000E+00 0.  1.
         11    1    3    3    0    0  0.43676061953E+01  0.29721125093E+01 -0.51131439920E+01  0.73521206729E+01  0.51100000000E-03 0. -1.
        -11    1    3    3    0    0 -0.43026787484E+00 -0.62872873274E+01 -0.28615916111E+02  0.29301634212E+02  0.51100000000E-03 0.  1.
         12    1    3    3    0    0  0.12576118646E+02  0.11825610543E+02  0.31371936899E+02  0.35807851788E+02  0.00000000000E+00 0. -1.
</event>
<event>
 7    1  0.2851651E-013  0.7246154E+02  0.7816164E-02  0.1226708E+00
        -11   -1    0    0    0    0  0.00000000000E+00  0.00000000000E+00  0.45593999997E+02  0.45594000000E+02  0.51100000000E-03 0. -1.
         11   -1    0    0    0    0 -0.00000000000E+00 -0.00000000000E+00 -0.45593999997E+02  0.45594000000E+02  0.51100000000E-03 0.  1.
    9900012    2    1    2    0    0 -0.54964880487E+01 -0.13306799875E+02  0.11974883559E+02  0.72461544381E+02  0.69999966243E+02 0.  0.
        -12    1    1    2    0    0  0.54964880487E+01  0.13306799875E+02 -0.11974883559E+02  0.18726455619E+02  0.00000000000E+00 0.  1.
         11    1    3    3    0    0  0.14609713289E+02 -0.54315698431E+00 -0.10273483023E+02  0.17868497295E+02  0.51100000000E-03 0. -1.
        -11    1    3    3    0    0 -0.32486392975E+01 -0.14079842467E+02 -0.10415360820E+02  0.17812225084E+02  0.51100000000E-03 0.  1.
        -12    1    3    3    0    0 -0.16857562040E+02  0.13161995761E+01  0.32663727402E+02  0.36780822001E+02  0.00000000000E+00 0.  1.
</event>
<event>
 7    1  0.2851651E-013  0.7246159E+02  0.7816164E-02  0.1226708E+00
        -11   -1    0    0    0    0  0.00000000000E+00  0.00000000000E+00  0.45593999997E+02  0.45594000000E+02  0.51100000000E-03 0.  1.
         11   -1    0    0    0    0 -0.00000000000E+00 -0.00000000000E+00 -0.45593999997E+02  0.45594000000E+02  0.51100000000E-03 0. -1.
    9900012    2    1    2    0    0 -0.13447987179E+02  0.97206870047E+01 -0.86797561495E+01  0.72461593996E+02  0.70000030876E+02 0.  0.
        -12    1    1    2    0    0  0.13447987179E+02 -0.97206870047E+01  0.86797561495E+01  0.18726406004E+02  0.00000000000E+00 0.  1.
         11    1    3    3    0    0 -0.41811094992E+00  0.21934518918E+02 -0.32923329906E+01  0.22184169890E+02  0.51100000000E-03 0. -1.
        -11    1    3    3    0    0  0.77666207005E+01  0.14112320114E+02 -0.44636785111E+01  0.16715334343E+02  0.51100000000E-03 0.  1.
         12    1    3    3    0    0 -0.20796496929E+02 -0.26326152027E+02 -0.92374464776E+00  0.33562089763E+02  0.00000000000E+00 0. -1.
</event>
<event>
 7    1  0.3621022E-013  0.7246162E+02  0.7816164E-02  0.1226708E+00
        -11   -1    0    0    0    0  0.00000000000E+00  0.00000000000E+00  0.45593999997E+02  0.45594000000E+02  0.51100000000E-03 0.  1.
         11   -1    0    0    0    0 -0.00000000000E+00 -0.00000000000E+00 -0.45593999997E+02  0.45594000000E+02  0.51100000000E-03 0. -1.
    9900012    2    1    2    0    0 -0.16097545558E+02  0.30060611569E+01 -0.90834984187E+01  0.72461619672E+02  0.70000064323E+02 0.  0.
        -12    1    1    2    0    0  0.16097545558E+02 -0.30060611569E+01  0.90834984187E+01  0.18726380328E+02  0.00000000000E+00 0.  1.
         11    1    3    3    0    0  0.95364435216E+01  0.60434551150E+01  0.45061646611E+01  0.12156176413E+02  0.51100000000E-03 0. -1.
        -11    1    3    3    0    0 -0.24180548634E+02 -0.16448989319E+02  0.11814828983E+02  0.31541375462E+02  0.51100000000E-03 0.  1.
         12    1    3    3    0    0 -0.14534404458E+01  0.13411595361E+02 -0.25404492063E+02  0.28764067797E+02  0.00000000000E+00 0. -1.
</event>
<event>
 7    1  0.2851651E-013  0.7246141E+02  0.7816164E-02  0.1226708E+00
        -11   -1    0    0    0    0  0.00000000000E+00  0.00000000000E+00  0.45593999997E+02  0.45594000000E+02  0.51100000000E-03 0.  1.
         11   -1    0    0    0    0 -0.00000000000E+00 -0.00000000000E+00 -0.45593999997E+02  0.45594000000E+02  0.51100000000E-03 0. -1.
    9900012    2    1    2    0    0  0.11487337025E+02  0.14776715798E+02 -0.61218915596E+00  0.72461414159E+02  0.69999796605E+02 0.  0.
        -12    1    1    2    0    0 -0.11487337025E+02 -0.14776715798E+02  0.61218915596E+00  0.18726585841E+02  0.00000000000E+00 0.  1.
         11    1    3    3    0    0  0.26166219425E+01 -0.27807408979E+01 -0.22043462212E+01  0.44088970112E+01  0.51100000000E-03 0. -1.
        -11    1    3    3    0    0  0.31910483145E+02 -0.87084139552E+01  0.15473182742E+01  0.33113586370E+02  0.51100000000E-03 0.  1.
         12    1    3    3    0    0 -0.23039768062E+02  0.26265870651E+02  0.44838791043E-01  0.34938930778E+02  0.00000000000E+00 0. -1.
</event>
<event>
 7    1  0.3641063E-013  0.7246158E+02  0.7816164E-02  0.1226708E+00
        -11   -1    0    0    0    0  0.00000000000E+00  0.00000000000E+00  0.45593999997E+02  0.45594000000E+02  0.51100000000E-03 0. -1.
         11   -1    0    0    0    0 -0.00000000000E+00 -0.00000000000E+00 -0.45593999997E+02  0.45594000000E+02  0.51100000000E-03 0.  1.
    9900012    2    1    2    0    0 -0.17217858090E+02 -0.25602093191E+01  0.69043000790E+01  0.72461583670E+02  0.70000017425E+02 0.  0.
        -12    1    1    2    0    0  0.17217858090E+02  0.25602093191E+01 -0.69043000790E+01  0.18726416330E+02  0.00000000000E+00 0.  1.
         11    1    3    3    0    0 -0.49987718393E+01  0.50202207088E+01  0.39187398830E+01  0.80961014321E+01  0.51100000000E-03 0. -1.
        -11    1    3    3    0    0 -0.73421151114E+01  0.27695280545E+02  0.23560989125E+01  0.28748676859E+02  0.51100000000E-03 0.  1.
         12    1    3    3    0    0 -0.48769711394E+01 -0.35275710573E+02  0.62946128350E+00  0.35616805379E+02  0.00000000000E+00 0. -1.
</event>
<event>
 7    1  0.2851651E-013  0.7246172E+02  0.7816164E-02  0.1226708E+00
        -11   -1    0    0    0    0  0.00000000000E+00  0.00000000000E+00  0.45593999997E+02  0.45594000000E+02  0.51100000000E-03 0. -1.
         11   -1    0    0    0    0 -0.00000000000E+00 -0.00000000000E+00 -0.45593999997E+02  0.45594000000E+02  0.51100000000E-03 0.  1.
    9900012    2    1    2    0    0  0.16952686885E+02 -0.14674090792E+01 -0.78183464073E+01  0.72461723740E+02  0.70000199891E+02 0.  0.
        -12    1    1    2    0    0 -0.16952686885E+02  0.14674090792E+01  0.78183464073E+01  0.18726276260E+02  0.00000000000E+00 0.  1.
         11    1    3    3    0    0 -0.22836236785E+01  0.63424262843E+01  0.12658625474E+02  0.14341621506E+02  0.51100000000E-03 0. -1.
        -11    1    3    3    0    0 -0.85566845360E+01  0.15017773945E+02 -0.12361599684E+02  0.21249930153E+02  0.51100000000E-03 0.  1.
        -12    1    3    3    0    0  0.27792995099E+02 -0.22827609309E+02 -0.81153721977E+01  0.36870172080E+02  0.00000000000E+00 0.  1.
</event>
<event>
 7    1  0.2851651E-013  0.7246099E+02  0.7816164E-02  0.1226710E+00
        -11   -1    0    0    0    0  0.00000000000E+00  0.00000000000E+00  0.45593999997E+02  0.45594000000E+02  0.51100000000E-03 0.  1.
         11   -1    0    0    0    0 -0.00000000000E+00 -0.00000000000E+00 -0.45593999997E+02  0.45594000000E+02  0.51100000000E-03 0. -1.
    9900012    2    1    2    0    0 -0.42669994676E+00 -0.18381241608E+02  0.35565003703E+01  0.72460992476E+02  0.69999247281E+02 0.  0.
        -12    1    1    2    0    0  0.42669994676E+00  0.18381241608E+02 -0.35565003703E+01  0.18727007524E+02  0.00000000000E+00 0.  1.
         11    1    3    3    0    0 -0.26966463403E+02 -0.23176360001E+02  0.17559293836E+02  0.39656810406E+02  0.51100000000E-03 0. -1.
        -11    1    3    3    0    0  0.28583771276E+01  0.52511828633E+01 -0.27203280096E+01  0.65685177939E+01  0.51100000000E-03 0.  1.
        -12    1    3    3    0    0  0.23681386329E+02 -0.45606447096E+00 -0.11282465456E+02  0.26235664276E+02  0.00000000000E+00 0.  1.
</event>
<event>
 7    1  0.2851651E-013  0.7246156E+02  0.7816164E-02  0.1226708E+00
        -11   -1    0    0    0    0  0.00000000000E+00  0.00000000000E+00  0.45593999997E+02  0.45594000000E+02  0.51100000000E-03 0.  1.
         11   -1    0    0    0    0 -0.00000000000E+00 -0.00000000000E+00 -0.45593999997E+02  0.45594000000E+02  0.51100000000E-03 0. -1.
    9900012    2    1    2    0    0 -0.18156978102E+02  0.60847454403E+00  0.45423922983E+01  0.72461563530E+02  0.69999991188E+02 0.  0.
        -12    1    1    2    0    0  0.18156978102E+02 -0.60847454403E+00 -0.45423922983E+01  0.18726436470E+02  0.00000000000E+00 0.  1.
         11    1    3    3    0    0  0.42278519623E+01 -0.74660124956E+00 -0.81910600565E+01  0.92480057715E+01  0.51100000000E-03 0. -1.
        -11    1    3    3    0    0  0.11305821843E+02 -0.17389317348E+02  0.13328776672E+02  0.24654943789E+02  0.51100000000E-03 0.  1.
        -12    1    3    3    0    0 -0.33690651908E+02  0.18744393141E+02 -0.59532431762E+00  0.38558613970E+02  0.00000000000E+00 0.  1.
</event>
<event>
 7    1  0.2851651E-013  0.7246152E+02  0.7816164E-02  0.1226708E+00
        -11   -1    0    0    0    0  0.00000000000E+00  0.00000000000E+00  0.45593999997E+02  0.45594000000E+02  0.51100000000E-03 0.  1.
         11   -1    0    0    0    0 -0.00000000000E+00 -0.00000000000E+00 -0.45593999997E+02  0.45594000000E+02  0.51100000000E-03 0. -1.
    9900012    2    1    2    0    0 -0.59169979120E+01 -0.16237552309E+02 -0.72119464659E+01  0.72461517653E+02  0.69999931425E+02 0.  0.
        -12    1    1    2    0    0  0.59169979120E+01  0.16237552309E+02  0.72119464659E+01  0.18726482347E+02  0.00000000000E+00 0.  1.
         11    1    3    3    0    0  0.23240712576E+02 -0.12096804228E+02  0.14772848194E+02  0.30078238605E+02  0.51100000000E-03 0.  1.
        -11    1    3    3    0    0 -0.41868173514E+01 -0.65100742152E+01 -0.14109269706E+02  0.16092917626E+02  0.51100000000E-03 0. -1.
        -12    1    3    3    0    0 -0.24970893137E+02  0.23693261346E+01 -0.78755249532E+01  0.26290361421E+02  0.00000000000E+00 0.  1.
</event>
<event>
 7    1  0.2851651E-013  0.7246155E+02  0.7816164E-02  0.1226708E+00
        -11   -1    0    0    0    0  0.00000000000E+00  0.00000000000E+00  0.45593999997E+02  0.45594000000E+02  0.51100000000E-03 0.  1.
         11   -1    0    0    0    0 -0.00000000000E+00 -0.00000000000E+00 -0.45593999997E+02  0.45594000000E+02  0.51100000000E-03 0. -1.
    9900012    2    1    2    0    0 -0.10585601466E+02 -0.28296937446E+01 -0.15186101286E+02  0.72461553531E+02  0.69999978163E+02 0.  0.
        -12    1    1    2    0    0  0.10585601466E+02  0.28296937446E+01  0.15186101286E+02  0.18726446469E+02  0.00000000000E+00 0.  1.
         11    1    3    3    0    0 -0.14927742551E+02 -0.21263653612E+02  0.40710024364E+01  0.26297405265E+02  0.51100000000E-03 0. -1.
        -11    1    3    3    0    0 -0.47709952808E+00 -0.28032168650E+00  0.10591478858E+02  0.10605924235E+02  0.51100000000E-03 0.  1.
         12    1    3    3    0    0  0.48192406128E+01  0.18714281554E+02 -0.29848582580E+02  0.35558224031E+02  0.00000000000E+00 0. -1.
</event>
<event>
 7    1  0.2851651E-013  0.7246163E+02  0.7816164E-02  0.1226708E+00
        -11   -1    0    0    0    0  0.00000000000E+00  0.00000000000E+00  0.45593999997E+02  0.45594000000E+02  0.51100000000E-03 0.  1.
         11   -1    0    0    0    0 -0.00000000000E+00 -0.00000000000E+00 -0.45593999997E+02  0.45594000000E+02  0.51100000000E-03 0. -1.
    9900012    2    1    2    0    0  0.82997437354E+01 -0.16759988010E+02  0.94552247211E+00  0.72461629371E+02  0.70000076958E+02 0.  0.
        -12    1    1    2    0    0 -0.82997437354E+01  0.16759988010E+02 -0.94552247211E+00  0.18726370629E+02  0.00000000000E+00 0.  1.
         11    1    3    3    0    0 -0.37116864531E+01 -0.26858661861E+02 -0.73612632018E+01  0.28095418300E+02  0.51100000000E-03 0. -1.
        -11    1    3    3    0    0 -0.10877689489E+02  0.62928143894E+01  0.15610730424E+02  0.20040422805E+02  0.51100000000E-03 0.  1.
         12    1    3    3    0    0  0.22889119677E+02  0.38058594609E+01 -0.73039447506E+01  0.24325788266E+02  0.00000000000E+00 0. -1.
</event>
<event>
 7    1  0.2851651E-013  0.7246159E+02  0.7816164E-02  0.1226708E+00
        -11   -1    0    0    0    0  0.00000000000E+00  0.00000000000E+00  0.45593999997E+02  0.45594000000E+02  0.51100000000E-03 0. -1.
         11   -1    0    0    0    0 -0.00000000000E+00 -0.00000000000E+00 -0.45593999997E+02  0.45594000000E+02  0.51100000000E-03 0.  1.
    9900012    2    1    2    0    0  0.61569587511E+01 -0.69189893597E+01  0.16275682018E+02  0.72461591375E+02  0.70000027462E+02 0.  0.
        -12    1    1    2    0    0 -0.61569587511E+01  0.69189893597E+01 -0.16275682018E+02  0.18726408625E+02  0.00000000000E+00 0.  1.
         11    1    3    3    0    0  0.22628526480E+01 -0.13909541757E+02  0.33254482185E+01  0.14479449579E+02  0.51100000000E-03 0. -1.
        -11    1    3    3    0    0  0.68759925673E+01 -0.21689296500E+02 -0.59339984746E+01  0.23514191345E+02  0.51100000000E-03 0.  1.
         12    1    3    3    0    0 -0.29818864642E+01  0.28679848898E+02  0.18884232274E+02  0.34467950451E+02  0.00000000000E+00 0. -1.
</event>
<event>
 7    1  0.2851651E-013  0.7246157E+02  0.7816164E-02  0.1226708E+00
        -11   -1    0    0    0    0  0.00000000000E+00  0.00000000000E+00  0.45593999997E+02  0.45594000000E+02  0.51100000000E-03 0.  1.
         11   -1    0    0    0    0 -0.00000000000E+00 -0.00000000000E+00 -0.45593999997E+02  0.45594000000E+02  0.51100000000E-03 0. -1.
    9900012    2    1    2    0    0  0.40992802293E+01 -0.13317209201E+02 -0.12511079196E+02  0.72461567826E+02  0.69999996785E+02 0.  0.
        -12    1    1    2    0    0 -0.40992802293E+01  0.13317209201E+02  0.12511079196E+02  0.18726432174E+02  0.00000000000E+00 0.  1.
         11    1    3    3    0    0  0.16774274660E+01 -0.32563875861E+01 -0.35327704349E+02  0.35517101766E+02  0.51100000000E-03 0. -1.
        -11    1    3    3    0    0  0.42496149816E+01  0.68698064828E+01 -0.47465975625E+00  0.80918953743E+01  0.51100000000E-03 0.  1.
        -12    1    3    3    0    0 -0.18277622183E+01 -0.16930628098E+02  0.23291284909E+02  0.28852570687E+02  0.00000000000E+00 0.  1.
</event>
<event>
 7    1  0.2851651E-013  0.7246153E+02  0.7816164E-02  0.1226708E+00
        -11   -1    0    0    0    0  0.00000000000E+00  0.00000000000E+00  0.45593999997E+02  0.45594000000E+02  0.51100000000E-03 0. -1.
         11   -1    0    0    0    0 -0.00000000000E+00 -0.00000000000E+00 -0.45593999997E+02  0.45594000000E+02  0.51100000000E-03 0.  1.
    9900012    2    1    2    0    0  0.14838195888E+02 -0.52391062670E+01  0.10151866279E+02  0.72461529947E+02  0.69999947440E+02 0.  0.
        -12    1    1    2    0    0 -0.14838195888E+02  0.52391062670E+01 -0.10151866279E+02  0.18726470053E+02  0.00000000000E+00 0.  1.
         11    1    3    3    0    0  0.32142758257E+01 -0.24408766805E+02  0.15516561762E+01  0.24668342124E+02  0.51100000000E-03 0. -1.
        -11    1    3    3    0    0 -0.11846775410E+02 -0.61957989706E+00 -0.65579423375E+01  0.13554946508E+02  0.51100000000E-03 0.  1.
        -12    1    3    3    0    0  0.23470695472E+02  0.19789240435E+02  0.15158152441E+02  0.34238241315E+02  0.00000000000E+00 0.  1.
</event>
<event>
 7    1  0.2851651E-013  0.7246160E+02  0.7816164E-02  0.1226708E+00
        -11   -1    0    0    0    0  0.00000000000E+00  0.00000000000E+00  0.45593999997E+02  0.45594000000E+02  0.51100000000E-03 0. -1.
         11   -1    0    0    0    0 -0.00000000000E+00 -0.00000000000E+00 -0.45593999997E+02  0.45594000000E+02  0.51100000000E-03 0.  1.
    9900012    2    1    2    0    0  0.12309274692E+02  0.13907735268E+02 -0.23947465682E+01  0.72461597386E+02  0.70000035292E+02 0.  0.
        -12    1    1    2    0    0 -0.12309274692E+02 -0.13907735268E+02  0.23947465682E+01  0.18726402614E+02  0.00000000000E+00 0.  1.
         11    1    3    3    0    0  0.44366662598E+01 -0.76115775402E+01 -0.10165199668E+02  0.13451817896E+02  0.51100000000E-03 0. -1.
        -11    1    3    3    0    0  0.73810558444E+01  0.19753424286E+02 -0.21246616710E+02  0.29934870607E+02  0.51100000000E-03 0.  1.
         12    1    3    3    0    0  0.49155258772E+00  0.17658885222E+01  0.29017069810E+02  0.29074908883E+02  0.00000000000E+00 0. -1.
</event>
<event>
 7    1  0.2851651E-013  0.7246159E+02  0.7816164E-02  0.1226708E+00
        -11   -1    0    0    0    0  0.00000000000E+00  0.00000000000E+00  0.45593999997E+02  0.45594000000E+02  0.51100000000E-03 0. -1.
         11   -1    0    0    0    0 -0.00000000000E+00 -0.00000000000E+00 -0.45593999997E+02  0.45594000000E+02  0.51100000000E-03 0.  1.
    9900012    2    1    2    0    0  0.15978756695E+02 -0.30832749820E+01  0.92655994785E+01  0.72461585932E+02  0.70000020371E+02 0.  0.
        -12    1    1    2    0    0 -0.15978756695E+02  0.30832749820E+01 -0.92655994785E+01  0.18726414068E+02  0.00000000000E+00 0.  1.
         11    1    3    3    0    0 -0.10460878817E+02  0.14545383851E+02  0.31067245520E+01  0.18183781639E+02  0.51100000000E-03 0. -1.
        -11    1    3    3    0    0 -0.63140992481E+01 -0.51230789428E+01  0.15927078726E+02  0.17882550830E+02  0.51100000000E-03 0.  1.
        -12    1    3    3    0    0  0.32753734761E+02 -0.12505579890E+02 -0.97682037999E+01  0.36395253463E+02  0.00000000000E+00 0.  1.
</event>
<event>
 7    1  0.3894195E-013  0.7246154E+02  0.7816164E-02  0.1226708E+00
        -11   -1    0    0    0    0  0.00000000000E+00  0.00000000000E+00  0.45593999997E+02  0.45594000000E+02  0.51100000000E-03 0. -1.
         11   -1    0    0    0    0 -0.00000000000E+00 -0.00000000000E+00 -0.45593999997E+02  0.45594000000E+02  0.51100000000E-03 0.  1.
    9900012    2    1    2    0    0  0.13245629844E+02  0.12876623727E+02  0.30701754805E+01  0.72461544755E+02  0.69999966730E+02 0.  0.
        -12    1    1    2    0    0 -0.13245629844E+02 -0.12876623727E+02 -0.30701754805E+01  0.18726455245E+02  0.00000000000E+00 0.  1.
         11    1    3    3    0    0  0.18033968063E+02  0.63277757162E+01  0.11328172240E+01  0.19145443968E+02  0.51100000000E-03 0. -1.
        -11    1    3    3    0    0  0.27906439939E+00 -0.19125916820E+02  0.14772222584E+02  0.24168101529E+02  0.51100000000E-03 0.  1.
         12    1    3    3    0    0 -0.50674026185E+01  0.25674764831E+02 -0.12834864327E+02  0.29147999258E+02  0.00000000000E+00 0. -1.
</event>
<event>
 7    1  0.2851651E-013  0.7246158E+02  0.7816164E-02  0.1226708E+00
        -11   -1    0    0    0    0  0.00000000000E+00  0.00000000000E+00  0.45593999997E+02  0.45594000000E+02  0.51100000000E-03 0.  1.
         11   -1    0    0    0    0 -0.00000000000E+00 -0.00000000000E+00 -0.45593999997E+02  0.45594000000E+02  0.51100000000E-03 0. -1.
    9900012    2    1    2    0    0 -0.34499860607E+01 -0.15199464042E+02 -0.10380394201E+02  0.72461582971E+02  0.70000016513E+02 0.  0.
        -12    1    1    2    0    0  0.34499860607E+01  0.15199464042E+02  0.10380394201E+02  0.18726417029E+02  0.00000000000E+00 0.  1.
         11    1    3    3    0    0 -0.22738954196E+02 -0.14271472543E+02  0.12921913736E+02  0.29794476356E+02  0.51100000000E-03 0.  1.
        -11    1    3    3    0    0  0.85534117184E+00 -0.13133554467E+02 -0.12119801503E+02  0.17891658677E+02  0.51100000000E-03 0. -1.
        -12    1    3    3    0    0  0.18433626963E+02  0.12205562968E+02 -0.11182506434E+02  0.24775447938E+02  0.00000000000E+00 0.  1.
</event>
<event>
 7    1  0.2851651E-013  0.7246158E+02  0.7816164E-02  0.1226708E+00
        -11   -1    0    0    0    0  0.00000000000E+00  0.00000000000E+00  0.45593999997E+02  0.45594000000E+02  0.51100000000E-03 0.  1.
         11   -1    0    0    0    0 -0.00000000000E+00 -0.00000000000E+00 -0.45593999997E+02  0.45594000000E+02  0.51100000000E-03 0. -1.
    9900012    2    1    2    0    0 -0.13062056946E+02  0.13193922770E+02  0.24457941148E+01  0.72461579131E+02  0.70000011511E+02 0.  0.
        -12    1    1    2    0    0  0.13062056946E+02 -0.13193922770E+02 -0.24457941148E+01  0.18726420869E+02  0.00000000000E+00 0.  1.
         11    1    3    3    0    0 -0.16512442467E+02  0.50740738097E+01 -0.83416401565E+01  0.19183063937E+02  0.51100000000E-03 0. -1.
        -11    1    3    3    0    0 -0.23340802499E+02  0.31587215792E+01  0.11081701898E+02  0.26030265088E+02  0.51100000000E-03 0.  1.
         12    1    3    3    0    0  0.26791188020E+02  0.49611273809E+01 -0.29426762630E+00  0.27248250106E+02  0.00000000000E+00 0. -1.
</event>
<event>
 7    1  0.2851651E-013  0.7246157E+02  0.7816164E-02  0.1226708E+00
        -11   -1    0    0    0    0  0.00000000000E+00  0.00000000000E+00  0.45593999997E+02  0.45594000000E+02  0.51100000000E-03 0.  1.
         11   -1    0    0    0    0 -0.00000000000E+00 -0.00000000000E+00 -0.45593999997E+02  0.45594000000E+02  0.51100000000E-03 0. -1.
    9900012    2    1    2    0    0  0.20298575992E+01 -0.15896094485E+02 -0.96888121130E+01  0.72461568896E+02  0.69999998178E+02 0.  0.
        -12    1    1    2    0    0 -0.20298575992E+01  0.15896094485E+02  0.96888121130E+01  0.18726431104E+02  0.00000000000E+00 0.  1.
         11    1    3    3    0    0  0.13792818553E+01 -0.96580910277E+01 -0.27731793937E+02  0.29397849172E+02  0.51100000000E-03 0. -1.
        -11    1    3    3    0    0 -0.63569307312E+00  0.18600403153E+01 -0.11878010044E+02  0.12039558901E+02  0.51100000000E-03 0.  1.
        -12    1    3    3    0    0  0.12862688170E+01 -0.80980437725E+01  0.29920991868E+02  0.31024160823E+02  0.00000000000E+00 0.  1.
</event>
<event>
 7    1  0.2851651E-013  0.7246155E+02  0.7816164E-02  0.1226708E+00
        -11   -1    0    0    0    0  0.00000000000E+00  0.00000000000E+00  0.45593999997E+02  0.45594000000E+02  0.51100000000E-03 0. -1.
         11   -1    0    0    0    0 -0.00000000000E+00 -0.00000000000E+00 -0.45593999997E+02  0.45594000000E+02  0.51100000000E-03 0.  1.
    9900012    2    1    2    0    0  0.78675233504E+01 -0.10839261690E+02  0.13087866721E+02  0.72461554183E+02  0.69999979012E+02 0.  0.
        -12    1    1    2    0    0 -0.78675233504E+01  0.10839261690E+02 -0.13087866721E+02  0.18726445817E+02  0.00000000000E+00 0.  1.
         11    1    3    3    0    0  0.19002117028E+02  0.66149024884E+01  0.35744277395E+01  0.20435604234E+02  0.51100000000E-03 0. -1.
        -11    1    3    3    0    0 -0.10406488784E+02  0.14823943384E+02  0.77236069908E+01  0.19690058696E+02  0.51100000000E-03 0.  1.
        -12    1    3    3    0    0 -0.72810489394E+00 -0.32278107562E+02  0.17898319907E+01  0.32335891252E+02  0.00000000000E+00 0.  1.
</event>
<event>
 7    1  0.2851651E-013  0.7246155E+02  0.7816164E-02  0.1226708E+00
        -11   -1    0    0    0    0  0.00000000000E+00  0.00000000000E+00  0.45593999997E+02  0.45594000000E+02  0.51100000000E-03 0.  1.
         11   -1    0    0    0    0 -0.00000000000E+00 -0.00000000000E+00 -0.45593999997E+02  0.45594000000E+02  0.51100000000E-03 0. -1.
    9900012    2    1    2    0    0  0.14032759941E+02 -0.11615236560E+02  0.43414063082E+01  0.72461551308E+02  0.69999975267E+02 0.  0.
        -12    1    1    2    0    0 -0.14032759941E+02  0.11615236560E+02 -0.43414063082E+01  0.18726448692E+02  0.00000000000E+00 0.  1.
         11    1    3    3    0    0 -0.99991481560E+01  0.11335433730E+02  0.17880059881E+02  0.23413063945E+02  0.51100000000E-03 0. -1.
        -11    1    3    3    0    0  0.85449438065E+01 -0.52375483097E+01  0.11116898053E+02  0.14967745306E+02  0.51100000000E-03 0.  1.
         12    1    3    3    0    0  0.15486964290E+02 -0.17713121980E+02 -0.24655551626E+02  0.34080742057E+02  0.00000000000E+00 0. -1.
</event>
<event>
 7    1  0.2851651E-013  0.7246159E+02  0.7816164E-02  0.1226708E+00
        -11   -1    0    0    0    0  0.00000000000E+00  0.00000000000E+00  0.45593999997E+02  0.45594000000E+02  0.51100000000E-03 0.  1.
         11   -1    0    0    0    0 -0.00000000000E+00 -0.00000000000E+00 -0.45593999997E+02  0.45594000000E+02  0.51100000000E-03 0. -1.
    9900012    2    1    2    0    0  0.34172565159E+01 -0.14157260761E+02 -0.11771692599E+02  0.72461590280E+02  0.70000026035E+02 0.  0.
        -12    1    1    2    0    0 -0.34172565159E+01  0.14157260761E+02  0.11771692599E+02  0.18726409720E+02  0.00000000000E+00 0.  1.
         11    1    3    3    0    0  0.16454862754E+02 -0.21713301089E+02 -0.23239499225E+02  0.35809276409E+02  0.51100000000E-03 0. -1.
        -11    1    3    3    0    0 -0.67822267780E+01 -0.49247630804E+01 -0.87280653906E+01  0.12100868448E+02  0.51100000000E-03 0.  1.
        -12    1    3    3    0    0 -0.62553794601E+01  0.12480803408E+02  0.20195872016E+02  0.24551445423E+02  0.00000000000E+00 0.  1.
</event>
<event>
 7    1  0.2851651E-013  0.7246160E+02  0.7816164E-02  0.1226708E+00
        -11   -1    0    0    0    0  0.00000000000E+00  0.00000000000E+00  0.45593999997E+02  0.45594000000E+02  0.51100000000E-03 0.  1.
         11   -1    0    0    0    0 -0.00000000000E+00 -0.00000000000E+00 -0.45593999997E+02  0.45594000000E+02  0.51100000000E-03 0. -1.
    9900012    2    1    2    0    0  0.87554198851E+00  0.16215463776E+02  0.93257914054E+01  0.72461595524E+02  0.70000032867E+02 0.  0.
        -12    1    1    2    0    0 -0.87554198851E+00 -0.16215463776E+02 -0.93257914054E+01  0.18726404476E+02  0.00000000000E+00 0.  1.
         11    1    3    3    0    0 -0.25588408675E+02  0.13684563950E+02 -0.12894384510E+02  0.31753725784E+02  0.51100000000E-03 0. -1.
        -11    1    3    3    0    0 -0.24557409022E+01  0.24055228382E+01 -0.10433144042E+01  0.35924516296E+01  0.51100000000E-03 0.  1.
        -12    1    3    3    0    0  0.28919691566E+02  0.12537698850E+00  0.23263490320E+02  0.37115418111E+02  0.00000000000E+00 0.  1.
</event>
<event>
 7    1  0.2851651E-013  0.7246161E+02  0.7816164E-02  0.1226708E+00
        -11   -1    0    0    0    0  0.00000000000E+00  0.00000000000E+00  0.45593999997E+02  0.45594000000E+02  0.51100000000E-03 0.  1.
         11   -1    0    0    0    0 -0.00000000000E+00 -0.00000000000E+00 -0.45593999997E+02  0.45594000000E+02  0.51100000000E-03 0. -1.
    9900012    2    1    2    0    0  0.10745039407E+02  0.71674804718E+01 -0.13559092187E+02  0.72461611424E+02  0.70000053579E+02 0.  0.
        -12    1    1    2    0    0 -0.10745039407E+02 -0.71674804718E+01  0.13559092187E+02  0.18726388576E+02  0.00000000000E+00 0.  1.
         11    1    3    3    0    0  0.26097033765E+01  0.26331124795E+02 -0.98635828187E+01  0.28238784516E+02  0.51100000000E-03 0. -1.
        -11    1    3    3    0    0 -0.14250529255E+02 -0.85530234589E+01  0.59284342676E+01  0.17645909652E+02  0.51100000000E-03 0.  1.
         12    1    3    3    0    0  0.22385865286E+02 -0.10610620864E+02 -0.96239436355E+01  0.26576917256E+02  0.00000000000E+00 0. -1.
</event>
<event>
 7    1  0.2851651E-013  0.7246140E+02  0.7816164E-02  0.1226708E+00
        -11   -1    0    0    0    0  0.00000000000E+00  0.00000000000E+00  0.45593999997E+02  0.45594000000E+02  0.51100000000E-03 0. -1.
         11   -1    0    0    0    0 -0.00000000000E+00 -0.00000000000E+00 -0.45593999997E+02  0.45594000000E+02  0.51100000000E-03 0.  1.
    9900012    2    1    2    0    0 -0.16441839875E+02 -0.86335339553E+01  0.24111284119E+01  0.72461400008E+02  0.69999778170E+02 0.  0.
        -12    1    1    2    0    0  0.16441839875E+02  0.86335339553E+01 -0.24111284119E+01  0.18726599992E+02  0.00000000000E+00 0.  1.
         11    1    3    3    0    0 -0.43875156735E+01 -0.52888348200E+01  0.11727267130E+02  0.13592308934E+02  0.51100000000E-03 0. -1.
        -11    1    3    3    0    0 -0.23061278879E+02 -0.24810463998E+02 -0.34907362872E+01  0.34052414708E+02  0.51100000000E-03 0.  1.
         12    1    3    3    0    0  0.11006954678E+02  0.21465764863E+02 -0.58254024311E+01  0.24816676367E+02  0.00000000000E+00 0. -1.
</event>
<event>
 7    1  0.2851651E-013  0.7246154E+02  0.7816164E-02  0.1226708E+00
        -11   -1    0    0    0    0  0.00000000000E+00  0.00000000000E+00  0.45593999997E+02  0.45594000000E+02  0.51100000000E-03 0.  1.
         11   -1    0    0    0    0 -0.00000000000E+00 -0.00000000000E+00 -0.45593999997E+02  0.45594000000E+02  0.51100000000E-03 0. -1.
    9900012    2    1    2    0    0  0.84894261553E+01  0.42488453901E+00 -0.16686198966E+02  0.72461544936E+02  0.69999966967E+02 0.  0.
        -12    1    1    2    0    0 -0.84894261553E+01 -0.42488453901E+00  0.16686198966E+02  0.18726455064E+02  0.00000000000E+00 0.  1.
         11    1    3    3    0    0  0.12525557078E+01  0.29706277518E+01 -0.41765148045E+00  0.32508395933E+01  0.51100000000E-03 0. -1.
        -11    1    3    3    0    0  0.37231582193E+01 -0.11904754389E+02  0.24361382589E+02  0.27368997901E+02  0.51100000000E-03 0.  1.
         12    1    3    3    0    0  0.35137122281E+01  0.93590111758E+01 -0.40629930075E+02  0.41841707442E+02  0.00000000000E+00 0. -1.
</event>
<event>
 7    1  0.3249665E-013  0.7246160E+02  0.7816164E-02  0.1226708E+00
        -11   -1    0    0    0    0  0.00000000000E+00  0.00000000000E+00  0.45593999997E+02  0.45594000000E+02  0.51100000000E-03 0. -1.
         11   -1    0    0    0    0 -0.00000000000E+00 -0.00000000000E+00 -0.45593999997E+02  0.45594000000E+02  0.51100000000E-03 0.  1.
    9900012    2    1    2    0    0 -0.46780226623E+00 -0.24455701377E+01  0.18560124923E+02  0.72461604474E+02  0.70000044525E+02 0.  0.
        -12    1    1    2    0    0  0.46780226623E+00  0.24455701377E+01 -0.18560124923E+02  0.18726395526E+02  0.00000000000E+00 0.  1.
         11    1    3    3    0    0 -0.14225825622E+02 -0.84524627082E+01  0.94655766725E+01  0.19063456729E+02  0.51100000000E-03 0. -1.
        -11    1    3    3    0    0 -0.56013384725E+01  0.94547000073E+01 -0.17293118404E+02  0.20489467766E+02  0.51100000000E-03 0.  1.
         12    1    3    3    0    0  0.19359361828E+02 -0.34478074369E+01  0.26387666655E+02  0.32908679979E+02  0.00000000000E+00 0. -1.
</event>
<event>
 7    1  0.2851651E-013  0.7246158E+02  0.7816164E-02  0.1226708E+00
        -11   -1    0    0    0    0  0.00000000000E+00  0.00000000000E+00  0.45593999997E+02  0.45594000000E+02  0.51100000000E-03 0. -1.
         11   -1    0    0    0    0 -0.00000000000E+00 -0.00000000000E+00 -0.45593999997E+02  0.45594000000E+02  0.51100000000E-03 0.  1.
    9900012    2    1    2    0    0 -0.14400196427E+02  0.11667523173E+02 -0.26799053891E+01  0.72461584245E+02  0.70000018174E+02 0.  0.
        -12    1    1    2    0    0  0.14400196427E+02 -0.11667523173E+02  0.26799053891E+01  0.18726415755E+02  0.00000000000E+00 0.  1.
         11    1    3    3    0    0 -0.18788436279E+02  0.32355497608E+02 -0.63640727691E+01  0.37952404216E+02  0.51100000000E-03 0. -1.
        -11    1    3    3    0    0 -0.33646297894E+01 -0.68756995143E+01 -0.10670995758E+02  0.13132635995E+02  0.51100000000E-03 0.  1.
        -12    1    3    3    0    0  0.77528696419E+01 -0.13812274920E+02  0.14355163138E+02  0.21376544035E+02  0.00000000000E+00 0.  1.
</event>
<event>
 7    1  0.2851651E-013  0.7246092E+02  0.7816164E-02  0.1226710E+00
        -11   -1    0    0    0    0  0.00000000000E+00  0.00000000000E+00  0.45593999997E+02  0.45594000000E+02  0.51100000000E-03 0.  1.
         11   -1    0    0    0    0 -0.00000000000E+00 -0.00000000000E+00 -0.45593999997E+02  0.45594000000E+02  0.51100000000E-03 0. -1.
    9900012    2    1    2    0    0 -0.11125910607E+02 -0.78002118549E+01 -0.12886987457E+02  0.72460917004E+02  0.69999148963E+02 0.  0.
        -12    1    1    2    0    0  0.11125910607E+02  0.78002118549E+01  0.12886987457E+02  0.18727082996E+02  0.00000000000E+00 0.  1.
         11    1    3    3    0    0 -0.27828459582E+02 -0.14470936068E+02 -0.12766959780E+01  0.31392054827E+02  0.51100000000E-03 0. -1.
        -11    1    3    3    0    0 -0.10422191796E+02 -0.11132673273E+01 -0.66600296017E+01  0.12418431484E+02  0.51100000000E-03 0.  1.
        -12    1    3    3    0    0  0.27124740771E+02  0.77839915406E+01 -0.49502618774E+01  0.28650430693E+02  0.00000000000E+00 0.  1.
</event>
<event>
 7    1  0.2851651E-013  0.7246154E+02  0.7816164E-02  0.1226708E+00
        -11   -1    0    0    0    0  0.00000000000E+00  0.00000000000E+00  0.45593999997E+02  0.45594000000E+02  0.51100000000E-03 0.  1.
         11   -1    0    0    0    0 -0.00000000000E+00 -0.00000000000E+00 -0.45593999997E+02  0.45594000000E+02  0.51100000000E-03 0. -1.
    9900012    2    1    2    0    0 -0.62031617822E+01  0.12123923016E+02 -0.12853466067E+02  0.72461539701E+02  0.69999960146E+02 0.  0.
        -12    1    1    2    0    0  0.62031617822E+01 -0.12123923016E+02  0.12853466067E+02  0.18726460299E+02  0.00000000000E+00 0.  1.
         11    1    3    3    0    0 -0.75935400739E+01  0.14177448096E+02  0.79016860459E+01  0.17919222305E+02  0.51100000000E-03 0. -1.
        -11    1    3    3    0    0 -0.18398591973E+01  0.10794919224E+02  0.13752014858E+02  0.17579342304E+02  0.51100000000E-03 0.  1.
         12    1    3    3    0    0  0.32302374890E+01 -0.12848444305E+02 -0.34507166971E+02  0.36962975092E+02  0.00000000000E+00 0. -1.
</event>
<event>
 7    1  0.2851651E-013  0.7246158E+02  0.7816164E-02  0.1226708E+00
        -11   -1    0    0    0    0  0.00000000000E+00  0.00000000000E+00  0.45593999997E+02  0.45594000000E+02  0.51100000000E-03 0.  1.
         11   -1    0    0    0    0 -0.00000000000E+00 -0.00000000000E+00 -0.45593999997E+02  0.45594000000E+02  0.51100000000E-03 0. -1.
    9900012    2    1    2    0    0 -0.12147315785E+02 -0.10433087190E+02  0.97093925710E+01  0.72461577672E+02  0.70000009611E+02 0.  0.
        -12    1    1    2    0    0  0.12147315785E+02  0.10433087190E+02 -0.97093925710E+01  0.18726422328E+02  0.00000000000E+00 0.  1.
         11    1    3    3    0    0  0.30802809286E+00  0.98474931094E+01 -0.21976647214E+02  0.24084040875E+02  0.51100000000E-03 0. -1.
        -11    1    3    3    0    0 -0.14316181593E+02 -0.11513583464E+02  0.33714446646E+01  0.18678391231E+02  0.51100000000E-03 0.  1.
        -12    1    3    3    0    0  0.18608377157E+01 -0.87669968359E+01  0.28314595120E+02  0.29699145566E+02  0.00000000000E+00 0.  1.
</event>
<event>
 7    1  0.2851651E-013  0.7246180E+02  0.7816164E-02  0.1226707E+00
        -11   -1    0    0    0    0  0.00000000000E+00  0.00000000000E+00  0.45593999997E+02  0.45594000000E+02  0.51100000000E-03 0.  1.
         11   -1    0    0    0    0 -0.00000000000E+00 -0.00000000000E+00 -0.45593999997E+02  0.45594000000E+02  0.51100000000E-03 0. -1.
    9900012    2    1    2    0    0 -0.40292888843E+01  0.13272160905E+02 -0.12581148817E+02  0.72461795645E+02  0.70000293560E+02 0.  0.
        -12    1    1    2    0    0  0.40292888843E+01 -0.13272160905E+02  0.12581148817E+02  0.18726204355E+02  0.00000000000E+00 0.  1.
         11    1    3    3    0    0 -0.20884464977E+02  0.18978818295E+02 -0.11319620081E+02  0.30405430770E+02  0.51100000000E-03 0. -1.
        -11    1    3    3    0    0  0.20556115158E+02  0.10949303589E+02 -0.65491409418E+01  0.24193643107E+02  0.51100000000E-03 0.  1.
        -12    1    3    3    0    0 -0.37009390653E+01 -0.16655960979E+02  0.52876122055E+01  0.17862721767E+02  0.00000000000E+00 0.  1.
</event>
<event>
 7    1  0.2851651E-013  0.7246150E+02  0.7816164E-02  0.1226708E+00
        -11   -1    0    0    0    0  0.00000000000E+00  0.00000000000E+00  0.45593999997E+02  0.45594000000E+02  0.51100000000E-03 0.  1.
         11   -1    0    0    0    0 -0.00000000000E+00 -0.00000000000E+00 -0.45593999997E+02  0.45594000000E+02  0.51100000000E-03 0. -1.
    9900012    2    1    2    0    0 -0.18224539548E+02 -0.20995156420E+01 -0.37603084824E+01  0.72461501995E+02  0.69999911027E+02 0.  0.
        -12    1    1    2    0    0  0.18224539548E+02  0.20995156420E+01  0.37603084824E+01  0.18726498005E+02  0.00000000000E+00 0.  1.
         11    1    3    3    0    0 -0.44017039844E+01  0.65546116271E+01  0.28488624165E+01  0.83936850594E+01  0.51100000000E-03 0. -1.
        -11    1    3    3    0    0 -0.30324338494E+02  0.15506135399E+02  0.62882834283E-01  0.34058915053E+02  0.51100000000E-03 0.  1.
         12    1    3    3    0    0  0.16501502930E+02 -0.24160262668E+02 -0.66720537332E+01  0.30008901882E+02  0.00000000000E+00 0. -1.
</event>
<event>
 7    1  0.2851651E-013  0.7246158E+02  0.7816164E-02  0.1226708E+00
        -11   -1    0    0    0    0  0.00000000000E+00  0.00000000000E+00  0.45593999997E+02  0.45594000000E+02  0.51100000000E-03 0. -1.
         11   -1    0    0    0    0 -0.00000000000E+00 -0.00000000000E+00 -0.45593999997E+02  0.45594000000E+02  0.51100000000E-03 0.  1.
    9900012    2    1    2    0    0  0.69745103809E+01 -0.14447595277E+02  0.96593009763E+01  0.72461577499E+02  0.70000009386E+02 0.  0.
        -12    1    1    2    0    0 -0.69745103809E+01  0.14447595277E+02 -0.96593009763E+01  0.18726422501E+02  0.00000000000E+00 0.  1.
         11    1    3    3    0    0 -0.11978865449E+02 -0.27859456713E+01  0.23872060556E+02  0.26853863524E+02  0.51100000000E-03 0. -1.
        -11    1    3    3    0    0 -0.11116816922E+02 -0.59453342741E+01 -0.26128194737E+01  0.12874682286E+02  0.51100000000E-03 0.  1.
        -12    1    3    3    0    0  0.30070192751E+02 -0.57163153313E+01 -0.11599940106E+02  0.32733031689E+02  0.00000000000E+00 0.  1.
</event>
<event>
 7    1  0.2851651E-013  0.7246160E+02  0.7816164E-02  0.1226708E+00
        -11   -1    0    0    0    0  0.00000000000E+00  0.00000000000E+00  0.45593999997E+02  0.45594000000E+02  0.51100000000E-03 0.  1.
         11   -1    0    0    0    0 -0.00000000000E+00 -0.00000000000E+00 -0.45593999997E+02  0.45594000000E+02  0.51100000000E-03 0. -1.
    9900012    2    1    2    0    0  0.90761899097E+01 -0.16319961308E+02 -0.13999158131E+01  0.72461598192E+02  0.70000036342E+02 0.  0.
        -12    1    1    2    0    0 -0.90761899097E+01  0.16319961308E+02  0.13999158131E+01  0.18726401808E+02  0.00000000000E+00 0.  1.
         11    1    3    3    0    0  0.40773899906E+01  0.26756047834E+01 -0.22384324059E+02  0.22909428931E+02  0.51100000000E-03 0. -1.
        -11    1    3    3    0    0  0.20373158326E+02 -0.30064775276E+00  0.67099361789E+01  0.21451788108E+02  0.51100000000E-03 0.  1.
        -12    1    3    3    0    0 -0.15374358407E+02 -0.18694918339E+02  0.14274472067E+02  0.28100381153E+02  0.00000000000E+00 0.  1.
</event>
<event>
 7    1  0.2851651E-013  0.7246159E+02  0.7816164E-02  0.1226708E+00
        -11   -1    0    0    0    0  0.00000000000E+00  0.00000000000E+00  0.45593999997E+02  0.45594000000E+02  0.51100000000E-03 0.  1.
         11   -1    0    0    0    0 -0.00000000000E+00 -0.00000000000E+00 -0.45593999997E+02  0.45594000000E+02  0.51100000000E-03 0. -1.
    9900012    2    1    2    0    0 -0.17615499459E+02 -0.19853077706E+01  0.60358335438E+01  0.72461586710E+02  0.70000021385E+02 0.  0.
        -12    1    1    2    0    0  0.17615499459E+02  0.19853077706E+01 -0.60358335438E+01  0.18726413290E+02  0.00000000000E+00 0.  1.
         11    1    3    3    0    0 -0.18596646695E+02  0.18808756862E+02  0.21916954473E+02  0.34350509408E+02  0.51100000000E-03 0. -1.
        -11    1    3    3    0    0 -0.41806585197E+01 -0.39846512579E+01  0.71140334193E+01  0.91632321294E+01  0.51100000000E-03 0.  1.
        -12    1    3    3    0    0  0.51618057554E+01 -0.16809413374E+02 -0.22995154348E+02  0.28947845173E+02  0.00000000000E+00 0.  1.
</event>
<event>
 7    1  0.2851651E-013  0.7246160E+02  0.7816164E-02  0.1226708E+00
        -11   -1    0    0    0    0  0.00000000000E+00  0.00000000000E+00  0.45593999997E+02  0.45594000000E+02  0.51100000000E-03 0.  1.
         11   -1    0    0    0    0 -0.00000000000E+00 -0.00000000000E+00 -0.45593999997E+02  0.45594000000E+02  0.51100000000E-03 0. -1.
    9900012    2    1    2    0    0 -0.98132134011E+01  0.10909949829E+02 -0.11634090454E+02  0.72461595561E+02  0.70000032914E+02 0.  0.
        -12    1    1    2    0    0  0.98132134011E+01 -0.10909949829E+02  0.11634090454E+02  0.18726404439E+02  0.00000000000E+00 0.  1.
         11    1    3    3    0    0 -0.81477738422E+01  0.88966969737E+01 -0.73027862426E+01  0.14102060941E+02  0.51100000000E-03 0. -1.
        -11    1    3    3    0    0 -0.16154721680E+02 -0.18236017058E+02  0.13388318312E+02  0.27798820446E+02  0.51100000000E-03 0.  1.
         12    1    3    3    0    0  0.14489282122E+02  0.20249269913E+02 -0.17719622524E+02  0.30560714173E+02  0.00000000000E+00 0. -1.
</event>
<event>
 7    1  0.2851651E-013  0.7246156E+02  0.7816164E-02  0.1226708E+00
        -11   -1    0    0    0    0  0.00000000000E+00  0.00000000000E+00  0.45593999997E+02  0.45594000000E+02  0.51100000000E-03 0.  1.
         11   -1    0    0    0    0 -0.00000000000E+00 -0.00000000000E+00 -0.45593999997E+02  0.45594000000E+02  0.51100000000E-03 0. -1.
    9900012    2    1    2    0    0 -0.88358924387E+01  0.55762946566E+01 -0.15540642551E+02  0.72461558048E+02  0.69999984047E+02 0.  0.
        -12    1    1    2    0    0  0.88358924387E+01 -0.55762946566E+01  0.15540642551E+02  0.18726441952E+02  0.00000000000E+00 0.  1.
         11    1    3    3    0    0 -0.27776927838E+02 -0.47922196271E+01  0.80302579444E+01  0.29308840509E+02  0.51100000000E-03 0. -1.
        -11    1    3    3    0    0 -0.35399677646E+01  0.58860190722E+00  0.45828936586E+01  0.58207163242E+01  0.51100000000E-03 0.  1.
         12    1    3    3    0    0  0.22481003164E+02  0.97799123764E+01 -0.28153794154E+02  0.37332001214E+02  0.00000000000E+00 0. -1.
</event>
<event>
 7    1  0.2851651E-013  0.7246157E+02  0.7816164E-02  0.1226708E+00
        -11   -1    0    0    0    0  0.00000000000E+00  0.00000000000E+00  0.45593999997E+02  0.45594000000E+02  0.51100000000E-03 0.  1.
         11   -1    0    0    0    0 -0.00000000000E+00 -0.00000000000E+00 -0.45593999997E+02  0.45594000000E+02  0.51100000000E-03 0. -1.
    9900012    2    1    2    0    0 -0.12586843462E+01 -0.32430384147E+01 -0.18400475684E+02  0.72461572422E+02  0.70000002772E+02 0.  0.
        -12    1    1    2    0    0  0.12586843462E+01  0.32430384147E+01  0.18400475684E+02  0.18726427578E+02  0.00000000000E+00 0.  1.
         11    1    3    3    0    0 -0.82794117011E+01 -0.48518889222E+01 -0.12181478184E+02  0.15507349717E+02  0.51100000000E-03 0. -1.
        -11    1    3    3    0    0  0.27073458682E+02 -0.74547124986E+01  0.97927558872E+01  0.29739585935E+02  0.51100000000E-03 0.  1.
         12    1    3    3    0    0 -0.20052731327E+02  0.90635630060E+01 -0.16011753387E+02  0.27214636771E+02  0.00000000000E+00 0. -1.
</event>
<event>
 7    1  0.2851651E-013  0.7246155E+02  0.7816164E-02  0.1226708E+00
        -11   -1    0    0    0    0  0.00000000000E+00  0.00000000000E+00  0.45593999997E+02  0.45594000000E+02  0.51100000000E-03 0.  1.
         11   -1    0    0    0    0 -0.00000000000E+00 -0.00000000000E+00 -0.45593999997E+02  0.45594000000E+02  0.51100000000E-03 0. -1.
    9900012    2    1    2    0    0  0.12026134055E+01  0.90027955792E+01 -0.16376306573E+02  0.72461547473E+02  0.69999970272E+02 0.  0.
        -12    1    1    2    0    0 -0.12026134055E+01 -0.90027955792E+01  0.16376306573E+02  0.18726452527E+02  0.00000000000E+00 0.  1.
         11    1    3    3    0    0  0.97937653470E+01  0.68753601924E+01  0.16288208500E+02  0.20211238305E+02  0.51100000000E-03 0. -1.
        -11    1    3    3    0    0  0.64404105829E+01 -0.13303378278E+02 -0.22064702756E+01  0.14944138430E+02  0.51100000000E-03 0.  1.
         12    1    3    3    0    0 -0.15031562524E+02  0.15430813664E+02 -0.30458044797E+02  0.37306170738E+02  0.00000000000E+00 0. -1.
</event>
<event>
 7    1  0.2851651E-013  0.7246173E+02  0.7816164E-02  0.1226708E+00
        -11   -1    0    0    0    0  0.00000000000E+00  0.00000000000E+00  0.45593999997E+02  0.45594000000E+02  0.51100000000E-03 0.  1.
         11   -1    0    0    0    0 -0.00000000000E+00 -0.00000000000E+00 -0.45593999997E+02  0.45594000000E+02  0.51100000000E-03 0. -1.
    9900012    2    1    2    0    0 -0.14844360937E+02 -0.10103809482E+02 -0.53133080751E+01  0.72461728070E+02  0.70000205532E+02 0.  0.
        -12    1    1    2    0    0  0.14844360937E+02  0.10103809482E+02  0.53133080751E+01  0.18726271930E+02  0.00000000000E+00 0.  1.
         11    1    3    3    0    0  0.69688383567E+01  0.63585327647E+01 -0.31354041519E+02  0.32742503979E+02  0.51100000000E-03 0. -1.
        -11    1    3    3    0    0 -0.11315809520E+02 -0.70559481640E+01  0.46913349037E+01  0.14136568644E+02  0.51100000000E-03 0.  1.
        -12    1    3    3    0    0 -0.10497389774E+02 -0.94063940823E+01  0.21349398541E+02  0.25582655448E+02  0.00000000000E+00 0.  1.
</event>
<event>
 7    1  0.2851651E-013  0.7246155E+02  0.7816164E-02  0.1226708E+00
        -11   -1    0    0    0    0  0.00000000000E+00  0.00000000000E+00  0.45593999997E+02  0.45594000000E+02  0.51100000000E-03 0.  1.
         11   -1    0    0    0    0 -0.00000000000E+00 -0.00000000000E+00 -0.45593999997E+02  0.45594000000E+02  0.51100000000E-03 0. -1.
    9900012    2    1    2    0    0 -0.17814770575E+02 -0.54668358918E+01 -0.18513586503E+01  0.72461551480E+02  0.69999975491E+02 0.  0.
        -12    1    1    2    0    0  0.17814770575E+02  0.54668358918E+01  0.18513586503E+01  0.18726448520E+02  0.00000000000E+00 0.  1.
         11    1    3    3    0    0 -0.31847587868E+02 -0.62800437208E+01 -0.25866811022E+02  0.41506622542E+02  0.51100000000E-03 0. -1.
        -11    1    3    3    0    0 -0.23276762719E+01 -0.75104839488E+00  0.92980028299E+00  0.26166160104E+01  0.51100000000E-03 0.  1.
        -12    1    3    3    0    0  0.16360493565E+02  0.15642562238E+01  0.23085652088E+02  0.28338312928E+02  0.00000000000E+00 0.  1.
</event>
<event>
 7    1  0.2851651E-013  0.7246155E+02  0.7816164E-02  0.1226708E+00
        -11   -1    0    0    0    0  0.00000000000E+00  0.00000000000E+00  0.45593999997E+02  0.45594000000E+02  0.51100000000E-03 0.  1.
         11   -1    0    0    0    0 -0.00000000000E+00 -0.00000000000E+00 -0.45593999997E+02  0.45594000000E+02  0.51100000000E-03 0. -1.
    9900012    2    1    2    0    0  0.12526523016E+02  0.48657484968E+01 -0.13041881430E+02  0.72461549227E+02  0.69999972556E+02 0.  0.
        -12    1    1    2    0    0 -0.12526523016E+02 -0.48657484968E+01  0.13041881430E+02  0.18726450773E+02  0.00000000000E+00 0.  1.
         11    1    3    3    0    0  0.33062976793E+02  0.12539350948E+02 -0.35033662397E+01  0.35534058759E+02  0.51100000000E-03 0. -1.
        -11    1    3    3    0    0  0.43647809260E+01 -0.54240345974E+01  0.44644916141E+01  0.82706196551E+01  0.51100000000E-03 0.  1.
        -12    1    3    3    0    0 -0.24901234703E+02 -0.22495678537E+01 -0.14003006805E+02  0.28656870814E+02  0.00000000000E+00 0.  1.
</event>
<event>
 7    1  0.2851651E-013  0.7246159E+02  0.7816164E-02  0.1226708E+00
        -11   -1    0    0    0    0  0.00000000000E+00  0.00000000000E+00  0.45593999997E+02  0.45594000000E+02  0.51100000000E-03 0.  1.
         11   -1    0    0    0    0 -0.00000000000E+00 -0.00000000000E+00 -0.45593999997E+02  0.45594000000E+02  0.51100000000E-03 0. -1.
    9900012    2    1    2    0    0 -0.14982479096E+02  0.89805557235E+01 -0.67493344905E+01  0.72461586114E+02  0.70000020608E+02 0.  0.
        -12    1    1    2    0    0  0.14982479096E+02 -0.89805557235E+01  0.67493344905E+01  0.18726413886E+02  0.00000000000E+00 0.  1.
         11    1    3    3    0    0 -0.98970726729E+01  0.38786225908E+01 -0.32649179034E+02  0.34336054702E+02  0.51100000000E-03 0. -1.
        -11    1    3    3    0    0 -0.75317676952E+01  0.82030186134E+01 -0.77179494392E+00  0.11163006167E+02  0.51100000000E-03 0.  1.
        -12    1    3    3    0    0  0.24463612720E+01 -0.31010854807E+01  0.26671639487E+02  0.26962525244E+02  0.00000000000E+00 0.  1.
</event>
<event>
 7    1  0.2851651E-013  0.7246160E+02  0.7816164E-02  0.1226708E+00
        -11   -1    0    0    0    0  0.00000000000E+00  0.00000000000E+00  0.45593999997E+02  0.45594000000E+02  0.51100000000E-03 0.  1.
         11   -1    0    0    0    0 -0.00000000000E+00 -0.00000000000E+00 -0.45593999997E+02  0.45594000000E+02  0.51100000000E-03 0. -1.
    9900012    2    1    2    0    0 -0.61079955768E+01  0.41577850218E+01 -0.17207066185E+02  0.72461603846E+02  0.70000043707E+02 0.  0.
        -12    1    1    2    0    0  0.61079955768E+01 -0.41577850218E+01  0.17207066185E+02  0.18726396154E+02  0.00000000000E+00 0.  1.
         11    1    3    3    0    0 -0.40566606161E+01  0.10793752373E+02  0.67211324977E+00  0.11550468481E+02  0.51100000000E-03 0. -1.
        -11    1    3    3    0    0  0.21618698812E+02  0.14504029852E+02 -0.11867999401E+02  0.28610914531E+02  0.51100000000E-03 0.  1.
         12    1    3    3    0    0 -0.23670033772E+02 -0.21139997203E+02 -0.60111800333E+01  0.32300220834E+02  0.00000000000E+00 0. -1.
</event>
<event>
 7    1  0.2851651E-013  0.7246158E+02  0.7816164E-02  0.1226708E+00
        -11   -1    0    0    0    0  0.00000000000E+00  0.00000000000E+00  0.45593999997E+02  0.45594000000E+02  0.51100000000E-03 0.  1.
         11   -1    0    0    0    0 -0.00000000000E+00 -0.00000000000E+00 -0.45593999997E+02  0.45594000000E+02  0.51100000000E-03 0. -1.
    9900012    2    1    2    0    0 -0.16115239166E+02 -0.33182247132E+01 -0.89424512163E+01  0.72461575291E+02  0.70000006509E+02 0.  0.
        -12    1    1    2    0    0  0.16115239166E+02  0.33182247132E+01  0.89424512163E+01  0.18726424709E+02  0.00000000000E+00 0.  1.
         11    1    3    3    0    0 -0.92712977397E+01 -0.18492126951E+02 -0.24558708286E+02  0.32109903051E+02  0.51100000000E-03 0. -1.
        -11    1    3    3    0    0  0.89141027324E+01 -0.57452569984E+01  0.18548223616E+01  0.10766130770E+02  0.51100000000E-03 0.  1.
        -12    1    3    3    0    0 -0.15758044158E+02  0.20919159237E+02  0.13761434709E+02  0.29585541471E+02  0.00000000000E+00 0.  1.
</event>
<event>
 7    1  0.2851651E-013  0.7246157E+02  0.7816164E-02  0.1226708E+00
        -11   -1    0    0    0    0  0.00000000000E+00  0.00000000000E+00  0.45593999997E+02  0.45594000000E+02  0.51100000000E-03 0.  1.
         11   -1    0    0    0    0 -0.00000000000E+00 -0.00000000000E+00 -0.45593999997E+02  0.45594000000E+02  0.51100000000E-03 0. -1.
    9900012    2    1    2    0    0 -0.89284633470E+01  0.38095842552E+01 -0.16014015154E+02  0.72461572917E+02  0.70000003416E+02 0.  0.
        -12    1    1    2    0    0  0.89284633470E+01 -0.38095842552E+01  0.16014015154E+02  0.18726427083E+02  0.00000000000E+00 0.  1.
         11    1    3    3    0    0  0.20516233360E+01 -0.14097459929E+02 -0.10341425212E+02  0.17603766939E+02  0.51100000000E-03 0. -1.
        -11    1    3    3    0    0 -0.51654642522E+01 -0.15892782550E+02 -0.11202370231E+02  0.20118540135E+02  0.51100000000E-03 0.  1.
         12    1    3    3    0    0 -0.58146224308E+01  0.33799826734E+02  0.55297802883E+01  0.34739265843E+02  0.00000000000E+00 0. -1.
</event>
<event>
 7    1  0.2851651E-013  0.7246156E+02  0.7816164E-02  0.1226708E+00
        -11   -1    0    0    0    0  0.00000000000E+00  0.00000000000E+00  0.45593999997E+02  0.45594000000E+02  0.51100000000E-03 0.  1.
         11   -1    0    0    0    0 -0.00000000000E+00 -0.00000000000E+00 -0.45593999997E+02  0.45594000000E+02  0.51100000000E-03 0. -1.
    9900012    2    1    2    0    0  0.16698103421E+02  0.84451889861E+01  0.72906170293E+00  0.72461563985E+02  0.69999991781E+02 0.  0.
        -12    1    1    2    0    0 -0.16698103421E+02 -0.84451889861E+01 -0.72906170293E+00  0.18726436015E+02  0.00000000000E+00 0.  1.
         11    1    3    3    0    0 -0.25388923206E+01  0.87239437103E+01 -0.23008415054E+02  0.24737427749E+02  0.51100000000E-03 0. -1.
        -11    1    3    3    0    0 -0.10544579120E+02 -0.19074867180E+01  0.22116262843E+01  0.10941569608E+02  0.51100000000E-03 0.  1.
        -12    1    3    3    0    0  0.29781574861E+02  0.16287319939E+01  0.21525850473E+02  0.36782566628E+02  0.00000000000E+00 0.  1.
</event>
<event>
 7    1  0.2851651E-013  0.7246152E+02  0.7816164E-02  0.1226708E+00
        -11   -1    0    0    0    0  0.00000000000E+00  0.00000000000E+00  0.45593999997E+02  0.45594000000E+02  0.51100000000E-03 0. -1.
         11   -1    0    0    0    0 -0.00000000000E+00 -0.00000000000E+00 -0.45593999997E+02  0.45594000000E+02  0.51100000000E-03 0.  1.
    9900012    2    1    2    0    0 -0.36264818783E+01  0.18145239348E+02 -0.28775110779E+01  0.72461517367E+02  0.69999931052E+02 0.  0.
        -12    1    1    2    0    0  0.36264818783E+01 -0.18145239348E+02  0.28775110779E+01  0.18726482633E+02  0.00000000000E+00 0.  1.
         11    1    3    3    0    0  0.86488229744E+01  0.21086500268E+02  0.14849221832E+02  0.27201875334E+02  0.51100000000E-03 0. -1.
        -11    1    3    3    0    0 -0.55509298550E+01 -0.25168366438E+01  0.12704818518E+02  0.14091121417E+02  0.51100000000E-03 0.  1.
        -12    1    3    3    0    0 -0.67243749977E+01 -0.42442427616E+00 -0.30431551428E+02  0.31168520616E+02  0.00000000000E+00 0.  1.
</event>
<event>
 7    1  0.2851651E-013  0.7246150E+02  0.7816164E-02  0.1226708E+00
        -11   -1    0    0    0    0  0.00000000000E+00  0.00000000000E+00  0.45593999997E+02  0.45594000000E+02  0.51100000000E-03 0. -1.
         11   -1    0    0    0    0 -0.00000000000E+00 -0.00000000000E+00 -0.45593999997E+02  0.45594000000E+02  0.51100000000E-03 0.  1.
    9900012    2    1    2    0    0  0.16462471087E+02 -0.87671617615E+01 -0.16749810890E+01  0.72461504298E+02  0.69999914027E+02 0.  0.
        -12    1    1    2    0    0 -0.16462471087E+02  0.87671617615E+01  0.16749810890E+01  0.18726495702E+02  0.00000000000E+00 0.  1.
         11    1    3    3    0    0  0.41256470165E+01 -0.23364124648E+02  0.22051046503E+02  0.32390614938E+02  0.51100000000E-03 0. -1.
        -11    1    3    3    0    0 -0.53040453831E+01 -0.38182065124E+01 -0.69839484085E+01  0.95648906962E+01  0.51100000000E-03 0.  1.
        -12    1    3    3    0    0  0.17640869454E+02  0.18415169399E+02 -0.16742079184E+02  0.30505998664E+02  0.00000000000E+00 0.  1.
</event>
<event>
 7    1  0.2851651E-013  0.7246167E+02  0.7816164E-02  0.1226708E+00
        -11   -1    0    0    0    0  0.00000000000E+00  0.00000000000E+00  0.45593999997E+02  0.45594000000E+02  0.51100000000E-03 0.  1.
         11   -1    0    0    0    0 -0.00000000000E+00 -0.00000000000E+00 -0.45593999997E+02  0.45594000000E+02  0.51100000000E-03 0. -1.
    9900012    2    1    2    0    0 -0.96871127394E+01  0.17692047316E+01 -0.15928123587E+02  0.72461672020E+02  0.70000132517E+02 0.  0.
        -12    1    1    2    0    0  0.96871127394E+01 -0.17692047316E+01  0.15928123587E+02  0.18726327980E+02  0.00000000000E+00 0.  1.
         11    1    3    3    0    0 -0.12301108491E+01 -0.12595777548E+02 -0.24183331982E+02  0.27294694187E+02  0.51100000000E-03 0. -1.
        -11    1    3    3    0    0  0.98507825973E+01 -0.58809876951E-02 -0.11139928677E+02  0.14870640993E+02  0.51100000000E-03 0.  1.
         12    1    3    3    0    0 -0.18307784488E+02  0.14370863267E+02  0.19395137072E+02  0.30296336840E+02  0.00000000000E+00 0. -1.
</event>
<event>
 7    1  0.2851651E-013  0.7246160E+02  0.7816164E-02  0.1226708E+00
        -11   -1    0    0    0    0  0.00000000000E+00  0.00000000000E+00  0.45593999997E+02  0.45594000000E+02  0.51100000000E-03 0. -1.
         11   -1    0    0    0    0 -0.00000000000E+00 -0.00000000000E+00 -0.45593999997E+02  0.45594000000E+02  0.51100000000E-03 0.  1.
    9900012    2    1    2    0    0 -0.97308633629E+01  0.13474880530E+02  0.86264757166E+01  0.72461596438E+02  0.70000034057E+02 0.  0.
        -12    1    1    2    0    0  0.97308633629E+01 -0.13474880530E+02 -0.86264757166E+01  0.18726403562E+02  0.00000000000E+00 0.  1.
         11    1    3    3    0    0  0.10941418947E+02  0.15666090913E+02 -0.66699555045E+01  0.20239302354E+02  0.51100000000E-03 0. -1.
        -11    1    3    3    0    0  0.61667197715E+00 -0.13655014452E+02 -0.10221680237E+02  0.17068170703E+02  0.51100000000E-03 0.  1.
         12    1    3    3    0    0 -0.21288954287E+02  0.11463804069E+02  0.25518111458E+02  0.35154123382E+02  0.00000000000E+00 0. -1.
</event>
<event>
 7    1  0.2851651E-013  0.7246155E+02  0.7816164E-02  0.1226708E+00
        -11   -1    0    0    0    0  0.00000000000E+00  0.00000000000E+00  0.45593999997E+02  0.45594000000E+02  0.51100000000E-03 0.  1.
         11   -1    0    0    0    0 -0.00000000000E+00 -0.00000000000E+00 -0.45593999997E+02  0.45594000000E+02  0.51100000000E-03 0. -1.
    9900012    2    1    2    0    0 -0.10004349616E+02  0.59377064688E+01 -0.14674347569E+02  0.72461552234E+02  0.69999976474E+02 0.  0.
        -12    1    1    2    0    0  0.10004349616E+02 -0.59377064688E+01  0.14674347569E+02  0.18726447766E+02  0.00000000000E+00 0.  1.
         11    1    3    3    0    0  0.81550601051E+01  0.55834764191E+01  0.13637855196E+00  0.98842710207E+01  0.51100000000E-03 0. -1.
        -11    1    3    3    0    0 -0.18594863375E+02  0.15809208924E+02  0.15245761103E+02  0.28777304644E+02  0.51100000000E-03 0.  1.
         12    1    3    3    0    0  0.43545365357E+00 -0.15454978874E+02 -0.30056487223E+02  0.33799976570E+02  0.00000000000E+00 0. -1.
</event>
<event>
 7    1  0.2851651E-013  0.7246161E+02  0.7816164E-02  0.1226708E+00
        -11   -1    0    0    0    0  0.00000000000E+00  0.00000000000E+00  0.45593999997E+02  0.45594000000E+02  0.51100000000E-03 0.  1.
         11   -1    0    0    0    0 -0.00000000000E+00 -0.00000000000E+00 -0.45593999997E+02  0.45594000000E+02  0.51100000000E-03 0. -1.
    9900012    2    1    2    0    0  0.12499839500E+02 -0.68033875845E+01 -0.12171513764E+02  0.72461606395E+02  0.70000047028E+02 0.  0.
        -12    1    1    2    0    0 -0.12499839500E+02  0.68033875845E+01  0.12171513764E+02  0.18726393605E+02  0.00000000000E+00 0.  1.
         11    1    3    3    0    0  0.43425295892E+01  0.19262368096E+02 -0.10514910582E+02  0.22370957349E+02  0.51100000000E-03 0. -1.
        -11    1    3    3    0    0 -0.27021939947E+01  0.15876725788E+01 -0.16559211206E+02  0.16853190577E+02  0.51100000000E-03 0.  1.
        -12    1    3    3    0    0  0.10859503906E+02 -0.27653428259E+02  0.14902608024E+02  0.33237458469E+02  0.00000000000E+00 0.  1.
</event>
<event>
 7    1  0.2851651E-013  0.7246161E+02  0.7816164E-02  0.1226708E+00
        -11   -1    0    0    0    0  0.00000000000E+00  0.00000000000E+00  0.45593999997E+02  0.45594000000E+02  0.51100000000E-03 0.  1.
         11   -1    0    0    0    0 -0.00000000000E+00 -0.00000000000E+00 -0.45593999997E+02  0.45594000000E+02  0.51100000000E-03 0. -1.
    9900012    2    1    2    0    0 -0.32588877572E+01 -0.13496352810E+02 -0.12566063524E+02  0.72461605764E+02  0.70000046206E+02 0.  0.
        -12    1    1    2    0    0  0.32588877572E+01  0.13496352810E+02  0.12566063524E+02  0.18726394236E+02  0.00000000000E+00 0.  1.
         11    1    3    3    0    0 -0.11057463106E+02  0.15562320362E+01 -0.15809294763E+02  0.19355184051E+02  0.51100000000E-03 0. -1.
        -11    1    3    3    0    0 -0.14436093898E+02  0.79202716567E+01 -0.91263801780E+01  0.18826107552E+02  0.51100000000E-03 0.  1.
        -12    1    3    3    0    0  0.22234669247E+02 -0.22972856503E+02  0.12369611417E+02  0.34280314161E+02  0.00000000000E+00 0.  1.
</event>
<event>
 7    1  0.2851651E-013  0.7246159E+02  0.7816164E-02  0.1226708E+00
        -11   -1    0    0    0    0  0.00000000000E+00  0.00000000000E+00  0.45593999997E+02  0.45594000000E+02  0.51100000000E-03 0. -1.
         11   -1    0    0    0    0 -0.00000000000E+00 -0.00000000000E+00 -0.45593999997E+02  0.45594000000E+02  0.51100000000E-03 0.  1.
    9900012    2    1    2    0    0 -0.59895042843E+01 -0.17459718936E+02  0.31563345494E+01  0.72461590983E+02  0.70000026950E+02 0.  0.
        -12    1    1    2    0    0  0.59895042843E+01  0.17459718936E+02 -0.31563345494E+01  0.18726409017E+02  0.00000000000E+00 0.  1.
         11    1    3    3    0    0 -0.13623526700E+02 -0.26223113441E+01  0.12117300339E+02  0.18420259615E+02  0.51100000000E-03 0. -1.
        -11    1    3    3    0    0 -0.14446960552E+02  0.11804934931E+02 -0.22292466580E+01  0.18789377287E+02  0.51100000000E-03 0.  1.
        -12    1    3    3    0    0  0.22080982968E+02 -0.26642342524E+02 -0.67317191312E+01  0.35251954080E+02  0.00000000000E+00 0.  1.
</event>
<event>
 7    1  0.2851651E-013  0.7246153E+02  0.7816164E-02  0.1226708E+00
        -11   -1    0    0    0    0  0.00000000000E+00  0.00000000000E+00  0.45593999997E+02  0.45594000000E+02  0.51100000000E-03 0. -1.
         11   -1    0    0    0    0 -0.00000000000E+00 -0.00000000000E+00 -0.45593999997E+02  0.45594000000E+02  0.51100000000E-03 0.  1.
    9900012    2    1    2    0    0  0.14182518571E+02 -0.10053513017E+02  0.69615896647E+01  0.72461529760E+02  0.69999947197E+02 0.  0.
        -12    1    1    2    0    0 -0.14182518571E+02  0.10053513017E+02 -0.69615896647E+01  0.18726470240E+02  0.00000000000E+00 0.  1.
         11    1    3    3    0    0  0.16025497550E+02  0.10276871744E+01  0.29210174222E+02  0.33333271531E+02  0.51100000000E-03 0. -1.
        -11    1    3    3    0    0 -0.22263972525E+01  0.44892175796E-01  0.72577018623E+01  0.75916465023E+01  0.51100000000E-03 0.  1.
        -12    1    3    3    0    0  0.38341827323E+00 -0.11126092367E+02 -0.29506286419E+02  0.31536611726E+02  0.00000000000E+00 0.  1.
</event>
<event>
 7    1  0.2851651E-013  0.7246157E+02  0.7816164E-02  0.1226708E+00
        -11   -1    0    0    0    0  0.00000000000E+00  0.00000000000E+00  0.45593999997E+02  0.45594000000E+02  0.51100000000E-03 0. -1.
         11   -1    0    0    0    0 -0.00000000000E+00 -0.00000000000E+00 -0.45593999997E+02  0.45594000000E+02  0.51100000000E-03 0.  1.
    9900012    2    1    2    0    0 -0.65430298014E+01 -0.10849874409E+02  0.13789421905E+02  0.72461570278E+02  0.69999999979E+02 0.  0.
        -12    1    1    2    0    0  0.65430298014E+01  0.10849874409E+02 -0.13789421905E+02  0.18726429722E+02  0.00000000000E+00 0.  1.
         11    1    3    3    0    0 -0.21838295399E+01  0.59940136902E+01 -0.78357615949E+01  0.10104279866E+02  0.51100000000E-03 0. -1.
        -11    1    3    3    0    0 -0.12369811247E+02  0.16860044510E+02  0.17879205444E+02  0.27512530213E+02  0.51100000000E-03 0.  1.
         12    1    3    3    0    0  0.80106109858E+01 -0.33703932609E+02  0.37459780558E+01  0.34844760199E+02  0.00000000000E+00 0. -1.
</event>
<event>
 7    1  0.2851651E-013  0.7246155E+02  0.7816164E-02  0.1226708E+00
        -11   -1    0    0    0    0  0.00000000000E+00  0.00000000000E+00  0.45593999997E+02  0.45594000000E+02  0.51100000000E-03 0. -1.
         11   -1    0    0    0    0 -0.00000000000E+00 -0.00000000000E+00 -0.45593999997E+02  0.45594000000E+02  0.51100000000E-03 0.  1.
    9900012    2    1    2    0    0 -0.26703046520E+01  0.17544195544E+02 -0.59791806360E+01  0.72461550115E+02  0.69999973713E+02 0.  0.
        -12    1    1    2    0    0  0.26703046520E+01 -0.17544195544E+02  0.59791806360E+01  0.18726449885E+02  0.00000000000E+00 0.  1.
         11    1    3    3    0    0 -0.20083422068E+02  0.62300796086E+01  0.68566157082E+01  0.22117208529E+02  0.51100000000E-03 0. -1.
        -11    1    3    3    0    0 -0.77910277302E+01  0.19896196992E+02 -0.99272471382E+01  0.23560751343E+02  0.51100000000E-03 0.  1.
        -12    1    3    3    0    0  0.25204145146E+02 -0.85820810567E+01 -0.29085492060E+01  0.26783590243E+02  0.00000000000E+00 0.  1.
</event>
<event>
 7    1  0.2851651E-013  0.7246155E+02  0.7816164E-02  0.1226708E+00
        -11   -1    0    0    0    0  0.00000000000E+00  0.00000000000E+00  0.45593999997E+02  0.45594000000E+02  0.51100000000E-03 0. -1.
         11   -1    0    0    0    0 -0.00000000000E+00 -0.00000000000E+00 -0.45593999997E+02  0.45594000000E+02  0.51100000000E-03 0.  1.
    9900012    2    1    2    0    0 -0.64716322944E+01 -0.17238162519E+02  0.34122654016E+01  0.72461552746E+02  0.69999977140E+02 0.  0.
        -12    1    1    2    0    0  0.64716322944E+01  0.17238162519E+02 -0.34122654016E+01  0.18726447254E+02  0.00000000000E+00 0.  1.
         11    1    3    3    0    0  0.81716941884E+01 -0.67627609944E+01  0.74714035827E+01  0.12974335973E+02  0.51100000000E-03 0. -1.
        -11    1    3    3    0    0  0.17347848299E+00  0.17843389338E+02 -0.17335698251E+02  0.24878566517E+02  0.51100000000E-03 0.  1.
         12    1    3    3    0    0 -0.14816804966E+02 -0.28318790862E+02  0.13276560070E+02  0.34608650256E+02  0.00000000000E+00 0. -1.
</event>
<event>
 7    1  0.2851651E-013  0.7246145E+02  0.7816164E-02  0.1226708E+00
        -11   -1    0    0    0    0  0.00000000000E+00  0.00000000000E+00  0.45593999997E+02  0.45594000000E+02  0.51100000000E-03 0. -1.
         11   -1    0    0    0    0 -0.00000000000E+00 -0.00000000000E+00 -0.45593999997E+02  0.45594000000E+02  0.51100000000E-03 0.  1.
    9900012    2    1    2    0    0  0.11983335828E+02 -0.49780002057E+01  0.13501955285E+02  0.72461451463E+02  0.69999845199E+02 0.  0.
        -12    1    1    2    0    0 -0.11983335828E+02  0.49780002057E+01 -0.13501955285E+02  0.18726548537E+02  0.00000000000E+00 0.  1.
         11    1    3    3    0    0 -0.15976160534E+02  0.70497749852E+01  0.13511372391E+02  0.22079271204E+02  0.51100000000E-03 0. -1.
        -11    1    3    3    0    0  0.13062585473E+02 -0.25178008587E+02  0.71652456319E+01  0.29255837040E+02  0.51100000000E-03 0.  1.
         12    1    3    3    0    0  0.14896910889E+02  0.13150233396E+02 -0.71746627379E+01  0.21126343219E+02  0.00000000000E+00 0. -1.
</event>
<event>
 7    1  0.2851651E-013  0.7246156E+02  0.7816164E-02  0.1226708E+00
        -11   -1    0    0    0    0  0.00000000000E+00  0.00000000000E+00  0.45593999997E+02  0.45594000000E+02  0.51100000000E-03 0.  1.
         11   -1    0    0    0    0 -0.00000000000E+00 -0.00000000000E+00 -0.45593999997E+02  0.45594000000E+02  0.51100000000E-03 0. -1.
    9900012    2    1    2    0    0  0.47077996862E+01 -0.61954076704E+01 -0.17033294375E+02  0.72461559566E+02  0.69999986024E+02 0.  0.
        -12    1    1    2    0    0 -0.47077996862E+01  0.61954076704E+01  0.17033294375E+02  0.18726440434E+02  0.00000000000E+00 0.  1.
         11    1    3    3    0    0 -0.14652253000E+02  0.10434342977E+02 -0.10646726773E+02  0.20902555407E+02  0.51100000000E-03 0. -1.
        -11    1    3    3    0    0 -0.13892078098E+02 -0.69980811975E+01  0.26518709054E+01  0.15779587887E+02  0.51100000000E-03 0.  1.
         12    1    3    3    0    0  0.33252130784E+02 -0.96316694495E+01 -0.90384385073E+01  0.35779416271E+02  0.00000000000E+00 0. -1.
</event>
<event>
 7    1  0.2851651E-013  0.7246158E+02  0.7816164E-02  0.1226708E+00
        -11   -1    0    0    0    0  0.00000000000E+00  0.00000000000E+00  0.45593999997E+02  0.45594000000E+02  0.51100000000E-03 0.  1.
         11   -1    0    0    0    0 -0.00000000000E+00 -0.00000000000E+00 -0.45593999997E+02  0.45594000000E+02  0.51100000000E-03 0. -1.
    9900012    2    1    2    0    0 -0.85370510691E+01  0.16611334914E+02  0.13642711919E+01  0.72461576838E+02  0.70000008524E+02 0.  0.
        -12    1    1    2    0    0  0.85370510691E+01 -0.16611334914E+02 -0.13642711919E+01  0.18726423162E+02  0.00000000000E+00 0.  1.
         11    1    3    3    0    0 -0.11359615880E+02 -0.89288807198E+01 -0.13666696540E+02  0.19888297524E+02  0.51100000000E-03 0. -1.
        -11    1    3    3    0    0  0.15101176935E+02 -0.20763375225E+01 -0.53110891335E+01  0.16142007012E+02  0.51100000000E-03 0.  1.
        -12    1    3    3    0    0 -0.12278612125E+02  0.27616553156E+02  0.20342056865E+02  0.36431272301E+02  0.00000000000E+00 0.  1.
</event>
<event>
 7    1  0.2851651E-013  0.7246158E+02  0.7816164E-02  0.1226708E+00
        -11   -1    0    0    0    0  0.00000000000E+00  0.00000000000E+00  0.45593999997E+02  0.45594000000E+02  0.51100000000E-03 0. -1.
         11   -1    0    0    0    0 -0.00000000000E+00 -0.00000000000E+00 -0.45593999997E+02  0.45594000000E+02  0.51100000000E-03 0.  1.
    9900012    2    1    2    0    0  0.13814616285E+02 -0.11310153961E+02 -0.56493837183E+01  0.72461581706E+02  0.70000014866E+02 0.  0.
        -12    1    1    2    0    0 -0.13814616285E+02  0.11310153961E+02  0.56493837183E+01  0.18726418294E+02  0.00000000000E+00 0.  1.
         11    1    3    3    0    0  0.28631785461E+02 -0.15141859785E+02  0.50099468292E+01  0.32774298221E+02  0.51100000000E-03 0. -1.
        -11    1    3    3    0    0 -0.12188902518E+02  0.34296433024E+00  0.11703750262E+02  0.16901619437E+02  0.51100000000E-03 0.  1.
        -12    1    3    3    0    0 -0.26282666578E+01  0.34887414938E+01 -0.22363080809E+02  0.22785664048E+02  0.00000000000E+00 0.  1.
</event>
<event>
 7    1  0.2851651E-013  0.7246159E+02  0.7816164E-02  0.1226708E+00
        -11   -1    0    0    0    0  0.00000000000E+00  0.00000000000E+00  0.45593999997E+02  0.45594000000E+02  0.51100000000E-03 0.  1.
         11   -1    0    0    0    0 -0.00000000000E+00 -0.00000000000E+00 -0.45593999997E+02  0.45594000000E+02  0.51100000000E-03 0. -1.
    9900012    2    1    2    0    0  0.18640480374E+02  0.15490500352E+01  0.90084368316E+00  0.72461585930E+02  0.70000020368E+02 0.  0.
        -12    1    1    2    0    0 -0.18640480374E+02 -0.15490500352E+01 -0.90084368316E+00  0.18726414070E+02  0.00000000000E+00 0.  1.
         11    1    3    3    0    0  0.19006093192E+02  0.10391409579E+01 -0.10939068842E+02  0.21953920373E+02  0.51100000000E-03 0. -1.
        -11    1    3    3    0    0  0.23580660725E+02 -0.49490701411E+00  0.12164673814E+02  0.26538119422E+02  0.51100000000E-03 0.  1.
         12    1    3    3    0    0 -0.23946273544E+02  0.10048160914E+01 -0.32476128980E+00  0.23969546135E+02  0.00000000000E+00 0. -1.
</event>
<event>
 7    1  0.2851651E-013  0.7246154E+02  0.7816164E-02  0.1226708E+00
        -11   -1    0    0    0    0  0.00000000000E+00  0.00000000000E+00  0.45593999997E+02  0.45594000000E+02  0.51100000000E-03 0. -1.
         11   -1    0    0    0    0 -0.00000000000E+00 -0.00000000000E+00 -0.45593999997E+02  0.45594000000E+02  0.51100000000E-03 0.  1.
    9900012    2    1    2    0    0 -0.42072615395E+01  0.13109607169E+02  0.12693198712E+02  0.72461544294E+02  0.69999966129E+02 0.  0.
        -12    1    1    2    0    0  0.42072615395E+01 -0.13109607169E+02 -0.12693198712E+02  0.18726455706E+02  0.00000000000E+00 0.  1.
         11    1    3    3    0    0 -0.18745957849E+02  0.15906212330E+02  0.20255752122E+02  0.31854576134E+02  0.51100000000E-03 0. -1.
        -11    1    3    3    0    0 -0.34578132797E+01  0.49889380934E+01  0.11661629723E+02  0.13146846924E+02  0.51100000000E-03 0.  1.
        -12    1    3    3    0    0  0.17996509589E+02 -0.77855432550E+01 -0.19224183133E+02  0.27460121236E+02  0.00000000000E+00 0.  1.
</event>
<event>
 7    1  0.2851651E-013  0.7246157E+02  0.7816164E-02  0.1226708E+00
        -11   -1    0    0    0    0  0.00000000000E+00  0.00000000000E+00  0.45593999997E+02  0.45594000000E+02  0.51100000000E-03 0.  1.
         11   -1    0    0    0    0 -0.00000000000E+00 -0.00000000000E+00 -0.45593999997E+02  0.45594000000E+02  0.51100000000E-03 0. -1.
    9900012    2    1    2    0    0 -0.13299492371E+01  0.73036529523E+01 -0.17192060230E+02  0.72461573582E+02  0.70000004283E+02 0.  0.
        -12    1    1    2    0    0  0.13299492371E+01 -0.73036529523E+01  0.17192060230E+02  0.18726426418E+02  0.00000000000E+00 0.  1.
         11    1    3    3    0    0 -0.20637503630E+02  0.26539751968E+02 -0.25169885369E+02  0.41997477547E+02  0.51100000000E-03 0. -1.
        -11    1    3    3    0    0  0.62144804233E+00 -0.39419617192E+01  0.45872508225E+01  0.60801422874E+01  0.51100000000E-03 0.  1.
        -12    1    3    3    0    0  0.18686106351E+02 -0.15294137296E+02  0.33905743163E+01  0.24383953748E+02  0.00000000000E+00 0.  1.
</event>
<event>
 7    1  0.2851651E-013  0.7246158E+02  0.7816164E-02  0.1226708E+00
        -11   -1    0    0    0    0  0.00000000000E+00  0.00000000000E+00  0.45593999997E+02  0.45594000000E+02  0.51100000000E-03 0.  1.
         11   -1    0    0    0    0 -0.00000000000E+00 -0.00000000000E+00 -0.45593999997E+02  0.45594000000E+02  0.51100000000E-03 0. -1.
    9900012    2    1    2    0    0  0.55963545668E+01  0.17701698841E+02  0.24514099214E+01  0.72461581845E+02  0.70000015047E+02 0.  0.
        -12    1    1    2    0    0 -0.55963545668E+01 -0.17701698841E+02 -0.24514099214E+01  0.18726418155E+02  0.00000000000E+00 0.  1.
         11    1    3    3    0    0  0.15350390185E+02  0.32971145270E+02 -0.22017543817E+01  0.36435952325E+02  0.51100000000E-03 0. -1.
        -11    1    3    3    0    0 -0.87546168353E+01  0.60911299044E+01  0.92909929832E+01  0.14144530049E+02  0.51100000000E-03 0.  1.
        -12    1    3    3    0    0 -0.99941878287E+00 -0.21360576333E+02 -0.46378286801E+01  0.21881099471E+02  0.00000000000E+00 0.  1.
</event>
<event>
 7    1  0.3844582E-013  0.7246119E+02  0.7816164E-02  0.1226709E+00
        -11   -1    0    0    0    0  0.00000000000E+00  0.00000000000E+00  0.45593999997E+02  0.45594000000E+02  0.51100000000E-03 0.  1.
         11   -1    0    0    0    0 -0.00000000000E+00 -0.00000000000E+00 -0.45593999997E+02  0.45594000000E+02  0.51100000000E-03 0. -1.
    9900012    2    1    2    0    0 -0.17362790923E+02 -0.32100787350E+01 -0.62387614882E+01  0.72461194105E+02  0.69999509942E+02 0.  0.
        -12    1    1    2    0    0  0.17362790923E+02  0.32100787350E+01  0.62387614882E+01  0.18726805895E+02  0.00000000000E+00 0.  1.
         11    1    3    3    0    0 -0.12968509447E+02 -0.13311255065E+02  0.57559517729E+01  0.19455146614E+02  0.51100000000E-03 0. -1.
        -11    1    3    3    0    0  0.13199308389E+02 -0.15360443488E+02 -0.81035551250E+01  0.21813586868E+02  0.51100000000E-03 0.  1.
         12    1    3    3    0    0 -0.17593589865E+02  0.25461619819E+02 -0.38911581361E+01  0.31192460624E+02  0.00000000000E+00 0. -1.
</event>
<event>
 7    1  0.2851651E-013  0.7246140E+02  0.7816164E-02  0.1226708E+00
        -11   -1    0    0    0    0  0.00000000000E+00  0.00000000000E+00  0.45593999997E+02  0.45594000000E+02  0.51100000000E-03 0.  1.
         11   -1    0    0    0    0 -0.00000000000E+00 -0.00000000000E+00 -0.45593999997E+02  0.45594000000E+02  0.51100000000E-03 0. -1.
    9900012    2    1    2    0    0  0.80057109094E+01  0.93697692493E+00 -0.16903140499E+02  0.72461401493E+02  0.69999780105E+02 0.  0.
        -12    1    1    2    0    0 -0.80057109094E+01 -0.93697692493E+00  0.16903140499E+02  0.18726598507E+02  0.00000000000E+00 0.  1.
         11    1    3    3    0    0  0.21118557555E+02 -0.23195897331E+02 -0.23151606011E+02  0.38987690203E+02  0.51100000000E-03 0. -1.
        -11    1    3    3    0    0  0.71410837612E+00  0.13548303434E+02 -0.27953312217E+01  0.13852088421E+02  0.51100000000E-03 0.  1.
        -12    1    3    3    0    0 -0.13826955022E+02  0.10584570822E+02  0.90437967345E+01  0.19621622869E+02  0.00000000000E+00 0.  1.
</event>
<event>
 7    1  0.2851651E-013  0.7246157E+02  0.7816164E-02  0.1226708E+00
        -11   -1    0    0    0    0  0.00000000000E+00  0.00000000000E+00  0.45593999997E+02  0.45594000000E+02  0.51100000000E-03 0. -1.
         11   -1    0    0    0    0 -0.00000000000E+00 -0.00000000000E+00 -0.45593999997E+02  0.45594000000E+02  0.51100000000E-03 0.  1.
    9900012    2    1    2    0    0  0.10050585351E+02 -0.15162721777E+02  0.44448576816E+01  0.72461570618E+02  0.70000000421E+02 0.  0.
        -12    1    1    2    0    0 -0.10050585351E+02  0.15162721777E+02 -0.44448576816E+01  0.18726429382E+02  0.00000000000E+00 0.  1.
         11    1    3    3    0    0 -0.73729953777E+01  0.19310725110E+02  0.44335366008E+01  0.21140515891E+02  0.51100000000E-03 0. -1.
        -11    1    3    3    0    0 -0.25025554955E+01  0.57846976918E+01  0.10488395206E+01  0.63894894941E+01  0.51100000000E-03 0.  1.
        -12    1    3    3    0    0  0.19926136225E+02 -0.40258144578E+02 -0.10375184397E+01  0.44931565233E+02  0.00000000000E+00 0.  1.
</event>
<event>
 7    1  0.2851651E-013  0.7246161E+02  0.7816164E-02  0.1226708E+00
        -11   -1    0    0    0    0  0.00000000000E+00  0.00000000000E+00  0.45593999997E+02  0.45594000000E+02  0.51100000000E-03 0.  1.
         11   -1    0    0    0    0 -0.00000000000E+00 -0.00000000000E+00 -0.45593999997E+02  0.45594000000E+02  0.51100000000E-03 0. -1.
    9900012    2    1    2    0    0  0.29593603093E+00 -0.16248046532E+02 -0.93054420648E+01  0.72461605626E+02  0.70000046026E+02 0.  0.
        -12    1    1    2    0    0 -0.29593603093E+00  0.16248046532E+02  0.93054420648E+01  0.18726394374E+02  0.00000000000E+00 0.  1.
         11    1    3    3    0    0  0.19380375823E+01  0.21765433559E+02  0.91638213517E+00  0.21870753169E+02  0.51100000000E-03 0. -1.
        -11    1    3    3    0    0  0.52486987055E+01 -0.21278300356E+01  0.79654627876E+01  0.97736941043E+01  0.51100000000E-03 0.  1.
        -12    1    3    3    0    0 -0.68908002569E+01 -0.35885650055E+02 -0.18187286988E+02  0.40817158353E+02  0.00000000000E+00 0.  1.
</event>
<event>
 7    1  0.2851651E-013  0.7246154E+02  0.7816164E-02  0.1226708E+00
        -11   -1    0    0    0    0  0.00000000000E+00  0.00000000000E+00  0.45593999997E+02  0.45594000000E+02  0.51100000000E-03 0. -1.
         11   -1    0    0    0    0 -0.00000000000E+00 -0.00000000000E+00 -0.45593999997E+02  0.45594000000E+02  0.51100000000E-03 0.  1.
    9900012    2    1    2    0    0  0.64042189603E-01  0.76413583239E+01  0.17096369573E+02  0.72461539816E+02  0.69999960296E+02 0.  0.
        -12    1    1    2    0    0 -0.64042189603E-01 -0.76413583239E+01 -0.17096369573E+02  0.18726460184E+02  0.00000000000E+00 0.  1.
         11    1    3    3    0    0  0.97012254347E+01 -0.90436056748E+01  0.23055190144E+02  0.26597788844E+02  0.51100000000E-03 0. -1.
        -11    1    3    3    0    0  0.11868735899E+02 -0.42528167173E+01  0.54745352217E+01  0.13744958276E+02  0.51100000000E-03 0.  1.
        -12    1    3    3    0    0 -0.21505919144E+02  0.20937780716E+02 -0.11433355793E+02  0.32118792696E+02  0.00000000000E+00 0.  1.
</event>
<event>
 7    1  0.2851651E-013  0.7246159E+02  0.7816164E-02  0.1226708E+00
        -11   -1    0    0    0    0  0.00000000000E+00  0.00000000000E+00  0.45593999997E+02  0.45594000000E+02  0.51100000000E-03 0.  1.
         11   -1    0    0    0    0 -0.00000000000E+00 -0.00000000000E+00 -0.45593999997E+02  0.45594000000E+02  0.51100000000E-03 0. -1.
    9900012    2    1    2    0    0 -0.17398870183E+01 -0.15479914543E+02 -0.10393428414E+02  0.72461593102E+02  0.70000029712E+02 0.  0.
        -12    1    1    2    0    0  0.17398870183E+01  0.15479914543E+02  0.10393428414E+02  0.18726406898E+02  0.00000000000E+00 0.  1.
         11    1    3    3    0    0 -0.17935213042E+02 -0.14160211669E+02  0.15256423587E+02  0.27476206476E+02  0.51100000000E-03 0. -1.
        -11    1    3    3    0    0 -0.23737310944E+01 -0.43233594134E+00  0.70054180343E+01  0.74092776821E+01  0.51100000000E-03 0.  1.
         12    1    3    3    0    0  0.18569057119E+02 -0.88736693293E+00 -0.32655270035E+02  0.37576108945E+02  0.00000000000E+00 0. -1.
</event>
<event>
 7    1  0.2851651E-013  0.7246148E+02  0.7816164E-02  0.1226708E+00
        -11   -1    0    0    0    0  0.00000000000E+00  0.00000000000E+00  0.45593999997E+02  0.45594000000E+02  0.51100000000E-03 0.  1.
         11   -1    0    0    0    0 -0.00000000000E+00 -0.00000000000E+00 -0.45593999997E+02  0.45594000000E+02  0.51100000000E-03 0. -1.
    9900012    2    1    2    0    0 -0.16473606189E+01 -0.51129926017E+01 -0.17939515098E+02  0.72461476236E+02  0.69999877471E+02 0.  0.
        -12    1    1    2    0    0  0.16473606189E+01  0.51129926017E+01  0.17939515098E+02  0.18726523764E+02  0.00000000000E+00 0.  1.
         11    1    3    3    0    0  0.15958006534E+02 -0.17491982934E+02  0.64741133086E+01  0.24546722448E+02  0.51100000000E-03 0. -1.
        -11    1    3    3    0    0  0.92043096702E+01 -0.35053173943E+00  0.41497061251E+00  0.92203248248E+01  0.51100000000E-03 0.  1.
         12    1    3    3    0    0 -0.26809676823E+02  0.12729522072E+02 -0.24828599019E+02  0.38694428963E+02  0.00000000000E+00 0. -1.
</event>
<event>
 7    1  0.2851651E-013  0.7246157E+02  0.7816164E-02  0.1226708E+00
        -11   -1    0    0    0    0  0.00000000000E+00  0.00000000000E+00  0.45593999997E+02  0.45594000000E+02  0.51100000000E-03 0.  1.
         11   -1    0    0    0    0 -0.00000000000E+00 -0.00000000000E+00 -0.45593999997E+02  0.45594000000E+02  0.51100000000E-03 0. -1.
    9900012    2    1    2    0    0  0.10855290330E+02 -0.14792682744E+02 -0.37441145345E+01  0.72461569893E+02  0.69999999477E+02 0.  0.
        -12    1    1    2    0    0 -0.10855290330E+02  0.14792682744E+02  0.37441145345E+01  0.18726430107E+02  0.00000000000E+00 0.  1.
         11    1    3    3    0    0 -0.78257323190E+01  0.20487708689E+02 -0.10606557105E+02  0.24361595751E+02  0.51100000000E-03 0. -1.
        -11    1    3    3    0    0 -0.30854400523E+01 -0.20417350804E+02 -0.75935295093E+00  0.20663125885E+02  0.51100000000E-03 0.  1.
        -12    1    3    3    0    0  0.21766462701E+02 -0.14863040629E+02  0.76217955215E+01  0.27436848256E+02  0.00000000000E+00 0.  1.
</event>
<event>
 7    1  0.2851651E-013  0.7246162E+02  0.7816164E-02  0.1226708E+00
        -11   -1    0    0    0    0  0.00000000000E+00  0.00000000000E+00  0.45593999997E+02  0.45594000000E+02  0.51100000000E-03 0.  1.
         11   -1    0    0    0    0 -0.00000000000E+00 -0.00000000000E+00 -0.45593999997E+02  0.45594000000E+02  0.51100000000E-03 0. -1.
    9900012    2    1    2    0    0 -0.66210261240E+01  0.94381521695E+01 -0.14756712015E+02  0.72461621472E+02  0.70000066668E+02 0.  0.
        -12    1    1    2    0    0  0.66210261240E+01 -0.94381521695E+01  0.14756712015E+02  0.18726378528E+02  0.00000000000E+00 0.  1.
         11    1    3    3    0    0 -0.61108881713E+01  0.39105205046E+02 -0.15253141829E+01  0.39609173175E+02  0.51100000000E-03 0. -1.
        -11    1    3    3    0    0 -0.18775530616E+01 -0.84373978799E+01 -0.53516155113E+01  0.10166350246E+02  0.51100000000E-03 0.  1.
        -12    1    3    3    0    0  0.13674151090E+01 -0.21229654997E+02 -0.78797823204E+01  0.22686098051E+02  0.00000000000E+00 0.  1.
</event>
<event>
 7    1  0.2851651E-013  0.7246158E+02  0.7816164E-02  0.1226708E+00
        -11   -1    0    0    0    0  0.00000000000E+00  0.00000000000E+00  0.45593999997E+02  0.45594000000E+02  0.51100000000E-03 0.  1.
         11   -1    0    0    0    0 -0.00000000000E+00 -0.00000000000E+00 -0.45593999997E+02  0.45594000000E+02  0.51100000000E-03 0. -1.
    9900012    2    1    2    0    0 -0.18077455424E+02 -0.28549495782E+01 -0.39665663417E+01  0.72461580688E+02  0.70000013540E+02 0.  0.
        -12    1    1    2    0    0  0.18077455424E+02  0.28549495782E+01  0.39665663417E+01  0.18726419312E+02  0.00000000000E+00 0.  1.
         11    1    3    3    0    0 -0.16633843373E+02  0.11420667540E+02 -0.30907451969E+01  0.20412474092E+02  0.51100000000E-03 0. -1.
        -11    1    3    3    0    0 -0.13032179472E+02  0.15264336626E+02  0.20885751375E+01  0.20179192769E+02  0.51100000000E-03 0.  1.
        -12    1    3    3    0    0  0.11588567422E+02 -0.29539953744E+02 -0.29643962823E+01  0.31869913828E+02  0.00000000000E+00 0.  1.
</event>
<event>
 7    1  0.2851651E-013  0.7246158E+02  0.7816164E-02  0.1226708E+00
        -11   -1    0    0    0    0  0.00000000000E+00  0.00000000000E+00  0.45593999997E+02  0.45594000000E+02  0.51100000000E-03 0.  1.
         11   -1    0    0    0    0 -0.00000000000E+00 -0.00000000000E+00 -0.45593999997E+02  0.45594000000E+02  0.51100000000E-03 0. -1.
    9900012    2    1    2    0    0 -0.68835882953E+01  0.12119240529E+02 -0.12506758357E+02  0.72461580604E+02  0.70000013430E+02 0.  0.
        -12    1    1    2    0    0  0.68835882953E+01 -0.12119240529E+02  0.12506758357E+02  0.18726419396E+02  0.00000000000E+00 0.  1.
         11    1    3    3    0    0  0.39957344273E+00  0.22138940479E+02  0.94175365654E+01  0.24062051860E+02  0.51100000000E-03 0.  1.
        -11    1    3    3    0    0  0.11783063978E+02  0.74256190351E+01 -0.17193941923E+02  0.22127179076E+02  0.51100000000E-03 0. -1.
        -12    1    3    3    0    0 -0.19066225716E+02 -0.17445318986E+02 -0.47303529993E+01  0.26272349668E+02  0.00000000000E+00 0.  1.
</event>
<event>
 7    1  0.2851651E-013  0.7246158E+02  0.7816164E-02  0.1226708E+00
        -11   -1    0    0    0    0  0.00000000000E+00  0.00000000000E+00  0.45593999997E+02  0.45594000000E+02  0.51100000000E-03 0. -1.
         11   -1    0    0    0    0 -0.00000000000E+00 -0.00000000000E+00 -0.45593999997E+02  0.45594000000E+02  0.51100000000E-03 0.  1.
    9900012    2    1    2    0    0 -0.96539801347E+00 -0.16062225638E+02  0.95787212179E+01  0.72461575196E+02  0.70000006385E+02 0.  0.
        -12    1    1    2    0    0  0.96539801347E+00  0.16062225638E+02 -0.95787212179E+01  0.18726424804E+02  0.00000000000E+00 0.  1.
         11    1    3    3    0    0 -0.23053252497E+02 -0.27532052199E+02  0.11096677275E+02  0.37584605835E+02  0.51100000000E-03 0. -1.
        -11    1    3    3    0    0  0.16655998836E+02 -0.45393885304E+01 -0.41817944231E+01  0.17762763026E+02  0.51100000000E-03 0.  1.
        -12    1    3    3    0    0  0.54318556476E+01  0.16009215092E+02  0.26638383659E+01  0.17114206335E+02  0.00000000000E+00 0.  1.
</event>
<event>
 7    1  0.2851651E-013  0.7246144E+02  0.7816164E-02  0.1226708E+00
        -11   -1    0    0    0    0  0.00000000000E+00  0.00000000000E+00  0.45593999997E+02  0.45594000000E+02  0.51100000000E-03 0.  1.
         11   -1    0    0    0    0 -0.00000000000E+00 -0.00000000000E+00 -0.45593999997E+02  0.45594000000E+02  0.51100000000E-03 0. -1.
    9900012    2    1    2    0    0 -0.50158475153E+01 -0.17975081634E+02  0.15561617846E+01  0.72461443308E+02  0.69999834576E+02 0.  0.
        -12    1    1    2    0    0  0.50158475153E+01  0.17975081634E+02 -0.15561617846E+01  0.18726556692E+02  0.00000000000E+00 0.  1.
         11    1    3    3    0    0 -0.90422712573E+01  0.11874070008E+02 -0.23551512204E+00  0.14926877626E+02  0.51100000000E-03 0. -1.
        -11    1    3    3    0    0 -0.19464131460E+02 -0.17832193914E+02  0.12313274426E+02  0.29128272874E+02  0.51100000000E-03 0.  1.
         12    1    3    3    0    0  0.23490555202E+02 -0.12016957727E+02 -0.10521597519E+02  0.28406292808E+02  0.00000000000E+00 0. -1.
</event>
<event>
 7    1  0.2851651E-013  0.7246156E+02  0.7816164E-02  0.1226708E+00
        -11   -1    0    0    0    0  0.00000000000E+00  0.00000000000E+00  0.45593999997E+02  0.45594000000E+02  0.51100000000E-03 0. -1.
         11   -1    0    0    0    0 -0.00000000000E+00 -0.00000000000E+00 -0.45593999997E+02  0.45594000000E+02  0.51100000000E-03 0.  1.
    9900012    2    1    2    0    0 -0.13478600284E+02 -0.57627312351E-01  0.13000135418E+02  0.72461561272E+02  0.69999988247E+02 0.  0.
        -12    1    1    2    0    0  0.13478600284E+02  0.57627312351E-01 -0.13000135418E+02  0.18726438728E+02  0.00000000000E+00 0.  1.
         11    1    3    3    0    0  0.20477675329E+02  0.72792562072E+01 -0.47710755564E+01  0.22250526286E+02  0.51100000000E-03 0. -1.
        -11    1    3    3    0    0 -0.63547453941E+01  0.71725117860E+01 -0.57289325896E+01  0.11164604033E+02  0.51100000000E-03 0.  1.
         12    1    3    3    0    0 -0.27601530219E+02 -0.14509395306E+02  0.23500143564E+02  0.39046430952E+02  0.00000000000E+00 0. -1.
</event>
<event>
 7    1  0.2851651E-013  0.7246159E+02  0.7816164E-02  0.1226708E+00
        -11   -1    0    0    0    0  0.00000000000E+00  0.00000000000E+00  0.45593999997E+02  0.45594000000E+02  0.51100000000E-03 0.  1.
         11   -1    0    0    0    0 -0.00000000000E+00 -0.00000000000E+00 -0.45593999997E+02  0.45594000000E+02  0.51100000000E-03 0. -1.
    9900012    2    1    2    0    0 -0.11068162015E+02  0.58954420298E+01 -0.13907475447E+02  0.72461592966E+02  0.70000029534E+02 0.  0.
        -12    1    1    2    0    0  0.11068162015E+02 -0.58954420298E+01  0.13907475447E+02  0.18726407034E+02  0.00000000000E+00 0.  1.
         11    1    3    3    0    0  0.37889339010E+01  0.12505172466E+02  0.91070350479E+01  0.15927129249E+02  0.51100000000E-03 0. -1.
        -11    1    3    3    0    0  0.39287922625E+01  0.31412721744E+01  0.13456879556E+02  0.14366301096E+02  0.51100000000E-03 0.  1.
         12    1    3    3    0    0 -0.18785888179E+02 -0.97510026102E+01 -0.36471390051E+02  0.42168162621E+02  0.00000000000E+00 0. -1.
</event>
<event>
 7    1  0.2851651E-013  0.7246140E+02  0.7816164E-02  0.1226708E+00
        -11   -1    0    0    0    0  0.00000000000E+00  0.00000000000E+00  0.45593999997E+02  0.45594000000E+02  0.51100000000E-03 0.  1.
         11   -1    0    0    0    0 -0.00000000000E+00 -0.00000000000E+00 -0.45593999997E+02  0.45594000000E+02  0.51100000000E-03 0. -1.
    9900012    2    1    2    0    0 -0.13236914920E+02  0.35019187938E+01  0.12775211448E+02  0.72461404490E+02  0.69999784009E+02 0.  0.
        -12    1    1    2    0    0  0.13236914920E+02 -0.35019187938E+01 -0.12775211448E+02  0.18726595510E+02  0.00000000000E+00 0.  1.
         11    1    3    3    0    0 -0.19279979127E+02 -0.15751991445E+02 -0.16675047483E+01  0.24952422768E+02  0.51100000000E-03 0. -1.
        -11    1    3    3    0    0  0.44887532153E+01  0.11560128700E+02 -0.13590264572E+02  0.18397846950E+02  0.51100000000E-03 0.  1.
        -12    1    3    3    0    0  0.15543109917E+01  0.76937815383E+01  0.28032980768E+02  0.29111134773E+02  0.00000000000E+00 0.  1.
</event>
<event>
 7    1  0.2851651E-013  0.7246160E+02  0.7816164E-02  0.1226708E+00
        -11   -1    0    0    0    0  0.00000000000E+00  0.00000000000E+00  0.45593999997E+02  0.45594000000E+02  0.51100000000E-03 0.  1.
         11   -1    0    0    0    0 -0.00000000000E+00 -0.00000000000E+00 -0.45593999997E+02  0.45594000000E+02  0.51100000000E-03 0. -1.
    9900012    2    1    2    0    0  0.10236213796E+02  0.15512676527E+02 -0.22923430078E+01  0.72461600390E+02  0.70000039205E+02 0.  0.
        -12    1    1    2    0    0 -0.10236213796E+02 -0.15512676527E+02  0.22923430078E+01  0.18726399610E+02  0.00000000000E+00 0.  1.
         11    1    3    3    0    0 -0.15389823079E+02  0.14920932512E+02 -0.20161430152E+02  0.29427268774E+02  0.51100000000E-03 0. -1.
        -11    1    3    3    0    0  0.15415677574E+01 -0.95554840276E+01  0.13384551723E+02  0.16517564325E+02  0.51100000000E-03 0.  1.
        -12    1    3    3    0    0  0.24084469117E+02  0.10147228042E+02  0.44845354215E+01  0.26516767291E+02  0.00000000000E+00 0.  1.
</event>
<event>
 7    1  0.2851651E-013  0.7246158E+02  0.7816164E-02  0.1226708E+00
        -11   -1    0    0    0    0  0.00000000000E+00  0.00000000000E+00  0.45593999997E+02  0.45594000000E+02  0.51100000000E-03 0. -1.
         11   -1    0    0    0    0 -0.00000000000E+00 -0.00000000000E+00 -0.45593999997E+02  0.45594000000E+02  0.51100000000E-03 0.  1.
    9900012    2    1    2    0    0  0.12552172650E+02 -0.13824668999E+02  0.14143106222E+01  0.72461580542E+02  0.70000013350E+02 0.  0.
        -12    1    1    2    0    0 -0.12552172650E+02  0.13824668999E+02 -0.14143106222E+01  0.18726419458E+02  0.00000000000E+00 0.  1.
         11    1    3    3    0    0 -0.24378821255E+01 -0.18197237760E+01 -0.82399919098E+01  0.87836285676E+01  0.51100000000E-03 0. -1.
        -11    1    3    3    0    0 -0.16167052498E+02  0.64354043759E+01 -0.12324936339E+02  0.21323509842E+02  0.51100000000E-03 0.  1.
         12    1    3    3    0    0  0.31157107274E+02 -0.18440349599E+02  0.21979238871E+02  0.42354442133E+02  0.00000000000E+00 0. -1.
</event>
<event>
 7    1  0.2851651E-013  0.7246142E+02  0.7816164E-02  0.1226708E+00
        -11   -1    0    0    0    0  0.00000000000E+00  0.00000000000E+00  0.45593999997E+02  0.45594000000E+02  0.51100000000E-03 0.  1.
         11   -1    0    0    0    0 -0.00000000000E+00 -0.00000000000E+00 -0.45593999997E+02  0.45594000000E+02  0.51100000000E-03 0. -1.
    9900012    2    1    2    0    0  0.93765027201E+01 -0.70283001623E+01 -0.14607154592E+02  0.72461420716E+02  0.69999805146E+02 0.  0.
        -12    1    1    2    0    0 -0.93765027201E+01  0.70283001623E+01  0.14607154592E+02  0.18726579284E+02  0.00000000000E+00 0.  1.
         11    1    3    3    0    0  0.89489937669E+01 -0.74683750758E+01  0.11991839240E+02  0.16723197192E+02  0.51100000000E-03 0. -1.
        -11    1    3    3    0    0 -0.15368304046E+02 -0.94105920177E+01  0.53181180035E+01  0.18788996533E+02  0.51100000000E-03 0.  1.
         12    1    3    3    0    0  0.15795812999E+02  0.98506669311E+01 -0.31917111835E+02  0.36949226990E+02  0.00000000000E+00 0. -1.
</event>
<event>
 7    1  0.2851651E-013  0.7246162E+02  0.7816164E-02  0.1226708E+00
        -11   -1    0    0    0    0  0.00000000000E+00  0.00000000000E+00  0.45593999997E+02  0.45594000000E+02  0.51100000000E-03 0. -1.
         11   -1    0    0    0    0 -0.00000000000E+00 -0.00000000000E+00 -0.45593999997E+02  0.45594000000E+02  0.51100000000E-03 0.  1.
    9900012    2    1    2    0    0 -0.22773522494E+01 -0.14725012036E+02  0.11343065671E+02  0.72461616165E+02  0.70000059755E+02 0.  0.
        -12    1    1    2    0    0  0.22773522494E+01  0.14725012036E+02 -0.11343065671E+02  0.18726383835E+02  0.00000000000E+00 0.  1.
         11    1    3    3    0    0  0.29939739014E+01 -0.15005865957E+02  0.21822056489E+01  0.15456452200E+02  0.51100000000E-03 0. -1.
        -11    1    3    3    0    0 -0.28139503412E+02 -0.11417880704E+02  0.74099767682E+01  0.31258717312E+02  0.51100000000E-03 0.  1.
         12    1    3    3    0    0  0.22868177261E+02  0.11698734626E+02  0.17508832539E+01  0.25746446653E+02  0.00000000000E+00 0. -1.
</event>
<event>
 7    1  0.3159196E-013  0.7246157E+02  0.7816164E-02  0.1226708E+00
        -11   -1    0    0    0    0  0.00000000000E+00  0.00000000000E+00  0.45593999997E+02  0.45594000000E+02  0.51100000000E-03 0.  1.
         11   -1    0    0    0    0 -0.00000000000E+00 -0.00000000000E+00 -0.45593999997E+02  0.45594000000E+02  0.51100000000E-03 0. -1.
    9900012    2    1    2    0    0 -0.37651000301E+01 -0.66238656347E+00  0.18332055684E+02  0.72461574826E+02  0.70000005904E+02 0.  0.
        -12    1    1    2    0    0  0.37651000301E+01  0.66238656347E+00 -0.18332055684E+02  0.18726425174E+02  0.00000000000E+00 0.  1.
         11    1    3    3    0    0  0.54394951902E+01 -0.49365071909E+01 -0.14328581219E+02  0.16101721995E+02  0.51100000000E-03 0. -1.
        -11    1    3    3    0    0 -0.78622531106E+01  0.15588446047E+02 -0.40493488726E+01  0.17922385464E+02  0.51100000000E-03 0.  1.
         12    1    3    3    0    0 -0.13423421097E+01 -0.11314325420E+02  0.36709985776E+02  0.38437467368E+02  0.00000000000E+00 0. -1.
</event>
<event>
 7    1  0.2851651E-013  0.7246166E+02  0.7816164E-02  0.1226708E+00
        -11   -1    0    0    0    0  0.00000000000E+00  0.00000000000E+00  0.45593999997E+02  0.45594000000E+02  0.51100000000E-03 0. -1.
         11   -1    0    0    0    0 -0.00000000000E+00 -0.00000000000E+00 -0.45593999997E+02  0.45594000000E+02  0.51100000000E-03 0.  1.
    9900012    2    1    2    0    0  0.24866150458E+01 -0.99185268094E+01  0.15688070150E+02  0.72461655629E+02  0.70000111164E+02 0.  0.
        -12    1    1    2    0    0 -0.24866150458E+01  0.99185268094E+01 -0.15688070150E+02  0.18726344371E+02  0.00000000000E+00 0.  1.
         11    1    3    3    0    0 -0.29186350876E+01  0.23654056254E+02  0.17211971682E+01  0.23895508532E+02  0.51100000000E-03 0. -1.
        -11    1    3    3    0    0  0.98787028823E+01  0.69807700235E-01  0.10554495261E+02  0.14456521512E+02  0.51100000000E-03 0.  1.
         12    1    3    3    0    0 -0.44734527489E+01 -0.33642390764E+02  0.34123777210E+01  0.34109625585E+02  0.00000000000E+00 0. -1.
</event>
<event>
 7    1  0.2851651E-013  0.7246170E+02  0.7816164E-02  0.1226708E+00
        -11   -1    0    0    0    0  0.00000000000E+00  0.00000000000E+00  0.45593999997E+02  0.45594000000E+02  0.51100000000E-03 0.  1.
         11   -1    0    0    0    0 -0.00000000000E+00 -0.00000000000E+00 -0.45593999997E+02  0.45594000000E+02  0.51100000000E-03 0. -1.
    9900012    2    1    2    0    0  0.92204797084E+00  0.18681992751E+02  0.89857742492E+00  0.72461695853E+02  0.70000163564E+02 0.  0.
        -12    1    1    2    0    0 -0.92204797084E+00 -0.18681992751E+02 -0.89857742492E+00  0.18726304147E+02  0.00000000000E+00 0.  1.
         11    1    3    3    0    0 -0.23067497789E+02 -0.12991062465E+01 -0.25729255347E+01  0.23246872421E+02  0.51100000000E-03 0. -1.
        -11    1    3    3    0    0 -0.10237240881E+02  0.61217944874E+01 -0.12262486453E+01  0.11990877975E+02  0.51100000000E-03 0.  1.
        -12    1    3    3    0    0  0.34226786641E+02  0.13859304510E+02  0.46977516049E+01  0.37223945457E+02  0.00000000000E+00 0.  1.
</event>
<event>
 7    1  0.2851651E-013  0.7246157E+02  0.7816164E-02  0.1226708E+00
        -11   -1    0    0    0    0  0.00000000000E+00  0.00000000000E+00  0.45593999997E+02  0.45594000000E+02  0.51100000000E-03 0. -1.
         11   -1    0    0    0    0 -0.00000000000E+00 -0.00000000000E+00 -0.45593999997E+02  0.45594000000E+02  0.51100000000E-03 0.  1.
    9900012    2    1    2    0    0 -0.46723368222E+01 -0.13627175093E+02  0.11964472311E+02  0.72461568677E+02  0.69999997893E+02 0.  0.
        -12    1    1    2    0    0  0.46723368222E+01  0.13627175093E+02 -0.11964472311E+02  0.18726431323E+02  0.00000000000E+00 0.  1.
         11    1    3    3    0    0 -0.24947476927E+02 -0.64625884391E+01  0.23023991713E+00  0.25771974411E+02  0.51100000000E-03 0. -1.
        -11    1    3    3    0    0 -0.10387452804E+02 -0.87846874703E+01  0.79375744594E+01  0.15750396765E+02  0.51100000000E-03 0.  1.
         12    1    3    3    0    0  0.30662592909E+02  0.16201008165E+01  0.37966579348E+01  0.30939197501E+02  0.00000000000E+00 0. -1.
</event>
<event>
 7    1  0.2851651E-013  0.7246164E+02  0.7816164E-02  0.1226708E+00
        -11   -1    0    0    0    0  0.00000000000E+00  0.00000000000E+00  0.45593999997E+02  0.45594000000E+02  0.51100000000E-03 0. -1.
         11   -1    0    0    0    0 -0.00000000000E+00 -0.00000000000E+00 -0.45593999997E+02  0.45594000000E+02  0.51100000000E-03 0.  1.
    9900012    2    1    2    0    0  0.16300482510E+02 -0.85943714711E+01  0.33328195153E+01  0.72461637914E+02  0.70000088087E+02 0.  0.
        -12    1    1    2    0    0 -0.16300482510E+02  0.85943714711E+01 -0.33328195153E+01  0.18726362086E+02  0.00000000000E+00 0.  1.
         11    1    3    3    0    0  0.57814896703E+00  0.61407460572E+01 -0.91068496463E+01  0.10998987640E+02  0.51100000000E-03 0. -1.
        -11    1    3    3    0    0  0.28782035425E+02 -0.28312661998E+02  0.32560625068E+01  0.40504497725E+02  0.51100000000E-03 0.  1.
         12    1    3    3    0    0 -0.13059701882E+02  0.13577544470E+02  0.91836066547E+01  0.20958152549E+02  0.00000000000E+00 0. -1.
</event>
<event>
 7    1  0.2851651E-013  0.7246155E+02  0.7816164E-02  0.1226708E+00
        -11   -1    0    0    0    0  0.00000000000E+00  0.00000000000E+00  0.45593999997E+02  0.45594000000E+02  0.51100000000E-03 0.  1.
         11   -1    0    0    0    0 -0.00000000000E+00 -0.00000000000E+00 -0.45593999997E+02  0.45594000000E+02  0.51100000000E-03 0. -1.
    9900012    2    1    2    0    0  0.15860997016E+02 -0.88967353373E+01 -0.44673088162E+01  0.72461548813E+02  0.69999972017E+02 0.  0.
        -12    1    1    2    0    0 -0.15860997016E+02  0.88967353373E+01  0.44673088162E+01  0.18726451187E+02  0.00000000000E+00 0.  1.
         11    1    3    3    0    0  0.24429270408E+02  0.10538035013E+02 -0.86141894040E+01  0.27965044144E+02  0.51100000000E-03 0.  1.
        -11    1    3    3    0    0 -0.95615599770E+01  0.18332403348E+01 -0.13636671030E+02  0.16755387084E+02  0.51100000000E-03 0. -1.
        -12    1    3    3    0    0  0.99328658457E+00 -0.21268010685E+02  0.17783551617E+02  0.27741117585E+02  0.00000000000E+00 0.  1.
</event>
<event>
 7    1  0.2851651E-013  0.7246153E+02  0.7816164E-02  0.1226708E+00
        -11   -1    0    0    0    0  0.00000000000E+00  0.00000000000E+00  0.45593999997E+02  0.45594000000E+02  0.51100000000E-03 0. -1.
         11   -1    0    0    0    0 -0.00000000000E+00 -0.00000000000E+00 -0.45593999997E+02  0.45594000000E+02  0.51100000000E-03 0.  1.
    9900012    2    1    2    0    0 -0.64390425947E+01  0.11154849948E+02  0.13593697444E+02  0.72461533245E+02  0.69999951737E+02 0.  0.
        -12    1    1    2    0    0  0.64390425947E+01 -0.11154849948E+02 -0.13593697444E+02  0.18726466755E+02  0.00000000000E+00 0.  1.
         11    1    3    3    0    0  0.73151973869E+00 -0.27219518717E+01 -0.10152040624E+01  0.29957941634E+01  0.51100000000E-03 0. -1.
        -11    1    3    3    0    0 -0.65316188959E+01  0.13743246171E+02 -0.25315153581E+02  0.29536348146E+02  0.51100000000E-03 0.  1.
         12    1    3    3    0    0 -0.63894343745E+00  0.13355564842E+00  0.39924055088E+02  0.39929390936E+02  0.00000000000E+00 0. -1.
</event>
<event>
 7    1  0.2851651E-013  0.7246157E+02  0.7816164E-02  0.1226708E+00
        -11   -1    0    0    0    0  0.00000000000E+00  0.00000000000E+00  0.45593999997E+02  0.45594000000E+02  0.51100000000E-03 0. -1.
         11   -1    0    0    0    0 -0.00000000000E+00 -0.00000000000E+00 -0.45593999997E+02  0.45594000000E+02  0.51100000000E-03 0.  1.
    9900012    2    1    2    0    0  0.17555826776E+02  0.53698702105E+01  0.36927774751E+01  0.72461570406E+02  0.70000000145E+02 0.  0.
        -12    1    1    2    0    0 -0.17555826776E+02 -0.53698702105E+01 -0.36927774751E+01  0.18726429594E+02  0.00000000000E+00 0.  1.
         11    1    3    3    0    0 -0.61401159804E+01  0.58536215858E+01 -0.37789587526E+01  0.92868961142E+01  0.51100000000E-03 0. -1.
        -11    1    3    3    0    0 -0.13123082437E+02 -0.79071831534E+00 -0.15072774149E+02  0.20000726209E+02  0.51100000000E-03 0.  1.
         12    1    3    3    0    0  0.36819025193E+02  0.30696694003E+00  0.22544510377E+02  0.43173948082E+02  0.00000000000E+00 0. -1.
</event>
<event>
 7    1  0.2851651E-013  0.7246161E+02  0.7816164E-02  0.1226708E+00
        -11   -1    0    0    0    0  0.00000000000E+00  0.00000000000E+00  0.45593999997E+02  0.45594000000E+02  0.51100000000E-03 0.  1.
         11   -1    0    0    0    0 -0.00000000000E+00 -0.00000000000E+00 -0.45593999997E+02  0.45594000000E+02  0.51100000000E-03 0. -1.
    9900012    2    1    2    0    0 -0.45208075320E+01 -0.66939773455E+01 -0.16894693778E+02  0.72461609229E+02  0.70000050720E+02 0.  0.
        -12    1    1    2    0    0  0.45208075320E+01  0.66939773455E+01  0.16894693778E+02  0.18726390771E+02  0.00000000000E+00 0.  1.
         11    1    3    3    0    0  0.20054927391E+02 -0.18881838051E+02 -0.31542165742E+01  0.27724952720E+02  0.51100000000E-03 0. -1.
        -11    1    3    3    0    0 -0.45758499444E+01 -0.13454657346E+01  0.98711666068E+01  0.10963056654E+02  0.51100000000E-03 0.  1.
         12    1    3    3    0    0 -0.19999884979E+02  0.13533326440E+02 -0.23611643811E+02  0.33773599855E+02  0.00000000000E+00 0. -1.
</event>
<event>
 7    1  0.2851651E-013  0.7246160E+02  0.7816164E-02  0.1226708E+00
        -11   -1    0    0    0    0  0.00000000000E+00  0.00000000000E+00  0.45593999997E+02  0.45594000000E+02  0.51100000000E-03 0. -1.
         11   -1    0    0    0    0 -0.00000000000E+00 -0.00000000000E+00 -0.45593999997E+02  0.45594000000E+02  0.51100000000E-03 0.  1.
    9900012    2    1    2    0    0  0.13135916840E+02 -0.76993457446E+01  0.10901643076E+02  0.72461599975E+02  0.70000038665E+02 0.  0.
        -12    1    1    2    0    0 -0.13135916840E+02  0.76993457446E+01 -0.10901643076E+02  0.18726400025E+02  0.00000000000E+00 0.  1.
         11    1    3    3    0    0  0.55939896560E+00 -0.16613307530E+01 -0.13483497776E+02  0.13596972443E+02  0.51100000000E-03 0. -1.
        -11    1    3    3    0    0 -0.11957663399E+02  0.13598945269E+02 -0.14732091064E+01  0.18168306793E+02  0.51100000000E-03 0.  1.
         12    1    3    3    0    0  0.24534181274E+02 -0.19636960261E+02  0.25858349959E+02  0.40696320739E+02  0.00000000000E+00 0. -1.
</event>
<event>
 7    1  0.2851651E-013  0.7246144E+02  0.7816164E-02  0.1226708E+00
        -11   -1    0    0    0    0  0.00000000000E+00  0.00000000000E+00  0.45593999997E+02  0.45594000000E+02  0.51100000000E-03 0.  1.
         11   -1    0    0    0    0 -0.00000000000E+00 -0.00000000000E+00 -0.45593999997E+02  0.45594000000E+02  0.51100000000E-03 0. -1.
    9900012    2    1    2    0    0 -0.13391459295E+02  0.12457268738E+02 -0.40210878406E+01  0.72461444687E+02  0.69999836373E+02 0.  0.
        -12    1    1    2    0    0  0.13391459295E+02 -0.12457268738E+02  0.40210878406E+01  0.18726555313E+02  0.00000000000E+00 0.  1.
         11    1    3    3    0    0 -0.15711441698E+02  0.35310006216E+01  0.59595216380E+01  0.17170709480E+02  0.51100000000E-03 0. -1.
        -11    1    3    3    0    0 -0.20899560171E+02 -0.10552984587E+02 -0.10117437001E+00  0.23412973659E+02  0.51100000000E-03 0.  1.
        -12    1    3    3    0    0  0.23219542575E+02  0.19479252704E+02 -0.98794351086E+01  0.31877761548E+02  0.00000000000E+00 0.  1.
</event>
<event>
 7    1  0.2851651E-013  0.7246128E+02  0.7816164E-02  0.1226709E+00
        -11   -1    0    0    0    0  0.00000000000E+00  0.00000000000E+00  0.45593999997E+02  0.45594000000E+02  0.51100000000E-03 0. -1.
         11   -1    0    0    0    0 -0.00000000000E+00 -0.00000000000E+00 -0.45593999997E+02  0.45594000000E+02  0.51100000000E-03 0.  1.
    9900012    2    1    2    0    0 -0.80317269262E+01 -0.14411710810E+02  0.88591227450E+01  0.72461278405E+02  0.69999619759E+02 0.  0.
        -12    1    1    2    0    0  0.80317269262E+01  0.14411710810E+02 -0.88591227450E+01  0.18726721595E+02  0.00000000000E+00 0.  1.
         11    1    3    3    0    0  0.13125796600E+01 -0.12874129559E+01 -0.13302502264E+01  0.22693310487E+01  0.51100000000E-03 0. -1.
        -11    1    3    3    0    0  0.51186388950E+01 -0.17111756942E+02 -0.25697734095E+02  0.31295147031E+02  0.51100000000E-03 0.  1.
         12    1    3    3    0    0 -0.14462945481E+02  0.39874590883E+01  0.35887107067E+02  0.38896800326E+02  0.00000000000E+00 0. -1.
</event>
<event>
 7    1  0.2851651E-013  0.7246153E+02  0.7816164E-02  0.1226708E+00
        -11   -1    0    0    0    0  0.00000000000E+00  0.00000000000E+00  0.45593999997E+02  0.45594000000E+02  0.51100000000E-03 0. -1.
         11   -1    0    0    0    0 -0.00000000000E+00 -0.00000000000E+00 -0.45593999997E+02  0.45594000000E+02  0.51100000000E-03 0.  1.
    9900012    2    1    2    0    0  0.48116475287E+01  0.25266325725E+01  0.17920515285E+02  0.72461529639E+02  0.69999947039E+02 0.  0.
        -12    1    1    2    0    0 -0.48116475287E+01 -0.25266325725E+01 -0.17920515285E+02  0.18726470361E+02  0.00000000000E+00 0.  1.
         11    1    3    3    0    0 -0.11556360090E+02  0.22938174436E+02  0.35868388119E+01  0.25934045537E+02  0.51100000000E-03 0. -1.
        -11    1    3    3    0    0  0.26068013386E+01 -0.23323236546E+02 -0.35922459133E+01  0.23741798735E+02  0.51100000000E-03 0.  1.
         12    1    3    3    0    0  0.13761206280E+02  0.29116946825E+01  0.17925922387E+02  0.22785685367E+02  0.00000000000E+00 0. -1.
</event>
<event>
 7    1  0.2851651E-013  0.7246151E+02  0.7816164E-02  0.1226708E+00
        -11   -1    0    0    0    0  0.00000000000E+00  0.00000000000E+00  0.45593999997E+02  0.45594000000E+02  0.51100000000E-03 0.  1.
         11   -1    0    0    0    0 -0.00000000000E+00 -0.00000000000E+00 -0.45593999997E+02  0.45594000000E+02  0.51100000000E-03 0. -1.
    9900012    2    1    2    0    0  0.13003036712E+02 -0.13356756884E+02 -0.17886790633E+01  0.72461513651E+02  0.69999926211E+02 0.  0.
        -12    1    1    2    0    0 -0.13003036712E+02  0.13356756884E+02  0.17886790633E+01  0.18726486349E+02  0.00000000000E+00 0.  1.
         11    1    3    3    0    0 -0.40584663060E+01  0.16879790500E+02 -0.21662616493E+02  0.27760897494E+02  0.51100000000E-03 0. -1.
        -11    1    3    3    0    0 -0.40994397993E+01 -0.18610884626E+01  0.11066747733E+01  0.46361391532E+01  0.51100000000E-03 0.  1.
        -12    1    3    3    0    0  0.21160942818E+02 -0.28375458921E+02  0.18767262657E+02  0.40064477003E+02  0.00000000000E+00 0.  1.
</event>
<event>
 7    1  0.2851651E-013  0.7246159E+02  0.7816164E-02  0.1226708E+00
        -11   -1    0    0    0    0  0.00000000000E+00  0.00000000000E+00  0.45593999997E+02  0.45594000000E+02  0.51100000000E-03 0.  1.
         11   -1    0    0    0    0 -0.00000000000E+00 -0.00000000000E+00 -0.45593999997E+02  0.45594000000E+02  0.51100000000E-03 0. -1.
    9900012    2    1    2    0    0  0.12693176668E+01  0.18357960463E+02  0.34716555730E+01  0.72461594255E+02  0.70000031213E+02 0.  0.
        -12    1    1    2    0    0 -0.12693176668E+01 -0.18357960463E+02 -0.34716555730E+01  0.18726405745E+02  0.00000000000E+00 0.  1.
         11    1    3    3    0    0  0.24740201151E+01  0.35020511368E+01 -0.35082651297E+01  0.55401319637E+01  0.51100000000E-03 0. -1.
        -11    1    3    3    0    0 -0.52217255426E+01 -0.19930978535E+02 -0.15081384957E+02  0.25533477936E+02  0.51100000000E-03 0.  1.
        -12    1    3    3    0    0  0.40170230943E+01  0.34786887861E+02  0.22061305660E+02  0.41387984356E+02  0.00000000000E+00 0.  1.
</event>
<event>
 7    1  0.2851651E-013  0.7246161E+02  0.7816164E-02  0.1226708E+00
        -11   -1    0    0    0    0  0.00000000000E+00  0.00000000000E+00  0.45593999997E+02  0.45594000000E+02  0.51100000000E-03 0.  1.
         11   -1    0    0    0    0 -0.00000000000E+00 -0.00000000000E+00 -0.45593999997E+02  0.45594000000E+02  0.51100000000E-03 0. -1.
    9900012    2    1    2    0    0 -0.95113211469E+01  0.14691430724E+02  0.66614098284E+01  0.72461608260E+02  0.70000049458E+02 0.  0.
        -12    1    1    2    0    0  0.95113211469E+01 -0.14691430724E+02 -0.66614098284E+01  0.18726391740E+02  0.00000000000E+00 0.  1.
         11    1    3    3    0    0 -0.77885281724E+01 -0.95313149353E+01  0.67564315211E+01  0.14041242917E+02  0.51100000000E-03 0. -1.
        -11    1    3    3    0    0  0.80162942917E+01 -0.10410907217E+02 -0.14588780289E+02  0.19633656659E+02  0.51100000000E-03 0.  1.
        -12    1    3    3    0    0 -0.97390872663E+01  0.34633652876E+02  0.14493758596E+02  0.38786708684E+02  0.00000000000E+00 0.  1.
</event>
<event>
 7    1  0.2851651E-013  0.7246149E+02  0.7816164E-02  0.1226708E+00
        -11   -1    0    0    0    0  0.00000000000E+00  0.00000000000E+00  0.45593999997E+02  0.45594000000E+02  0.51100000000E-03 0.  1.
         11   -1    0    0    0    0 -0.00000000000E+00 -0.00000000000E+00 -0.45593999997E+02  0.45594000000E+02  0.51100000000E-03 0. -1.
    9900012    2    1    2    0    0 -0.38850832501E+01 -0.79197351480E+00 -0.18301937787E+02  0.72461494168E+02  0.69999900831E+02 0.  0.
        -12    1    1    2    0    0  0.38850832501E+01  0.79197351480E+00  0.18301937787E+02  0.18726505832E+02  0.00000000000E+00 0.  1.
         11    1    3    3    0    0  0.21788794189E+01  0.28625546200E+01 -0.18935162491E+01  0.40653583509E+01  0.51100000000E-03 0. -1.
        -11    1    3    3    0    0 -0.42507897693E+01  0.28466942818E+02 -0.21362952760E+02  0.35844271481E+02  0.51100000000E-03 0.  1.
         12    1    3    3    0    0 -0.18131728998E+01 -0.32121470953E+02  0.49545312222E+01  0.32551864336E+02  0.00000000000E+00 0. -1.
</event>
<event>
 7    1  0.2851651E-013  0.7246138E+02  0.7816164E-02  0.1226709E+00
        -11   -1    0    0    0    0  0.00000000000E+00  0.00000000000E+00  0.45593999997E+02  0.45594000000E+02  0.51100000000E-03 0.  1.
         11   -1    0    0    0    0 -0.00000000000E+00 -0.00000000000E+00 -0.45593999997E+02  0.45594000000E+02  0.51100000000E-03 0. -1.
    9900012    2    1    2    0    0 -0.17469500708E+02  0.21487380666E+01 -0.63941893071E+01  0.72461382923E+02  0.69999755914E+02 0.  0.
        -12    1    1    2    0    0  0.17469500708E+02 -0.21487380666E+01  0.63941893071E+01  0.18726617077E+02  0.00000000000E+00 0.  1.
         11    1    3    3    0    0 -0.35364485891E+02 -0.15792738102E+02  0.73191942104E+01  0.39416088634E+02  0.51100000000E-03 0. -1.
        -11    1    3    3    0    0  0.17579679135E+01  0.93915533586E+01  0.98166451820E+00  0.96049670046E+01  0.51100000000E-03 0.  1.
        -12    1    3    3    0    0  0.16137017269E+02  0.85499228100E+01 -0.14695048036E+02  0.23440327284E+02  0.00000000000E+00 0.  1.
</event>
<event>
 7    1  0.3072132E-013  0.7246149E+02  0.7816164E-02  0.1226708E+00
        -11   -1    0    0    0    0  0.00000000000E+00  0.00000000000E+00  0.45593999997E+02  0.45594000000E+02  0.51100000000E-03 0.  1.
         11   -1    0    0    0    0 -0.00000000000E+00 -0.00000000000E+00 -0.45593999997E+02  0.45594000000E+02  0.51100000000E-03 0. -1.
    9900012    2    1    2    0    0  0.16143215743E+02  0.92447180332E+01 -0.21479930104E+01  0.72461492050E+02  0.69999898072E+02 0.  0.
        -12    1    1    2    0    0 -0.16143215743E+02 -0.92447180332E+01  0.21479930104E+01  0.18726507950E+02  0.00000000000E+00 0.  1.
         11    1    3    3    0    0  0.13639185930E+02 -0.98977416920E+01  0.75940830516E+01  0.18484122405E+02  0.51100000000E-03 0. -1.
        -11    1    3    3    0    0 -0.17538694227E+02  0.19483696467E+02  0.77886255305E+01  0.27347447982E+02  0.51100000000E-03 0.  1.
         12    1    3    3    0    0  0.20042724040E+02 -0.34123674170E+00 -0.17530701593E+02  0.26629921663E+02  0.00000000000E+00 0. -1.
</event>
<event>
 7    1  0.2851651E-013  0.7246157E+02  0.7816164E-02  0.1226708E+00
        -11   -1    0    0    0    0  0.00000000000E+00  0.00000000000E+00  0.45593999997E+02  0.45594000000E+02  0.51100000000E-03 0.  1.
         11   -1    0    0    0    0 -0.00000000000E+00 -0.00000000000E+00 -0.45593999997E+02  0.45594000000E+02  0.51100000000E-03 0. -1.
    9900012    2    1    2    0    0  0.13418183027E+02 -0.61193827681E+01 -0.11540562278E+02  0.72461573248E+02  0.70000003848E+02 0.  0.
        -12    1    1    2    0    0 -0.13418183027E+02  0.61193827681E+01  0.11540562278E+02  0.18726426752E+02  0.00000000000E+00 0.  1.
         11    1    3    3    0    0 -0.17216870134E+01  0.53105437034E+01  0.45755153041E+00  0.56013778896E+01  0.51100000000E-03 0. -1.
        -11    1    3    3    0    0  0.81512060216E+01  0.25703250731E+02 -0.10826135211E+02  0.29056917620E+02  0.51100000000E-03 0.  1.
         12    1    3    3    0    0  0.69886640183E+01 -0.37133177202E+02 -0.11719785982E+01  0.37803277738E+02  0.00000000000E+00 0. -1.
</event>
<event>
 7    1  0.2851651E-013  0.7246155E+02  0.7816164E-02  0.1226708E+00
        -11   -1    0    0    0    0  0.00000000000E+00  0.00000000000E+00  0.45593999997E+02  0.45594000000E+02  0.51100000000E-03 0. -1.
         11   -1    0    0    0    0 -0.00000000000E+00 -0.00000000000E+00 -0.45593999997E+02  0.45594000000E+02  0.51100000000E-03 0.  1.
    9900012    2    1    2    0    0 -0.56362268002E+00  0.11435469461E+01  0.18683005535E+02  0.72461546359E+02  0.69999968820E+02 0.  0.
        -12    1    1    2    0    0  0.56362268002E+00 -0.11435469461E+01 -0.18683005535E+02  0.18726453641E+02  0.00000000000E+00 0.  1.
         11    1    3    3    0    0 -0.22520583154E+01  0.28600137256E+02 -0.10010443330E+01  0.28706126659E+02  0.51100000000E-03 0. -1.
        -11    1    3    3    0    0  0.47968049973E+01 -0.11129415443E+02 -0.57170736958E+01  0.13399931275E+02  0.51100000000E-03 0.  1.
        -12    1    3    3    0    0 -0.31083693619E+01 -0.16327174867E+02  0.25401123564E+02  0.30355488425E+02  0.00000000000E+00 0.  1.
</event>
<event>
 7    1  0.2851651E-013  0.7246158E+02  0.7816164E-02  0.1226708E+00
        -11   -1    0    0    0    0  0.00000000000E+00  0.00000000000E+00  0.45593999997E+02  0.45594000000E+02  0.51100000000E-03 0.  1.
         11   -1    0    0    0    0 -0.00000000000E+00 -0.00000000000E+00 -0.45593999997E+02  0.45594000000E+02  0.51100000000E-03 0. -1.
    9900012    2    1    2    0    0 -0.12127097334E+02  0.14253757974E+02 -0.66540432434E+00  0.72461578317E+02  0.70000010451E+02 0.  0.
        -12    1    1    2    0    0  0.12127097334E+02 -0.14253757974E+02  0.66540432434E+00  0.18726421683E+02  0.00000000000E+00 0.  1.
         11    1    3    3    0    0 -0.29815522265E+02 -0.61614454058E+01  0.17720723655E+02  0.35227160325E+02  0.51100000000E-03 0.  1.
        -11    1    3    3    0    0 -0.35350589370E+01  0.23371419806E+01 -0.41473710584E+01  0.59295498381E+01  0.51100000000E-03 0. -1.
        -12    1    3    3    0    0  0.21223483869E+02  0.18078061399E+02 -0.14238756921E+02  0.31304868154E+02  0.00000000000E+00 0.  1.
</event>
<event>
 7    1  0.4117457E-013  0.7246157E+02  0.7816164E-02  0.1226708E+00
        -11   -1    0    0    0    0  0.00000000000E+00  0.00000000000E+00  0.45593999997E+02  0.45594000000E+02  0.51100000000E-03 0. -1.
         11   -1    0    0    0    0 -0.00000000000E+00 -0.00000000000E+00 -0.45593999997E+02  0.45594000000E+02  0.51100000000E-03 0.  1.
    9900012    2    1    2    0    0 -0.34261634110E+01  0.50049604752E+01  0.17716964257E+02  0.72461573550E+02  0.70000004242E+02 0.  0.
        -12    1    1    2    0    0  0.34261634110E+01 -0.50049604752E+01 -0.17716964257E+02  0.18726426450E+02  0.00000000000E+00 0.  1.
         11    1    3    3    0    0  0.30257985846E+01  0.73508343326E+01 -0.99873444222E+01  0.12764688454E+02  0.51100000000E-03 0. -1.
        -11    1    3    3    0    0 -0.14753670198E+02 -0.15627990440E+02 -0.61839640318E+01  0.22363950476E+02  0.51100000000E-03 0.  1.
         12    1    3    3    0    0  0.83017082027E+01  0.13282116582E+02  0.33888272711E+02  0.37332934620E+02  0.00000000000E+00 0. -1.
</event>
<event>
 7    1  0.2851651E-013  0.7246152E+02  0.7816164E-02  0.1226708E+00
        -11   -1    0    0    0    0  0.00000000000E+00  0.00000000000E+00  0.45593999997E+02  0.45594000000E+02  0.51100000000E-03 0. -1.
         11   -1    0    0    0    0 -0.00000000000E+00 -0.00000000000E+00 -0.45593999997E+02  0.45594000000E+02  0.51100000000E-03 0.  1.
    9900012    2    1    2    0    0  0.13016463974E+02 -0.12128009217E+02  0.58450205187E+01  0.72461515898E+02  0.69999929139E+02 0.  0.
        -12    1    1    2    0    0 -0.13016463974E+02  0.12128009217E+02 -0.58450205187E+01  0.18726484102E+02  0.00000000000E+00 0.  1.
         11    1    3    3    0    0  0.21222437835E+02 -0.14577796048E+02  0.33954663098E+01  0.25969851694E+02  0.51100000000E-03 0. -1.
        -11    1    3    3    0    0  0.38610597128E+01  0.22291284546E+02  0.48751966090E+01  0.23142529919E+02  0.51100000000E-03 0.  1.
         12    1    3    3    0    0 -0.12067033574E+02 -0.19841497714E+02 -0.24256424001E+01  0.23349134286E+02  0.00000000000E+00 0. -1.
</event>
<event>
 7    1  0.2851651E-013  0.7246161E+02  0.7816164E-02  0.1226708E+00
        -11   -1    0    0    0    0  0.00000000000E+00  0.00000000000E+00  0.45593999997E+02  0.45594000000E+02  0.51100000000E-03 0.  1.
         11   -1    0    0    0    0 -0.00000000000E+00 -0.00000000000E+00 -0.45593999997E+02  0.45594000000E+02  0.51100000000E-03 0. -1.
    9900012    2    1    2    0    0 -0.11811052389E+02  0.12985574622E+01 -0.14473781735E+02  0.72461613063E+02  0.70000055714E+02 0.  0.
        -12    1    1    2    0    0  0.11811052389E+02 -0.12985574622E+01  0.14473781735E+02  0.18726386937E+02  0.00000000000E+00 0.  1.
         11    1    3    3    0    0 -0.15682457206E+02 -0.24326802471E+02 -0.17700458454E+02  0.33926965856E+02  0.51100000000E-03 0. -1.
        -11    1    3    3    0    0 -0.59344292322E+01 -0.12949481589E+01  0.74087832545E+01  0.95804180817E+01  0.51100000000E-03 0.  1.
        -12    1    3    3    0    0  0.98058340486E+01  0.26920308092E+02 -0.41821065346E+01  0.28954229125E+02  0.00000000000E+00 0.  1.
</event>
<event>
 7    1  0.2851651E-013  0.7246157E+02  0.7816164E-02  0.1226708E+00
        -11   -1    0    0    0    0  0.00000000000E+00  0.00000000000E+00  0.45593999997E+02  0.45594000000E+02  0.51100000000E-03 0. -1.
         11   -1    0    0    0    0 -0.00000000000E+00 -0.00000000000E+00 -0.45593999997E+02  0.45594000000E+02  0.51100000000E-03 0.  1.
    9900012    2    1    2    0    0 -0.73651741258E+01 -0.10083740850E+02  0.13955335875E+02  0.72461574318E+02  0.70000005241E+02 0.  0.
        -12    1    1    2    0    0  0.73651741258E+01  0.10083740850E+02 -0.13955335875E+02  0.18726425682E+02  0.00000000000E+00 0.  1.
         11    1    3    3    0    0 -0.25279549997E+01 -0.30283774472E+02 -0.11614023857E+02  0.32532800420E+02  0.51100000000E-03 0. -1.
        -11    1    3    3    0    0 -0.13873929931E+01 -0.20622253858E+01  0.14712843097E+02  0.14921306414E+02  0.51100000000E-03 0.  1.
        -12    1    3    3    0    0 -0.34498261329E+01  0.22262259008E+02  0.10856516636E+02  0.25007467483E+02  0.00000000000E+00 0.  1.
</event>
<event>
 7    1  0.2851651E-013  0.7246158E+02  0.7816164E-02  0.1226708E+00
        -11   -1    0    0    0    0  0.00000000000E+00  0.00000000000E+00  0.45593999997E+02  0.45594000000E+02  0.51100000000E-03 0. -1.
         11   -1    0    0    0    0 -0.00000000000E+00 -0.00000000000E+00 -0.45593999997E+02  0.45594000000E+02  0.51100000000E-03 0.  1.
    9900012    2    1    2    0    0 -0.17196066153E+02  0.70722651512E+01  0.22265046641E+01  0.72461576195E+02  0.70000007686E+02 0.  0.
        -12    1    1    2    0    0  0.17196066153E+02 -0.70722651512E+01 -0.22265046641E+01  0.18726423805E+02  0.00000000000E+00 0.  1.
         11    1    3    3    0    0 -0.15329401164E+02 -0.46116448194E+01  0.20974391872E+02  0.26385278521E+02  0.51100000000E-03 0. -1.
        -11    1    3    3    0    0 -0.62728451712E+01 -0.11248337877E+02  0.39900474532E+01  0.13483106855E+02  0.51100000000E-03 0.  1.
         12    1    3    3    0    0  0.44061801814E+01  0.22932247847E+02 -0.22737934661E+02  0.32593190819E+02  0.00000000000E+00 0. -1.
</event>
<event>
 7    1  0.2851651E-013  0.7246160E+02  0.7816164E-02  0.1226708E+00
        -11   -1    0    0    0    0  0.00000000000E+00  0.00000000000E+00  0.45593999997E+02  0.45594000000E+02  0.51100000000E-03 0. -1.
         11   -1    0    0    0    0 -0.00000000000E+00 -0.00000000000E+00 -0.45593999997E+02  0.45594000000E+02  0.51100000000E-03 0.  1.
    9900012    2    1    2    0    0  0.15454759596E+02  0.80058220913E+01  0.69090793513E+01  0.72461597275E+02  0.70000035148E+02 0.  0.
        -12    1    1    2    0    0 -0.15454759596E+02 -0.80058220913E+01 -0.69090793513E+01  0.18726402725E+02  0.00000000000E+00 0.  1.
         11    1    3    3    0    0  0.18498384391E+02 -0.56592968228E+01  0.14661333059E+02  0.24272876898E+02  0.51100000000E-03 0. -1.
        -11    1    3    3    0    0  0.98826870748E+01  0.26953575014E+02 -0.19974836310E+01  0.28777641512E+02  0.51100000000E-03 0.  1.
         12    1    3    3    0    0 -0.12926311870E+02 -0.13288456100E+02 -0.57547700766E+01  0.19411078865E+02  0.00000000000E+00 0. -1.
</event>
<event>
 7    1  0.2851651E-013  0.7246159E+02  0.7816164E-02  0.1226708E+00
        -11   -1    0    0    0    0  0.00000000000E+00  0.00000000000E+00  0.45593999997E+02  0.45594000000E+02  0.51100000000E-03 0.  1.
         11   -1    0    0    0    0 -0.00000000000E+00 -0.00000000000E+00 -0.45593999997E+02  0.45594000000E+02  0.51100000000E-03 0. -1.
    9900012    2    1    2    0    0  0.53496282304E+01 -0.41607510472E+01 -0.17457030149E+02  0.72461594229E+02  0.70000031179E+02 0.  0.
        -12    1    1    2    0    0 -0.53496282304E+01  0.41607510472E+01  0.17457030149E+02  0.18726405771E+02  0.00000000000E+00 0.  1.
         11    1    3    3    0    0 -0.11320751290E+02 -0.47184161732E+01 -0.20611144973E+00  0.12266431557E+02  0.51100000000E-03 0. -1.
        -11    1    3    3    0    0  0.18170050585E+01 -0.26446841445E+02 -0.11244597069E+02  0.28795449177E+02  0.51100000000E-03 0.  1.
         12    1    3    3    0    0  0.14853374462E+02  0.27004506571E+02 -0.60063216305E+01  0.31399713495E+02  0.00000000000E+00 0. -1.
</event>
<event>
 7    1  0.2851651E-013  0.7246168E+02  0.7816164E-02  0.1226708E+00
        -11   -1    0    0    0    0  0.00000000000E+00  0.00000000000E+00  0.45593999997E+02  0.45594000000E+02  0.51100000000E-03 0.  1.
         11   -1    0    0    0    0 -0.00000000000E+00 -0.00000000000E+00 -0.45593999997E+02  0.45594000000E+02  0.51100000000E-03 0. -1.
    9900012    2    1    2    0    0  0.14192079553E+02 -0.12153128329E+02  0.12495384880E+01  0.72461681711E+02  0.70000145141E+02 0.  0.
        -12    1    1    2    0    0 -0.14192079553E+02  0.12153128329E+02 -0.12495384880E+01  0.18726318289E+02  0.00000000000E+00 0.  1.
         11    1    3    3    0    0 -0.14029446119E+02 -0.79806484362E+01 -0.34966533445E+01  0.16514923334E+02  0.51100000000E-03 0. -1.
        -11    1    3    3    0    0  0.11618830070E+02 -0.48554721563E+01 -0.21480286877E+02  0.24899308156E+02  0.51100000000E-03 0.  1.
        -12    1    3    3    0    0  0.16602695602E+02  0.68299226353E+00  0.26226478710E+02  0.31047450221E+02  0.00000000000E+00 0.  1.
</event>
<event>
 7    1  0.2851651E-013  0.7246153E+02  0.7816164E-02  0.1226708E+00
        -11   -1    0    0    0    0  0.00000000000E+00  0.00000000000E+00  0.45593999997E+02  0.45594000000E+02  0.51100000000E-03 0.  1.
         11   -1    0    0    0    0 -0.00000000000E+00 -0.00000000000E+00 -0.45593999997E+02  0.45594000000E+02  0.51100000000E-03 0. -1.
    9900012    2    1    2    0    0 -0.15566139342E+02 -0.98644454576E+01  0.33269469012E+01  0.72461533331E+02  0.69999951849E+02 0.  0.
        -12    1    1    2    0    0  0.15566139342E+02  0.98644454576E+01 -0.33269469012E+01  0.18726466669E+02  0.00000000000E+00 0.  1.
         11    1    3    3    0    0  0.92205742570E+01 -0.11921159862E+02  0.15988539607E+01  0.15155506469E+02  0.51100000000E-03 0. -1.
        -11    1    3    3    0    0  0.11369129839E+02 -0.10156255601E+02  0.10032813751E+02  0.18250040908E+02  0.51100000000E-03 0.  1.
         12    1    3    3    0    0 -0.36155843439E+02  0.12212970005E+02 -0.83047208100E+01  0.39055985954E+02  0.00000000000E+00 0. -1.
</event>
<event>
 7    1  0.2851651E-013  0.7246139E+02  0.7816164E-02  0.1226709E+00
        -11   -1    0    0    0    0  0.00000000000E+00  0.00000000000E+00  0.45593999997E+02  0.45594000000E+02  0.51100000000E-03 0.  1.
         11   -1    0    0    0    0 -0.00000000000E+00 -0.00000000000E+00 -0.45593999997E+02  0.45594000000E+02  0.51100000000E-03 0. -1.
    9900012    2    1    2    0    0 -0.12099275292E+02  0.13859181441E+02 -0.34952417476E+01  0.72461385578E+02  0.69999759373E+02 0.  0.
        -12    1    1    2    0    0  0.12099275292E+02 -0.13859181441E+02  0.34952417476E+01  0.18726614422E+02  0.00000000000E+00 0.  1.
         11    1    3    3    0    0  0.27031376940E+01  0.13495969428E+02 -0.17053042688E+02  0.21914707604E+02  0.51100000000E-03 0. -1.
        -11    1    3    3    0    0 -0.23432566892E+00  0.11356369936E+02 -0.13666768062E+02  0.17770835551E+02  0.51100000000E-03 0.  1.
        -12    1    3    3    0    0 -0.14568087318E+02 -0.10993157923E+02  0.27224569002E+02  0.32775842423E+02  0.00000000000E+00 0.  1.
</event>
<event>
 7    1  0.2851651E-013  0.7246156E+02  0.7816164E-02  0.1226708E+00
        -11   -1    0    0    0    0  0.00000000000E+00  0.00000000000E+00  0.45593999997E+02  0.45594000000E+02  0.51100000000E-03 0. -1.
         11   -1    0    0    0    0 -0.00000000000E+00 -0.00000000000E+00 -0.45593999997E+02  0.45594000000E+02  0.51100000000E-03 0.  1.
    9900012    2    1    2    0    0  0.80410540852E+01  0.13771098271E+02  0.98172294791E+01  0.72461556316E+02  0.69999981791E+02 0.  0.
        -12    1    1    2    0    0 -0.80410540852E+01 -0.13771098271E+02 -0.98172294791E+01  0.18726443684E+02  0.00000000000E+00 0.  1.
         11    1    3    3    0    0  0.76539797890E+01 -0.25427081377E+02 -0.86408529736E+00  0.26568148554E+02  0.51100000000E-03 0. -1.
        -11    1    3    3    0    0  0.51688812643E+01  0.29055151552E+01  0.68916595457E+01  0.90914423166E+01  0.51100000000E-03 0.  1.
        -12    1    3    3    0    0 -0.47818069680E+01  0.36292664493E+02  0.37896552307E+01  0.36801965445E+02  0.00000000000E+00 0.  1.
</event>
<event>
 7    1  0.2851651E-013  0.7246150E+02  0.7816164E-02  0.1226708E+00
        -11   -1    0    0    0    0  0.00000000000E+00  0.00000000000E+00  0.45593999997E+02  0.45594000000E+02  0.51100000000E-03 0.  1.
         11   -1    0    0    0    0 -0.00000000000E+00 -0.00000000000E+00 -0.45593999997E+02  0.45594000000E+02  0.51100000000E-03 0. -1.
    9900012    2    1    2    0    0 -0.47930179404E+01 -0.15358869142E+02 -0.95819672770E+01  0.72461495275E+02  0.69999902274E+02 0.  0.
        -12    1    1    2    0    0  0.47930179404E+01  0.15358869142E+02  0.95819672770E+01  0.18726504725E+02  0.00000000000E+00 0.  1.
         11    1    3    3    0    0  0.15752265934E+02 -0.23294978309E+01 -0.84431189085E+01  0.18023504081E+02  0.51100000000E-03 0. -1.
        -11    1    3    3    0    0  0.90767664743E+01  0.10357032582E+02  0.75560571980E+01  0.15708272157E+02  0.51100000000E-03 0.  1.
         12    1    3    3    0    0 -0.29622050349E+02 -0.23386403893E+02 -0.86949055666E+01  0.38729719037E+02  0.00000000000E+00 0. -1.
</event>
<event>
 7    1  0.2851651E-013  0.7246156E+02  0.7816164E-02  0.1226708E+00
        -11   -1    0    0    0    0  0.00000000000E+00  0.00000000000E+00  0.45593999997E+02  0.45594000000E+02  0.51100000000E-03 0.  1.
         11   -1    0    0    0    0 -0.00000000000E+00 -0.00000000000E+00 -0.45593999997E+02  0.45594000000E+02  0.51100000000E-03 0. -1.
    9900012    2    1    2    0    0  0.49313104601E+01 -0.12097254775E+02 -0.13417083093E+02  0.72461561079E+02  0.69999987995E+02 0.  0.
        -12    1    1    2    0    0 -0.49313104601E+01  0.12097254775E+02  0.13417083093E+02  0.18726438921E+02  0.00000000000E+00 0.  1.
         11    1    3    3    0    0 -0.13536034571E+02 -0.30961929181E+02 -0.82224712463E+00  0.33801499688E+02  0.51100000000E-03 0. -1.
        -11    1    3    3    0    0 -0.52808655993E+01  0.81453272471E+01  0.29397417390E-01  0.97074590862E+01  0.51100000000E-03 0.  1.
        -12    1    3    3    0    0  0.23748210631E+02  0.10719347159E+02 -0.12624233385E+02  0.28952602305E+02  0.00000000000E+00 0.  1.
</event>
<event>
 7    1  0.2851651E-013  0.7246157E+02  0.7816164E-02  0.1226708E+00
        -11   -1    0    0    0    0  0.00000000000E+00  0.00000000000E+00  0.45593999997E+02  0.45594000000E+02  0.51100000000E-03 0.  1.
         11   -1    0    0    0    0 -0.00000000000E+00 -0.00000000000E+00 -0.45593999997E+02  0.45594000000E+02  0.51100000000E-03 0. -1.
    9900012    2    1    2    0    0 -0.63190487102E+01 -0.37090461047E+01 -0.17233446900E+02  0.72461572373E+02  0.70000002708E+02 0.  0.
        -12    1    1    2    0    0  0.63190487102E+01  0.37090461047E+01  0.17233446900E+02  0.18726427627E+02  0.00000000000E+00 0.  1.
         11    1    3    3    0    0 -0.66544734411E+01 -0.12951458830E+02 -0.10958873844E+02  0.18224138355E+02  0.51100000000E-03 0. -1.
        -11    1    3    3    0    0 -0.25241301652E+02 -0.18613029352E+01 -0.72809385202E+01  0.26336283407E+02  0.51100000000E-03 0.  1.
         12    1    3    3    0    0  0.25576726383E+02  0.11103715660E+02  0.10063654645E+01  0.27901150611E+02  0.00000000000E+00 0. -1.
</event>
<event>
 7    1  0.2851651E-013  0.7246204E+02  0.7816164E-02  0.1226707E+00
        -11   -1    0    0    0    0  0.00000000000E+00  0.00000000000E+00  0.45593999997E+02  0.45594000000E+02  0.51100000000E-03 0.  1.
         11   -1    0    0    0    0 -0.00000000000E+00 -0.00000000000E+00 -0.45593999997E+02  0.45594000000E+02  0.51100000000E-03 0. -1.
    9900012    2    1    2    0    0  0.17526230853E+02  0.10238119130E+01 -0.65149491072E+01  0.72462041531E+02  0.70000613870E+02 0.  0.
        -12    1    1    2    0    0 -0.17526230853E+02 -0.10238119130E+01  0.65149491072E+01  0.18725958469E+02  0.00000000000E+00 0.  1.
         11    1    3    3    0    0  0.15674793076E+02  0.19116315066E+02 -0.24592789350E+02  0.34870301518E+02  0.51100000000E-03 0. -1.
        -11    1    3    3    0    0 -0.18064661114E+01 -0.63763521146E+01 -0.70195801097E+01  0.96537915493E+01  0.51100000000E-03 0.  1.
         12    1    3    3    0    0  0.36579038883E+01 -0.11716151039E+02  0.25097420352E+02  0.27937948463E+02  0.00000000000E+00 0. -1.
</event>
<event>
 7    1  0.2851651E-013  0.7246111E+02  0.7816164E-02  0.1226709E+00
        -11   -1    0    0    0    0  0.00000000000E+00  0.00000000000E+00  0.45593999997E+02  0.45594000000E+02  0.51100000000E-03 0. -1.
         11   -1    0    0    0    0 -0.00000000000E+00 -0.00000000000E+00 -0.45593999997E+02  0.45594000000E+02  0.51100000000E-03 0.  1.
    9900012    2    1    2    0    0  0.58387135870E+01  0.71570440789E+01  0.16290570327E+02  0.72461106561E+02  0.69999395899E+02 0.  0.
        -12    1    1    2    0    0 -0.58387135870E+01 -0.71570440789E+01 -0.16290570327E+02  0.18726893439E+02  0.00000000000E+00 0.  1.
         11    1    3    3    0    0 -0.22754323731E+01 -0.21857645486E+02  0.81500169401E+01  0.23438366732E+02  0.51100000000E-03 0. -1.
        -11    1    3    3    0    0  0.21362606986E+01 -0.91742802221E+01 -0.43172480658E+00  0.94296030635E+01  0.51100000000E-03 0.  1.
        -12    1    3    3    0    0  0.59778852616E+01  0.38188969787E+02  0.85722781931E+01  0.39593136766E+02  0.00000000000E+00 0.  1.
</event>
<event>
 7    1  0.2851651E-013  0.7246153E+02  0.7816164E-02  0.1226708E+00
        -11   -1    0    0    0    0  0.00000000000E+00  0.00000000000E+00  0.45593999997E+02  0.45594000000E+02  0.51100000000E-03 0.  1.
         11   -1    0    0    0    0 -0.00000000000E+00 -0.00000000000E+00 -0.45593999997E+02  0.45594000000E+02  0.51100000000E-03 0. -1.
    9900012    2    1    2    0    0  0.16413611981E+02  0.67545486411E+01 -0.59707597260E+01  0.72461533240E+02  0.69999951730E+02 0.  0.
        -12    1    1    2    0    0 -0.16413611981E+02 -0.67545486411E+01  0.59707597260E+01  0.18726466760E+02  0.00000000000E+00 0.  1.
         11    1    3    3    0    0 -0.22839954328E+02 -0.64994224783E+01 -0.10737814020E+02  0.26061593513E+02  0.51100000000E-03 0. -1.
        -11    1    3    3    0    0  0.48433734274E+01 -0.50726889124E+01 -0.63027663929E+00  0.70418525874E+01  0.51100000000E-03 0.  1.
        -12    1    3    3    0    0  0.34410192882E+02  0.18326660032E+02  0.53973309329E+01  0.39358087139E+02  0.00000000000E+00 0.  1.
</event>
<event>
 7    1  0.2851651E-013  0.7246157E+02  0.7816164E-02  0.1226708E+00
        -11   -1    0    0    0    0  0.00000000000E+00  0.00000000000E+00  0.45593999997E+02  0.45594000000E+02  0.51100000000E-03 0.  1.
         11   -1    0    0    0    0 -0.00000000000E+00 -0.00000000000E+00 -0.45593999997E+02  0.45594000000E+02  0.51100000000E-03 0. -1.
    9900012    2    1    2    0    0  0.10246700668E+02 -0.23526779777E+01 -0.15496746207E+02  0.72461571850E+02  0.70000002026E+02 0.  0.
        -12    1    1    2    0    0 -0.10246700668E+02  0.23526779777E+01  0.15496746207E+02  0.18726428150E+02  0.00000000000E+00 0.  1.
         11    1    3    3    0    0  0.55177978579E+01  0.84416996333E+01  0.12835932531E+02  0.16323895065E+02  0.51100000000E-03 0. -1.
        -11    1    3    3    0    0 -0.79086551788E+01  0.24066134585E+01  0.10414757330E+02  0.13296833667E+02  0.51100000000E-03 0.  1.
         12    1    3    3    0    0  0.12637557989E+02 -0.13200991069E+02 -0.38747436068E+02  0.42840843117E+02  0.00000000000E+00 0. -1.
</event>
<event>
 7    1  0.2851651E-013  0.7246156E+02  0.7816164E-02  0.1226708E+00
        -11   -1    0    0    0    0  0.00000000000E+00  0.00000000000E+00  0.45593999997E+02  0.45594000000E+02  0.51100000000E-03 0. -1.
         11   -1    0    0    0    0 -0.00000000000E+00 -0.00000000000E+00 -0.45593999997E+02  0.45594000000E+02  0.51100000000E-03 0.  1.
    9900012    2    1    2    0    0 -0.54640872684E+01 -0.17338292013E+02  0.44952312894E+01  0.72461555491E+02  0.69999980716E+02 0.  0.
        -12    1    1    2    0    0  0.54640872684E+01  0.17338292013E+02 -0.44952312894E+01  0.18726444509E+02  0.00000000000E+00 0.  1.
         11    1    3    3    0    0 -0.15511366580E+02 -0.83549124615E+01 -0.25668746821E+01  0.17804378712E+02  0.51100000000E-03 0. -1.
        -11    1    3    3    0    0  0.22877281062E+02  0.11965663739E+02  0.13676912469E+02  0.29216519856E+02  0.51100000000E-03 0.  1.
         12    1    3    3    0    0 -0.12830001751E+02 -0.20949043290E+02 -0.66148064977E+01  0.25440656924E+02  0.00000000000E+00 0. -1.
</event>
<event>
 7    1  0.2851651E-013  0.7246158E+02  0.7816164E-02  0.1226708E+00
        -11   -1    0    0    0    0  0.00000000000E+00  0.00000000000E+00  0.45593999997E+02  0.45594000000E+02  0.51100000000E-03 0.  1.
         11   -1    0    0    0    0 -0.00000000000E+00 -0.00000000000E+00 -0.45593999997E+02  0.45594000000E+02  0.51100000000E-03 0. -1.
    9900012    2    1    2    0    0 -0.16812568846E+02 -0.55396321185E+01  0.61097370133E+01  0.72461577982E+02  0.70000010015E+02 0.  0.
        -12    1    1    2    0    0  0.16812568846E+02  0.55396321185E+01 -0.61097370133E+01  0.18726422018E+02  0.00000000000E+00 0.  1.
         11    1    3    3    0    0  0.14058529741E+02 -0.22931793897E+01 -0.18973486030E+02  0.23725389409E+02  0.51100000000E-03 0. -1.
        -11    1    3    3    0    0 -0.61868610738E+01 -0.98396795915E+01 -0.16702896033E+01  0.11742504504E+02  0.51100000000E-03 0.  1.
        -12    1    3    3    0    0 -0.24684237514E+02  0.65932268628E+01  0.26753512647E+02  0.36993684069E+02  0.00000000000E+00 0.  1.
</event>
<event>
 7    1  0.2851651E-013  0.7246151E+02  0.7816164E-02  0.1226708E+00
        -11   -1    0    0    0    0  0.00000000000E+00  0.00000000000E+00  0.45593999997E+02  0.45594000000E+02  0.51100000000E-03 0. -1.
         11   -1    0    0    0    0 -0.00000000000E+00 -0.00000000000E+00 -0.45593999997E+02  0.45594000000E+02  0.51100000000E-03 0.  1.
    9900012    2    1    2    0    0  0.16925157873E+02 -0.79689362596E+01  0.84648041123E+00  0.72461509586E+02  0.69999920916E+02 0.  0.
        -12    1    1    2    0    0 -0.16925157873E+02  0.79689362596E+01 -0.84648041123E+00  0.18726490414E+02  0.00000000000E+00 0.  1.
         11    1    3    3    0    0 -0.24715031790E+02 -0.21021114217E+01 -0.12521715459E+00  0.24804583214E+02  0.51100000000E-03 0. -1.
        -11    1    3    3    0    0  0.14295726214E+02  0.83982100728E+01 -0.18671516289E+01  0.16684842698E+02  0.51100000000E-03 0.  1.
        -12    1    3    3    0    0  0.27344463449E+02 -0.14265034911E+02  0.28388491947E+01  0.30972083674E+02  0.00000000000E+00 0.  1.
</event>
<event>
 7    1  0.2851651E-013  0.7246160E+02  0.7816164E-02  0.1226708E+00
        -11   -1    0    0    0    0  0.00000000000E+00  0.00000000000E+00  0.45593999997E+02  0.45594000000E+02  0.51100000000E-03 0.  1.
         11   -1    0    0    0    0 -0.00000000000E+00 -0.00000000000E+00 -0.45593999997E+02  0.45594000000E+02  0.51100000000E-03 0. -1.
    9900012    2    1    2    0    0 -0.11524837372E+02  0.14294514512E+02  0.36773583178E+01  0.72461601901E+02  0.70000041173E+02 0.  0.
        -12    1    1    2    0    0  0.11524837372E+02 -0.14294514512E+02 -0.36773583178E+01  0.18726398099E+02  0.00000000000E+00 0.  1.
         11    1    3    3    0    0 -0.70727600071E+01  0.11628084073E+02  0.28355950108E+02  0.31453079024E+02  0.51100000000E-03 0. -1.
        -11    1    3    3    0    0 -0.24972215110E+01 -0.98769100652E+01  0.29472823621E+01  0.10605467519E+02  0.51100000000E-03 0.  1.
         12    1    3    3    0    0 -0.19548558537E+01  0.12543340504E+02 -0.27625874152E+02  0.30403055358E+02  0.00000000000E+00 0. -1.
</event>
<event>
 7    1  0.2851651E-013  0.7246159E+02  0.7816164E-02  0.1226708E+00
        -11   -1    0    0    0    0  0.00000000000E+00  0.00000000000E+00  0.45593999997E+02  0.45594000000E+02  0.51100000000E-03 0. -1.
         11   -1    0    0    0    0 -0.00000000000E+00 -0.00000000000E+00 -0.45593999997E+02  0.45594000000E+02  0.51100000000E-03 0.  1.
    9900012    2    1    2    0    0 -0.17458523643E+01 -0.18245508864E+02  0.38382192868E+01  0.72461587598E+02  0.70000022541E+02 0.  0.
        -12    1    1    2    0    0  0.17458523643E+01  0.18245508864E+02 -0.38382192868E+01  0.18726412402E+02  0.00000000000E+00 0.  1.
         11    1    3    3    0    0 -0.21852341836E+02 -0.22428947326E+02  0.38018651089E+01  0.31544202327E+02  0.51100000000E-03 0. -1.
        -11    1    3    3    0    0  0.23517437704E+00  0.14142557771E+02  0.92021064460E+01  0.16874418823E+02  0.51100000000E-03 0.  1.
        -12    1    3    3    0    0  0.19871315094E+02 -0.99591193088E+01 -0.91657522681E+01  0.24042966448E+02  0.00000000000E+00 0.  1.
</event>
<event>
 7    1  0.2851651E-013  0.7246118E+02  0.7816164E-02  0.1226709E+00
        -11   -1    0    0    0    0  0.00000000000E+00  0.00000000000E+00  0.45593999997E+02  0.45594000000E+02  0.51100000000E-03 0. -1.
         11   -1    0    0    0    0 -0.00000000000E+00 -0.00000000000E+00 -0.45593999997E+02  0.45594000000E+02  0.51100000000E-03 0.  1.
    9900012    2    1    2    0    0 -0.17674884403E+02  0.61863297204E+01 -0.14701525123E+00  0.72461178925E+02  0.69999490167E+02 0.  0.
        -12    1    1    2    0    0  0.17674884403E+02 -0.61863297204E+01  0.14701525123E+00  0.18726821075E+02  0.00000000000E+00 0.  1.
         11    1    3    3    0    0  0.12992314460E+02 -0.15419646865E+01  0.21740407760E+02  0.25373671787E+02  0.51100000000E-03 0. -1.
        -11    1    3    3    0    0  0.39481375585E+01  0.58072524593E+01 -0.35950972315E+01  0.78890237465E+01  0.51100000000E-03 0.  1.
        -12    1    3    3    0    0 -0.34615336422E+02  0.19210419476E+01 -0.18292325780E+02  0.39198483392E+02  0.00000000000E+00 0.  1.
</event>
<event>
 7    1  0.2851651E-013  0.7246156E+02  0.7816164E-02  0.1226708E+00
        -11   -1    0    0    0    0  0.00000000000E+00  0.00000000000E+00  0.45593999997E+02  0.45594000000E+02  0.51100000000E-03 0.  1.
         11   -1    0    0    0    0 -0.00000000000E+00 -0.00000000000E+00 -0.45593999997E+02  0.45594000000E+02  0.51100000000E-03 0. -1.
    9900012    2    1    2    0    0  0.34162123681E+01 -0.15080159919E+02 -0.10563994002E+02  0.72461556146E+02  0.69999981569E+02 0.  0.
        -12    1    1    2    0    0 -0.34162123681E+01  0.15080159919E+02  0.10563994002E+02  0.18726443854E+02  0.00000000000E+00 0.  1.
         11    1    3    3    0    0  0.63797894739E+01 -0.74324006748E+01  0.10484605577E+02  0.14348144406E+02  0.51100000000E-03 0. -1.
        -11    1    3    3    0    0  0.14001192500E+01 -0.67832992268E+01  0.17753697393E+02  0.19056947649E+02  0.51100000000E-03 0.  1.
         12    1    3    3    0    0 -0.43636963558E+01 -0.86446001787E+00 -0.38802296972E+02  0.39056464091E+02  0.00000000000E+00 0. -1.
</event>
<event>
 7    1  0.2851651E-013  0.7246157E+02  0.7816164E-02  0.1226708E+00
        -11   -1    0    0    0    0  0.00000000000E+00  0.00000000000E+00  0.45593999997E+02  0.45594000000E+02  0.51100000000E-03 0.  1.
         11   -1    0    0    0    0 -0.00000000000E+00 -0.00000000000E+00 -0.45593999997E+02  0.45594000000E+02  0.51100000000E-03 0. -1.
    9900012    2    1    2    0    0  0.13787770354E+02 -0.74493102052E+00 -0.12649960143E+02  0.72461574148E+02  0.70000005020E+02 0.  0.
        -12    1    1    2    0    0 -0.13787770354E+02  0.74493102052E+00  0.12649960143E+02  0.18726425852E+02  0.00000000000E+00 0.  1.
         11    1    3    3    0    0  0.10133595178E+02  0.97502497028E+01 -0.25903018810E+02  0.29474115834E+02  0.51100000000E-03 0. -1.
        -11    1    3    3    0    0 -0.46817742022E+01  0.88426187678E+01 -0.81925018941E+01  0.12931666710E+02  0.51100000000E-03 0.  1.
        -12    1    3    3    0    0  0.83359493784E+01 -0.19337799491E+02  0.21445560560E+02  0.30055791604E+02  0.00000000000E+00 0.  1.
</event>
<event>
 7    1  0.2851651E-013  0.7246157E+02  0.7816164E-02  0.1226708E+00
        -11   -1    0    0    0    0  0.00000000000E+00  0.00000000000E+00  0.45593999997E+02  0.45594000000E+02  0.51100000000E-03 0. -1.
         11   -1    0    0    0    0 -0.00000000000E+00 -0.00000000000E+00 -0.45593999997E+02  0.45594000000E+02  0.51100000000E-03 0.  1.
    9900012    2    1    2    0    0  0.13992010492E+02  0.18801163969E+01  0.12303174885E+02  0.72461566610E+02  0.69999995200E+02 0.  0.
        -12    1    1    2    0    0 -0.13992010492E+02 -0.18801163969E+01 -0.12303174885E+02  0.18726433390E+02  0.00000000000E+00 0.  1.
         11    1    3    3    0    0 -0.26611752155E+01 -0.51733631774E+01  0.35503752397E+01  0.68154753830E+01  0.51100000000E-03 0. -1.
        -11    1    3    3    0    0 -0.19818793226E+01 -0.22714883271E+02 -0.11039281194E+02  0.25332972530E+02  0.51100000000E-03 0.  1.
         12    1    3    3    0    0  0.18635065030E+02  0.29768362845E+02  0.19792080839E+02  0.40313118697E+02  0.00000000000E+00 0. -1.
</event>
<event>
 7    1  0.2851651E-013  0.7246160E+02  0.7816164E-02  0.1226708E+00
        -11   -1    0    0    0    0  0.00000000000E+00  0.00000000000E+00  0.45593999997E+02  0.45594000000E+02  0.51100000000E-03 0. -1.
         11   -1    0    0    0    0 -0.00000000000E+00 -0.00000000000E+00 -0.45593999997E+02  0.45594000000E+02  0.51100000000E-03 0.  1.
    9900012    2    1    2    0    0  0.27568075071E+01 -0.59814607167E+01  0.17529979465E+02  0.72461600453E+02  0.70000039288E+02 0.  0.
        -12    1    1    2    0    0 -0.27568075071E+01  0.59814607167E+01 -0.17529979465E+02  0.18726399547E+02  0.00000000000E+00 0.  1.
         11    1    3    3    0    0 -0.19765233833E+02  0.17122761289E+02  0.12831381961E+02  0.29128985323E+02  0.51100000000E-03 0. -1.
        -11    1    3    3    0    0  0.36722836160E+01 -0.89326134403E+01 -0.11277461893E+02  0.14847841488E+02  0.51100000000E-03 0.  1.
        -12    1    3    3    0    0  0.18849757725E+02 -0.14171608566E+02  0.15976059397E+02  0.28484773643E+02  0.00000000000E+00 0.  1.
</event>
<event>
 7    1  0.2851651E-013  0.7246158E+02  0.7816164E-02  0.1226708E+00
        -11   -1    0    0    0    0  0.00000000000E+00  0.00000000000E+00  0.45593999997E+02  0.45594000000E+02  0.51100000000E-03 0.  1.
         11   -1    0    0    0    0 -0.00000000000E+00 -0.00000000000E+00 -0.45593999997E+02  0.45594000000E+02  0.51100000000E-03 0. -1.
    9900012    2    1    2    0    0 -0.30537449512E+00 -0.16020154822E+02 -0.96922714574E+01  0.72461581760E+02  0.70000014936E+02 0.  0.
        -12    1    1    2    0    0  0.30537449512E+00  0.16020154822E+02  0.96922714574E+01  0.18726418240E+02  0.00000000000E+00 0.  1.
         11    1    3    3    0    0 -0.10335668925E+01 -0.11959190496E+02  0.99894698715E+01  0.15616657978E+02  0.51100000000E-03 0. -1.
        -11    1    3    3    0    0 -0.14647626954E+02  0.66902789820E+01  0.11960149125E+02  0.20058862769E+02  0.51100000000E-03 0.  1.
         12    1    3    3    0    0  0.15375819351E+02 -0.10751243308E+02 -0.31641890454E+02  0.36786061013E+02  0.00000000000E+00 0. -1.
</event>
<event>
 7    1  0.2851651E-013  0.7246158E+02  0.7816164E-02  0.1226708E+00
        -11   -1    0    0    0    0  0.00000000000E+00  0.00000000000E+00  0.45593999997E+02  0.45594000000E+02  0.51100000000E-03 0.  1.
         11   -1    0    0    0    0 -0.00000000000E+00 -0.00000000000E+00 -0.45593999997E+02  0.45594000000E+02  0.51100000000E-03 0. -1.
    9900012    2    1    2    0    0  0.78308422436E+01  0.77541026824E+01 -0.15140369246E+02  0.72461575367E+02  0.70000006608E+02 0.  0.
        -12    1    1    2    0    0 -0.78308422436E+01 -0.77541026824E+01  0.15140369246E+02  0.18726424633E+02  0.00000000000E+00 0.  1.
         11    1    3    3    0    0 -0.36739782723E+01 -0.37123682814E+01 -0.18872029300E+01  0.55534970750E+01  0.51100000000E-03 0. -1.
        -11    1    3    3    0    0 -0.24848044805E+02 -0.50388277035E+01 -0.82990464990E+01  0.26677505287E+02  0.51100000000E-03 0.  1.
         12    1    3    3    0    0  0.36352865321E+02  0.16505298667E+02 -0.49541198165E+01  0.40230573005E+02  0.00000000000E+00 0. -1.
</event>
<event>
 7    1  0.2851651E-013  0.7246158E+02  0.7816164E-02  0.1226708E+00
        -11   -1    0    0    0    0  0.00000000000E+00  0.00000000000E+00  0.45593999997E+02  0.45594000000E+02  0.51100000000E-03 0. -1.
         11   -1    0    0    0    0 -0.00000000000E+00 -0.00000000000E+00 -0.45593999997E+02  0.45594000000E+02  0.51100000000E-03 0.  1.
    9900012    2    1    2    0    0 -0.70480562958E+01  0.77611015382E+01  0.15516727819E+02  0.72461584517E+02  0.70000018528E+02 0.  0.
        -12    1    1    2    0    0  0.70480562958E+01 -0.77611015382E+01 -0.15516727819E+02  0.18726415483E+02  0.00000000000E+00 0.  1.
         11    1    3    3    0    0 -0.14521235162E+02  0.12242815604E+02  0.14512254772E+02  0.23903103216E+02  0.51100000000E-03 0. -1.
        -11    1    3    3    0    0  0.46896770901E+01  0.19896330379E+02  0.95688085067E+01  0.22570315245E+02  0.51100000000E-03 0.  1.
         12    1    3    3    0    0  0.27835017765E+01 -0.24378044444E+02 -0.85643354602E+01  0.25988166056E+02  0.00000000000E+00 0. -1.
</event>
<event>
 7    1  0.2851651E-013  0.7246158E+02  0.7816164E-02  0.1226708E+00
        -11   -1    0    0    0    0  0.00000000000E+00  0.00000000000E+00  0.45593999997E+02  0.45594000000E+02  0.51100000000E-03 0.  1.
         11   -1    0    0    0    0 -0.00000000000E+00 -0.00000000000E+00 -0.45593999997E+02  0.45594000000E+02  0.51100000000E-03 0. -1.
    9900012    2    1    2    0    0 -0.11868830273E+01  0.44878246398E+00 -0.18683385000E+02  0.72461575566E+02  0.70000006867E+02 0.  0.
        -12    1    1    2    0    0  0.11868830273E+01 -0.44878246398E+00  0.18683385000E+02  0.18726424434E+02  0.00000000000E+00 0.  1.
         11    1    3    3    0    0  0.53345571562E+00 -0.15117725009E+02 -0.11241479698E+02  0.18846778253E+02  0.51100000000E-03 0. -1.
        -11    1    3    3    0    0 -0.26177569241E+01 -0.14225593311E+02  0.11344601008E+02  0.18382603968E+02  0.51100000000E-03 0.  1.
         12    1    3    3    0    0  0.89741818127E+00  0.29792100784E+02 -0.18786506310E+02  0.35232193344E+02  0.00000000000E+00 0. -1.
</event>
<event>
 7    1  0.2851651E-013  0.7246151E+02  0.7816164E-02  0.1226708E+00
        -11   -1    0    0    0    0  0.00000000000E+00  0.00000000000E+00  0.45593999997E+02  0.45594000000E+02  0.51100000000E-03 0. -1.
         11   -1    0    0    0    0 -0.00000000000E+00 -0.00000000000E+00 -0.45593999997E+02  0.45594000000E+02  0.51100000000E-03 0.  1.
    9900012    2    1    2    0    0  0.42299258670E-01 -0.10444127607E+02 -0.15543485812E+02  0.72461506952E+02  0.69999917484E+02 0.  0.
        -12    1    1    2    0    0 -0.42299258670E-01  0.10444127607E+02  0.15543485812E+02  0.18726493048E+02  0.00000000000E+00 0.  1.
         11    1    3    3    0    0  0.11023667367E+01  0.10254074356E+02 -0.83869426682E+01  0.13292932743E+02  0.51100000000E-03 0. -1.
        -11    1    3    3    0    0 -0.91548525448E+01  0.13835267921E+02 -0.15529448918E+02  0.22724210603E+02  0.51100000000E-03 0.  1.
         12    1    3    3    0    0  0.80947850668E+01 -0.34533469884E+02  0.83729057744E+01  0.36444363606E+02  0.00000000000E+00 0. -1.
</event>
<event>
 7    1  0.2851651E-013  0.7246162E+02  0.7816164E-02  0.1226708E+00
        -11   -1    0    0    0    0  0.00000000000E+00  0.00000000000E+00  0.45593999997E+02  0.45594000000E+02  0.51100000000E-03 0. -1.
         11   -1    0    0    0    0 -0.00000000000E+00 -0.00000000000E+00 -0.45593999997E+02  0.45594000000E+02  0.51100000000E-03 0.  1.
    9900012    2    1    2    0    0  0.74813002296E+01  0.16606244299E+02 -0.43520120335E+01  0.72461622572E+02  0.70000068102E+02 0.  0.
        -12    1    1    2    0    0 -0.74813002296E+01 -0.16606244299E+02  0.43520120335E+01  0.18726377428E+02  0.00000000000E+00 0.  1.
         11    1    3    3    0    0 -0.27492747298E+01  0.67185111358E+01  0.13493393537E+02  0.15322159535E+02  0.51100000000E-03 0. -1.
        -11    1    3    3    0    0  0.21277755826E+01 -0.14868584676E+02  0.10740699117E+02  0.18465233738E+02  0.51100000000E-03 0.  1.
        -12    1    3    3    0    0  0.81027993768E+01  0.24756317839E+02 -0.28586104687E+02  0.38674229299E+02  0.00000000000E+00 0.  1.
</event>
<event>
 7    1  0.2851651E-013  0.7246157E+02  0.7816164E-02  0.1226708E+00
        -11   -1    0    0    0    0  0.00000000000E+00  0.00000000000E+00  0.45593999997E+02  0.45594000000E+02  0.51100000000E-03 0.  1.
         11   -1    0    0    0    0 -0.00000000000E+00 -0.00000000000E+00 -0.45593999997E+02  0.45594000000E+02  0.51100000000E-03 0. -1.
    9900012    2    1    2    0    0  0.35706178634E+01 -0.10198049180E+02 -0.15294764867E+02  0.72461565440E+02  0.69999993676E+02 0.  0.
        -12    1    1    2    0    0 -0.35706178634E+01  0.10198049180E+02  0.15294764867E+02  0.18726434560E+02  0.00000000000E+00 0.  1.
         11    1    3    3    0    0 -0.18930645949E+01 -0.20832498879E+02 -0.24026849715E+02  0.31856964868E+02  0.51100000000E-03 0. -1.
        -11    1    3    3    0    0 -0.50254011927E+01  0.18075266537E+02 -0.72305662218E+01  0.20105994272E+02  0.51100000000E-03 0.  1.
         12    1    3    3    0    0  0.10489083651E+02 -0.74408168383E+01  0.15962651070E+02  0.20498606300E+02  0.00000000000E+00 0. -1.
</event>
<event>
 7    1  0.2851651E-013  0.7246158E+02  0.7816164E-02  0.1226708E+00
        -11   -1    0    0    0    0  0.00000000000E+00  0.00000000000E+00  0.45593999997E+02  0.45594000000E+02  0.51100000000E-03 0.  1.
         11   -1    0    0    0    0 -0.00000000000E+00 -0.00000000000E+00 -0.45593999997E+02  0.45594000000E+02  0.51100000000E-03 0. -1.
    9900012    2    1    2    0    0 -0.17545400734E+02  0.17541663098E+01 -0.63056147896E+01  0.72461575776E+02  0.70000007140E+02 0.  0.
        -12    1    1    2    0    0  0.17545400734E+02 -0.17541663098E+01  0.63056147896E+01  0.18726424224E+02  0.00000000000E+00 0.  1.
         11    1    3    3    0    0 -0.11343347377E+02 -0.10670891681E+02 -0.87196456072E+01  0.17848576379E+02  0.51100000000E-03 0. -1.
        -11    1    3    3    0    0  0.99344489494E+01 -0.11573105518E+02 -0.14555471837E+02  0.21082974361E+02  0.51100000000E-03 0.  1.
        -12    1    3    3    0    0 -0.16136502306E+02  0.23998163510E+02  0.16969502654E+02  0.33530025035E+02  0.00000000000E+00 0.  1.
</event>
<event>
 7    1  0.2851651E-013  0.7246156E+02  0.7816164E-02  0.1226708E+00
        -11   -1    0    0    0    0  0.00000000000E+00  0.00000000000E+00  0.45593999997E+02  0.45594000000E+02  0.51100000000E-03 0. -1.
         11   -1    0    0    0    0 -0.00000000000E+00 -0.00000000000E+00 -0.45593999997E+02  0.45594000000E+02  0.51100000000E-03 0.  1.
    9900012    2    1    2    0    0  0.11452222192E+02 -0.91354714622E+01  0.11664877052E+02  0.72461559104E+02  0.69999985423E+02 0.  0.
        -12    1    1    2    0    0 -0.11452222192E+02  0.91354714622E+01 -0.11664877052E+02  0.18726440896E+02  0.00000000000E+00 0.  1.
         11    1    3    3    0    0  0.12749699620E+01 -0.29968589132E+02  0.79389968114E+01  0.31028528060E+02  0.51100000000E-03 0. -1.
        -11    1    3    3    0    0 -0.46259137617E+01 -0.62234050781E+01  0.69636351810E+01  0.10422190945E+02  0.51100000000E-03 0.  1.
        -12    1    3    3    0    0  0.14803165992E+02  0.27056522748E+02 -0.32377549403E+01  0.31010840099E+02  0.00000000000E+00 0.  1.
</event>
<event>
 7    1  0.2851651E-013  0.7246163E+02  0.7816164E-02  0.1226708E+00
        -11   -1    0    0    0    0  0.00000000000E+00  0.00000000000E+00  0.45593999997E+02  0.45594000000E+02  0.51100000000E-03 0. -1.
         11   -1    0    0    0    0 -0.00000000000E+00 -0.00000000000E+00 -0.45593999997E+02  0.45594000000E+02  0.51100000000E-03 0.  1.
    9900012    2    1    2    0    0  0.15282350293E+02 -0.92628940085E+01 -0.55969318797E+01  0.72461626022E+02  0.70000072596E+02 0.  0.
        -12    1    1    2    0    0 -0.15282350293E+02  0.92628940085E+01  0.55969318797E+01  0.18726373978E+02  0.00000000000E+00 0.  1.
         11    1    3    3    0    0 -0.48564238154E+01  0.23617200030E+02 -0.12551949346E+02  0.27182870014E+02  0.51100000000E-03 0. -1.
        -11    1    3    3    0    0  0.68001874766E+01 -0.84057403073E+00 -0.50977293319E+01  0.85402552082E+01  0.51100000000E-03 0.  1.
         12    1    3    3    0    0  0.13338586632E+02 -0.32039520008E+02  0.12052746798E+02  0.36738500800E+02  0.00000000000E+00 0. -1.
</event>
<event>
 7    1  0.2851651E-013  0.7246157E+02  0.7816164E-02  0.1226708E+00
        -11   -1    0    0    0    0  0.00000000000E+00  0.00000000000E+00  0.45593999997E+02  0.45594000000E+02  0.51100000000E-03 0. -1.
         11   -1    0    0    0    0 -0.00000000000E+00 -0.00000000000E+00 -0.45593999997E+02  0.45594000000E+02  0.51100000000E-03 0.  1.
    9900012    2    1    2    0    0 -0.37964192758E+01 -0.15340475007E+02  0.10046692050E+02  0.72461574983E+02  0.70000006108E+02 0.  0.
        -12    1    1    2    0    0  0.37964192758E+01  0.15340475007E+02 -0.10046692050E+02  0.18726425017E+02  0.00000000000E+00 0.  1.
         11    1    3    3    0    0 -0.30367190175E+02 -0.59626942593E+01 -0.10313389793E+02  0.32620330642E+02  0.51100000000E-03 0. -1.
        -11    1    3    3    0    0  0.11264899686E+01 -0.49737564323E+01 -0.21979108029E+01  0.55532013160E+01  0.51100000000E-03 0.  1.
         12    1    3    3    0    0  0.25444280930E+02 -0.44040243158E+01  0.22557992646E+02  0.34288043025E+02  0.00000000000E+00 0. -1.
</event>
<event>
 7    1  0.2851651E-013  0.7246155E+02  0.7816164E-02  0.1226708E+00
        -11   -1    0    0    0    0  0.00000000000E+00  0.00000000000E+00  0.45593999997E+02  0.45594000000E+02  0.51100000000E-03 0.  1.
         11   -1    0    0    0    0 -0.00000000000E+00 -0.00000000000E+00 -0.45593999997E+02  0.45594000000E+02  0.51100000000E-03 0. -1.
    9900012    2    1    2    0    0 -0.53631923270E+01 -0.15456168759E+02 -0.91116894742E+01  0.72461551599E+02  0.69999975646E+02 0.  0.
        -12    1    1    2    0    0  0.53631923270E+01  0.15456168759E+02  0.91116894742E+01  0.18726448401E+02  0.00000000000E+00 0.  1.
         11    1    3    3    0    0  0.97653201673E+01 -0.45056125894E+01  0.51199513764E+01  0.11911168084E+02  0.51100000000E-03 0. -1.
        -11    1    3    3    0    0  0.13808986214E+02 -0.11797478112E+02  0.11766133590E+02  0.21640482665E+02  0.51100000000E-03 0.  1.
         12    1    3    3    0    0 -0.28937498708E+02  0.84692194232E+00 -0.25997774441E+02  0.38909900850E+02  0.00000000000E+00 0. -1.
</event>
<event>
 7    1  0.2851651E-013  0.7246156E+02  0.7816164E-02  0.1226708E+00
        -11   -1    0    0    0    0  0.00000000000E+00  0.00000000000E+00  0.45593999997E+02  0.45594000000E+02  0.51100000000E-03 0.  1.
         11   -1    0    0    0    0 -0.00000000000E+00 -0.00000000000E+00 -0.45593999997E+02  0.45594000000E+02  0.51100000000E-03 0. -1.
    9900012    2    1    2    0    0 -0.36347947230E+00 -0.18114640822E+02  0.47336109249E+01  0.72461564092E+02  0.69999991921E+02 0.  0.
        -12    1    1    2    0    0  0.36347947230E+00  0.18114640822E+02 -0.47336109249E+01  0.18726435908E+02  0.00000000000E+00 0.  1.
         11    1    3    3    0    0 -0.11392970326E+02 -0.28479760911E+02 -0.89320257011E+00  0.30687039047E+02  0.51100000000E-03 0. -1.
        -11    1    3    3    0    0 -0.17756064149E+01 -0.13320061232E+02 -0.24601563766E+01  0.13661229045E+02  0.51100000000E-03 0.  1.
        -12    1    3    3    0    0  0.12805097269E+02  0.23685181321E+02  0.80869698716E+01  0.28113296000E+02  0.00000000000E+00 0.  1.
</event>
<event>
 7    1  0.2851651E-013  0.7246156E+02  0.7816164E-02  0.1226708E+00
        -11   -1    0    0    0    0  0.00000000000E+00  0.00000000000E+00  0.45593999997E+02  0.45594000000E+02  0.51100000000E-03 0. -1.
         11   -1    0    0    0    0 -0.00000000000E+00 -0.00000000000E+00 -0.45593999997E+02  0.45594000000E+02  0.51100000000E-03 0.  1.
    9900012    2    1    2    0    0  0.10287409859E+02 -0.56498221089E+01  0.14592062144E+02  0.72461559626E+02  0.69999986102E+02 0.  0.
        -12    1    1    2    0    0 -0.10287409859E+02  0.56498221089E+01 -0.14592062144E+02  0.18726440374E+02  0.00000000000E+00 0.  1.
         11    1    3    3    0    0 -0.10331334273E+02 -0.44542456459E+01  0.14217833640E+02  0.18130735390E+02  0.51100000000E-03 0. -1.
        -11    1    3    3    0    0  0.15371475763E+02 -0.10019549328E+02  0.23036939911E+02  0.29451217913E+02  0.51100000000E-03 0.  1.
        -12    1    3    3    0    0  0.52472683685E+01  0.88239728649E+01 -0.22662711406E+02  0.24879606322E+02  0.00000000000E+00 0.  1.
</event>
<event>
 7    1  0.2851651E-013  0.7246154E+02  0.7816164E-02  0.1226708E+00
        -11   -1    0    0    0    0  0.00000000000E+00  0.00000000000E+00  0.45593999997E+02  0.45594000000E+02  0.51100000000E-03 0.  1.
         11   -1    0    0    0    0 -0.00000000000E+00 -0.00000000000E+00 -0.45593999997E+02  0.45594000000E+02  0.51100000000E-03 0. -1.
    9900012    2    1    2    0    0 -0.10990707898E+02  0.14255189450E+02 -0.51647097609E+01  0.72461539756E+02  0.69999960218E+02 0.  0.
        -12    1    1    2    0    0  0.10990707898E+02 -0.14255189450E+02  0.51647097609E+01  0.18726460244E+02  0.00000000000E+00 0.  1.
         11    1    3    3    0    0  0.20479988243E+02  0.22393749999E+02  0.63647738300E+01  0.31006778349E+02  0.51100000000E-03 0. -1.
        -11    1    3    3    0    0  0.25472467474E+01 -0.34115630655E+01  0.17887368089E+01  0.46180957304E+01  0.51100000000E-03 0.  1.
        -12    1    3    3    0    0 -0.34017942888E+02 -0.47269974832E+01 -0.13318220400E+02  0.36836665676E+02  0.00000000000E+00 0.  1.
</event>
<event>
 7    1  0.2851651E-013  0.7246154E+02  0.7816164E-02  0.1226708E+00
        -11   -1    0    0    0    0  0.00000000000E+00  0.00000000000E+00  0.45593999997E+02  0.45594000000E+02  0.51100000000E-03 0.  1.
         11   -1    0    0    0    0 -0.00000000000E+00 -0.00000000000E+00 -0.45593999997E+02  0.45594000000E+02  0.51100000000E-03 0. -1.
    9900012    2    1    2    0    0 -0.26679788138E+01 -0.15963899540E+02 -0.94189156512E+01  0.72461543541E+02  0.69999965149E+02 0.  0.
        -12    1    1    2    0    0  0.26679788138E+01  0.15963899540E+02  0.94189156512E+01  0.18726456459E+02  0.00000000000E+00 0.  1.
         11    1    3    3    0    0  0.89239958759E+01 -0.16740154674E+02 -0.88476318291E+01  0.20932058430E+02  0.51100000000E-03 0. -1.
        -11    1    3    3    0    0 -0.29081178869E+02 -0.26121101122E+01 -0.10628074624E+02  0.31072400199E+02  0.51100000000E-03 0.  1.
         12    1    3    3    0    0  0.17489204179E+02  0.33883652459E+01  0.10056790802E+02  0.20457084912E+02  0.00000000000E+00 0. -1.
</event>
<event>
 7    1  0.2851651E-013  0.7246153E+02  0.7816164E-02  0.1226708E+00
        -11   -1    0    0    0    0  0.00000000000E+00  0.00000000000E+00  0.45593999997E+02  0.45594000000E+02  0.51100000000E-03 0. -1.
         11   -1    0    0    0    0 -0.00000000000E+00 -0.00000000000E+00 -0.45593999997E+02  0.45594000000E+02  0.51100000000E-03 0.  1.
    9900012    2    1    2    0    0 -0.31432005502E+01 -0.18447252163E+02 -0.70689874380E+00  0.72461534026E+02  0.69999952753E+02 0.  0.
        -12    1    1    2    0    0  0.31432005502E+01  0.18447252163E+02  0.70689874380E+00  0.18726465974E+02  0.00000000000E+00 0.  1.
         11    1    3    3    0    0  0.52509403072E+01  0.37954033687E+01 -0.10401810241E+02  0.12254595766E+02  0.51100000000E-03 0. -1.
        -11    1    3    3    0    0  0.22824638403E+02 -0.15061050984E+02  0.55820277664E+01  0.27909826392E+02  0.51100000000E-03 0.  1.
         12    1    3    3    0    0 -0.31218779261E+02 -0.71816045480E+01  0.41128837308E+01  0.32297111868E+02  0.00000000000E+00 0. -1.
</event>
<event>
 7    1  0.2851651E-013  0.7246171E+02  0.7816164E-02  0.1226708E+00
        -11   -1    0    0    0    0  0.00000000000E+00  0.00000000000E+00  0.45593999997E+02  0.45594000000E+02  0.51100000000E-03 0.  1.
         11   -1    0    0    0    0 -0.00000000000E+00 -0.00000000000E+00 -0.45593999997E+02  0.45594000000E+02  0.51100000000E-03 0. -1.
    9900012    2    1    2    0    0  0.69929178088E+01  0.17164117670E+02 -0.26769469748E+01  0.72461711527E+02  0.70000183982E+02 0.  0.
        -12    1    1    2    0    0 -0.69929178088E+01 -0.17164117670E+02  0.26769469748E+01  0.18726288473E+02  0.00000000000E+00 0.  1.
         11    1    3    3    0    0  0.78345536917E+01  0.96000722892E+01 -0.61671772306E+01  0.13841087196E+02  0.51100000000E-03 0. -1.
        -11    1    3    3    0    0  0.20975849644E+02  0.12517916709E+02  0.19378364400E+02  0.31180210296E+02  0.51100000000E-03 0.  1.
        -12    1    3    3    0    0 -0.21817485527E+02 -0.49538713284E+01 -0.15888134144E+02  0.27440414036E+02  0.00000000000E+00 0.  1.
</event>
<event>
 7    1  0.2851651E-013  0.7246160E+02  0.7816164E-02  0.1226708E+00
        -11   -1    0    0    0    0  0.00000000000E+00  0.00000000000E+00  0.45593999997E+02  0.45594000000E+02  0.51100000000E-03 0. -1.
         11   -1    0    0    0    0 -0.00000000000E+00 -0.00000000000E+00 -0.45593999997E+02  0.45594000000E+02  0.51100000000E-03 0.  1.
    9900012    2    1    2    0    0  0.14407047908E+02  0.11415911236E+02 -0.35766075433E+01  0.72461596707E+02  0.70000034407E+02 0.  0.
        -12    1    1    2    0    0 -0.14407047908E+02 -0.11415911236E+02  0.35766075433E+01  0.18726403293E+02  0.00000000000E+00 0.  1.
         11    1    3    3    0    0  0.55356940376E+01 -0.23343540857E+02 -0.94484421967E+01  0.25784450128E+02  0.51100000000E-03 0. -1.
        -11    1    3    3    0    0  0.70932837131E+01 -0.12553976712E+01 -0.52822475128E+01  0.89326835942E+01  0.51100000000E-03 0.  1.
         12    1    3    3    0    0  0.17780701574E+01  0.36014849764E+02  0.11154082166E+02  0.37744462984E+02  0.00000000000E+00 0. -1.
</event>
<event>
 7    1  0.2851651E-013  0.7246160E+02  0.7816164E-02  0.1226708E+00
        -11   -1    0    0    0    0  0.00000000000E+00  0.00000000000E+00  0.45593999997E+02  0.45594000000E+02  0.51100000000E-03 0. -1.
         11   -1    0    0    0    0 -0.00000000000E+00 -0.00000000000E+00 -0.45593999997E+02  0.45594000000E+02  0.51100000000E-03 0.  1.
    9900012    2    1    2    0    0 -0.78430294740E+01 -0.12387325693E+02  0.11649857059E+02  0.72461598353E+02  0.70000036552E+02 0.  0.
        -12    1    1    2    0    0  0.78430294740E+01  0.12387325693E+02 -0.11649857059E+02  0.18726401647E+02  0.00000000000E+00 0.  1.
         11    1    3    3    0    0 -0.57963735909E+01 -0.33593350962E+02  0.36932853624E+01  0.34289233481E+02  0.51100000000E-03 0. -1.
        -11    1    3    3    0    0  0.84791469952E+01 -0.44666177359E+01  0.22748473430E+01  0.98499511908E+01  0.51100000000E-03 0.  1.
        -12    1    3    3    0    0 -0.10525802878E+02  0.25672643005E+02  0.56817243538E+01  0.28322413681E+02  0.00000000000E+00 0.  1.
</event>
<event>
 7    1  0.2851651E-013  0.7246134E+02  0.7816164E-02  0.1226709E+00
        -11   -1    0    0    0    0  0.00000000000E+00  0.00000000000E+00  0.45593999997E+02  0.45594000000E+02  0.51100000000E-03 0. -1.
         11   -1    0    0    0    0 -0.00000000000E+00 -0.00000000000E+00 -0.45593999997E+02  0.45594000000E+02  0.51100000000E-03 0.  1.
    9900012    2    1    2    0    0  0.16950466092E+02 -0.63855204919E+01 -0.47533808087E+01  0.72461339812E+02  0.69999699754E+02 0.  0.
        -12    1    1    2    0    0 -0.16950466092E+02  0.63855204919E+01  0.47533808087E+01  0.18726660188E+02  0.00000000000E+00 0.  1.
         11    1    3    3    0    0  0.77684038665E+01  0.10043363720E+02 -0.16956300792E+01  0.12809856169E+02  0.51100000000E-03 0. -1.
        -11    1    3    3    0    0  0.32844092740E+02 -0.14263462059E+02 -0.22010659160E+01  0.35875137202E+02  0.51100000000E-03 0.  1.
        -12    1    3    3    0    0 -0.23662030515E+02 -0.21654221525E+01 -0.85668481347E+00  0.23776346441E+02  0.00000000000E+00 0.  1.
</event>
<event>
 7    1  0.2851651E-013  0.7246158E+02  0.7816164E-02  0.1226708E+00
        -11   -1    0    0    0    0  0.00000000000E+00  0.00000000000E+00  0.45593999997E+02  0.45594000000E+02  0.51100000000E-03 0.  1.
         11   -1    0    0    0    0 -0.00000000000E+00 -0.00000000000E+00 -0.45593999997E+02  0.45594000000E+02  0.51100000000E-03 0. -1.
    9900012    2    1    2    0    0  0.10474006986E+02  0.14639449734E+02 -0.51633710664E+01  0.72461582521E+02  0.70000015927E+02 0.  0.
        -12    1    1    2    0    0 -0.10474006986E+02 -0.14639449734E+02  0.51633710664E+01  0.18726417479E+02  0.00000000000E+00 0.  1.
         11    1    3    3    0    0  0.12034655136E+02 -0.40582515149E+01 -0.85251889756E+01  0.15296443277E+02  0.51100000000E-03 0. -1.
        -11    1    3    3    0    0  0.22550420596E+02 -0.16920732043E+00 -0.88208971943E+01  0.24214836934E+02  0.51100000000E-03 0.  1.
        -12    1    3    3    0    0 -0.24111068746E+02  0.18866908569E+02  0.12182715103E+02  0.32950302310E+02  0.00000000000E+00 0.  1.
</event>
<event>
 7    1  0.2851651E-013  0.7246159E+02  0.7816164E-02  0.1226708E+00
        -11   -1    0    0    0    0  0.00000000000E+00  0.00000000000E+00  0.45593999997E+02  0.45594000000E+02  0.51100000000E-03 0.  1.
         11   -1    0    0    0    0 -0.00000000000E+00 -0.00000000000E+00 -0.45593999997E+02  0.45594000000E+02  0.51100000000E-03 0. -1.
    9900012    2    1    2    0    0  0.37549194676E+01 -0.33536515699E+01 -0.18036959138E+02  0.72461593671E+02  0.70000030452E+02 0.  0.
        -12    1    1    2    0    0 -0.37549194676E+01  0.33536515699E+01  0.18036959138E+02  0.18726406329E+02  0.00000000000E+00 0.  1.
         11    1    3    3    0    0 -0.10644264818E+02 -0.17581916942E+02 -0.19653020616E+02  0.28437042682E+02  0.51100000000E-03 0. -1.
        -11    1    3    3    0    0 -0.12442068290E+02  0.11027569883E+02 -0.20269550877E+01  0.16748758403E+02  0.51100000000E-03 0.  1.
         12    1    3    3    0    0  0.26841252576E+02  0.32006954896E+01  0.36430165656E+01  0.27275792586E+02  0.00000000000E+00 0. -1.
</event>
<event>
 7    1  0.2851651E-013  0.7246158E+02  0.7816164E-02  0.1226708E+00
        -11   -1    0    0    0    0  0.00000000000E+00  0.00000000000E+00  0.45593999997E+02  0.45594000000E+02  0.51100000000E-03 0.  1.
         11   -1    0    0    0    0 -0.00000000000E+00 -0.00000000000E+00 -0.45593999997E+02  0.45594000000E+02  0.51100000000E-03 0. -1.
    9900012    2    1    2    0    0 -0.16550722746E+02 -0.14968811242E+01 -0.86320217353E+01  0.72461578138E+02  0.70000010218E+02 0.  0.
        -12    1    1    2    0    0  0.16550722746E+02  0.14968811242E+01  0.86320217353E+01  0.18726421862E+02  0.00000000000E+00 0.  1.
         11    1    3    3    0    0  0.38938264128E+00 -0.12133920820E+01  0.20624585367E+01  0.24243916067E+01  0.51100000000E-03 0. -1.
        -11    1    3    3    0    0  0.58038220888E+01 -0.30471481201E+02 -0.10865702269E+01  0.31038301380E+02  0.51100000000E-03 0.  1.
         12    1    3    3    0    0 -0.22743927476E+02  0.30187992159E+02 -0.96079100450E+01  0.38998885151E+02  0.00000000000E+00 0. -1.
</event>
<event>
 7    1  0.2851651E-013  0.7246152E+02  0.7816164E-02  0.1226708E+00
        -11   -1    0    0    0    0  0.00000000000E+00  0.00000000000E+00  0.45593999997E+02  0.45594000000E+02  0.51100000000E-03 0. -1.
         11   -1    0    0    0    0 -0.00000000000E+00 -0.00000000000E+00 -0.45593999997E+02  0.45594000000E+02  0.51100000000E-03 0.  1.
    9900012    2    1    2    0    0 -0.41514511734E+01 -0.27767494494E+01  0.18048166521E+02  0.72461516103E+02  0.69999929406E+02 0.  0.
        -12    1    1    2    0    0  0.41514511734E+01  0.27767494494E+01 -0.18048166521E+02  0.18726483897E+02  0.00000000000E+00 0.  1.
         11    1    3    3    0    0 -0.14160569199E+02  0.59566073209E+01  0.22668914733E+02  0.27383984119E+02  0.51100000000E-03 0. -1.
        -11    1    3    3    0    0 -0.27755948922E+01  0.49811487384E+01  0.16131590575E+02  0.17109762841E+02  0.51100000000E-03 0.  1.
        -12    1    3    3    0    0  0.12784712918E+02 -0.13714505509E+02 -0.20752338786E+02  0.27967769143E+02  0.00000000000E+00 0.  1.
</event>
<event>
 7    1  0.2851651E-013  0.7246155E+02  0.7816164E-02  0.1226708E+00
        -11   -1    0    0    0    0  0.00000000000E+00  0.00000000000E+00  0.45593999997E+02  0.45594000000E+02  0.51100000000E-03 0.  1.
         11   -1    0    0    0    0 -0.00000000000E+00 -0.00000000000E+00 -0.45593999997E+02  0.45594000000E+02  0.51100000000E-03 0. -1.
    9900012    2    1    2    0    0  0.39060773476E+01 -0.11075427285E+02 -0.14586209790E+02  0.72461546896E+02  0.69999969520E+02 0.  0.
        -12    1    1    2    0    0 -0.39060773476E+01  0.11075427285E+02  0.14586209790E+02  0.18726453104E+02  0.00000000000E+00 0.  1.
         11    1    3    3    0    0 -0.96881666000E+01 -0.13845332034E+02 -0.63049611887E+00  0.16910095115E+02  0.51100000000E-03 0. -1.
        -11    1    3    3    0    0 -0.16250240219E+02 -0.59669980006E+01  0.63194825337E+01  0.18428543949E+02  0.51100000000E-03 0.  1.
        -12    1    3    3    0    0  0.29844484166E+02  0.87369027491E+01 -0.20275196205E+02  0.37122907833E+02  0.00000000000E+00 0.  1.
</event>
<event>
 7    1  0.2851651E-013  0.7246153E+02  0.7816164E-02  0.1226708E+00
        -11   -1    0    0    0    0  0.00000000000E+00  0.00000000000E+00  0.45593999997E+02  0.45594000000E+02  0.51100000000E-03 0. -1.
         11   -1    0    0    0    0 -0.00000000000E+00 -0.00000000000E+00 -0.45593999997E+02  0.45594000000E+02  0.51100000000E-03 0.  1.
    9900012    2    1    2    0    0 -0.13252282951E+02  0.11837204374E+02  0.59108503407E+01  0.72461533100E+02  0.69999951548E+02 0.  0.
        -12    1    1    2    0    0  0.13252282951E+02 -0.11837204374E+02 -0.59108503407E+01  0.18726466900E+02  0.00000000000E+00 0.  1.
         11    1    3    3    0    0 -0.19793544948E+02  0.33984075442E+01  0.17605835569E+02  0.26707658860E+02  0.51100000000E-03 0. -1.
        -11    1    3    3    0    0 -0.16024665965E+02  0.45495644415E+01  0.50264277872E+01  0.17399811276E+02  0.51100000000E-03 0.  1.
        -12    1    3    3    0    0  0.22565927962E+02  0.38892323885E+01 -0.16721413015E+02  0.28354062964E+02  0.00000000000E+00 0.  1.
</event>
<event>
 7    1  0.2851651E-013  0.7246160E+02  0.7816164E-02  0.1226708E+00
        -11   -1    0    0    0    0  0.00000000000E+00  0.00000000000E+00  0.45593999997E+02  0.45594000000E+02  0.51100000000E-03 0. -1.
         11   -1    0    0    0    0 -0.00000000000E+00 -0.00000000000E+00 -0.45593999997E+02  0.45594000000E+02  0.51100000000E-03 0.  1.
    9900012    2    1    2    0    0  0.15793412922E+02  0.10015874983E+02 -0.96355562131E+00  0.72461599309E+02  0.70000037797E+02 0.  0.
        -12    1    1    2    0    0 -0.15793412922E+02 -0.10015874983E+02  0.96355562131E+00  0.18726400691E+02  0.00000000000E+00 0.  1.
         11    1    3    3    0    0 -0.43077529284E+01  0.12953546942E+02 -0.14267826876E+02  0.19746442659E+02  0.51100000000E-03 0. -1.
        -11    1    3    3    0    0 -0.38546798653E+01  0.17831031893E+02 -0.22415509975E+00  0.18244300507E+02  0.51100000000E-03 0.  1.
        -12    1    3    3    0    0  0.23955845716E+02 -0.20768703852E+02  0.13528426354E+02  0.34470856143E+02  0.00000000000E+00 0.  1.
</event>
<event>
 7    1  0.2851651E-013  0.7246158E+02  0.7816164E-02  0.1226708E+00
        -11   -1    0    0    0    0  0.00000000000E+00  0.00000000000E+00  0.45593999997E+02  0.45594000000E+02  0.51100000000E-03 0.  1.
         11   -1    0    0    0    0 -0.00000000000E+00 -0.00000000000E+00 -0.45593999997E+02  0.45594000000E+02  0.51100000000E-03 0. -1.
    9900012    2    1    2    0    0  0.51115152907E+01  0.17023513525E+02 -0.58950055968E+01  0.72461583037E+02  0.70000016599E+02 0.  0.
        -12    1    1    2    0    0 -0.51115152907E+01 -0.17023513525E+02  0.58950055968E+01  0.18726416963E+02  0.00000000000E+00 0.  1.
         11    1    3    3    0    0  0.19043997406E+00  0.22238784681E+01  0.16400566844E+01  0.27697814018E+01  0.51100000000E-03 0. -1.
        -11    1    3    3    0    0 -0.93924656431E+01  0.11678833714E+02  0.27721117976E+02  0.31513075855E+02  0.51100000000E-03 0.  1.
         12    1    3    3    0    0  0.14313540960E+02  0.31208013427E+01 -0.35256180257E+02  0.38178725779E+02  0.00000000000E+00 0. -1.
</event>
<event>
 7    1  0.2851651E-013  0.7246156E+02  0.7816164E-02  0.1226708E+00
        -11   -1    0    0    0    0  0.00000000000E+00  0.00000000000E+00  0.45593999997E+02  0.45594000000E+02  0.51100000000E-03 0.  1.
         11   -1    0    0    0    0 -0.00000000000E+00 -0.00000000000E+00 -0.45593999997E+02  0.45594000000E+02  0.51100000000E-03 0. -1.
    9900012    2    1    2    0    0 -0.10100826573E+02 -0.67209408934E-01 -0.15768592802E+02  0.72461555236E+02  0.69999980383E+02 0.  0.
        -12    1    1    2    0    0  0.10100826573E+02  0.67209408934E-01  0.15768592802E+02  0.18726444764E+02  0.00000000000E+00 0.  1.
         11    1    3    3    0    0 -0.19538904102E+02  0.18457035672E+02 -0.32186400135E+02  0.41933224217E+02  0.51100000000E-03 0. -1.
        -11    1    3    3    0    0  0.21564540563E+01  0.21730190873E+01 -0.10300181793E+00  0.30631545319E+01  0.51100000000E-03 0.  1.
        -12    1    3    3    0    0  0.72816234730E+01 -0.20697264169E+02  0.16520809151E+02  0.27465176487E+02  0.00000000000E+00 0.  1.
</event>
<event>
 7    1  0.2851651E-013  0.7246160E+02  0.7816164E-02  0.1226708E+00
        -11   -1    0    0    0    0  0.00000000000E+00  0.00000000000E+00  0.45593999997E+02  0.45594000000E+02  0.51100000000E-03 0. -1.
         11   -1    0    0    0    0 -0.00000000000E+00 -0.00000000000E+00 -0.45593999997E+02  0.45594000000E+02  0.51100000000E-03 0.  1.
    9900012    2    1    2    0    0  0.14644937259E+02 -0.11654332424E+02 -0.61679936309E+00  0.72461599037E+02  0.70000037443E+02 0.  0.
        -12    1    1    2    0    0 -0.14644937259E+02  0.11654332424E+02  0.61679936309E+00  0.18726400963E+02  0.00000000000E+00 0.  1.
         11    1    3    3    0    0  0.25160190682E+02 -0.26451187414E+02  0.16463709178E+02  0.40046900391E+02  0.51100000000E-03 0. -1.
        -11    1    3    3    0    0  0.15985969473E+01 -0.40843455111E+01 -0.29326896634E+00  0.43958386460E+01  0.51100000000E-03 0.  1.
        -12    1    3    3    0    0 -0.12113850371E+02  0.18881200501E+02 -0.16787239575E+02  0.28018860000E+02  0.00000000000E+00 0.  1.
</event>
<event>
 7    1  0.2851651E-013  0.7246153E+02  0.7816164E-02  0.1226708E+00
        -11   -1    0    0    0    0  0.00000000000E+00  0.00000000000E+00  0.45593999997E+02  0.45594000000E+02  0.51100000000E-03 0.  1.
         11   -1    0    0    0    0 -0.00000000000E+00 -0.00000000000E+00 -0.45593999997E+02  0.45594000000E+02  0.51100000000E-03 0. -1.
    9900012    2    1    2    0    0 -0.11238122711E+02  0.10496697228E+02 -0.10686647934E+02  0.72461534801E+02  0.69999953764E+02 0.  0.
        -12    1    1    2    0    0  0.11238122711E+02 -0.10496697228E+02  0.10686647934E+02  0.18726465199E+02  0.00000000000E+00 0.  1.
         11    1    3    3    0    0  0.12281161091E+02  0.21562964494E+02  0.20943982066E+01  0.24903310214E+02  0.51100000000E-03 0. -1.
        -11    1    3    3    0    0 -0.14778054164E+01 -0.44263706872E+00  0.12371777921E+02  0.12467587000E+02  0.51100000000E-03 0.  1.
        -12    1    3    3    0    0 -0.22041478385E+02 -0.10623630197E+02 -0.25152824062E+02  0.35090637587E+02  0.00000000000E+00 0.  1.
</event>
<event>
 7    1  0.2851651E-013  0.7246160E+02  0.7816164E-02  0.1226708E+00
        -11   -1    0    0    0    0  0.00000000000E+00  0.00000000000E+00  0.45593999997E+02  0.45594000000E+02  0.51100000000E-03 0.  1.
         11   -1    0    0    0    0 -0.00000000000E+00 -0.00000000000E+00 -0.45593999997E+02  0.45594000000E+02  0.51100000000E-03 0. -1.
    9900012    2    1    2    0    0 -0.14944684907E+02 -0.95452285086E+01 -0.60185647316E+01  0.72461598432E+02  0.70000036654E+02 0.  0.
        -12    1    1    2    0    0  0.14944684907E+02  0.95452285086E+01  0.60185647316E+01  0.18726401568E+02  0.00000000000E+00 0.  1.
         11    1    3    3    0    0  0.47069239109E+01 -0.14147913483E+02  0.19911326911E+02  0.24875279461E+02  0.51100000000E-03 0. -1.
        -11    1    3    3    0    0  0.66970351463E+01  0.22173788260E+01  0.36153203404E+01  0.79270164649E+01  0.51100000000E-03 0.  1.
         12    1    3    3    0    0 -0.26348643965E+02  0.23853061487E+01 -0.29545211983E+02  0.39659302506E+02  0.00000000000E+00 0. -1.
</event>
<event>
 7    1  0.2851651E-013  0.7246158E+02  0.7816164E-02  0.1226708E+00
        -11   -1    0    0    0    0  0.00000000000E+00  0.00000000000E+00  0.45593999997E+02  0.45594000000E+02  0.51100000000E-03 0. -1.
         11   -1    0    0    0    0 -0.00000000000E+00 -0.00000000000E+00 -0.45593999997E+02  0.45594000000E+02  0.51100000000E-03 0.  1.
    9900012    2    1    2    0    0 -0.10937535080E+01  0.18061178652E+02  0.48245528605E+01  0.72461580659E+02  0.70000013502E+02 0.  0.
        -12    1    1    2    0    0  0.10937535080E+01 -0.18061178652E+02 -0.48245528605E+01  0.18726419341E+02  0.00000000000E+00 0.  1.
         11    1    3    3    0    0 -0.47194956006E+00  0.21869926792E+02 -0.12945433594E+02  0.25418510685E+02  0.51100000000E-03 0. -1.
        -11    1    3    3    0    0 -0.74504514519E+01 -0.12267579629E+02 -0.98185977383E+01  0.17389870574E+02  0.51100000000E-03 0.  1.
         12    1    3    3    0    0  0.68286475040E+01  0.84588314889E+01  0.27588584193E+02  0.29653199400E+02  0.00000000000E+00 0. -1.
</event>
<event>
 7    1  0.2851651E-013  0.7246161E+02  0.7816164E-02  0.1226708E+00
        -11   -1    0    0    0    0  0.00000000000E+00  0.00000000000E+00  0.45593999997E+02  0.45594000000E+02  0.51100000000E-03 0.  1.
         11   -1    0    0    0    0 -0.00000000000E+00 -0.00000000000E+00 -0.45593999997E+02  0.45594000000E+02  0.51100000000E-03 0. -1.
    9900012    2    1    2    0    0  0.65353266248E+01  0.14312950386E+02 -0.10154147817E+02  0.72461607909E+02  0.70000049001E+02 0.  0.
        -12    1    1    2    0    0 -0.65353266248E+01 -0.14312950386E+02  0.10154147817E+02  0.18726392091E+02  0.00000000000E+00 0.  1.
         11    1    3    3    0    0  0.38629588799E+01  0.15246622324E+02  0.17928142382E+00  0.15729401949E+02  0.51100000000E-03 0. -1.
        -11    1    3    3    0    0  0.28913296384E+01  0.17825898834E+02  0.16183736207E+02  0.24249448946E+02  0.51100000000E-03 0.  1.
        -12    1    3    3    0    0 -0.21896189353E+00 -0.18759570771E+02 -0.26517165448E+02  0.32482757014E+02  0.00000000000E+00 0.  1.
</event>
<event>
 7    1  0.2851651E-013  0.7246154E+02  0.7816164E-02  0.1226708E+00
        -11   -1    0    0    0    0  0.00000000000E+00  0.00000000000E+00  0.45593999997E+02  0.45594000000E+02  0.51100000000E-03 0. -1.
         11   -1    0    0    0    0 -0.00000000000E+00 -0.00000000000E+00 -0.45593999997E+02  0.45594000000E+02  0.51100000000E-03 0.  1.
    9900012    2    1    2    0    0 -0.14145097482E+02  0.12018141741E+02 -0.24821295109E+01  0.72461535289E+02  0.69999954399E+02 0.  0.
        -12    1    1    2    0    0  0.14145097482E+02 -0.12018141741E+02  0.24821295109E+01  0.18726464711E+02  0.00000000000E+00 0.  1.
         11    1    3    3    0    0  0.38295365527E+01  0.21416545593E+01 -0.71877845623E+01  0.84211805369E+01  0.51100000000E-03 0. -1.
        -11    1    3    3    0    0 -0.37385945864E+02 -0.24643377347E+01 -0.71801951037E+01  0.38148880857E+02  0.51100000000E-03 0.  1.
         12    1    3    3    0    0  0.19411311830E+02  0.12340824916E+02  0.11885850155E+02  0.25891473895E+02  0.00000000000E+00 0. -1.
</event>
<event>
 7    1  0.2851651E-013  0.7246157E+02  0.7816164E-02  0.1226708E+00
        -11   -1    0    0    0    0  0.00000000000E+00  0.00000000000E+00  0.45593999997E+02  0.45594000000E+02  0.51100000000E-03 0. -1.
         11   -1    0    0    0    0 -0.00000000000E+00 -0.00000000000E+00 -0.45593999997E+02  0.45594000000E+02  0.51100000000E-03 0.  1.
    9900012    2    1    2    0    0 -0.14099103557E+02 -0.12076877343E+02  0.24583305122E+01  0.72461572782E+02  0.70000003241E+02 0.  0.
        -12    1    1    2    0    0  0.14099103557E+02  0.12076877343E+02 -0.24583305122E+01  0.18726427218E+02  0.00000000000E+00 0.  1.
         11    1    3    3    0    0  0.41016527341E+00 -0.26369658244E+02  0.13837926605E+02  0.29782802495E+02  0.51100000000E-03 0. -1.
        -11    1    3    3    0    0 -0.28936498919E+01 -0.75326957479E+01  0.79255634559E+01  0.11310582270E+02  0.51100000000E-03 0.  1.
        -12    1    3    3    0    0 -0.11615618938E+02  0.21825476649E+02 -0.19305159549E+02  0.31368188017E+02  0.00000000000E+00 0.  1.
</event>
<event>
 7    1  0.2851651E-013  0.7246154E+02  0.7816164E-02  0.1226708E+00
        -11   -1    0    0    0    0  0.00000000000E+00  0.00000000000E+00  0.45593999997E+02  0.45594000000E+02  0.51100000000E-03 0.  1.
         11   -1    0    0    0    0 -0.00000000000E+00 -0.00000000000E+00 -0.45593999997E+02  0.45594000000E+02  0.51100000000E-03 0. -1.
    9900012    2    1    2    0    0 -0.65841794524E+01  0.70558569829E+00 -0.17516593305E+02  0.72461539810E+02  0.69999960288E+02 0.  0.
        -12    1    1    2    0    0  0.65841794524E+01 -0.70558569829E+00  0.17516593305E+02  0.18726460190E+02  0.00000000000E+00 0.  1.
         11    1    3    3    0    0 -0.12904476686E+02 -0.11793312528E+02  0.13964900423E+02  0.22374677272E+02  0.51100000000E-03 0. -1.
        -11    1    3    3    0    0 -0.14522763459E+02  0.42339704271E+01 -0.63474993943E+01  0.16405118496E+02  0.51100000000E-03 0.  1.
         12    1    3    3    0    0  0.20843060693E+02  0.82649277990E+01 -0.25133994333E+02  0.33681744042E+02  0.00000000000E+00 0. -1.
</event>
<event>
 7    1  0.2851651E-013  0.7246142E+02  0.7816164E-02  0.1226708E+00
        -11   -1    0    0    0    0  0.00000000000E+00  0.00000000000E+00  0.45593999997E+02  0.45594000000E+02  0.51100000000E-03 0.  1.
         11   -1    0    0    0    0 -0.00000000000E+00 -0.00000000000E+00 -0.45593999997E+02  0.45594000000E+02  0.51100000000E-03 0. -1.
    9900012    2    1    2    0    0  0.12499219544E+02  0.10664765593E+02 -0.89842588582E+01  0.72461424724E+02  0.69999810367E+02 0.  0.
        -12    1    1    2    0    0 -0.12499219544E+02 -0.10664765593E+02  0.89842588582E+01  0.18726575276E+02  0.00000000000E+00 0.  1.
         11    1    3    3    0    0 -0.11378117291E+02 -0.18371946427E+02 -0.17679142866E+02  0.27920280466E+02  0.51100000000E-03 0. -1.
        -11    1    3    3    0    0 -0.19437124310E+01  0.31350861974E+01 -0.43567610526E+01  0.57086032101E+01  0.51100000000E-03 0.  1.
        -12    1    3    3    0    0  0.25821049266E+02  0.25901625822E+02  0.13051645060E+02  0.38832541047E+02  0.00000000000E+00 0.  1.
</event>
<event>
 7    1  0.2851651E-013  0.7246160E+02  0.7816164E-02  0.1226708E+00
        -11   -1    0    0    0    0  0.00000000000E+00  0.00000000000E+00  0.45593999997E+02  0.45594000000E+02  0.51100000000E-03 0.  1.
         11   -1    0    0    0    0 -0.00000000000E+00 -0.00000000000E+00 -0.45593999997E+02  0.45594000000E+02  0.51100000000E-03 0. -1.
    9900012    2    1    2    0    0 -0.67477515393E+01  0.16032878816E+02 -0.69349009553E+01  0.72461596042E+02  0.70000033541E+02 0.  0.
        -12    1    1    2    0    0  0.67477515393E+01 -0.16032878816E+02  0.69349009553E+01  0.18726403958E+02  0.00000000000E+00 0.  1.
         11    1    3    3    0    0 -0.42978230274E+01  0.62327078502E+01  0.16504768484E+02  0.18158340037E+02  0.51100000000E-03 0. -1.
        -11    1    3    3    0    0 -0.58437407017E+01  0.14738967114E+02  0.11031376360E+02  0.19315219948E+02  0.51100000000E-03 0.  1.
         12    1    3    3    0    0  0.33938121898E+01 -0.49387961483E+01 -0.34471045800E+02  0.34988036057E+02  0.00000000000E+00 0. -1.
</event>
<event>
 7    1  0.2851651E-013  0.7246211E+02  0.7816164E-02  0.1226707E+00
        -11   -1    0    0    0    0  0.00000000000E+00  0.00000000000E+00  0.45593999997E+02  0.45594000000E+02  0.51100000000E-03 0. -1.
         11   -1    0    0    0    0 -0.00000000000E+00 -0.00000000000E+00 -0.45593999997E+02  0.45594000000E+02  0.51100000000E-03 0.  1.
    9900012    2    1    2    0    0  0.13416711736E+02  0.73632102326E+01  0.10790459124E+02  0.72462108116E+02  0.70000700609E+02 0.  0.
        -12    1    1    2    0    0 -0.13416711736E+02 -0.73632102326E+01 -0.10790459124E+02  0.18725891884E+02  0.00000000000E+00 0.  1.
         11    1    3    3    0    0  0.16405037772E+02 -0.14408600339E+02  0.13142447284E+02  0.25484445234E+02  0.51100000000E-03 0. -1.
        -11    1    3    3    0    0 -0.49336728872E+01 -0.86550761839E+01 -0.11433403115E+02  0.15164899570E+02  0.51100000000E-03 0.  1.
         12    1    3    3    0    0  0.19453468516E+01  0.30426886755E+02  0.90814149556E+01  0.31812763313E+02  0.00000000000E+00 0. -1.
</event>
<event>
 7    1  0.2851651E-013  0.7246157E+02  0.7816164E-02  0.1226708E+00
        -11   -1    0    0    0    0  0.00000000000E+00  0.00000000000E+00  0.45593999997E+02  0.45594000000E+02  0.51100000000E-03 0.  1.
         11   -1    0    0    0    0 -0.00000000000E+00 -0.00000000000E+00 -0.45593999997E+02  0.45594000000E+02  0.51100000000E-03 0. -1.
    9900012    2    1    2    0    0 -0.14968438499E+02  0.10337142197E+02 -0.44461679069E+01  0.72461572980E+02  0.70000003498E+02 0.  0.
        -12    1    1    2    0    0  0.14968438499E+02 -0.10337142197E+02  0.44461679069E+01  0.18726427020E+02  0.00000000000E+00 0.  1.
         11    1    3    3    0    0 -0.82507863794E+01 -0.12960787879E+01 -0.24262117222E+02  0.25659415980E+02  0.51100000000E-03 0. -1.
        -11    1    3    3    0    0 -0.91537602244E+01  0.11940701499E+00 -0.10708121138E+02  0.14087918329E+02  0.51100000000E-03 0.  1.
        -12    1    3    3    0    0  0.24361081052E+01  0.11513813970E+02  0.30524070452E+02  0.32714238671E+02  0.00000000000E+00 0.  1.
</event>
<event>
 7    1  0.2851651E-013  0.7246153E+02  0.7816164E-02  0.1226708E+00
        -11   -1    0    0    0    0  0.00000000000E+00  0.00000000000E+00  0.45593999997E+02  0.45594000000E+02  0.51100000000E-03 0. -1.
         11   -1    0    0    0    0 -0.00000000000E+00 -0.00000000000E+00 -0.45593999997E+02  0.45594000000E+02  0.51100000000E-03 0.  1.
    9900012    2    1    2    0    0  0.16738808973E+02  0.68849013198E+01 -0.48053350939E+01  0.72461525762E+02  0.69999941988E+02 0.  0.
        -12    1    1    2    0    0 -0.16738808973E+02 -0.68849013198E+01  0.48053350939E+01  0.18726474238E+02  0.00000000000E+00 0.  1.
         11    1    3    3    0    0  0.20029983109E+01  0.46838414354E+01  0.48033882392E+01  0.70016363561E+01  0.51100000000E-03 0. -1.
        -11    1    3    3    0    0  0.11940982707E+01  0.32526590048E+01  0.26580681320E+02  0.26805564366E+02  0.51100000000E-03 0.  1.
        -12    1    3    3    0    0  0.13541712391E+02 -0.10515991204E+01 -0.36189404653E+02  0.38654325040E+02  0.00000000000E+00 0.  1.
</event>
<event>
 7    1  0.2851651E-013  0.7246160E+02  0.7816164E-02  0.1226708E+00
        -11   -1    0    0    0    0  0.00000000000E+00  0.00000000000E+00  0.45593999997E+02  0.45594000000E+02  0.51100000000E-03 0.  1.
         11   -1    0    0    0    0 -0.00000000000E+00 -0.00000000000E+00 -0.45593999997E+02  0.45594000000E+02  0.51100000000E-03 0. -1.
    9900012    2    1    2    0    0  0.11106973396E+02  0.13344907218E+02 -0.70161835828E+01  0.72461595147E+02  0.70000032375E+02 0.  0.
        -12    1    1    2    0    0 -0.11106973396E+02 -0.13344907218E+02  0.70161835828E+01  0.18726404853E+02  0.00000000000E+00 0.  1.
         11    1    3    3    0    0  0.23371811012E+02  0.31138667885E+01  0.43755384088E+01  0.23980889329E+02  0.51100000000E-03 0. -1.
        -11    1    3    3    0    0 -0.59502504652E+01  0.22217862345E+02  0.84078799311E+01  0.24489412672E+02  0.51100000000E-03 0.  1.
         12    1    3    3    0    0 -0.63145871513E+01 -0.11986821916E+02 -0.19799601923E+02  0.23991293147E+02  0.00000000000E+00 0. -1.
</event>
<event>
 7    1  0.2851651E-013  0.7246158E+02  0.7816164E-02  0.1226708E+00
        -11   -1    0    0    0    0  0.00000000000E+00  0.00000000000E+00  0.45593999997E+02  0.45594000000E+02  0.51100000000E-03 0.  1.
         11   -1    0    0    0    0 -0.00000000000E+00 -0.00000000000E+00 -0.45593999997E+02  0.45594000000E+02  0.51100000000E-03 0. -1.
    9900012    2    1    2    0    0 -0.16323340058E+02  0.19674650986E+01 -0.89641858033E+01  0.72461575444E+02  0.70000006708E+02 0.  0.
        -12    1    1    2    0    0  0.16323340058E+02 -0.19674650986E+01  0.89641858033E+01  0.18726424556E+02  0.00000000000E+00 0.  1.
         11    1    3    3    0    0  0.19122423361E+02 -0.80368618386E+01 -0.48371829616E+01  0.21299215071E+02  0.51100000000E-03 0. -1.
        -11    1    3    3    0    0 -0.11996227047E+02 -0.12698901490E+02 -0.59964245393E+01  0.18469668918E+02  0.51100000000E-03 0.  1.
        -12    1    3    3    0    0 -0.23449536371E+02  0.22703228427E+02  0.18694216976E+01  0.32692691454E+02  0.00000000000E+00 0.  1.
</event>
<event>
 7    1  0.2851651E-013  0.7246160E+02  0.7816164E-02  0.1226708E+00
        -11   -1    0    0    0    0  0.00000000000E+00  0.00000000000E+00  0.45593999997E+02  0.45594000000E+02  0.51100000000E-03 0. -1.
         11   -1    0    0    0    0 -0.00000000000E+00 -0.00000000000E+00 -0.45593999997E+02  0.45594000000E+02  0.51100000000E-03 0.  1.
    9900012    2    1    2    0    0 -0.26683122308E+01 -0.59685493429E+01  0.17548063747E+02  0.72461601182E+02  0.70000040237E+02 0.  0.
        -12    1    1    2    0    0  0.26683122308E+01  0.59685493429E+01 -0.17548063747E+02  0.18726398818E+02  0.00000000000E+00 0.  1.
         11    1    3    3    0    0 -0.16784879500E+01  0.26959066798E+02  0.16233964610E+02  0.31514285834E+02  0.51100000000E-03 0.  1.
        -11    1    3    3    0    0  0.54189307322E+01 -0.17080594056E+02  0.11266669518E+02  0.21167176143E+02  0.51100000000E-03 0. -1.
        -12    1    3    3    0    0 -0.64087550130E+01 -0.15847022085E+02 -0.99525703814E+01  0.19780139205E+02  0.00000000000E+00 0.  1.
</event>
<event>
 7    1  0.2851651E-013  0.7246155E+02  0.7816164E-02  0.1226708E+00
        -11   -1    0    0    0    0  0.00000000000E+00  0.00000000000E+00  0.45593999997E+02  0.45594000000E+02  0.51100000000E-03 0.  1.
         11   -1    0    0    0    0 -0.00000000000E+00 -0.00000000000E+00 -0.45593999997E+02  0.45594000000E+02  0.51100000000E-03 0. -1.
    9900012    2    1    2    0    0 -0.14608545317E+01  0.18669101712E+02  0.10192645149E+00  0.72461552294E+02  0.69999976551E+02 0.  0.
        -12    1    1    2    0    0  0.14608545317E+01 -0.18669101712E+02 -0.10192645149E+00  0.18726447706E+02  0.00000000000E+00 0.  1.
         11    1    3    3    0    0 -0.10375575666E+02  0.60583828158E-01  0.16850460518E+02  0.19788740757E+02  0.51100000000E-03 0. -1.
        -11    1    3    3    0    0  0.99225822380E+01  0.15650317807E+02  0.13079322567E+02  0.22681683465E+02  0.51100000000E-03 0.  1.
         12    1    3    3    0    0 -0.10078611040E+01  0.29582000763E+01 -0.29827856634E+02  0.29991128072E+02  0.00000000000E+00 0. -1.
</event>
<event>
 7    1  0.2851651E-013  0.7246145E+02  0.7816164E-02  0.1226708E+00
        -11   -1    0    0    0    0  0.00000000000E+00  0.00000000000E+00  0.45593999997E+02  0.45594000000E+02  0.51100000000E-03 0.  1.
         11   -1    0    0    0    0 -0.00000000000E+00 -0.00000000000E+00 -0.45593999997E+02  0.45594000000E+02  0.51100000000E-03 0. -1.
    9900012    2    1    2    0    0 -0.56602905189E+01  0.75820147317E+01 -0.16160383429E+02  0.72461445893E+02  0.69999837944E+02 0.  0.
        -12    1    1    2    0    0  0.56602905189E+01 -0.75820147317E+01  0.16160383429E+02  0.18726554107E+02  0.00000000000E+00 0.  1.
         11    1    3    3    0    0  0.21007378015E+01  0.11569998219E+02 -0.89302397537E+00  0.11793025489E+02  0.51100000000E-03 0. -1.
        -11    1    3    3    0    0  0.17566198680E+02  0.16969292738E+02 -0.34347524072E-02  0.24423927697E+02  0.51100000000E-03 0.  1.
        -12    1    3    3    0    0 -0.25327227000E+02 -0.20957276225E+02 -0.15263924701E+02  0.36244492707E+02  0.00000000000E+00 0.  1.
</event>
<event>
 7    1  0.2851651E-013  0.7246153E+02  0.7816164E-02  0.1226708E+00
        -11   -1    0    0    0    0  0.00000000000E+00  0.00000000000E+00  0.45593999997E+02  0.45594000000E+02  0.51100000000E-03 0. -1.
         11   -1    0    0    0    0 -0.00000000000E+00 -0.00000000000E+00 -0.45593999997E+02  0.45594000000E+02  0.51100000000E-03 0.  1.
    9900012    2    1    2    0    0  0.13266335043E+02 -0.63242575841E+01 -0.11605547277E+02  0.72461531912E+02  0.69999950000E+02 0.  0.
        -12    1    1    2    0    0 -0.13266335043E+02  0.63242575841E+01  0.11605547277E+02  0.18726468088E+02  0.00000000000E+00 0.  1.
         11    1    3    3    0    0 -0.18632654350E+02 -0.42920792727E+01  0.16526990016E+01  0.19191903680E+02  0.51100000000E-03 0. -1.
        -11    1    3    3    0    0  0.18129448772E+01  0.10220433101E+02 -0.17662828895E+02  0.20487058030E+02  0.51100000000E-03 0.  1.
         12    1    3    3    0    0  0.30086044515E+02 -0.12252611412E+02  0.44045826167E+01  0.32782570202E+02  0.00000000000E+00 0. -1.
</event>
<event>
 7    1  0.2851651E-013  0.7246157E+02  0.7816164E-02  0.1226708E+00
        -11   -1    0    0    0    0  0.00000000000E+00  0.00000000000E+00  0.45593999997E+02  0.45594000000E+02  0.51100000000E-03 0. -1.
         11   -1    0    0    0    0 -0.00000000000E+00 -0.00000000000E+00 -0.45593999997E+02  0.45594000000E+02  0.51100000000E-03 0.  1.
    9900012    2    1    2    0    0  0.50060036309E+00 -0.18065171149E+02  0.49069364066E+01  0.72461573906E+02  0.70000004705E+02 0.  0.
        -12    1    1    2    0    0 -0.50060036309E+00  0.18065171149E+02 -0.49069364066E+01  0.18726426094E+02  0.00000000000E+00 0.  1.
         11    1    3    3    0    0  0.25866509121E+01  0.17270774640E+02  0.58402197398E+01  0.18414086632E+02  0.51100000000E-03 0. -1.
        -11    1    3    3    0    0  0.61599046263E+01 -0.72333415263E+00 -0.14653910451E+02  0.15912408022E+02  0.51100000000E-03 0.  1.
         12    1    3    3    0    0 -0.82459551753E+01 -0.34612611636E+02  0.13720627118E+02  0.38135079252E+02  0.00000000000E+00 0. -1.
</event>
<event>
 7    1  0.2851651E-013  0.7246158E+02  0.7816164E-02  0.1226708E+00
        -11   -1    0    0    0    0  0.00000000000E+00  0.00000000000E+00  0.45593999997E+02  0.45594000000E+02  0.51100000000E-03 0. -1.
         11   -1    0    0    0    0 -0.00000000000E+00 -0.00000000000E+00 -0.45593999997E+02  0.45594000000E+02  0.51100000000E-03 0.  1.
    9900012    2    1    2    0    0  0.18475106301E+02 -0.11792421919E+01 -0.28211357606E+01  0.72461575569E+02  0.70000006872E+02 0.  0.
        -12    1    1    2    0    0 -0.18475106301E+02  0.11792421919E+01  0.28211357606E+01  0.18726424431E+02  0.00000000000E+00 0.  1.
         11    1    3    3    0    0  0.90605580221E+01 -0.18704878608E+02  0.14461365195E+02  0.25319898873E+02  0.51100000000E-03 0. -1.
        -11    1    3    3    0    0 -0.14250471669E+02  0.63453350733E+01 -0.13629633272E+02  0.20714876861E+02  0.51100000000E-03 0.  1.
        -12    1    3    3    0    0  0.23665019947E+02  0.11180301343E+02 -0.36528676835E+01  0.26426799835E+02  0.00000000000E+00 0.  1.
</event>
<event>
 7    1  0.2851651E-013  0.7246156E+02  0.7816164E-02  0.1226708E+00
        -11   -1    0    0    0    0  0.00000000000E+00  0.00000000000E+00  0.45593999997E+02  0.45594000000E+02  0.51100000000E-03 0. -1.
         11   -1    0    0    0    0 -0.00000000000E+00 -0.00000000000E+00 -0.45593999997E+02  0.45594000000E+02  0.51100000000E-03 0.  1.
    9900012    2    1    2    0    0  0.92077076512E+01 -0.20734689490E+01  0.16174002012E+02  0.72461561611E+02  0.69999988688E+02 0.  0.
        -12    1    1    2    0    0 -0.92077076512E+01  0.20734689490E+01 -0.16174002012E+02  0.18726438389E+02  0.00000000000E+00 0.  1.
         11    1    3    3    0    0  0.12402652655E+02  0.32663747807E+01  0.12416067956E+02  0.17850875072E+02  0.51100000000E-03 0. -1.
        -11    1    3    3    0    0 -0.17799025356E+02  0.16732309746E+02 -0.79225935360E+01  0.25681568910E+02  0.51100000000E-03 0.  1.
         12    1    3    3    0    0  0.14604080353E+02 -0.22072153476E+02  0.11680527592E+02  0.28929117630E+02  0.00000000000E+00 0. -1.
</event>
<event>
 7    1  0.2851651E-013  0.7246156E+02  0.7816164E-02  0.1226708E+00
        -11   -1    0    0    0    0  0.00000000000E+00  0.00000000000E+00  0.45593999997E+02  0.45594000000E+02  0.51100000000E-03 0. -1.
         11   -1    0    0    0    0 -0.00000000000E+00 -0.00000000000E+00 -0.45593999997E+02  0.45594000000E+02  0.51100000000E-03 0.  1.
    9900012    2    1    2    0    0 -0.31685606372E+01  0.18444315688E+02 -0.66861231824E+00  0.72461558796E+02  0.69999985022E+02 0.  0.
        -12    1    1    2    0    0  0.31685606372E+01 -0.18444315688E+02  0.66861231824E+00  0.18726441204E+02  0.00000000000E+00 0.  1.
         11    1    3    3    0    0  0.13002155791E+02  0.64533642220E+00  0.64113340706E+00  0.13033939029E+02  0.51100000000E-03 0. -1.
        -11    1    3    3    0    0  0.12041563351E+02  0.75099344119E+01 -0.19650947865E+02  0.24239598080E+02  0.51100000000E-03 0.  1.
         12    1    3    3    0    0 -0.28212279779E+02  0.10289044854E+02  0.18341202140E+02  0.35188021688E+02  0.00000000000E+00 0. -1.
</event>
<event>
 7    1  0.2851651E-013  0.7246151E+02  0.7816164E-02  0.1226708E+00
        -11   -1    0    0    0    0  0.00000000000E+00  0.00000000000E+00  0.45593999997E+02  0.45594000000E+02  0.51100000000E-03 0.  1.
         11   -1    0    0    0    0 -0.00000000000E+00 -0.00000000000E+00 -0.45593999997E+02  0.45594000000E+02  0.51100000000E-03 0. -1.
    9900012    2    1    2    0    0 -0.21553086581E+01 -0.18440146698E+02 -0.24488794734E+01  0.72461511372E+02  0.69999923243E+02 0.  0.
        -12    1    1    2    0    0  0.21553086581E+01  0.18440146698E+02  0.24488794734E+01  0.18726488628E+02  0.00000000000E+00 0.  1.
         11    1    3    3    0    0  0.64596191631E+01 -0.27568766360E+02  0.14930585481E+02  0.32010716041E+02  0.51100000000E-03 0. -1.
        -11    1    3    3    0    0 -0.33335794658E+01 -0.96759491398E+01  0.44490656693E+01  0.11159342696E+02  0.51100000000E-03 0.  1.
         12    1    3    3    0    0 -0.52813483553E+01  0.18804568803E+02 -0.21828530624E+02  0.29291452636E+02  0.00000000000E+00 0. -1.
</event>
<event>
 7    1  0.2851651E-013  0.7246157E+02  0.7816164E-02  0.1226708E+00
        -11   -1    0    0    0    0  0.00000000000E+00  0.00000000000E+00  0.45593999997E+02  0.45594000000E+02  0.51100000000E-03 0.  1.
         11   -1    0    0    0    0 -0.00000000000E+00 -0.00000000000E+00 -0.45593999997E+02  0.45594000000E+02  0.51100000000E-03 0. -1.
    9900012    2    1    2    0    0  0.16196205813E+02  0.19023796470E+01 -0.92056020466E+01  0.72461568410E+02  0.69999997545E+02 0.  0.
        -12    1    1    2    0    0 -0.16196205813E+02 -0.19023796470E+01  0.92056020466E+01  0.18726431590E+02  0.00000000000E+00 0.  1.
         11    1    3    3    0    0 -0.94972833467E+01  0.74378906040E+01  0.12372610463E+02  0.17280106989E+02  0.51100000000E-03 0. -1.
        -11    1    3    3    0    0 -0.11989512692E+02 -0.52427673483E+01 -0.49276850056E+01  0.13982743072E+02  0.51100000000E-03 0.  1.
         12    1    3    3    0    0  0.37683001852E+02 -0.29274360862E+00 -0.16650527505E+02  0.41198718348E+02  0.00000000000E+00 0. -1.
</event>
<event>
 7    1  0.2851651E-013  0.7246161E+02  0.7816164E-02  0.1226708E+00
        -11   -1    0    0    0    0  0.00000000000E+00  0.00000000000E+00  0.45593999997E+02  0.45594000000E+02  0.51100000000E-03 0.  1.
         11   -1    0    0    0    0 -0.00000000000E+00 -0.00000000000E+00 -0.45593999997E+02  0.45594000000E+02  0.51100000000E-03 0. -1.
    9900012    2    1    2    0    0  0.14643807922E+02  0.11216413035E+02  0.32293276226E+01  0.72461612502E+02  0.70000054983E+02 0.  0.
        -12    1    1    2    0    0 -0.14643807922E+02 -0.11216413035E+02 -0.32293276226E+01  0.18726387498E+02  0.00000000000E+00 0.  1.
         11    1    3    3    0    0  0.29413222965E+02  0.18113888467E+02 -0.73245011287E+01  0.35311456465E+02  0.51100000000E-03 0. -1.
        -11    1    3    3    0    0  0.90123154747E+01  0.84435088405E+00 -0.18410073917E+01  0.92371027443E+01  0.51100000000E-03 0.  1.
         12    1    3    3    0    0 -0.23781730518E+02 -0.77418263163E+01  0.12394836143E+02  0.27913053293E+02  0.00000000000E+00 0. -1.
</event>
<event>
 7    1  0.2851651E-013  0.7246167E+02  0.7816164E-02  0.1226708E+00
        -11   -1    0    0    0    0  0.00000000000E+00  0.00000000000E+00  0.45593999997E+02  0.45594000000E+02  0.51100000000E-03 0. -1.
         11   -1    0    0    0    0 -0.00000000000E+00 -0.00000000000E+00 -0.45593999997E+02  0.45594000000E+02  0.51100000000E-03 0.  1.
    9900012    2    1    2    0    0 -0.11624232171E+02  0.13774197096E+01  0.14616952938E+02  0.72461671695E+02  0.70000132092E+02 0.  0.
        -12    1    1    2    0    0  0.11624232171E+02 -0.13774197096E+01 -0.14616952938E+02  0.18726328305E+02  0.00000000000E+00 0.  1.
         11    1    3    3    0    0 -0.11602724341E+02  0.18600992635E+02  0.85756498013E+01  0.23540643766E+02  0.51100000000E-03 0. -1.
        -11    1    3    3    0    0 -0.86057872104E+01  0.98950269985E+01  0.14200235837E+02  0.19329196333E+02  0.51100000000E-03 0.  1.
        -12    1    3    3    0    0  0.85842793808E+01 -0.27118599924E+02 -0.81589327002E+01  0.29591831595E+02  0.00000000000E+00 0.  1.
</event>
<event>
 7    1  0.3022873E-013  0.7246166E+02  0.7816164E-02  0.1226708E+00
        -11   -1    0    0    0    0  0.00000000000E+00  0.00000000000E+00  0.45593999997E+02  0.45594000000E+02  0.51100000000E-03 0.  1.
         11   -1    0    0    0    0 -0.00000000000E+00 -0.00000000000E+00 -0.45593999997E+02  0.45594000000E+02  0.51100000000E-03 0. -1.
    9900012    2    1    2    0    0 -0.14401670214E+02 -0.10747100960E+02 -0.52694773071E+01  0.72461663597E+02  0.70000121543E+02 0.  0.
        -12    1    1    2    0    0  0.14401670214E+02  0.10747100960E+02  0.52694773071E+01  0.18726336403E+02  0.00000000000E+00 0.  1.
         11    1    3    3    0    0 -0.12120604024E+02 -0.71071858629E+01  0.15546566279E+02  0.20955115273E+02  0.51100000000E-03 0. -1.
        -11    1    3    3    0    0 -0.16078252968E+01  0.19832902542E+02  0.33802114737E+00  0.19900838776E+02  0.51100000000E-03 0.  1.
         12    1    3    3    0    0 -0.67324089325E+00 -0.23472817639E+02 -0.21154064733E+02  0.31605709547E+02  0.00000000000E+00 0. -1.
</event>
<event>
 7    1  0.2851651E-013  0.7246153E+02  0.7816164E-02  0.1226708E+00
        -11   -1    0    0    0    0  0.00000000000E+00  0.00000000000E+00  0.45593999997E+02  0.45594000000E+02  0.51100000000E-03 0. -1.
         11   -1    0    0    0    0 -0.00000000000E+00 -0.00000000000E+00 -0.45593999997E+02  0.45594000000E+02  0.51100000000E-03 0.  1.
    9900012    2    1    2    0    0 -0.32830554447E+01 -0.71799722344E+01  0.16980879806E+02  0.72461528540E+02  0.69999945608E+02 0.  0.
        -12    1    1    2    0    0  0.32830554447E+01  0.71799722344E+01 -0.16980879806E+02  0.18726471460E+02  0.00000000000E+00 0.  1.
         11    1    3    3    0    0  0.23059737543E+02  0.25754607125E+00  0.52479415827E+01  0.23650765667E+02  0.51100000000E-03 0. -1.
        -11    1    3    3    0    0 -0.91994186179E+00  0.53213712190E+01  0.18750799735E+02  0.19512964297E+02  0.51100000000E-03 0.  1.
        -12    1    3    3    0    0 -0.25422851125E+02 -0.12758889525E+02 -0.70178615116E+01  0.29297798577E+02  0.00000000000E+00 0.  1.
</event>
<event>
 7    1  0.2851651E-013  0.7246157E+02  0.7816164E-02  0.1226708E+00
        -11   -1    0    0    0    0  0.00000000000E+00  0.00000000000E+00  0.45593999997E+02  0.45594000000E+02  0.51100000000E-03 0.  1.
         11   -1    0    0    0    0 -0.00000000000E+00 -0.00000000000E+00 -0.45593999997E+02  0.45594000000E+02  0.51100000000E-03 0. -1.
    9900012    2    1    2    0    0  0.13137708624E+02  0.13163061367E+02 -0.21940305238E+01  0.72461565678E+02  0.69999993987E+02 0.  0.
        -12    1    1    2    0    0 -0.13137708624E+02 -0.13163061367E+02  0.21940305238E+01  0.18726434322E+02  0.00000000000E+00 0.  1.
         11    1    3    3    0    0 -0.92369740587E+01 -0.14605436324E+02  0.53530949363E+01  0.18091326254E+02  0.51100000000E-03 0. -1.
        -11    1    3    3    0    0 -0.72967424060E+01  0.19385096157E+02  0.46225519160E+01  0.21222450123E+02  0.51100000000E-03 0.  1.
         12    1    3    3    0    0  0.29671425089E+02  0.83834015344E+01 -0.12169677376E+02  0.33147789301E+02  0.00000000000E+00 0. -1.
</event>
<event>
 7    1  0.2851651E-013  0.7246158E+02  0.7816164E-02  0.1226708E+00
        -11   -1    0    0    0    0  0.00000000000E+00  0.00000000000E+00  0.45593999997E+02  0.45594000000E+02  0.51100000000E-03 0. -1.
         11   -1    0    0    0    0 -0.00000000000E+00 -0.00000000000E+00 -0.45593999997E+02  0.45594000000E+02  0.51100000000E-03 0.  1.
    9900012    2    1    2    0    0  0.42122923198E+01  0.10523246996E+02  0.14906259026E+02  0.72461583042E+02  0.70000016607E+02 0.  0.
        -12    1    1    2    0    0 -0.42122923198E+01 -0.10523246996E+02 -0.14906259026E+02  0.18726416958E+02  0.00000000000E+00 0.  1.
         11    1    3    3    0    0 -0.26551348548E+02 -0.33720921814E+01  0.69178119416E+01  0.27644189945E+02  0.51100000000E-03 0. -1.
        -11    1    3    3    0    0 -0.15626237926E+01 -0.47541775497E+01 -0.30975986172E+01  0.58855003819E+01  0.51100000000E-03 0.  1.
        -12    1    3    3    0    0  0.32326264661E+02  0.18649516727E+02  0.11086045702E+02  0.38931892715E+02  0.00000000000E+00 0.  1.
</event>
<event>
 7    1  0.2851651E-013  0.7246164E+02  0.7816164E-02  0.1226708E+00
        -11   -1    0    0    0    0  0.00000000000E+00  0.00000000000E+00  0.45593999997E+02  0.45594000000E+02  0.51100000000E-03 0.  1.
         11   -1    0    0    0    0 -0.00000000000E+00 -0.00000000000E+00 -0.45593999997E+02  0.45594000000E+02  0.51100000000E-03 0. -1.
    9900012    2    1    2    0    0 -0.17124483243E+02 -0.99813500662E+00  0.75121486392E+01  0.72461639515E+02  0.70000090172E+02 0.  0.
        -12    1    1    2    0    0  0.17124483243E+02  0.99813500662E+00 -0.75121486392E+01  0.18726360485E+02  0.00000000000E+00 0.  1.
         11    1    3    3    0    0 -0.15869856186E+02 -0.61237452941E+01  0.11573382208E+01  0.17049692777E+02  0.51100000000E-03 0. -1.
        -11    1    3    3    0    0 -0.17836594358E+02  0.15120800085E+01  0.24645695710E+02  0.30460479338E+02  0.51100000000E-03 0.  1.
         12    1    3    3    0    0  0.16581967300E+02  0.36135302791E+01 -0.18290885291E+02  0.24951467399E+02  0.00000000000E+00 0. -1.
</event>
<event>
 7    1  0.2851651E-013  0.7246157E+02  0.7816164E-02  0.1226708E+00
        -11   -1    0    0    0    0  0.00000000000E+00  0.00000000000E+00  0.45593999997E+02  0.45594000000E+02  0.51100000000E-03 0.  1.
         11   -1    0    0    0    0 -0.00000000000E+00 -0.00000000000E+00 -0.45593999997E+02  0.45594000000E+02  0.51100000000E-03 0. -1.
    9900012    2    1    2    0    0  0.11096436940E+02  0.13734730000E+02 -0.62374344129E+01  0.72461566570E+02  0.69999995149E+02 0.  0.
        -12    1    1    2    0    0 -0.11096436940E+02 -0.13734730000E+02  0.62374344129E+01  0.18726433430E+02  0.00000000000E+00 0.  1.
         11    1    3    3    0    0 -0.39753667403E+01 -0.10969083866E+02  0.18088145389E+01  0.11806614751E+02  0.51100000000E-03 0. -1.
        -11    1    3    3    0    0 -0.43371661462E+01  0.17623534134E+02  0.19226897503E+02  0.26439999118E+02  0.51100000000E-03 0.  1.
         12    1    3    3    0    0  0.19408969827E+02  0.70802797317E+01 -0.27273146454E+02  0.34214952701E+02  0.00000000000E+00 0. -1.
</event>
<event>
 7    1  0.2851651E-013  0.7246154E+02  0.7816164E-02  0.1226708E+00
        -11   -1    0    0    0    0  0.00000000000E+00  0.00000000000E+00  0.45593999997E+02  0.45594000000E+02  0.51100000000E-03 0.  1.
         11   -1    0    0    0    0 -0.00000000000E+00 -0.00000000000E+00 -0.45593999997E+02  0.45594000000E+02  0.51100000000E-03 0. -1.
    9900012    2    1    2    0    0 -0.32527044983E+01 -0.14579562153E+02 -0.11293212335E+02  0.72461538402E+02  0.69999958454E+02 0.  0.
        -12    1    1    2    0    0  0.32527044983E+01  0.14579562153E+02  0.11293212335E+02  0.18726461598E+02  0.00000000000E+00 0.  1.
         11    1    3    3    0    0  0.21918046676E+02 -0.71967889026E+01 -0.98117674930E+01  0.25069210642E+02  0.51100000000E-03 0. -1.
        -11    1    3    3    0    0 -0.12788386994E+02  0.16247756594E+02 -0.12211420761E+01  0.20712885469E+02  0.51100000000E-03 0.  1.
         12    1    3    3    0    0 -0.12382364180E+02 -0.23630529844E+02 -0.26030276609E+00  0.26679442291E+02  0.00000000000E+00 0. -1.
</event>
<event>
 7    1  0.2851651E-013  0.7246159E+02  0.7816164E-02  0.1226708E+00
        -11   -1    0    0    0    0  0.00000000000E+00  0.00000000000E+00  0.45593999997E+02  0.45594000000E+02  0.51100000000E-03 0.  1.
         11   -1    0    0    0    0 -0.00000000000E+00 -0.00000000000E+00 -0.45593999997E+02  0.45594000000E+02  0.51100000000E-03 0. -1.
    9900012    2    1    2    0    0 -0.45026894397E+01 -0.51085973796E+01 -0.17444381314E+02  0.72461590339E+02  0.70000026111E+02 0.  0.
        -12    1    1    2    0    0  0.45026894397E+01  0.51085973796E+01  0.17444381314E+02  0.18726409661E+02  0.00000000000E+00 0.  1.
         11    1    3    3    0    0  0.13943987110E+02 -0.83552645848E+01 -0.16738048917E+02  0.23332541752E+02  0.51100000000E-03 0. -1.
        -11    1    3    3    0    0  0.14505496280E+02  0.67242417335E+01 -0.33709428591E+00  0.15991825475E+02  0.51100000000E-03 0.  1.
        -12    1    3    3    0    0 -0.32952172829E+02 -0.34775745284E+01 -0.36923811122E+00  0.33137223112E+02  0.00000000000E+00 0.  1.
</event>
<event>
 7    1  0.2851651E-013  0.7246158E+02  0.7816164E-02  0.1226708E+00
        -11   -1    0    0    0    0  0.00000000000E+00  0.00000000000E+00  0.45593999997E+02  0.45594000000E+02  0.51100000000E-03 0.  1.
         11   -1    0    0    0    0 -0.00000000000E+00 -0.00000000000E+00 -0.45593999997E+02  0.45594000000E+02  0.51100000000E-03 0. -1.
    9900012    2    1    2    0    0  0.14235700600E+01 -0.17914822706E+02 -0.52641719534E+01  0.72461576672E+02  0.70000008308E+02 0.  0.
        -12    1    1    2    0    0 -0.14235700600E+01  0.17914822706E+02  0.52641719534E+01  0.18726423328E+02  0.00000000000E+00 0.  1.
         11    1    3    3    0    0  0.75799200737E+01 -0.25589642061E+02 -0.15758504695E+02  0.30993796792E+02  0.51100000000E-03 0. -1.
        -11    1    3    3    0    0 -0.21604910103E+00 -0.87894970443E+01  0.19785794212E+02  0.21651318398E+02  0.51100000000E-03 0.  1.
        -12    1    3    3    0    0 -0.59403009127E+01  0.16464316399E+02 -0.92914614700E+01  0.19816461482E+02  0.00000000000E+00 0.  1.
</event>
<event>
 7    1  0.2851651E-013  0.7246160E+02  0.7816164E-02  0.1226708E+00
        -11   -1    0    0    0    0  0.00000000000E+00  0.00000000000E+00  0.45593999997E+02  0.45594000000E+02  0.51100000000E-03 0.  1.
         11   -1    0    0    0    0 -0.00000000000E+00 -0.00000000000E+00 -0.45593999997E+02  0.45594000000E+02  0.51100000000E-03 0. -1.
    9900012    2    1    2    0    0  0.28142642470E+01 -0.49232916585E+01 -0.17847107952E+02  0.72461597615E+02  0.70000035591E+02 0.  0.
        -12    1    1    2    0    0 -0.28142642470E+01  0.49232916585E+01  0.17847107952E+02  0.18726402385E+02  0.00000000000E+00 0.  1.
         11    1    3    3    0    0  0.12069447497E+02  0.16877841054E+02 -0.29835919525E+02  0.36341645198E+02  0.51100000000E-03 0. -1.
        -11    1    3    3    0    0 -0.57339395866E+00  0.53830787441E+01  0.82010419245E+00  0.54752980325E+01  0.51100000000E-03 0.  1.
        -12    1    3    3    0    0 -0.86817892912E+01 -0.27184211457E+02  0.11168707381E+02  0.30644654385E+02  0.00000000000E+00 0.  1.
</event>
<event>
 7    1  0.2851651E-013  0.7246159E+02  0.7816164E-02  0.1226708E+00
        -11   -1    0    0    0    0  0.00000000000E+00  0.00000000000E+00  0.45593999997E+02  0.45594000000E+02  0.51100000000E-03 0. -1.
         11   -1    0    0    0    0 -0.00000000000E+00 -0.00000000000E+00 -0.45593999997E+02  0.45594000000E+02  0.51100000000E-03 0.  1.
    9900012    2    1    2    0    0 -0.62559462957E+01  0.62407161576E+01  0.16510452125E+02  0.72461589997E+02  0.70000025666E+02 0.  0.
        -12    1    1    2    0    0  0.62559462957E+01 -0.62407161576E+01 -0.16510452125E+02  0.18726410003E+02  0.00000000000E+00 0.  1.
         11    1    3    3    0    0  0.25473477619E+02 -0.79931720175E+00  0.15883384317E+02  0.30030299159E+02  0.51100000000E-03 0. -1.
        -11    1    3    3    0    0  0.25972517102E+01  0.76369058073E+01 -0.48905857553E+00  0.80812885920E+01  0.51100000000E-03 0.  1.
        -12    1    3    3    0    0 -0.34326675625E+02 -0.59687244795E+00  0.11161263843E+01  0.34350002246E+02  0.00000000000E+00 0.  1.
</event>
<event>
 7    1  0.2851651E-013  0.7246156E+02  0.7816164E-02  0.1226708E+00
        -11   -1    0    0    0    0  0.00000000000E+00  0.00000000000E+00  0.45593999997E+02  0.45594000000E+02  0.51100000000E-03 0.  1.
         11   -1    0    0    0    0 -0.00000000000E+00 -0.00000000000E+00 -0.45593999997E+02  0.45594000000E+02  0.51100000000E-03 0. -1.
    9900012    2    1    2    0    0  0.12335970485E+02 -0.71121495769E+01 -0.12162260150E+02  0.72461563837E+02  0.69999991588E+02 0.  0.
        -12    1    1    2    0    0 -0.12335970485E+02  0.71121495769E+01  0.12162260150E+02  0.18726436163E+02  0.00000000000E+00 0.  1.
         11    1    3    3    0    0  0.10058251032E+02 -0.22945123001E+02 -0.88701743719E+01  0.26576814651E+02  0.51100000000E-03 0. -1.
        -11    1    3    3    0    0  0.12910710864E+02 -0.76194324440E+01 -0.11460212269E+02  0.18870046934E+02  0.51100000000E-03 0.  1.
        -12    1    3    3    0    0 -0.10632991411E+02  0.23452405868E+02  0.81681264905E+01  0.27014702251E+02  0.00000000000E+00 0.  1.
</event>
<event>
 7    1  0.2851651E-013  0.7246159E+02  0.7816164E-02  0.1226708E+00
        -11   -1    0    0    0    0  0.00000000000E+00  0.00000000000E+00  0.45593999997E+02  0.45594000000E+02  0.51100000000E-03 0. -1.
         11   -1    0    0    0    0 -0.00000000000E+00 -0.00000000000E+00 -0.45593999997E+02  0.45594000000E+02  0.51100000000E-03 0.  1.
    9900012    2    1    2    0    0  0.13723219201E+02 -0.69237885681E+01  0.10696400490E+02  0.72461586120E+02  0.70000020616E+02 0.  0.
        -12    1    1    2    0    0 -0.13723219201E+02  0.69237885681E+01 -0.10696400490E+02  0.18726413880E+02  0.00000000000E+00 0.  1.
         11    1    3    3    0    0 -0.10633484241E+02  0.46587283977E+01  0.13146337677E+01  0.11683449815E+02  0.51100000000E-03 0. -1.
        -11    1    3    3    0    0 -0.12062498145E+02 -0.10557089054E+02 -0.10606964895E+02  0.19221438430E+02  0.51100000000E-03 0.  1.
        -12    1    3    3    0    0  0.36419201586E+02 -0.10254279122E+01  0.19988731617E+02  0.41556697875E+02  0.00000000000E+00 0.  1.
</event>
<event>
 7    1  0.2851651E-013  0.7246156E+02  0.7816164E-02  0.1226708E+00
        -11   -1    0    0    0    0  0.00000000000E+00  0.00000000000E+00  0.45593999997E+02  0.45594000000E+02  0.51100000000E-03 0.  1.
         11   -1    0    0    0    0 -0.00000000000E+00 -0.00000000000E+00 -0.45593999997E+02  0.45594000000E+02  0.51100000000E-03 0. -1.
    9900012    2    1    2    0    0  0.16446097855E+02  0.26223740701E+01 -0.85632163747E+01  0.72461557329E+02  0.69999983111E+02 0.  0.
        -12    1    1    2    0    0 -0.16446097855E+02 -0.26223740701E+01  0.85632163747E+01  0.18726442671E+02  0.00000000000E+00 0.  1.
         11    1    3    3    0    0 -0.12200400165E+02 -0.21047716155E+02 -0.16384358742E+01  0.24383203069E+02  0.51100000000E-03 0. -1.
        -11    1    3    3    0    0  0.72864310409E+01 -0.66603264390E+01 -0.46487888330E+01  0.10911611405E+02  0.51100000000E-03 0.  1.
        -12    1    3    3    0    0  0.21360066979E+02  0.30330416664E+02 -0.22759916675E+01  0.37166742855E+02  0.00000000000E+00 0.  1.
</event>
<event>
 7    1  0.2851651E-013  0.7246170E+02  0.7816164E-02  0.1226708E+00
        -11   -1    0    0    0    0  0.00000000000E+00  0.00000000000E+00  0.45593999997E+02  0.45594000000E+02  0.51100000000E-03 0. -1.
         11   -1    0    0    0    0 -0.00000000000E+00 -0.00000000000E+00 -0.45593999997E+02  0.45594000000E+02  0.51100000000E-03 0.  1.
    9900012    2    1    2    0    0 -0.90360973578E+00 -0.81464599320E+01  0.16837254700E+02  0.72461695885E+02  0.70000163605E+02 0.  0.
        -12    1    1    2    0    0  0.90360973578E+00  0.81464599320E+01 -0.16837254700E+02  0.18726304115E+02  0.00000000000E+00 0.  1.
         11    1    3    3    0    0  0.17998374500E+02 -0.60273675160E+01  0.29553592886E+02  0.35123859363E+02  0.51100000000E-03 0. -1.
        -11    1    3    3    0    0  0.63540324813E+01  0.53323252563E+01 -0.57708489215E+01  0.10104955168E+02  0.51100000000E-03 0.  1.
        -12    1    3    3    0    0 -0.25256016717E+02 -0.74514176723E+01 -0.69454892653E+01  0.27232881354E+02  0.00000000000E+00 0.  1.
</event>
<event>
 7    1  0.2851651E-013  0.7246161E+02  0.7816164E-02  0.1226708E+00
        -11   -1    0    0    0    0  0.00000000000E+00  0.00000000000E+00  0.45593999997E+02  0.45594000000E+02  0.51100000000E-03 0. -1.
         11   -1    0    0    0    0 -0.00000000000E+00 -0.00000000000E+00 -0.45593999997E+02  0.45594000000E+02  0.51100000000E-03 0.  1.
    9900012    2    1    2    0    0 -0.75583023624E+01 -0.72118750498E+01  0.15541510571E+02  0.72461611476E+02  0.70000053647E+02 0.  0.
        -12    1    1    2    0    0  0.75583023624E+01  0.72118750498E+01 -0.15541510571E+02  0.18726388524E+02  0.00000000000E+00 0.  1.
         11    1    3    3    0    0  0.17053214240E+02  0.71584605820E+01  0.30675275885E+02  0.35819383366E+02  0.51100000000E-03 0. -1.
        -11    1    3    3    0    0  0.18416363996E+01 -0.43207730233E+01 -0.33593950098E+00  0.47088809453E+01  0.51100000000E-03 0.  1.
        -12    1    3    3    0    0 -0.26453153002E+02 -0.10049562608E+02 -0.14797825813E+02  0.31933347165E+02  0.00000000000E+00 0.  1.
</event>
<event>
 7    1  0.2851651E-013  0.7246162E+02  0.7816164E-02  0.1226708E+00
        -11   -1    0    0    0    0  0.00000000000E+00  0.00000000000E+00  0.45593999997E+02  0.45594000000E+02  0.51100000000E-03 0.  1.
         11   -1    0    0    0    0 -0.00000000000E+00 -0.00000000000E+00 -0.45593999997E+02  0.45594000000E+02  0.51100000000E-03 0. -1.
    9900012    2    1    2    0    0 -0.14657218719E+02 -0.60384810112E+01 -0.99689607509E+01  0.72461615086E+02  0.70000058349E+02 0.  0.
        -12    1    1    2    0    0  0.14657218719E+02  0.60384810112E+01  0.99689607509E+01  0.18726384914E+02  0.00000000000E+00 0.  1.
         11    1    3    3    0    0  0.78708594482E+00  0.28887733870E+02 -0.29985347915E+01  0.29053603625E+02  0.51100000000E-03 0. -1.
        -11    1    3    3    0    0  0.26080066060E+01 -0.16423398054E+01  0.29493909035E+01  0.42658979659E+01  0.51100000000E-03 0.  1.
        -12    1    3    3    0    0 -0.18052311270E+02 -0.33283875076E+02 -0.99198168629E+01  0.39142113495E+02  0.00000000000E+00 0.  1.
</event>
<event>
 7    1  0.2851651E-013  0.7246159E+02  0.7816164E-02  0.1226708E+00
        -11   -1    0    0    0    0  0.00000000000E+00  0.00000000000E+00  0.45593999997E+02  0.45594000000E+02  0.51100000000E-03 0.  1.
         11   -1    0    0    0    0 -0.00000000000E+00 -0.00000000000E+00 -0.45593999997E+02  0.45594000000E+02  0.51100000000E-03 0. -1.
    9900012    2    1    2    0    0 -0.17489851695E+02 -0.63093809223E+01  0.22305150890E+01  0.72461590907E+02  0.70000026852E+02 0.  0.
        -12    1    1    2    0    0  0.17489851695E+02  0.63093809223E+01 -0.22305150890E+01  0.18726409093E+02  0.00000000000E+00 0.  1.
         11    1    3    3    0    0 -0.18568689968E+01  0.39203098117E+01 -0.22168860578E+02  0.22589271149E+02  0.51100000000E-03 0. -1.
        -11    1    3    3    0    0  0.70966581356E+01 -0.13978256008E+02 -0.84182447079E+00  0.15699135849E+02  0.51100000000E-03 0.  1.
         12    1    3    3    0    0 -0.22729640834E+02  0.37485652739E+01  0.25241200137E+02  0.34173183908E+02  0.00000000000E+00 0. -1.
</event>
<event>
 7    1  0.2851651E-013  0.7246160E+02  0.7816164E-02  0.1226708E+00
        -11   -1    0    0    0    0  0.00000000000E+00  0.00000000000E+00  0.45593999997E+02  0.45594000000E+02  0.51100000000E-03 0.  1.
         11   -1    0    0    0    0 -0.00000000000E+00 -0.00000000000E+00 -0.45593999997E+02  0.45594000000E+02  0.51100000000E-03 0. -1.
    9900012    2    1    2    0    0 -0.13337366265E+01 -0.10347796956E+01 -0.18650158698E+02  0.72461600403E+02  0.70000039222E+02 0.  0.
        -12    1    1    2    0    0  0.13337366265E+01  0.10347796956E+01  0.18650158698E+02  0.18726399597E+02  0.00000000000E+00 0.  1.
         11    1    3    3    0    0 -0.85262103656E+01 -0.70716966696E+01 -0.16768498722E+02  0.20096957646E+02  0.51100000000E-03 0. -1.
        -11    1    3    3    0    0 -0.37473582161E+01 -0.21780931636E+02  0.21370716493E+01  0.22204025582E+02  0.51100000000E-03 0.  1.
         12    1    3    3    0    0  0.10939831955E+02  0.27817848610E+02 -0.40187316256E+01  0.30160617175E+02  0.00000000000E+00 0. -1.
</event>
<event>
 7    1  0.2851651E-013  0.7246153E+02  0.7816164E-02  0.1226708E+00
        -11   -1    0    0    0    0  0.00000000000E+00  0.00000000000E+00  0.45593999997E+02  0.45594000000E+02  0.51100000000E-03 0. -1.
         11   -1    0    0    0    0 -0.00000000000E+00 -0.00000000000E+00 -0.45593999997E+02  0.45594000000E+02  0.51100000000E-03 0.  1.
    9900012    2    1    2    0    0  0.19624261685E+01 -0.13820656631E+02  0.12482741822E+02  0.72461534515E+02  0.69999953390E+02 0.  0.
        -12    1    1    2    0    0 -0.19624261685E+01  0.13820656631E+02 -0.12482741822E+02  0.18726465485E+02  0.00000000000E+00 0.  1.
         11    1    3    3    0    0 -0.88880189634E+01 -0.32242155640E+02  0.13850496378E+02  0.36199305678E+02  0.51100000000E-03 0. -1.
        -11    1    3    3    0    0  0.16890535001E+02  0.15427883277E+01  0.42324581818E+01  0.17480963102E+02  0.51100000000E-03 0.  1.
        -12    1    3    3    0    0 -0.60400898688E+01  0.16878710681E+02 -0.56002127377E+01  0.18781265735E+02  0.00000000000E+00 0.  1.
</event>
<event>
 7    1  0.2851651E-013  0.7246152E+02  0.7816164E-02  0.1226708E+00
        -11   -1    0    0    0    0  0.00000000000E+00  0.00000000000E+00  0.45593999997E+02  0.45594000000E+02  0.51100000000E-03 0. -1.
         11   -1    0    0    0    0 -0.00000000000E+00 -0.00000000000E+00 -0.45593999997E+02  0.45594000000E+02  0.51100000000E-03 0.  1.
    9900012    2    1    2    0    0  0.12125693323E+02  0.94211967156E+01  0.10718658873E+02  0.72461520508E+02  0.69999935145E+02 0.  0.
        -12    1    1    2    0    0 -0.12125693323E+02 -0.94211967156E+01 -0.10718658873E+02  0.18726479492E+02  0.00000000000E+00 0.  1.
         11    1    3    3    0    0 -0.15412296335E+02  0.25390329240E+02 -0.12488777964E+01  0.29728225531E+02  0.51100000000E-03 0. -1.
        -11    1    3    3    0    0 -0.44339962983E+01  0.13137066165E+01  0.20617347710E+01  0.50632893237E+01  0.51100000000E-03 0.  1.
        -12    1    3    3    0    0  0.31971985956E+02 -0.17282839141E+02  0.99058018981E+01  0.37670005654E+02  0.00000000000E+00 0.  1.
</event>
<event>
 7    1  0.2851651E-013  0.7246154E+02  0.7816164E-02  0.1226708E+00
        -11   -1    0    0    0    0  0.00000000000E+00  0.00000000000E+00  0.45593999997E+02  0.45594000000E+02  0.51100000000E-03 0. -1.
         11   -1    0    0    0    0 -0.00000000000E+00 -0.00000000000E+00 -0.45593999997E+02  0.45594000000E+02  0.51100000000E-03 0.  1.
    9900012    2    1    2    0    0 -0.86956238645E+01  0.13913674592E+01  0.16526658719E+02  0.72461542080E+02  0.69999963246E+02 0.  0.
        -12    1    1    2    0    0  0.86956238645E+01 -0.13913674592E+01 -0.16526658719E+02  0.18726457920E+02  0.00000000000E+00 0.  1.
         11    1    3    3    0    0 -0.96583151702E+01  0.23056747705E+02 -0.38629760403E+01  0.25294648660E+02  0.51100000000E-03 0. -1.
        -11    1    3    3    0    0 -0.98376816869E+01 -0.23879462891E+01 -0.67515003279E+01  0.12168197294E+02  0.51100000000E-03 0.  1.
         12    1    3    3    0    0  0.10800372993E+02 -0.19277433957E+02  0.27141135087E+02  0.34998696127E+02  0.00000000000E+00 0. -1.
</event>
<event>
 7    1  0.2851651E-013  0.7246158E+02  0.7816164E-02  0.1226708E+00
        -11   -1    0    0    0    0  0.00000000000E+00  0.00000000000E+00  0.45593999997E+02  0.45594000000E+02  0.51100000000E-03 0.  1.
         11   -1    0    0    0    0 -0.00000000000E+00 -0.00000000000E+00 -0.45593999997E+02  0.45594000000E+02  0.51100000000E-03 0. -1.
    9900012    2    1    2    0    0 -0.80434315218E+01 -0.16904396606E+02  0.47253986938E+00  0.72461582586E+02  0.70000016012E+02 0.  0.
        -12    1    1    2    0    0  0.80434315218E+01  0.16904396606E+02 -0.47253986938E+00  0.18726417414E+02  0.00000000000E+00 0.  1.
         11    1    3    3    0    0  0.18039320514E+02  0.14194999887E+01  0.74765711811E+01  0.19578845260E+02  0.51100000000E-03 0. -1.
        -11    1    3    3    0    0 -0.19634306962E+01  0.12298710839E+02  0.26303752499E+01  0.12729187822E+02  0.51100000000E-03 0.  1.
         12    1    3    3    0    0 -0.24119321340E+02 -0.30622607433E+02 -0.96344065616E+01  0.40153549503E+02  0.00000000000E+00 0. -1.
</event>
<event>
 7    1  0.2851651E-013  0.7246159E+02  0.7816164E-02  0.1226708E+00
        -11   -1    0    0    0    0  0.00000000000E+00  0.00000000000E+00  0.45593999997E+02  0.45594000000E+02  0.51100000000E-03 0. -1.
         11   -1    0    0    0    0 -0.00000000000E+00 -0.00000000000E+00 -0.45593999997E+02  0.45594000000E+02  0.51100000000E-03 0.  1.
    9900012    2    1    2    0    0 -0.17472189458E+02  0.67323897660E+01 -0.27555343480E+00  0.72461590678E+02  0.70000026553E+02 0.  0.
        -12    1    1    2    0    0  0.17472189458E+02 -0.67323897660E+01  0.27555343480E+00  0.18726409322E+02  0.00000000000E+00 0.  1.
         11    1    3    3    0    0 -0.11593512404E+02 -0.22858423106E+02  0.10558043754E+02  0.27719836308E+02  0.51100000000E-03 0. -1.
        -11    1    3    3    0    0  0.49753652550E+01 -0.37241140994E+01  0.32086368099E+01  0.69941858486E+01  0.51100000000E-03 0.  1.
        -12    1    3    3    0    0 -0.10854042308E+02  0.33314926972E+02 -0.14042233999E+02  0.37747568521E+02  0.00000000000E+00 0.  1.
</event>
<event>
 7    1  0.2851651E-013  0.7246157E+02  0.7816164E-02  0.1226708E+00
        -11   -1    0    0    0    0  0.00000000000E+00  0.00000000000E+00  0.45593999997E+02  0.45594000000E+02  0.51100000000E-03 0.  1.
         11   -1    0    0    0    0 -0.00000000000E+00 -0.00000000000E+00 -0.45593999997E+02  0.45594000000E+02  0.51100000000E-03 0. -1.
    9900012    2    1    2    0    0 -0.18032680295E+02  0.49134448472E+01 -0.11660059791E+01  0.72461572983E+02  0.70000003502E+02 0.  0.
        -12    1    1    2    0    0  0.18032680295E+02 -0.49134448472E+01  0.11660059791E+01  0.18726427017E+02  0.00000000000E+00 0.  1.
         11    1    3    3    0    0  0.77095039261E+01 -0.13580393639E+01  0.96677915968E+01  0.12439731360E+02  0.51100000000E-03 0. -1.
        -11    1    3    3    0    0 -0.54894406878E+01 -0.11062040629E+02  0.17305867905E+02  0.21260192053E+02  0.51100000000E-03 0.  1.
         12    1    3    3    0    0 -0.20252743533E+02  0.17333524840E+02 -0.28139665480E+02  0.38761649569E+02  0.00000000000E+00 0. -1.
</event>
<event>
 7    1  0.2851651E-013  0.7246160E+02  0.7816164E-02  0.1226708E+00
        -11   -1    0    0    0    0  0.00000000000E+00  0.00000000000E+00  0.45593999997E+02  0.45594000000E+02  0.51100000000E-03 0.  1.
         11   -1    0    0    0    0 -0.00000000000E+00 -0.00000000000E+00 -0.45593999997E+02  0.45594000000E+02  0.51100000000E-03 0. -1.
    9900012    2    1    2    0    0 -0.61250866851E+00 -0.17707633129E+02 -0.60615813819E+01  0.72461596000E+02  0.70000033487E+02 0.  0.
        -12    1    1    2    0    0  0.61250866851E+00  0.17707633129E+02  0.60615813819E+01  0.18726404000E+02  0.00000000000E+00 0.  1.
         11    1    3    3    0    0 -0.28330128837E+01  0.41729448963E+01  0.54585824040E+01  0.74320625151E+01  0.51100000000E-03 0. -1.
        -11    1    3    3    0    0 -0.17064703942E+02 -0.14866702944E+01  0.17617204205E+02  0.24571939147E+02  0.51100000000E-03 0.  1.
        -12    1    3    3    0    0  0.19285208157E+02 -0.20393907731E+02 -0.29137367991E+02  0.40457594338E+02  0.00000000000E+00 0.  1.
</event>
<event>
 7    1  0.2851651E-013  0.7246156E+02  0.7816164E-02  0.1226708E+00
        -11   -1    0    0    0    0  0.00000000000E+00  0.00000000000E+00  0.45593999997E+02  0.45594000000E+02  0.51100000000E-03 0.  1.
         11   -1    0    0    0    0 -0.00000000000E+00 -0.00000000000E+00 -0.45593999997E+02  0.45594000000E+02  0.51100000000E-03 0. -1.
    9900012    2    1    2    0    0 -0.11257063345E+02  0.14049185975E+02 -0.51554197745E+01  0.72461562678E+02  0.69999990079E+02 0.  0.
        -12    1    1    2    0    0  0.11257063345E+02 -0.14049185975E+02  0.51554197745E+01  0.18726437322E+02  0.00000000000E+00 0.  1.
         11    1    3    3    0    0  0.59929998872E+01  0.13526126085E+02 -0.22281041116E+01  0.14961169162E+02  0.51100000000E-03 0. -1.
        -11    1    3    3    0    0  0.68187311749E+01  0.12818976398E+02  0.18137552474E+02  0.23233425506E+02  0.51100000000E-03 0.  1.
         12    1    3    3    0    0 -0.24068794407E+02 -0.12295916508E+02 -0.21064868137E+02  0.34266968010E+02  0.00000000000E+00 0. -1.
</event>
<event>
 7    1  0.2851651E-013  0.7246152E+02  0.7816164E-02  0.1226708E+00
        -11   -1    0    0    0    0  0.00000000000E+00  0.00000000000E+00  0.45593999997E+02  0.45594000000E+02  0.51100000000E-03 0. -1.
         11   -1    0    0    0    0 -0.00000000000E+00 -0.00000000000E+00 -0.45593999997E+02  0.45594000000E+02  0.51100000000E-03 0.  1.
    9900012    2    1    2    0    0  0.81707102797E+01  0.16575140915E+02  0.30307072030E+01  0.72461521715E+02  0.69999936716E+02 0.  0.
        -12    1    1    2    0    0 -0.81707102797E+01 -0.16575140915E+02 -0.30307072030E+01  0.18726478285E+02  0.00000000000E+00 0.  1.
         11    1    3    3    0    0  0.19790012148E+02  0.20812809682E+02 -0.68051591305E+01  0.29514874534E+02  0.51100000000E-03 0. -1.
        -11    1    3    3    0    0  0.48599754741E+00  0.13992493447E+02 -0.66969742927E+01  0.15520165316E+02  0.51100000000E-03 0.  1.
        -12    1    3    3    0    0 -0.12105299416E+02 -0.18230162215E+02  0.16532840626E+02  0.27426481865E+02  0.00000000000E+00 0.  1.
</event>
<event>
 7    1  0.3329453E-013  0.7246164E+02  0.7816164E-02  0.1226708E+00
        -11   -1    0    0    0    0  0.00000000000E+00  0.00000000000E+00  0.45593999997E+02  0.45594000000E+02  0.51100000000E-03 0. -1.
         11   -1    0    0    0    0 -0.00000000000E+00 -0.00000000000E+00 -0.45593999997E+02  0.45594000000E+02  0.51100000000E-03 0.  1.
    9900012    2    1    2    0    0 -0.12601566837E+02  0.61645778672E+01  0.12404635191E+02  0.72461642072E+02  0.70000093503E+02 0.  0.
        -12    1    1    2    0    0  0.12601566837E+02 -0.61645778672E+01 -0.12404635191E+02  0.18726357928E+02  0.00000000000E+00 0.  1.
         11    1    3    3    0    0  0.12256311666E+01  0.24393198817E+01 -0.31545148997E+01  0.41717403748E+01  0.51100000000E-03 0. -1.
        -11    1    3    3    0    0 -0.26641607300E+02 -0.11117550163E+02 -0.14573791437E+02  0.32338375937E+02  0.51100000000E-03 0.  1.
         12    1    3    3    0    0  0.12814409296E+02  0.14842808148E+02  0.30132941528E+02  0.35951525760E+02  0.00000000000E+00 0. -1.
</event>
<event>
 7    1  0.2851651E-013  0.7246142E+02  0.7816164E-02  0.1226708E+00
        -11   -1    0    0    0    0  0.00000000000E+00  0.00000000000E+00  0.45593999997E+02  0.45594000000E+02  0.51100000000E-03 0. -1.
         11   -1    0    0    0    0 -0.00000000000E+00 -0.00000000000E+00 -0.45593999997E+02  0.45594000000E+02  0.51100000000E-03 0.  1.
    9900012    2    1    2    0    0 -0.24492569523E+01  0.94881362782E+01  0.15958110569E+02  0.72461417754E+02  0.69999801288E+02 0.  0.
        -12    1    1    2    0    0  0.24492569523E+01 -0.94881362782E+01 -0.15958110569E+02  0.18726582246E+02  0.00000000000E+00 0.  1.
         11    1    3    3    0    0  0.17468232531E+01  0.29201098387E+02 -0.12575457209E+02  0.31841759731E+02  0.51100000000E-03 0. -1.
        -11    1    3    3    0    0  0.16447461411E+00  0.12113527895E+00 -0.30575166392E+01  0.30643325398E+01  0.51100000000E-03 0.  1.
        -12    1    3    3    0    0 -0.43605548195E+01 -0.19834097387E+02  0.31591084418E+02  0.37555325484E+02  0.00000000000E+00 0.  1.
</event>
<event>
 7    1  0.2851651E-013  0.7246159E+02  0.7816164E-02  0.1226708E+00
        -11   -1    0    0    0    0  0.00000000000E+00  0.00000000000E+00  0.45593999997E+02  0.45594000000E+02  0.51100000000E-03 0.  1.
         11   -1    0    0    0    0 -0.00000000000E+00 -0.00000000000E+00 -0.45593999997E+02  0.45594000000E+02  0.51100000000E-03 0. -1.
    9900012    2    1    2    0    0 -0.16877136393E+02  0.10761483773E+01 -0.80425444431E+01  0.72461592195E+02  0.70000028529E+02 0.  0.
        -12    1    1    2    0    0  0.16877136393E+02 -0.10761483773E+01  0.80425444431E+01  0.18726407805E+02  0.00000000000E+00 0.  1.
         11    1    3    3    0    0 -0.73653929111E+01  0.17741183009E+01  0.69754606199E+01  0.10298230897E+02  0.51100000000E-03 0. -1.
        -11    1    3    3    0    0 -0.16740679404E+02 -0.27108262792E+02 -0.22189868693E+01  0.31937942349E+02  0.51100000000E-03 0.  1.
         12    1    3    3    0    0  0.72289359213E+01  0.26410292868E+02 -0.12799018194E+02  0.30225418949E+02  0.00000000000E+00 0. -1.
</event>
<event>
 7    1  0.2851651E-013  0.7246157E+02  0.7816164E-02  0.1226708E+00
        -11   -1    0    0    0    0  0.00000000000E+00  0.00000000000E+00  0.45593999997E+02  0.45594000000E+02  0.51100000000E-03 0.  1.
         11   -1    0    0    0    0 -0.00000000000E+00 -0.00000000000E+00 -0.45593999997E+02  0.45594000000E+02  0.51100000000E-03 0. -1.
    9900012    2    1    2    0    0  0.33925514731E+01  0.23030779189E+01 -0.18271989733E+02  0.72461569955E+02  0.69999999558E+02 0.  0.
        -12    1    1    2    0    0 -0.33925514731E+01 -0.23030779189E+01  0.18271989733E+02  0.18726430045E+02  0.00000000000E+00 0.  1.
         11    1    3    3    0    0 -0.46508307899E+00 -0.82159747232E+01 -0.17862444249E+02  0.19666861919E+02  0.51100000000E-03 0. -1.
        -11    1    3    3    0    0 -0.21029049772E+02  0.11915201505E+02  0.95017099215E+01  0.25970665238E+02  0.51100000000E-03 0.  1.
        -12    1    3    3    0    0  0.24886684324E+02 -0.13961488629E+01 -0.99112554056E+01  0.26824042798E+02  0.00000000000E+00 0.  1.
</event>
<event>
 7    1  0.2851651E-013  0.7246155E+02  0.7816164E-02  0.1226708E+00
        -11   -1    0    0    0    0  0.00000000000E+00  0.00000000000E+00  0.45593999997E+02  0.45594000000E+02  0.51100000000E-03 0.  1.
         11   -1    0    0    0    0 -0.00000000000E+00 -0.00000000000E+00 -0.45593999997E+02  0.45594000000E+02  0.51100000000E-03 0. -1.
    9900012    2    1    2    0    0 -0.55732879965E+00 -0.11355253094E+01 -0.18683680081E+02  0.72461549869E+02  0.69999973392E+02 0.  0.
        -12    1    1    2    0    0  0.55732879965E+00  0.11355253094E+01  0.18683680081E+02  0.18726450131E+02  0.00000000000E+00 0.  1.
         11    1    3    3    0    0 -0.93179371431E+01  0.34805276072E+01 -0.74621567991E+01  0.12434701821E+02  0.51100000000E-03 0. -1.
        -11    1    3    3    0    0 -0.39215400471E+01 -0.29240056827E+02  0.15152104623E+01  0.29540739033E+02  0.51100000000E-03 0.  1.
         12    1    3    3    0    0  0.12682148391E+02  0.24624003911E+02 -0.12736733745E+02  0.30486109015E+02  0.00000000000E+00 0. -1.
</event>
<event>
 7    1  0.2851651E-013  0.7246159E+02  0.7816164E-02  0.1226708E+00
        -11   -1    0    0    0    0  0.00000000000E+00  0.00000000000E+00  0.45593999997E+02  0.45594000000E+02  0.51100000000E-03 0.  1.
         11   -1    0    0    0    0 -0.00000000000E+00 -0.00000000000E+00 -0.45593999997E+02  0.45594000000E+02  0.51100000000E-03 0. -1.
    9900012    2    1    2    0    0  0.12959081241E+02 -0.13036931551E+02 -0.35748033179E+01  0.72461585777E+02  0.70000020169E+02 0.  0.
        -12    1    1    2    0    0 -0.12959081241E+02  0.13036931551E+02  0.35748033179E+01  0.18726414223E+02  0.00000000000E+00 0.  1.
         11    1    3    3    0    0  0.15756600623E+02  0.15237230062E+02 -0.22995687237E+02  0.31768620916E+02  0.51100000000E-03 0. -1.
        -11    1    3    3    0    0  0.89958777890E+00 -0.73006245021E+01 -0.45332535189E+01  0.86405303090E+01  0.51100000000E-03 0.  1.
        -12    1    3    3    0    0 -0.36971071604E+01 -0.20973537111E+02  0.23954137438E+02  0.32052434552E+02  0.00000000000E+00 0.  1.
</event>
<event>
 7    1  0.2851651E-013  0.7246186E+02  0.7816164E-02  0.1226707E+00
        -11   -1    0    0    0    0  0.00000000000E+00  0.00000000000E+00  0.45593999997E+02  0.45594000000E+02  0.51100000000E-03 0.  1.
         11   -1    0    0    0    0 -0.00000000000E+00 -0.00000000000E+00 -0.45593999997E+02  0.45594000000E+02  0.51100000000E-03 0. -1.
    9900012    2    1    2    0    0  0.10334038668E+02 -0.63287171021E+01 -0.14276666831E+02  0.72461862354E+02  0.70000380461E+02 0.  0.
        -12    1    1    2    0    0 -0.10334038668E+02  0.63287171021E+01  0.14276666831E+02  0.18726137646E+02  0.00000000000E+00 0.  1.
         11    1    3    3    0    0  0.15305113041E+02  0.15134457711E+02 -0.24416132348E+01  0.21662404549E+02  0.51100000000E-03 0. -1.
        -11    1    3    3    0    0 -0.21459867032E+02 -0.13145099121E+01 -0.12280451079E+02  0.24760115272E+02  0.51100000000E-03 0.  1.
         12    1    3    3    0    0  0.16488792658E+02 -0.20148664901E+02  0.44539748269E+00  0.26039342533E+02  0.00000000000E+00 0. -1.
</event>
<event>
 7    1  0.2851651E-013  0.7246153E+02  0.7816164E-02  0.1226708E+00
        -11   -1    0    0    0    0  0.00000000000E+00  0.00000000000E+00  0.45593999997E+02  0.45594000000E+02  0.51100000000E-03 0. -1.
         11   -1    0    0    0    0 -0.00000000000E+00 -0.00000000000E+00 -0.45593999997E+02  0.45594000000E+02  0.51100000000E-03 0.  1.
    9900012    2    1    2    0    0  0.13625422833E+02  0.11727671418E+02  0.52431265940E+01  0.72461526740E+02  0.69999943263E+02 0.  0.
        -12    1    1    2    0    0 -0.13625422833E+02 -0.11727671418E+02 -0.52431265940E+01  0.18726473260E+02  0.00000000000E+00 0.  1.
         11    1    3    3    0    0  0.21082864219E+01 -0.93283087366E+01 -0.11673549946E+01  0.96345697084E+01  0.51100000000E-03 0. -1.
        -11    1    3    3    0    0  0.23908674338E+02 -0.11616880457E+02  0.82570949095E+01  0.27834443353E+02  0.51100000000E-03 0.  1.
         12    1    3    3    0    0 -0.12391537928E+02  0.32672860612E+02 -0.18466133208E+01  0.34992513679E+02  0.00000000000E+00 0. -1.
</event>
<event>
 7    1  0.2851651E-013  0.7246146E+02  0.7816164E-02  0.1226708E+00
        -11   -1    0    0    0    0  0.00000000000E+00  0.00000000000E+00  0.45593999997E+02  0.45594000000E+02  0.51100000000E-03 0. -1.
         11   -1    0    0    0    0 -0.00000000000E+00 -0.00000000000E+00 -0.45593999997E+02  0.45594000000E+02  0.51100000000E-03 0.  1.
    9900012    2    1    2    0    0  0.27853115992E+01  0.17826161414E+02  0.50153247214E+01  0.72461455377E+02  0.69999850298E+02 0.  0.
        -12    1    1    2    0    0 -0.27853115992E+01 -0.17826161414E+02 -0.50153247214E+01  0.18726544623E+02  0.00000000000E+00 0.  1.
         11    1    3    3    0    0  0.19339391546E+02  0.41461932936E+01  0.22372332501E+00  0.19780117204E+02  0.51100000000E-03 0. -1.
        -11    1    3    3    0    0  0.14120884689E+02  0.13130401374E+02  0.97437654563E+01  0.21604346557E+02  0.51100000000E-03 0.  1.
         12    1    3    3    0    0 -0.30674964636E+02  0.54956674672E+00 -0.49521640599E+01  0.31076991616E+02  0.00000000000E+00 0. -1.
</event>
<event>
 7    1  0.2851651E-013  0.7246158E+02  0.7816164E-02  0.1226708E+00
        -11   -1    0    0    0    0  0.00000000000E+00  0.00000000000E+00  0.45593999997E+02  0.45594000000E+02  0.51100000000E-03 0.  1.
         11   -1    0    0    0    0 -0.00000000000E+00 -0.00000000000E+00 -0.45593999997E+02  0.45594000000E+02  0.51100000000E-03 0. -1.
    9900012    2    1    2    0    0 -0.12575722508E+01  0.13810987685E+02 -0.12583871173E+02  0.72461583298E+02  0.70000016940E+02 0.  0.
        -12    1    1    2    0    0  0.12575722508E+01 -0.13810987685E+02  0.12583871173E+02  0.18726416702E+02  0.00000000000E+00 0.  1.
         11    1    3    3    0    0 -0.27814715726E+02 -0.40365885814E+01 -0.39051975310E+01  0.28376099561E+02  0.51100000000E-03 0. -1.
        -11    1    3    3    0    0  0.46267106306E+01 -0.52697222744E+01  0.57860431646E+01  0.90914641215E+01  0.51100000000E-03 0.  1.
         12    1    3    3    0    0  0.21930432845E+02  0.23117298540E+02 -0.14464716807E+02  0.34994019615E+02  0.00000000000E+00 0. -1.
</event>
<event>
 7    1  0.2851651E-013  0.7246217E+02  0.7816164E-02  0.1226706E+00
        -11   -1    0    0    0    0  0.00000000000E+00  0.00000000000E+00  0.45593999997E+02  0.45594000000E+02  0.51100000000E-03 0.  1.
         11   -1    0    0    0    0 -0.00000000000E+00 -0.00000000000E+00 -0.45593999997E+02  0.45594000000E+02  0.51100000000E-03 0. -1.
    9900012    2    1    2    0    0  0.81509032501E+01 -0.54443218267E+00 -0.16850012248E+02  0.72462174439E+02  0.70000787006E+02 0.  0.
        -12    1    1    2    0    0 -0.81509032501E+01  0.54443218267E+00  0.16850012248E+02  0.18725825561E+02  0.00000000000E+00 0.  1.
         11    1    3    3    0    0  0.91415668850E+01  0.20725508638E+01 -0.20034212593E+02  0.22118620813E+02  0.51100000000E-03 0. -1.
        -11    1    3    3    0    0  0.24241061345E+02  0.50981099602E+00 -0.22299494337E+01  0.24348750217E+02  0.51100000000E-03 0.  1.
         12    1    3    3    0    0 -0.25231724980E+02 -0.31267940424E+01  0.54141497787E+01  0.25994803409E+02  0.00000000000E+00 0. -1.
</event>
<event>
 7    1  0.2851651E-013  0.7246158E+02  0.7816164E-02  0.1226708E+00
        -11   -1    0    0    0    0  0.00000000000E+00  0.00000000000E+00  0.45593999997E+02  0.45594000000E+02  0.51100000000E-03 0.  1.
         11   -1    0    0    0    0 -0.00000000000E+00 -0.00000000000E+00 -0.45593999997E+02  0.45594000000E+02  0.51100000000E-03 0. -1.
    9900012    2    1    2    0    0  0.96548455504E+01 -0.48622629119E+01 -0.15291208772E+02  0.72461582592E+02  0.70000016020E+02 0.  0.
        -12    1    1    2    0    0 -0.96548455504E+01  0.48622629119E+01  0.15291208772E+02  0.18726417408E+02  0.00000000000E+00 0.  1.
         11    1    3    3    0    0 -0.40552132071E+01 -0.12194653037E+02  0.31040868037E+01  0.13220804514E+02  0.51100000000E-03 0. -1.
        -11    1    3    3    0    0 -0.17890017959E+02 -0.83926153039E+01 -0.73919485826E+00  0.19774608556E+02  0.51100000000E-03 0.  1.
         12    1    3    3    0    0  0.31600076717E+02  0.15725005429E+02 -0.17656100718E+02  0.39466169523E+02  0.00000000000E+00 0. -1.
</event>
<event>
 7    1  0.2851651E-013  0.7246160E+02  0.7816164E-02  0.1226708E+00
        -11   -1    0    0    0    0  0.00000000000E+00  0.00000000000E+00  0.45593999997E+02  0.45594000000E+02  0.51100000000E-03 0. -1.
         11   -1    0    0    0    0 -0.00000000000E+00 -0.00000000000E+00 -0.45593999997E+02  0.45594000000E+02  0.51100000000E-03 0.  1.
    9900012    2    1    2    0    0 -0.55117452321E+01 -0.11681180554E+02 -0.13559077127E+02  0.72461604534E+02  0.70000044603E+02 0.  0.
        -12    1    1    2    0    0  0.55117452321E+01  0.11681180554E+02  0.13559077127E+02  0.18726395466E+02  0.00000000000E+00 0.  1.
         11    1    3    3    0    0 -0.55833693348E+01  0.36137846300E+01  0.13693400123E+02  0.15223096258E+02  0.51100000000E-03 0. -1.
        -11    1    3    3    0    0 -0.48465495182E+00 -0.19153459391E+02  0.87234065214E+01  0.21052024099E+02  0.51100000000E-03 0.  1.
        -12    1    3    3    0    0  0.55627905459E+00  0.38584942074E+01 -0.35975883771E+02  0.36186484177E+02  0.00000000000E+00 0.  1.
</event>
<event>
 7    1  0.2851651E-013  0.7246158E+02  0.7816164E-02  0.1226708E+00
        -11   -1    0    0    0    0  0.00000000000E+00  0.00000000000E+00  0.45593999997E+02  0.45594000000E+02  0.51100000000E-03 0.  1.
         11   -1    0    0    0    0 -0.00000000000E+00 -0.00000000000E+00 -0.45593999997E+02  0.45594000000E+02  0.51100000000E-03 0. -1.
    9900012    2    1    2    0    0  0.12465942101E+02 -0.98432402783E+01 -0.99191624686E+01  0.72461578139E+02  0.70000010219E+02 0.  0.
        -12    1    1    2    0    0 -0.12465942101E+02  0.98432402783E+01  0.99191624686E+01  0.18726421861E+02  0.00000000000E+00 0.  1.
         11    1    3    3    0    0  0.13418596524E+02  0.33991466214E+01  0.81080685910E+01  0.16042247566E+02  0.51100000000E-03 0. -1.
        -11    1    3    3    0    0 -0.19787898342E+02  0.90512536508E+01  0.65007563306E+00  0.21769444458E+02  0.51100000000E-03 0.  1.
         12    1    3    3    0    0  0.18835243919E+02 -0.22293640551E+02 -0.18677306693E+02  0.34649886115E+02  0.00000000000E+00 0. -1.
</event>
<event>
 7    1  0.2851651E-013  0.7246155E+02  0.7816164E-02  0.1226708E+00
        -11   -1    0    0    0    0  0.00000000000E+00  0.00000000000E+00  0.45593999997E+02  0.45594000000E+02  0.51100000000E-03 0.  1.
         11   -1    0    0    0    0 -0.00000000000E+00 -0.00000000000E+00 -0.45593999997E+02  0.45594000000E+02  0.51100000000E-03 0. -1.
    9900012    2    1    2    0    0 -0.18985607606E+01 -0.80601430436E+01 -0.16796110977E+02  0.72461553920E+02  0.69999978669E+02 0.  0.
        -12    1    1    2    0    0  0.18985607606E+01  0.80601430436E+01  0.16796110977E+02  0.18726446080E+02  0.00000000000E+00 0.  1.
         11    1    3    3    0    0  0.15219603433E+02 -0.99354123058E+01 -0.28255753589E+02  0.33596671822E+02  0.51100000000E-03 0. -1.
        -11    1    3    3    0    0  0.45561193173E+01 -0.10991467750E+02  0.44423841787E+01  0.12700604867E+02  0.51100000000E-03 0.  1.
        -12    1    3    3    0    0 -0.21674283511E+02  0.12866737012E+02  0.70172584339E+01  0.26164277231E+02  0.00000000000E+00 0.  1.
</event>
<event>
 7    1  0.2851651E-013  0.7246156E+02  0.7816164E-02  0.1226708E+00
        -11   -1    0    0    0    0  0.00000000000E+00  0.00000000000E+00  0.45593999997E+02  0.45594000000E+02  0.51100000000E-03 0. -1.
         11   -1    0    0    0    0 -0.00000000000E+00 -0.00000000000E+00 -0.45593999997E+02  0.45594000000E+02  0.51100000000E-03 0.  1.
    9900012    2    1    2    0    0  0.12433237005E+02 -0.31161515682E+01  0.13652248735E+02  0.72461556703E+02  0.69999982295E+02 0.  0.
        -12    1    1    2    0    0 -0.12433237005E+02  0.31161515682E+01 -0.13652248735E+02  0.18726443297E+02  0.00000000000E+00 0.  1.
         11    1    3    3    0    0 -0.34628889021E+00 -0.11929542207E+02  0.78495139794E+01  0.14284563810E+02  0.51100000000E-03 0. -1.
        -11    1    3    3    0    0 -0.20819658980E+02 -0.11717636335E+01  0.95314575077E+01  0.22927710582E+02  0.51100000000E-03 0.  1.
         12    1    3    3    0    0  0.33599184875E+02  0.99851542728E+01 -0.37287227518E+01  0.35249282311E+02  0.00000000000E+00 0. -1.
</event>
<event>
 7    1  0.2851651E-013  0.7246159E+02  0.7816164E-02  0.1226708E+00
        -11   -1    0    0    0    0  0.00000000000E+00  0.00000000000E+00  0.45593999997E+02  0.45594000000E+02  0.51100000000E-03 0.  1.
         11   -1    0    0    0    0 -0.00000000000E+00 -0.00000000000E+00 -0.45593999997E+02  0.45594000000E+02  0.51100000000E-03 0. -1.
    9900012    2    1    2    0    0 -0.17086857419E+01 -0.14086008758E+02  0.12220610062E+02  0.72461586570E+02  0.70000021202E+02 0.  0.
        -12    1    1    2    0    0  0.17086857419E+01  0.14086008758E+02 -0.12220610062E+02  0.18726413430E+02  0.00000000000E+00 0.  1.
         11    1    3    3    0    0  0.99583848235E+01 -0.29966618708E+02  0.29219805480E+01  0.31712862307E+02  0.51100000000E-03 0. -1.
        -11    1    3    3    0    0 -0.12516467789E+02  0.11163073386E+01 -0.10263994581E+02  0.16225217811E+02  0.51100000000E-03 0.  1.
        -12    1    3    3    0    0  0.84939722328E+00  0.14764302612E+02  0.19562624095E+02  0.24523506453E+02  0.00000000000E+00 0.  1.
</event>
<event>
 7    1  0.2851651E-013  0.7246149E+02  0.7816164E-02  0.1226708E+00
        -11   -1    0    0    0    0  0.00000000000E+00  0.00000000000E+00  0.45593999997E+02  0.45594000000E+02  0.51100000000E-03 0. -1.
         11   -1    0    0    0    0 -0.00000000000E+00 -0.00000000000E+00 -0.45593999997E+02  0.45594000000E+02  0.51100000000E-03 0.  1.
    9900012    2    1    2    0    0 -0.65669410112E+01  0.11765321363E+02  0.13005176745E+02  0.72461491430E+02  0.69999897265E+02 0.  0.
        -12    1    1    2    0    0  0.65669410112E+01 -0.11765321363E+02 -0.13005176745E+02  0.18726508570E+02  0.00000000000E+00 0.  1.
         11    1    3    3    0    0 -0.13632012473E+02  0.16970551834E+02  0.21713807469E+01  0.21875700862E+02  0.51100000000E-03 0. -1.
        -11    1    3    3    0    0 -0.11283444171E+02  0.14082044608E+02 -0.60852958721E+01  0.19043395675E+02  0.51100000000E-03 0.  1.
         12    1    3    3    0    0  0.18348515633E+02 -0.19287275079E+02  0.16919091871E+02  0.31542394893E+02  0.00000000000E+00 0. -1.
</event>
<event>
 7    1  0.2851651E-013  0.7246159E+02  0.7816164E-02  0.1226708E+00
        -11   -1    0    0    0    0  0.00000000000E+00  0.00000000000E+00  0.45593999997E+02  0.45594000000E+02  0.51100000000E-03 0.  1.
         11   -1    0    0    0    0 -0.00000000000E+00 -0.00000000000E+00 -0.45593999997E+02  0.45594000000E+02  0.51100000000E-03 0. -1.
    9900012    2    1    2    0    0 -0.36407027765E+01 -0.17600962949E+02 -0.52564004659E+01  0.72461591928E+02  0.70000028181E+02 0.  0.
        -12    1    1    2    0    0  0.36407027765E+01  0.17600962949E+02  0.52564004659E+01  0.18726408072E+02  0.00000000000E+00 0.  1.
         11    1    3    3    0    0  0.12895867425E+02 -0.23447032494E+01 -0.80779157616E+01  0.15396550045E+02  0.51100000000E-03 0. -1.
        -11    1    3    3    0    0  0.96778975155E+01  0.72821011966E-01 -0.17867138927E+02  0.20319981715E+02  0.51100000000E-03 0.  1.
        -12    1    3    3    0    0 -0.26214467717E+02 -0.15329080711E+02  0.20688654222E+02  0.36745060167E+02  0.00000000000E+00 0.  1.
</event>
<event>
 7    1  0.2851651E-013  0.7246156E+02  0.7816164E-02  0.1226708E+00
        -11   -1    0    0    0    0  0.00000000000E+00  0.00000000000E+00  0.45593999997E+02  0.45594000000E+02  0.51100000000E-03 0. -1.
         11   -1    0    0    0    0 -0.00000000000E+00 -0.00000000000E+00 -0.45593999997E+02  0.45594000000E+02  0.51100000000E-03 0.  1.
    9900012    2    1    2    0    0  0.18610299351E+02 -0.19623080215E+01 -0.69675906728E+00  0.72461564997E+02  0.69999993100E+02 0.  0.
        -12    1    1    2    0    0 -0.18610299351E+02  0.19623080215E+01  0.69675906728E+00  0.18726435003E+02  0.00000000000E+00 0.  1.
         11    1    3    3    0    0  0.11620754520E+02  0.13773442950E+02  0.12350170053E+02  0.21846655737E+02  0.51100000000E-03 0. -1.
        -11    1    3    3    0    0  0.17013009426E+02  0.97271063294E+01 -0.12500370814E+02  0.23244749042E+02  0.51100000000E-03 0.  1.
        -12    1    3    3    0    0 -0.10023464595E+02 -0.25462857301E+02 -0.54655830576E+00  0.27370160218E+02  0.00000000000E+00 0.  1.
</event>
<event>
 7    1  0.2851651E-013  0.7246153E+02  0.7816164E-02  0.1226708E+00
        -11   -1    0    0    0    0  0.00000000000E+00  0.00000000000E+00  0.45593999997E+02  0.45594000000E+02  0.51100000000E-03 0.  1.
         11   -1    0    0    0    0 -0.00000000000E+00 -0.00000000000E+00 -0.45593999997E+02  0.45594000000E+02  0.51100000000E-03 0. -1.
    9900012    2    1    2    0    0 -0.10047729704E+02 -0.15801027192E+02 -0.22660985580E+00  0.72461529843E+02  0.69999947304E+02 0.  0.
        -12    1    1    2    0    0  0.10047729704E+02  0.15801027192E+02  0.22660985580E+00  0.18726470157E+02  0.00000000000E+00 0.  1.
         11    1    3    3    0    0 -0.11756985442E+02  0.14947041936E+02 -0.20017742299E+02  0.27610700395E+02  0.51100000000E-03 0. -1.
        -11    1    3    3    0    0  0.93779457347E+01 -0.13693195816E+02 -0.13195979366E+01  0.16649048526E+02  0.51100000000E-03 0.  1.
        -12    1    3    3    0    0 -0.76686899966E+01 -0.17054873313E+02  0.21110730380E+02  0.28201780921E+02  0.00000000000E+00 0.  1.
</event>
<event>
 7    1  0.2851651E-013  0.7246155E+02  0.7816164E-02  0.1226708E+00
        -11   -1    0    0    0    0  0.00000000000E+00  0.00000000000E+00  0.45593999997E+02  0.45594000000E+02  0.51100000000E-03 0.  1.
         11   -1    0    0    0    0 -0.00000000000E+00 -0.00000000000E+00 -0.45593999997E+02  0.45594000000E+02  0.51100000000E-03 0. -1.
    9900012    2    1    2    0    0  0.11745415441E+01 -0.33673526681E+01 -0.18383721654E+02  0.72461552561E+02  0.69999976899E+02 0.  0.
        -12    1    1    2    0    0 -0.11745415441E+01  0.33673526681E+01  0.18383721654E+02  0.18726447439E+02  0.00000000000E+00 0.  1.
         11    1    3    3    0    0  0.44515912405E+01  0.10597794951E+02 -0.88320538990E+01  0.14496037346E+02  0.51100000000E-03 0. -1.
        -11    1    3    3    0    0  0.75153271660E+01  0.20049089742E+02 -0.21344123961E+01  0.21517477976E+02  0.51100000000E-03 0.  1.
         12    1    3    3    0    0 -0.10792376862E+02 -0.34014237361E+02 -0.74172553591E+01  0.36448037240E+02  0.00000000000E+00 0. -1.
</event>
<event>
 7    1  0.3175641E-013  0.7246140E+02  0.7816164E-02  0.1226708E+00
        -11   -1    0    0    0    0  0.00000000000E+00  0.00000000000E+00  0.45593999997E+02  0.45594000000E+02  0.51100000000E-03 0.  1.
         11   -1    0    0    0    0 -0.00000000000E+00 -0.00000000000E+00 -0.45593999997E+02  0.45594000000E+02  0.51100000000E-03 0. -1.
    9900012    2    1    2    0    0 -0.92779652351E+01 -0.16234741639E+02 -0.10187767008E+01  0.72461404448E+02  0.69999783954E+02 0.  0.
        -12    1    1    2    0    0  0.92779652351E+01  0.16234741639E+02  0.10187767008E+01  0.18726595552E+02  0.00000000000E+00 0.  1.
         11    1    3    3    0    0 -0.71005253096E+01 -0.27719064216E+01  0.14794254987E+02  0.16642442903E+02  0.51100000000E-03 0. -1.
        -11    1    3    3    0    0 -0.98637443683E+01  0.17327543853E+02 -0.13335939497E+02  0.23987173895E+02  0.51100000000E-03 0.  1.
         12    1    3    3    0    0  0.76863044429E+01 -0.30790379071E+02 -0.24770921909E+01  0.31831787651E+02  0.00000000000E+00 0. -1.
</event>
<event>
 7    1  0.2851651E-013  0.7246156E+02  0.7816164E-02  0.1226708E+00
        -11   -1    0    0    0    0  0.00000000000E+00  0.00000000000E+00  0.45593999997E+02  0.45594000000E+02  0.51100000000E-03 0. -1.
         11   -1    0    0    0    0 -0.00000000000E+00 -0.00000000000E+00 -0.45593999997E+02  0.45594000000E+02  0.51100000000E-03 0.  1.
    9900012    2    1    2    0    0 -0.14232303915E+02 -0.91856468750E+01 -0.79840485780E+01  0.72461558402E+02  0.69999984507E+02 0.  0.
        -12    1    1    2    0    0  0.14232303915E+02  0.91856468750E+01  0.79840485780E+01  0.18726441598E+02  0.00000000000E+00 0.  1.
         11    1    3    3    0    0  0.71166758341E+01  0.61727998640E-01 -0.20336272597E+01  0.74017920374E+01  0.51100000000E-03 0. -1.
        -11    1    3    3    0    0  0.20993080713E+02  0.15718885985E+01 -0.29045586331E+01  0.21251276025E+02  0.51100000000E-03 0.  1.
         12    1    3    3    0    0 -0.42342060462E+02 -0.10819263472E+02 -0.30458626852E+01  0.43808490339E+02  0.00000000000E+00 0. -1.
</event>
<event>
 7    1  0.2851651E-013  0.7246161E+02  0.7816164E-02  0.1226708E+00
        -11   -1    0    0    0    0  0.00000000000E+00  0.00000000000E+00  0.45593999997E+02  0.45594000000E+02  0.51100000000E-03 0. -1.
         11   -1    0    0    0    0 -0.00000000000E+00 -0.00000000000E+00 -0.45593999997E+02  0.45594000000E+02  0.51100000000E-03 0.  1.
    9900012    2    1    2    0    0 -0.27546754574E+01  0.14695029942E+02  0.11275886628E+02  0.72461607899E+02  0.70000048987E+02 0.  0.
        -12    1    1    2    0    0  0.27546754574E+01 -0.14695029942E+02 -0.11275886628E+02  0.18726392101E+02  0.00000000000E+00 0.  1.
         11    1    3    3    0    0 -0.86430811646E+01  0.96448156185E+01  0.60693911779E+01  0.14302546272E+02  0.51100000000E-03 0. -1.
        -11    1    3    3    0    0  0.14032257736E+02  0.27896569171E+02  0.11200567795E+02  0.33174923480E+02  0.51100000000E-03 0.  1.
        -12    1    3    3    0    0 -0.81438520288E+01 -0.22846354848E+02 -0.59940723449E+01  0.24984138147E+02  0.00000000000E+00 0.  1.
</event>
<event>
 7    1  0.2851651E-013  0.7246157E+02  0.7816164E-02  0.1226708E+00
        -11   -1    0    0    0    0  0.00000000000E+00  0.00000000000E+00  0.45593999997E+02  0.45594000000E+02  0.51100000000E-03 0. -1.
         11   -1    0    0    0    0 -0.00000000000E+00 -0.00000000000E+00 -0.45593999997E+02  0.45594000000E+02  0.51100000000E-03 0.  1.
    9900012    2    1    2    0    0  0.28765736006E+01 -0.16543181692E+02  0.82902194457E+01  0.72461567487E+02  0.69999996344E+02 0.  0.
        -12    1    1    2    0    0 -0.28765736006E+01  0.16543181692E+02 -0.82902194457E+01  0.18726432513E+02  0.00000000000E+00 0.  1.
         11    1    3    3    0    0  0.93006645816E+01 -0.21186786540E+02 -0.10439185934E+02  0.25384225196E+02  0.51100000000E-03 0. -1.
        -11    1    3    3    0    0  0.68082735814E+01  0.13547480326E+02 -0.70831448102E+01  0.16734926143E+02  0.51100000000E-03 0.  1.
        -12    1    3    3    0    0 -0.13232364562E+02 -0.89038754783E+01  0.25812550190E+02  0.30342416149E+02  0.00000000000E+00 0.  1.
</event>
<event>
 7    1  0.2851651E-013  0.7246153E+02  0.7816164E-02  0.1226708E+00
        -11   -1    0    0    0    0  0.00000000000E+00  0.00000000000E+00  0.45593999997E+02  0.45594000000E+02  0.51100000000E-03 0.  1.
         11   -1    0    0    0    0 -0.00000000000E+00 -0.00000000000E+00 -0.45593999997E+02  0.45594000000E+02  0.51100000000E-03 0. -1.
    9900012    2    1    2    0    0  0.16282467988E+02  0.87523670829E+01 -0.29929612103E+01  0.72461534499E+02  0.69999953370E+02 0.  0.
        -12    1    1    2    0    0 -0.16282467988E+02 -0.87523670829E+01  0.29929612103E+01  0.18726465501E+02  0.00000000000E+00 0.  1.
         11    1    3    3    0    0  0.81690152369E+01 -0.77075426100E+01 -0.34632938919E+01  0.11753017820E+02  0.51100000000E-03 0. -1.
        -11    1    3    3    0    0  0.99288454595E+01 -0.20890767870E+02  0.24612863998E+01  0.23260784281E+02  0.51100000000E-03 0.  1.
         12    1    3    3    0    0 -0.18153927080E+01  0.37350677563E+02 -0.19909537182E+01  0.37447732399E+02  0.00000000000E+00 0. -1.
</event>
<event>
 7    1  0.2851651E-013  0.7246155E+02  0.7816164E-02  0.1226708E+00
        -11   -1    0    0    0    0  0.00000000000E+00  0.00000000000E+00  0.45593999997E+02  0.45594000000E+02  0.51100000000E-03 0.  1.
         11   -1    0    0    0    0 -0.00000000000E+00 -0.00000000000E+00 -0.45593999997E+02  0.45594000000E+02  0.51100000000E-03 0. -1.
    9900012    2    1    2    0    0 -0.21834335394E+00 -0.17651669398E+02  0.62490662413E+01  0.72461549850E+02  0.69999973367E+02 0.  0.
        -12    1    1    2    0    0  0.21834335394E+00  0.17651669398E+02 -0.62490662413E+01  0.18726450150E+02  0.00000000000E+00 0.  1.
         11    1    3    3    0    0  0.69087006545E+01 -0.14461192055E+02 -0.18408338039E+02  0.24407440054E+02  0.51100000000E-03 0. -1.
        -11    1    3    3    0    0  0.11647988632E+02 -0.11408462492E+02  0.22007019515E+02  0.27388639320E+02  0.51100000000E-03 0.  1.
        -12    1    3    3    0    0 -0.18775032640E+02  0.82179851496E+01  0.26503847647E+01  0.20665470475E+02  0.00000000000E+00 0.  1.
</event>
<event>
 7    1  0.2851651E-013  0.7246156E+02  0.7816164E-02  0.1226708E+00
        -11   -1    0    0    0    0  0.00000000000E+00  0.00000000000E+00  0.45593999997E+02  0.45594000000E+02  0.51100000000E-03 0.  1.
         11   -1    0    0    0    0 -0.00000000000E+00 -0.00000000000E+00 -0.45593999997E+02  0.45594000000E+02  0.51100000000E-03 0. -1.
    9900012    2    1    2    0    0  0.12229964703E+01 -0.17229205593E+02 -0.72345190490E+01  0.72461561161E+02  0.69999988102E+02 0.  0.
        -12    1    1    2    0    0 -0.12229964703E+01  0.17229205593E+02  0.72345190490E+01  0.18726438839E+02  0.00000000000E+00 0.  1.
         11    1    3    3    0    0  0.63162551043E+01 -0.25444575729E+02 -0.85772863729E+01  0.27584259177E+02  0.51100000000E-03 0. -1.
        -11    1    3    3    0    0 -0.14408284714E+02 -0.14200927037E+02 -0.21836763648E+01  0.20347811672E+02  0.51100000000E-03 0.  1.
         12    1    3    3    0    0  0.93150260803E+01  0.22416297173E+02  0.35264436887E+01  0.24529490311E+02  0.00000000000E+00 0. -1.
</event>
<event>
 7    1  0.2851651E-013  0.7246167E+02  0.7816164E-02  0.1226708E+00
        -11   -1    0    0    0    0  0.00000000000E+00  0.00000000000E+00  0.45593999997E+02  0.45594000000E+02  0.51100000000E-03 0.  1.
         11   -1    0    0    0    0 -0.00000000000E+00 -0.00000000000E+00 -0.45593999997E+02  0.45594000000E+02  0.51100000000E-03 0. -1.
    9900012    2    1    2    0    0  0.16198038502E+02 -0.67148483003E+01 -0.65734039949E+01  0.72461674170E+02  0.70000135317E+02 0.  0.
        -12    1    1    2    0    0 -0.16198038502E+02  0.67148483003E+01  0.65734039949E+01  0.18726325830E+02  0.00000000000E+00 0.  1.
         11    1    3    3    0    0  0.15991336164E+02 -0.16750654173E+02 -0.10833846843E+02  0.25567156377E+02  0.51100000000E-03 0. -1.
        -11    1    3    3    0    0  0.20703589636E+02 -0.84287779238E+00 -0.59270929688E+01  0.21551786425E+02  0.51100000000E-03 0.  1.
        -12    1    3    3    0    0 -0.20496887298E+02  0.10878683665E+02  0.10187535816E+02  0.25342731368E+02  0.00000000000E+00 0.  1.
</event>
<event>
 7    1  0.4304918E-013  0.7246163E+02  0.7816164E-02  0.1226708E+00
        -11   -1    0    0    0    0  0.00000000000E+00  0.00000000000E+00  0.45593999997E+02  0.45594000000E+02  0.51100000000E-03 0.  1.
         11   -1    0    0    0    0 -0.00000000000E+00 -0.00000000000E+00 -0.45593999997E+02  0.45594000000E+02  0.51100000000E-03 0. -1.
    9900012    2    1    2    0    0  0.15092331543E+02 -0.86305620685E+01 -0.69578718389E+01  0.72461626792E+02  0.70000073598E+02 0.  0.
        -12    1    1    2    0    0 -0.15092331543E+02  0.86305620685E+01  0.69578718389E+01  0.18726373208E+02  0.00000000000E+00 0.  1.
         11    1    3    3    0    0  0.10838896606E+02  0.25888143316E+01  0.11766952756E+02  0.16206320270E+02  0.51100000000E-03 0. -1.
        -11    1    3    3    0    0 -0.13690887132E+02 -0.77492934327E+01  0.12487513141E+02  0.20085565062E+02  0.51100000000E-03 0.  1.
         12    1    3    3    0    0  0.17944322069E+02 -0.34700829673E+01 -0.31212337736E+02  0.36169741459E+02  0.00000000000E+00 0. -1.
</event>
<event>
 7    1  0.2851651E-013  0.7246154E+02  0.7816164E-02  0.1226708E+00
        -11   -1    0    0    0    0  0.00000000000E+00  0.00000000000E+00  0.45593999997E+02  0.45594000000E+02  0.51100000000E-03 0.  1.
         11   -1    0    0    0    0 -0.00000000000E+00 -0.00000000000E+00 -0.45593999997E+02  0.45594000000E+02  0.51100000000E-03 0. -1.
    9900012    2    1    2    0    0  0.31334602134E+01  0.18286968674E+02 -0.25394122043E+01  0.72461537159E+02  0.69999956835E+02 0.  0.
        -12    1    1    2    0    0 -0.31334602134E+01 -0.18286968674E+02  0.25394122043E+01  0.18726462841E+02  0.00000000000E+00 0.  1.
         11    1    3    3    0    0 -0.11303271466E+02 -0.68522103655E+01  0.59430438981E+01  0.14492636191E+02  0.51100000000E-03 0.  1.
        -11    1    3    3    0    0 -0.66198000524E+01 -0.82008562408E+01  0.99019902449E+01  0.14461162017E+02  0.51100000000E-03 0. -1.
         12    1    3    3    0    0  0.21056531732E+02  0.33340035281E+02 -0.18384446347E+02  0.43507738950E+02  0.00000000000E+00 0. -1.
</event>
<event>
 7    1  0.2851651E-013  0.7246156E+02  0.7816164E-02  0.1226708E+00
        -11   -1    0    0    0    0  0.00000000000E+00  0.00000000000E+00  0.45593999997E+02  0.45594000000E+02  0.51100000000E-03 0.  1.
         11   -1    0    0    0    0 -0.00000000000E+00 -0.00000000000E+00 -0.45593999997E+02  0.45594000000E+02  0.51100000000E-03 0. -1.
    9900012    2    1    2    0    0 -0.15451100056E+02  0.36691061977E+01  0.99237378930E+01  0.72461563954E+02  0.69999991740E+02 0.  0.
        -12    1    1    2    0    0  0.15451100056E+02 -0.36691061977E+01 -0.99237378930E+01  0.18726436046E+02  0.00000000000E+00 0.  1.
         11    1    3    3    0    0 -0.18179951753E+02  0.87861687905E+01  0.29238636332E+02  0.35533157227E+02  0.51100000000E-03 0. -1.
        -11    1    3    3    0    0 -0.40723349123E+01 -0.80621857995E+01  0.58057183327E+01  0.10737276988E+02  0.51100000000E-03 0.  1.
         12    1    3    3    0    0  0.68011866096E+01  0.29451232066E+01 -0.25120616771E+02  0.26191129738E+02  0.00000000000E+00 0. -1.
</event>
<event>
 7    1  0.2851651E-013  0.7246162E+02  0.7816164E-02  0.1226708E+00
        -11   -1    0    0    0    0  0.00000000000E+00  0.00000000000E+00  0.45593999997E+02  0.45594000000E+02  0.51100000000E-03 0.  1.
         11   -1    0    0    0    0 -0.00000000000E+00 -0.00000000000E+00 -0.45593999997E+02  0.45594000000E+02  0.51100000000E-03 0. -1.
    9900012    2    1    2    0    0 -0.17967385412E+02  0.48798021568E+01  0.20094272357E+01  0.72461622736E+02  0.70000068315E+02 0.  0.
        -12    1    1    2    0    0  0.17967385412E+02 -0.48798021568E+01 -0.20094272357E+01  0.18726377264E+02  0.00000000000E+00 0.  1.
         11    1    3    3    0    0 -0.24951514828E+02  0.33145339867E+01  0.26949116964E+02  0.36875725527E+02  0.51100000000E-03 0. -1.
        -11    1    3    3    0    0 -0.87300476594E+01 -0.20215235256E+01 -0.63576447823E+01  0.10987262486E+02  0.51100000000E-03 0.  1.
        -12    1    3    3    0    0  0.15714177076E+02  0.35867916958E+01 -0.18582044946E+02  0.24598634722E+02  0.00000000000E+00 0.  1.
</event>
<event>
 7    1  0.2851651E-013  0.7246167E+02  0.7816164E-02  0.1226708E+00
        -11   -1    0    0    0    0  0.00000000000E+00  0.00000000000E+00  0.45593999997E+02  0.45594000000E+02  0.51100000000E-03 0.  1.
         11   -1    0    0    0    0 -0.00000000000E+00 -0.00000000000E+00 -0.45593999997E+02  0.45594000000E+02  0.51100000000E-03 0. -1.
    9900012    2    1    2    0    0  0.57781186073E+01  0.84928558835E+01 -0.15657596445E+02  0.72461666079E+02  0.70000124777E+02 0.  0.
        -12    1    1    2    0    0 -0.57781186073E+01 -0.84928558835E+01  0.15657596445E+02  0.18726333921E+02  0.00000000000E+00 0.  1.
         11    1    3    3    0    0  0.25027911110E+01 -0.10793158832E+02  0.79830896241E+00  0.11108264418E+02  0.51100000000E-03 0. -1.
        -11    1    3    3    0    0  0.22668212924E+02 -0.62768592346E+01 -0.17392634688E+02  0.29253214877E+02  0.51100000000E-03 0.  1.
         12    1    3    3    0    0 -0.19392885427E+02  0.25562873950E+02  0.93672928103E+00  0.32100186783E+02  0.00000000000E+00 0. -1.
</event>
<event>
 7    1  0.2851651E-013  0.7246157E+02  0.7816164E-02  0.1226708E+00
        -11   -1    0    0    0    0  0.00000000000E+00  0.00000000000E+00  0.45593999997E+02  0.45594000000E+02  0.51100000000E-03 0. -1.
         11   -1    0    0    0    0 -0.00000000000E+00 -0.00000000000E+00 -0.45593999997E+02  0.45594000000E+02  0.51100000000E-03 0.  1.
    9900012    2    1    2    0    0  0.58049682281E+00 -0.46794104888E+01  0.18123058516E+02  0.72461571909E+02  0.70000002103E+02 0.  0.
        -12    1    1    2    0    0 -0.58049682281E+00  0.46794104888E+01 -0.18123058516E+02  0.18726428091E+02  0.00000000000E+00 0.  1.
         11    1    3    3    0    0 -0.25207354644E+01 -0.30967108649E+01  0.61472459690E+01  0.73302359257E+01  0.51100000000E-03 0. -1.
        -11    1    3    3    0    0 -0.16290018251E+02  0.25743239802E+02  0.69804486179E+01  0.31253891810E+02  0.51100000000E-03 0.  1.
         12    1    3    3    0    0  0.19391250538E+02 -0.27325939426E+02  0.49953639288E+01  0.33877444173E+02  0.00000000000E+00 0. -1.
</event>
<event>
 7    1  0.2851651E-013  0.7246157E+02  0.7816164E-02  0.1226708E+00
        -11   -1    0    0    0    0  0.00000000000E+00  0.00000000000E+00  0.45593999997E+02  0.45594000000E+02  0.51100000000E-03 0.  1.
         11   -1    0    0    0    0 -0.00000000000E+00 -0.00000000000E+00 -0.45593999997E+02  0.45594000000E+02  0.51100000000E-03 0. -1.
    9900012    2    1    2    0    0  0.12554221496E+02  0.71837282932E+00 -0.13876403333E+02  0.72461571981E+02  0.70000002197E+02 0.  0.
        -12    1    1    2    0    0 -0.12554221496E+02 -0.71837282932E+00  0.13876403333E+02  0.18726428019E+02  0.00000000000E+00 0.  1.
         11    1    3    3    0    0 -0.36207851516E+01  0.11446787767E+02  0.20249876294E+02  0.23541379006E+02  0.51100000000E-03 0. -1.
        -11    1    3    3    0    0  0.96803968635E+01  0.44800872502E+01  0.36102278293E+00  0.10672937876E+02  0.51100000000E-03 0.  1.
        -12    1    3    3    0    0  0.64946097844E+01 -0.15208502188E+02 -0.34487302410E+02  0.38247255099E+02  0.00000000000E+00 0.  1.
</event>
<event>
 7    1  0.2851651E-013  0.7246159E+02  0.7816164E-02  0.1226708E+00
        -11   -1    0    0    0    0  0.00000000000E+00  0.00000000000E+00  0.45593999997E+02  0.45594000000E+02  0.51100000000E-03 0. -1.
         11   -1    0    0    0    0 -0.00000000000E+00 -0.00000000000E+00 -0.45593999997E+02  0.45594000000E+02  0.51100000000E-03 0.  1.
    9900012    2    1    2    0    0  0.13079149196E+02  0.10102397098E+01  0.13363889804E+02  0.72461594081E+02  0.70000030986E+02 0.  0.
        -12    1    1    2    0    0 -0.13079149196E+02 -0.10102397098E+01 -0.13363889804E+02  0.18726405919E+02  0.00000000000E+00 0.  1.
         11    1    3    3    0    0  0.62306149372E+01  0.14328223395E+02  0.23942068484E+02  0.28589179626E+02  0.51100000000E-03 0. -1.
        -11    1    3    3    0    0  0.20749669508E+02 -0.24058166484E+00 -0.13220703344E+02  0.24604748757E+02  0.51100000000E-03 0.  1.
        -12    1    3    3    0    0 -0.13901135249E+02 -0.13077402020E+02  0.26425246632E+01  0.19267665697E+02  0.00000000000E+00 0.  1.
</event>
<event>
 7    1  0.2851651E-013  0.7246168E+02  0.7816164E-02  0.1226708E+00
        -11   -1    0    0    0    0  0.00000000000E+00  0.00000000000E+00  0.45593999997E+02  0.45594000000E+02  0.51100000000E-03 0.  1.
         11   -1    0    0    0    0 -0.00000000000E+00 -0.00000000000E+00 -0.45593999997E+02  0.45594000000E+02  0.51100000000E-03 0. -1.
    9900012    2    1    2    0    0 -0.43194755896E+01  0.28764613461E+01 -0.17992866770E+02  0.72461677514E+02  0.70000139673E+02 0.  0.
        -12    1    1    2    0    0  0.43194755896E+01 -0.28764613461E+01  0.17992866770E+02  0.18726322486E+02  0.00000000000E+00 0.  1.
         11    1    3    3    0    0 -0.20158336538E+02 -0.73212735437E+01 -0.22206517360E+02  0.30872139411E+02  0.51100000000E-03 0.  1.
        -11    1    3    3    0    0 -0.84337203898E+01  0.97744862904E+01 -0.71802466451E+01  0.14772412261E+02  0.51100000000E-03 0. -1.
        -12    1    3    3    0    0  0.24272581338E+02  0.42324859944E+00  0.11393897235E+02  0.26817125842E+02  0.00000000000E+00 0.  1.
</event>
<event>
 7    1  0.2851651E-013  0.7246133E+02  0.7816164E-02  0.1226709E+00
        -11   -1    0    0    0    0  0.00000000000E+00  0.00000000000E+00  0.45593999997E+02  0.45594000000E+02  0.51100000000E-03 0.  1.
         11   -1    0    0    0    0 -0.00000000000E+00 -0.00000000000E+00 -0.45593999997E+02  0.45594000000E+02  0.51100000000E-03 0. -1.
    9900012    2    1    2    0    0  0.45441385324E+01 -0.47388822706E+01 -0.17538011167E+02  0.72461333562E+02  0.69999691612E+02 0.  0.
        -12    1    1    2    0    0 -0.45441385324E+01  0.47388822706E+01  0.17538011167E+02  0.18726666438E+02  0.00000000000E+00 0.  1.
         11    1    3    3    0    0 -0.73551637212E+01 -0.70690129089E+01 -0.58492926867E+01  0.11759404835E+02  0.51100000000E-03 0. -1.
        -11    1    3    3    0    0  0.10649806098E+02 -0.71026662371E+01  0.22132432781E+02  0.25567769137E+02  0.51100000000E-03 0.  1.
         12    1    3    3    0    0  0.12494961560E+01  0.94327968754E+01 -0.33821151261E+02  0.35134159591E+02  0.00000000000E+00 0. -1.
</event>
<event>
 7    1  0.2851651E-013  0.7246150E+02  0.7816164E-02  0.1226708E+00
        -11   -1    0    0    0    0  0.00000000000E+00  0.00000000000E+00  0.45593999997E+02  0.45594000000E+02  0.51100000000E-03 0.  1.
         11   -1    0    0    0    0 -0.00000000000E+00 -0.00000000000E+00 -0.45593999997E+02  0.45594000000E+02  0.51100000000E-03 0. -1.
    9900012    2    1    2    0    0 -0.11365008536E+02  0.43584240532E+01 -0.14231047340E+02  0.72461495050E+02  0.69999901980E+02 0.  0.
        -12    1    1    2    0    0  0.11365008536E+02 -0.43584240532E+01  0.14231047340E+02  0.18726504950E+02  0.00000000000E+00 0.  1.
         11    1    3    3    0    0 -0.34398129684E+02 -0.24613250842E-01 -0.24048223663E+01  0.34482098289E+02  0.51100000000E-03 0. -1.
        -11    1    3    3    0    0 -0.33151929270E+01  0.90079959490E+00 -0.10853453564E+02  0.11384173162E+02  0.51100000000E-03 0.  1.
        -12    1    3    3    0    0  0.26348314075E+02  0.34822377092E+01 -0.97277141016E+00  0.26595223598E+02  0.00000000000E+00 0.  1.
</event>
<event>
 7    1  0.2851651E-013  0.7246152E+02  0.7816164E-02  0.1226708E+00
        -11   -1    0    0    0    0  0.00000000000E+00  0.00000000000E+00  0.45593999997E+02  0.45594000000E+02  0.51100000000E-03 0. -1.
         11   -1    0    0    0    0 -0.00000000000E+00 -0.00000000000E+00 -0.45593999997E+02  0.45594000000E+02  0.51100000000E-03 0.  1.
    9900012    2    1    2    0    0  0.82537966588E+01 -0.93896718792E+01  0.13942374894E+02  0.72461523690E+02  0.69999939290E+02 0.  0.
        -12    1    1    2    0    0 -0.82537966588E+01  0.93896718792E+01 -0.13942374894E+02  0.18726476310E+02  0.00000000000E+00 0.  1.
         11    1    3    3    0    0  0.96303751040E+01  0.15792512447E+02 -0.11149479442E+00  0.18497567553E+02  0.51100000000E-03 0. -1.
        -11    1    3    3    0    0  0.11640985890E+02  0.80479809587E+01 -0.29104169852E+01  0.14448289770E+02  0.51100000000E-03 0.  1.
         12    1    3    3    0    0 -0.13017564335E+02 -0.33230165285E+02  0.16964286674E+02  0.39515666367E+02  0.00000000000E+00 0. -1.
</event>
<event>
 7    1  0.2851651E-013  0.7246142E+02  0.7816164E-02  0.1226708E+00
        -11   -1    0    0    0    0  0.00000000000E+00  0.00000000000E+00  0.45593999997E+02  0.45594000000E+02  0.51100000000E-03 0. -1.
         11   -1    0    0    0    0 -0.00000000000E+00 -0.00000000000E+00 -0.45593999997E+02  0.45594000000E+02  0.51100000000E-03 0.  1.
    9900012    2    1    2    0    0 -0.33886484326E+01 -0.12613265929E+02  0.13420409224E+02  0.72461419978E+02  0.69999804184E+02 0.  0.
        -12    1    1    2    0    0  0.33886484326E+01  0.12613265929E+02 -0.13420409224E+02  0.18726580022E+02  0.00000000000E+00 0.  1.
         11    1    3    3    0    0 -0.63210370703E+01 -0.22035519656E+02 -0.58265325037E+01  0.23653078392E+02  0.51100000000E-03 0. -1.
        -11    1    3    3    0    0 -0.22013894053E+01 -0.13937686944E+02  0.20467183852E+02  0.24859823969E+02  0.51100000000E-03 0.  1.
        -12    1    3    3    0    0  0.51337780430E+01  0.23359940672E+02 -0.12202421242E+01  0.23948517616E+02  0.00000000000E+00 0.  1.
</event>
<event>
 7    1  0.3287065E-013  0.7246180E+02  0.7816164E-02  0.1226707E+00
        -11   -1    0    0    0    0  0.00000000000E+00  0.00000000000E+00  0.45593999997E+02  0.45594000000E+02  0.51100000000E-03 0.  1.
         11   -1    0    0    0    0 -0.00000000000E+00 -0.00000000000E+00 -0.45593999997E+02  0.45594000000E+02  0.51100000000E-03 0. -1.
    9900012    2    1    2    0    0  0.62561291826E+01 -0.14656927864E+02 -0.98339166098E+01  0.72461799033E+02  0.70000297975E+02 0.  0.
        -12    1    1    2    0    0 -0.62561291826E+01  0.14656927864E+02  0.98339166098E+01  0.18726200967E+02  0.00000000000E+00 0.  1.
         11    1    3    3    0    0 -0.33882496239E+01 -0.22090725439E+02 -0.32137085437E+01  0.22578935068E+02  0.51100000000E-03 0. -1.
        -11    1    3    3    0    0 -0.11376098738E+02  0.12278192813E+02  0.12631765915E+02  0.20969767563E+02  0.51100000000E-03 0.  1.
         12    1    3    3    0    0  0.21020477544E+02 -0.48443952377E+01 -0.19251973981E+02  0.28913096403E+02  0.00000000000E+00 0. -1.
</event>
<event>
 7    1  0.2851651E-013  0.7246156E+02  0.7816164E-02  0.1226708E+00
        -11   -1    0    0    0    0  0.00000000000E+00  0.00000000000E+00  0.45593999997E+02  0.45594000000E+02  0.51100000000E-03 0. -1.
         11   -1    0    0    0    0 -0.00000000000E+00 -0.00000000000E+00 -0.45593999997E+02  0.45594000000E+02  0.51100000000E-03 0.  1.
    9900012    2    1    2    0    0 -0.29701777924E+01 -0.17507066922E+02  0.59464529045E+01  0.72461557453E+02  0.69999983271E+02 0.  0.
        -12    1    1    2    0    0  0.29701777924E+01  0.17507066922E+02 -0.59464529045E+01  0.18726442547E+02  0.00000000000E+00 0.  1.
         11    1    3    3    0    0 -0.70745030985E+01 -0.14646781146E+02  0.23945691836E+02  0.28947762432E+02  0.51100000000E-03 0. -1.
        -11    1    3    3    0    0 -0.19825036527E+01 -0.43645221710E+01  0.11970791048E+02  0.12894929743E+02  0.51100000000E-03 0.  1.
        -12    1    3    3    0    0  0.60868289589E+01  0.15042363953E+01 -0.29970029979E+02  0.30618865277E+02  0.00000000000E+00 0.  1.
</event>
<event>
 7    1  0.2851651E-013  0.7246157E+02  0.7816164E-02  0.1226708E+00
        -11   -1    0    0    0    0  0.00000000000E+00  0.00000000000E+00  0.45593999997E+02  0.45594000000E+02  0.51100000000E-03 0. -1.
         11   -1    0    0    0    0 -0.00000000000E+00 -0.00000000000E+00 -0.45593999997E+02  0.45594000000E+02  0.51100000000E-03 0.  1.
    9900012    2    1    2    0    0  0.25697067792E+01  0.73812485250E+01  0.17017435774E+02  0.72461565661E+02  0.69999993965E+02 0.  0.
        -12    1    1    2    0    0 -0.25697067792E+01 -0.73812485250E+01 -0.17017435774E+02  0.18726434339E+02  0.00000000000E+00 0.  1.
         11    1    3    3    0    0 -0.16851245678E+02 -0.23466903259E+02  0.18521286719E+02  0.34317606144E+02  0.51100000000E-03 0. -1.
        -11    1    3    3    0    0  0.75325859247E+01  0.38581095402E+01 -0.17895382787E+01  0.86502778828E+01  0.51100000000E-03 0.  1.
        -12    1    3    3    0    0  0.11888366532E+02  0.26990042244E+02  0.28568733404E+00  0.29493681635E+02  0.00000000000E+00 0.  1.
</event>
<event>
 7    1  0.2851651E-013  0.7246157E+02  0.7816164E-02  0.1226708E+00
        -11   -1    0    0    0    0  0.00000000000E+00  0.00000000000E+00  0.45593999997E+02  0.45594000000E+02  0.51100000000E-03 0. -1.
         11   -1    0    0    0    0 -0.00000000000E+00 -0.00000000000E+00 -0.45593999997E+02  0.45594000000E+02  0.51100000000E-03 0.  1.
    9900012    2    1    2    0    0 -0.85312329381E-01 -0.16812599570E+02  0.82467207604E+01  0.72461569860E+02  0.69999999434E+02 0.  0.
        -12    1    1    2    0    0  0.85312329381E-01  0.16812599570E+02 -0.82467207604E+01  0.18726430140E+02  0.00000000000E+00 0.  1.
         11    1    3    3    0    0  0.89252960097E+01 -0.17345496374E+02  0.28134209948E+02  0.34235375316E+02  0.51100000000E-03 0. -1.
        -11    1    3    3    0    0  0.94222901519E+01 -0.51738896565E+01 -0.33364117888E+00  0.10754534048E+02  0.51100000000E-03 0.  1.
        -12    1    3    3    0    0 -0.18432898491E+02  0.57067864601E+01 -0.19553848009E+02  0.27471660497E+02  0.00000000000E+00 0.  1.
</event>
<event>
 7    1  0.2851651E-013  0.7246155E+02  0.7816164E-02  0.1226708E+00
        -11   -1    0    0    0    0  0.00000000000E+00  0.00000000000E+00  0.45593999997E+02  0.45594000000E+02  0.51100000000E-03 0.  1.
         11   -1    0    0    0    0 -0.00000000000E+00 -0.00000000000E+00 -0.45593999997E+02  0.45594000000E+02  0.51100000000E-03 0. -1.
    9900012    2    1    2    0    0  0.55450446000E+01 -0.14226873149E+02 -0.10841054313E+02  0.72461550848E+02  0.69999974668E+02 0.  0.
        -12    1    1    2    0    0 -0.55450446000E+01  0.14226873149E+02  0.10841054313E+02  0.18726449152E+02  0.00000000000E+00 0.  1.
         11    1    3    3    0    0  0.17197425544E+02 -0.35841232315E+01 -0.12046285033E+01  0.17608194534E+02  0.51100000000E-03 0. -1.
        -11    1    3    3    0    0 -0.18609232797E+02 -0.27311114049E+02  0.24204806878E+01  0.33136976671E+02  0.51100000000E-03 0.  1.
         12    1    3    3    0    0  0.69568518530E+01  0.16668364131E+02 -0.12056906497E+02  0.21716379643E+02  0.00000000000E+00 0. -1.
</event>
<event>
 7    1  0.2851651E-013  0.7246201E+02  0.7816164E-02  0.1226707E+00
        -11   -1    0    0    0    0  0.00000000000E+00  0.00000000000E+00  0.45593999997E+02  0.45594000000E+02  0.51100000000E-03 0. -1.
         11   -1    0    0    0    0 -0.00000000000E+00 -0.00000000000E+00 -0.45593999997E+02  0.45594000000E+02  0.51100000000E-03 0.  1.
    9900012    2    1    2    0    0  0.17607982493E+02 -0.45991289009E+01  0.44124245248E+01  0.72462014730E+02  0.70000578958E+02 0.  0.
        -12    1    1    2    0    0 -0.17607982493E+02  0.45991289009E+01 -0.44124245248E+01  0.18725985270E+02  0.00000000000E+00 0.  1.
         11    1    3    3    0    0  0.17986200791E+02 -0.21746394836E+02  0.13956025432E+02  0.31483007375E+02  0.51100000000E-03 0.  1.
        -11    1    3    3    0    0  0.94271519959E+01 -0.80011103272E+01 -0.47286164891E-01  0.12364918013E+02  0.51100000000E-03 0. -1.
        -12    1    3    3    0    0 -0.98053702938E+01  0.25148376262E+02 -0.94963147418E+01  0.28614089342E+02  0.00000000000E+00 0.  1.
</event>
<event>
 7    1  0.2851651E-013  0.7246157E+02  0.7816164E-02  0.1226708E+00
        -11   -1    0    0    0    0  0.00000000000E+00  0.00000000000E+00  0.45593999997E+02  0.45594000000E+02  0.51100000000E-03 0.  1.
         11   -1    0    0    0    0 -0.00000000000E+00 -0.00000000000E+00 -0.45593999997E+02  0.45594000000E+02  0.51100000000E-03 0. -1.
    9900012    2    1    2    0    0 -0.88174200536E+01  0.68370402290E+01 -0.15039521340E+02  0.72461569009E+02  0.69999998326E+02 0.  0.
        -12    1    1    2    0    0  0.88174200536E+01 -0.68370402290E+01  0.15039521340E+02  0.18726430991E+02  0.00000000000E+00 0.  1.
         11    1    3    3    0    0 -0.12205031501E+02  0.87556033757E+01 -0.24249370824E+02  0.28524644959E+02  0.51100000000E-03 0. -1.
        -11    1    3    3    0    0  0.10928178281E+02  0.16391011214E+02 -0.40417556711E+01  0.20110348538E+02  0.51100000000E-03 0.  1.
         12    1    3    3    0    0 -0.75405668329E+01 -0.18309574361E+02  0.13251605155E+02  0.23826575512E+02  0.00000000000E+00 0. -1.
</event>
<event>
 7    1  0.2851651E-013  0.7246123E+02  0.7816164E-02  0.1226709E+00
        -11   -1    0    0    0    0  0.00000000000E+00  0.00000000000E+00  0.45593999997E+02  0.45594000000E+02  0.51100000000E-03 0.  1.
         11   -1    0    0    0    0 -0.00000000000E+00 -0.00000000000E+00 -0.45593999997E+02  0.45594000000E+02  0.51100000000E-03 0. -1.
    9900012    2    1    2    0    0  0.10203475490E+02 -0.19846874262E+01 -0.15576973679E+02  0.72461227581E+02  0.69999553550E+02 0.  0.
        -12    1    1    2    0    0 -0.10203475490E+02  0.19846874262E+01  0.15576973679E+02  0.18726772419E+02  0.00000000000E+00 0.  1.
         11    1    3    3    0    0 -0.88762030787E+01  0.25667612964E+01 -0.12908484005E+02  0.15874640286E+02  0.51100000000E-03 0. -1.
        -11    1    3    3    0    0 -0.91229807016E-01 -0.23154846483E+02 -0.14553166048E+02  0.27348672378E+02  0.51100000000E-03 0.  1.
        -12    1    3    3    0    0  0.19170908375E+02  0.18603397760E+02  0.11884676375E+02  0.29237914917E+02  0.00000000000E+00 0.  1.
</event>
<event>
 7    1  0.2851651E-013  0.7246167E+02  0.7816164E-02  0.1226708E+00
        -11   -1    0    0    0    0  0.00000000000E+00  0.00000000000E+00  0.45593999997E+02  0.45594000000E+02  0.51100000000E-03 0. -1.
         11   -1    0    0    0    0 -0.00000000000E+00 -0.00000000000E+00 -0.45593999997E+02  0.45594000000E+02  0.51100000000E-03 0.  1.
    9900012    2    1    2    0    0 -0.14158155362E+02  0.11865564491E+02  0.30709254029E+01  0.72461666489E+02  0.70000125311E+02 0.  0.
        -12    1    1    2    0    0  0.14158155362E+02 -0.11865564491E+02 -0.30709254029E+01  0.18726333511E+02  0.00000000000E+00 0.  1.
         11    1    3    3    0    0  0.45384536576E+01  0.47023375283E+00 -0.47831284967E+01  0.66103706297E+01  0.51100000000E-03 0. -1.
        -11    1    3    3    0    0 -0.29833342042E+02 -0.16968373397E+02 -0.24272412701E+00  0.34322192651E+02  0.51100000000E-03 0.  1.
         12    1    3    3    0    0  0.11136733022E+02  0.28363704135E+02  0.80967780266E+01  0.31529103208E+02  0.00000000000E+00 0. -1.
</event>
<event>
 7    1  0.2851651E-013  0.7246157E+02  0.7816164E-02  0.1226708E+00
        -11   -1    0    0    0    0  0.00000000000E+00  0.00000000000E+00  0.45593999997E+02  0.45594000000E+02  0.51100000000E-03 0. -1.
         11   -1    0    0    0    0 -0.00000000000E+00 -0.00000000000E+00 -0.45593999997E+02  0.45594000000E+02  0.51100000000E-03 0.  1.
    9900012    2    1    2    0    0  0.61913924953E+01  0.15999990305E+02 -0.75064072935E+01  0.72461569981E+02  0.69999999592E+02 0.  0.
        -12    1    1    2    0    0 -0.61913924953E+01 -0.15999990305E+02  0.75064072935E+01  0.18726430019E+02  0.00000000000E+00 0.  1.
         11    1    3    3    0    0 -0.19660421753E+02  0.33872560718E+01  0.81348766176E+01  0.21544881180E+02  0.51100000000E-03 0. -1.
        -11    1    3    3    0    0 -0.36064314941E+01  0.16239768004E+02 -0.13011814243E+02  0.21119747231E+02  0.51100000000E-03 0.  1.
         12    1    3    3    0    0  0.29458245742E+02 -0.36270337711E+01 -0.26294696676E+01  0.29796941570E+02  0.00000000000E+00 0. -1.
</event>
<event>
 7    1  0.2851651E-013  0.7246157E+02  0.7816164E-02  0.1226708E+00
        -11   -1    0    0    0    0  0.00000000000E+00  0.00000000000E+00  0.45593999997E+02  0.45594000000E+02  0.51100000000E-03 0. -1.
         11   -1    0    0    0    0 -0.00000000000E+00 -0.00000000000E+00 -0.45593999997E+02  0.45594000000E+02  0.51100000000E-03 0.  1.
    9900012    2    1    2    0    0 -0.11095011003E+02 -0.86080198762E+01  0.12388785943E+02  0.72461567011E+02  0.69999995723E+02 0.  0.
        -12    1    1    2    0    0  0.11095011003E+02  0.86080198762E+01 -0.12388785943E+02  0.18726432989E+02  0.00000000000E+00 0.  1.
         11    1    3    3    0    0  0.12419298074E+02 -0.24866713662E+02 -0.25241848457E+01  0.27909925159E+02  0.51100000000E-03 0. -1.
        -11    1    3    3    0    0 -0.94833539781E+01 -0.42507309394E+01  0.16665480523E+02  0.19640289140E+02  0.51100000000E-03 0.  1.
        -12    1    3    3    0    0 -0.14030955099E+02  0.20509424725E+02 -0.17525097343E+01  0.24911352712E+02  0.00000000000E+00 0.  1.
</event>
<event>
 7    1  0.2851651E-013  0.7246157E+02  0.7816164E-02  0.1226708E+00
        -11   -1    0    0    0    0  0.00000000000E+00  0.00000000000E+00  0.45593999997E+02  0.45594000000E+02  0.51100000000E-03 0.  1.
         11   -1    0    0    0    0 -0.00000000000E+00 -0.00000000000E+00 -0.45593999997E+02  0.45594000000E+02  0.51100000000E-03 0. -1.
    9900012    2    1    2    0    0 -0.32733970636E+01 -0.17702797929E+02 -0.51550982747E+01  0.72461568918E+02  0.69999998207E+02 0.  0.
        -12    1    1    2    0    0  0.32733970636E+01  0.17702797929E+02  0.51550982747E+01  0.18726431082E+02  0.00000000000E+00 0.  1.
         11    1    3    3    0    0  0.17243198207E+02  0.13392963626E+02  0.87879148766E+00  0.21851124315E+02  0.51100000000E-03 0. -1.
        -11    1    3    3    0    0 -0.10907738595E+02  0.43356072655E+01  0.42540930177E+01  0.12484933291E+02  0.51100000000E-03 0.  1.
         12    1    3    3    0    0 -0.96088566750E+01 -0.35431368821E+02 -0.10287982780E+02  0.38125511312E+02  0.00000000000E+00 0. -1.
</event>
<event>
 7    1  0.2851651E-013  0.7246158E+02  0.7816164E-02  0.1226708E+00
        -11   -1    0    0    0    0  0.00000000000E+00  0.00000000000E+00  0.45593999997E+02  0.45594000000E+02  0.51100000000E-03 0.  1.
         11   -1    0    0    0    0 -0.00000000000E+00 -0.00000000000E+00 -0.45593999997E+02  0.45594000000E+02  0.51100000000E-03 0. -1.
    9900012    2    1    2    0    0 -0.10679174170E+00  0.14800966283E+02  0.11471646723E+02  0.72461583206E+02  0.70000016820E+02 0.  0.
        -12    1    1    2    0    0  0.10679174170E+00 -0.14800966283E+02 -0.11471646723E+02  0.18726416794E+02  0.00000000000E+00 0.  1.
         11    1    3    3    0    0  0.70895490922E+01  0.16635517779E+02 -0.25900303363E+02  0.31588413582E+02  0.51100000000E-03 0. -1.
        -11    1    3    3    0    0  0.17894018822E+01  0.47853543591E+01  0.15463744098E+02  0.16285851443E+02  0.51100000000E-03 0.  1.
        -12    1    3    3    0    0 -0.89857427161E+01 -0.66199058554E+01  0.21908205988E+02  0.24587318181E+02  0.00000000000E+00 0.  1.
</event>
<event>
 7    1  0.2851651E-013  0.7246156E+02  0.7816164E-02  0.1226708E+00
        -11   -1    0    0    0    0  0.00000000000E+00  0.00000000000E+00  0.45593999997E+02  0.45594000000E+02  0.51100000000E-03 0. -1.
         11   -1    0    0    0    0 -0.00000000000E+00 -0.00000000000E+00 -0.45593999997E+02  0.45594000000E+02  0.51100000000E-03 0.  1.
    9900012    2    1    2    0    0  0.80088952435E+01 -0.15224143536E+02  0.74001648102E+01  0.72461564444E+02  0.69999992378E+02 0.  0.
        -12    1    1    2    0    0 -0.80088952435E+01  0.15224143536E+02 -0.74001648102E+01  0.18726435556E+02  0.00000000000E+00 0.  1.
         11    1    3    3    0    0 -0.20573059972E+01  0.10245162027E+02  0.21462586659E+02  0.23871289854E+02  0.51100000000E-03 0. -1.
        -11    1    3    3    0    0  0.19522130991E+02 -0.16098916187E+02  0.45472945487E+01  0.25709270484E+02  0.51100000000E-03 0.  1.
        -12    1    3    3    0    0 -0.94559297502E+01 -0.93703893758E+01 -0.18609716398E+02  0.22881004106E+02  0.00000000000E+00 0.  1.
</event>
<event>
 7    1  0.2851651E-013  0.7246154E+02  0.7816164E-02  0.1226708E+00
        -11   -1    0    0    0    0  0.00000000000E+00  0.00000000000E+00  0.45593999997E+02  0.45594000000E+02  0.51100000000E-03 0. -1.
         11   -1    0    0    0    0 -0.00000000000E+00 -0.00000000000E+00 -0.45593999997E+02  0.45594000000E+02  0.51100000000E-03 0.  1.
    9900012    2    1    2    0    0  0.15616112958E+02 -0.82858213829E+01  0.61775755409E+01  0.72461541192E+02  0.69999962089E+02 0.  0.
        -12    1    1    2    0    0 -0.15616112958E+02  0.82858213829E+01 -0.61775755409E+01  0.18726458808E+02  0.00000000000E+00 0.  1.
         11    1    3    3    0    0  0.18344168007E+01 -0.13383903192E+02  0.15244393186E+02  0.20368737651E+02  0.51100000000E-03 0. -1.
        -11    1    3    3    0    0 -0.60648062743E+01 -0.12358786037E+02  0.12023640591E+02  0.18278112616E+02  0.51100000000E-03 0.  1.
        -12    1    3    3    0    0  0.19846502432E+02  0.17456867846E+02 -0.21090458236E+02  0.33814690925E+02  0.00000000000E+00 0.  1.
</event>
<event>
 7    1  0.2851651E-013  0.7246201E+02  0.7816164E-02  0.1226707E+00
        -11   -1    0    0    0    0  0.00000000000E+00  0.00000000000E+00  0.45593999997E+02  0.45594000000E+02  0.51100000000E-03 0. -1.
         11   -1    0    0    0    0 -0.00000000000E+00 -0.00000000000E+00 -0.45593999997E+02  0.45594000000E+02  0.51100000000E-03 0.  1.
    9900012    2    1    2    0    0  0.79722703095E+00 -0.14800486884E+02  0.11444329254E+02  0.72462011241E+02  0.70000574412E+02 0.  0.
        -12    1    1    2    0    0 -0.79722703095E+00  0.14800486884E+02 -0.11444329254E+02  0.18725988759E+02  0.00000000000E+00 0.  1.
         11    1    3    3    0    0 -0.83606994574E+01  0.14630307044E+02  0.14533354183E+02  0.22252315917E+02  0.51100000000E-03 0. -1.
        -11    1    3    3    0    0  0.10962683280E+02  0.70352843824E+01 -0.41873913800E+01  0.13682466805E+02  0.51100000000E-03 0.  1.
         12    1    3    3    0    0 -0.18047567915E+01 -0.36466078310E+02  0.10983664505E+01  0.36527228518E+02  0.00000000000E+00 0. -1.
</event>
<event>
 7    1  0.2851651E-013  0.7246162E+02  0.7816164E-02  0.1226708E+00
        -11   -1    0    0    0    0  0.00000000000E+00  0.00000000000E+00  0.45593999997E+02  0.45594000000E+02  0.51100000000E-03 0. -1.
         11   -1    0    0    0    0 -0.00000000000E+00 -0.00000000000E+00 -0.45593999997E+02  0.45594000000E+02  0.51100000000E-03 0.  1.
    9900012    2    1    2    0    0  0.58434222777E+01  0.94021125621E+01  0.15104040697E+02  0.72461618878E+02  0.70000063290E+02 0.  0.
        -12    1    1    2    0    0 -0.58434222777E+01 -0.94021125621E+01 -0.15104040697E+02  0.18726381122E+02  0.00000000000E+00 0.  1.
         11    1    3    3    0    0 -0.37650967180E+01  0.70868279040E+01  0.12720061028E+02  0.15039914756E+02  0.51100000000E-03 0. -1.
        -11    1    3    3    0    0  0.11998156075E+02  0.79871132554E+00  0.28614770093E+02  0.31038665512E+02  0.51100000000E-03 0.  1.
         12    1    3    3    0    0 -0.23896370791E+01  0.15165733325E+01 -0.26230790425E+02  0.26383038611E+02  0.00000000000E+00 0. -1.
</event>
<event>
 7    1  0.2851651E-013  0.7246156E+02  0.7816164E-02  0.1226708E+00
        -11   -1    0    0    0    0  0.00000000000E+00  0.00000000000E+00  0.45593999997E+02  0.45594000000E+02  0.51100000000E-03 0.  1.
         11   -1    0    0    0    0 -0.00000000000E+00 -0.00000000000E+00 -0.45593999997E+02  0.45594000000E+02  0.51100000000E-03 0. -1.
    9900012    2    1    2    0    0  0.12670476932E+02 -0.12416413514E+02  0.59976003207E+01  0.72461560940E+02  0.69999987815E+02 0.  0.
        -12    1    1    2    0    0 -0.12670476932E+02  0.12416413514E+02 -0.59976003207E+01  0.18726439060E+02  0.00000000000E+00 0.  1.
         11    1    3    3    0    0  0.29167287124E+01 -0.39427455617E+01 -0.27212713303E+01  0.56087313057E+01  0.51100000000E-03 0. -1.
        -11    1    3    3    0    0  0.37248484268E+02 -0.27401703813E+01  0.10233823379E+02  0.38725821556E+02  0.51100000000E-03 0.  1.
         12    1    3    3    0    0 -0.27494736048E+02 -0.57334975713E+01 -0.15149517282E+01  0.28127008079E+02  0.00000000000E+00 0. -1.
</event>
<event>
 7    1  0.2851651E-013  0.7246160E+02  0.7816164E-02  0.1226708E+00
        -11   -1    0    0    0    0  0.00000000000E+00  0.00000000000E+00  0.45593999997E+02  0.45594000000E+02  0.51100000000E-03 0.  1.
         11   -1    0    0    0    0 -0.00000000000E+00 -0.00000000000E+00 -0.45593999997E+02  0.45594000000E+02  0.51100000000E-03 0. -1.
    9900012    2    1    2    0    0 -0.15690844778E+02  0.10177079174E+02  0.95000528524E+00  0.72461599908E+02  0.70000038577E+02 0.  0.
        -12    1    1    2    0    0  0.15690844778E+02 -0.10177079174E+02 -0.95000528524E+00  0.18726400092E+02  0.00000000000E+00 0.  1.
         11    1    3    3    0    0 -0.47046502080E+01 -0.25343180649E+00 -0.16781541117E+02  0.17430378188E+02  0.51100000000E-03 0. -1.
        -11    1    3    3    0    0  0.11245651518E+02 -0.11566995452E+02 -0.43946871969E+01  0.16720446695E+02  0.51100000000E-03 0.  1.
         12    1    3    3    0    0 -0.22231846088E+02  0.21997506433E+02  0.22126233599E+02  0.38310775025E+02  0.00000000000E+00 0. -1.
</event>
<event>
 7    1  0.2851651E-013  0.7246154E+02  0.7816164E-02  0.1226708E+00
        -11   -1    0    0    0    0  0.00000000000E+00  0.00000000000E+00  0.45593999997E+02  0.45594000000E+02  0.51100000000E-03 0.  1.
         11   -1    0    0    0    0 -0.00000000000E+00 -0.00000000000E+00 -0.45593999997E+02  0.45594000000E+02  0.51100000000E-03 0. -1.
    9900012    2    1    2    0    0 -0.17901120715E+01  0.64219485092E+01 -0.17499550445E+02  0.72461543056E+02  0.69999964518E+02 0.  0.
        -12    1    1    2    0    0  0.17901120715E+01 -0.64219485092E+01  0.17499550445E+02  0.18726456944E+02  0.00000000000E+00 0.  1.
         11    1    3    3    0    0 -0.15262029590E+02  0.17598575650E+02 -0.25575095555E+01  0.23434595527E+02  0.51100000000E-03 0. -1.
        -11    1    3    3    0    0  0.29316142871E+01  0.14904387204E+02  0.32405923165E+01  0.15531791883E+02  0.51100000000E-03 0.  1.
        -12    1    3    3    0    0  0.10540303231E+02 -0.26081014346E+02 -0.18182633206E+02  0.33495155647E+02  0.00000000000E+00 0.  1.
</event>
<event>
 7    1  0.2851651E-013  0.7246158E+02  0.7816164E-02  0.1226708E+00
        -11   -1    0    0    0    0  0.00000000000E+00  0.00000000000E+00  0.45593999997E+02  0.45594000000E+02  0.51100000000E-03 0. -1.
         11   -1    0    0    0    0 -0.00000000000E+00 -0.00000000000E+00 -0.45593999997E+02  0.45594000000E+02  0.51100000000E-03 0.  1.
    9900012    2    1    2    0    0  0.12709718609E+02  0.94213007083E+01  0.10019024782E+02  0.72461582517E+02  0.70000015923E+02 0.  0.
        -12    1    1    2    0    0 -0.12709718609E+02 -0.94213007083E+01 -0.10019024782E+02  0.18726417483E+02  0.00000000000E+00 0.  1.
         11    1    3    3    0    0  0.24383391661E+02  0.73603551185E+01  0.15556110732E+02  0.29844885621E+02  0.51100000000E-03 0. -1.
        -11    1    3    3    0    0 -0.15115171882E+01  0.18814187608E+02 -0.11540404407E+02  0.22123274479E+02  0.51100000000E-03 0.  1.
        -12    1    3    3    0    0 -0.10162155863E+02 -0.16753242018E+02  0.60033184565E+01  0.20493422418E+02  0.00000000000E+00 0.  1.
</event>
<event>
 7    1  0.2851651E-013  0.7246158E+02  0.7816164E-02  0.1226708E+00
        -11   -1    0    0    0    0  0.00000000000E+00  0.00000000000E+00  0.45593999997E+02  0.45594000000E+02  0.51100000000E-03 0.  1.
         11   -1    0    0    0    0 -0.00000000000E+00 -0.00000000000E+00 -0.45593999997E+02  0.45594000000E+02  0.51100000000E-03 0. -1.
    9900012    2    1    2    0    0  0.17326652082E+02 -0.56330663958E+01 -0.43283577905E+01  0.72461575073E+02  0.70000006225E+02 0.  0.
        -12    1    1    2    0    0 -0.17326652082E+02  0.56330663958E+01  0.43283577905E+01  0.18726424927E+02  0.00000000000E+00 0.  1.
         11    1    3    3    0    0  0.14096340605E+02 -0.72495312114E+01 -0.94445927509E+01  0.18451635530E+02  0.51100000000E-03 0. -1.
        -11    1    3    3    0    0 -0.11760014039E+02 -0.13733815665E+02 -0.15825474100E+02  0.24028342716E+02  0.51100000000E-03 0.  1.
        -12    1    3    3    0    0  0.14990325517E+02  0.15350280481E+02  0.20941709060E+02  0.29981596827E+02  0.00000000000E+00 0.  1.
</event>
<event>
 7    1  0.2851651E-013  0.7246133E+02  0.7816164E-02  0.1226709E+00
        -11   -1    0    0    0    0  0.00000000000E+00  0.00000000000E+00  0.45593999997E+02  0.45594000000E+02  0.51100000000E-03 0.  1.
         11   -1    0    0    0    0 -0.00000000000E+00 -0.00000000000E+00 -0.45593999997E+02  0.45594000000E+02  0.51100000000E-03 0. -1.
    9900012    2    1    2    0    0 -0.12218949372E+02 -0.11344774591E+02  0.85253360678E+01  0.72461334804E+02  0.69999693230E+02 0.  0.
        -12    1    1    2    0    0  0.12218949372E+02  0.11344774591E+02 -0.85253360678E+01  0.18726665196E+02  0.00000000000E+00 0.  1.
         11    1    3    3    0    0 -0.53991632610E+01 -0.92212000735E+01  0.16062792885E+01  0.10805629465E+02  0.51100000000E-03 0. -1.
        -11    1    3    3    0    0 -0.86902451093E+01 -0.74217341403E+01  0.33027881265E+02  0.34949155052E+02  0.51100000000E-03 0.  1.
        -12    1    3    3    0    0  0.18704589980E+01  0.52981596227E+01 -0.26108824486E+02  0.26706550288E+02  0.00000000000E+00 0.  1.
</event>
<event>
 7    1  0.2851651E-013  0.7246155E+02  0.7816164E-02  0.1226708E+00
        -11   -1    0    0    0    0  0.00000000000E+00  0.00000000000E+00  0.45593999997E+02  0.45594000000E+02  0.51100000000E-03 0.  1.
         11   -1    0    0    0    0 -0.00000000000E+00 -0.00000000000E+00 -0.45593999997E+02  0.45594000000E+02  0.51100000000E-03 0. -1.
    9900012    2    1    2    0    0  0.52388321771E+01 -0.17693997955E+00 -0.17977856139E+02  0.72461548609E+02  0.69999971751E+02 0.  0.
        -12    1    1    2    0    0 -0.52388321771E+01  0.17693997955E+00  0.17977856139E+02  0.18726451391E+02  0.00000000000E+00 0.  1.
         11    1    3    3    0    0  0.11076249220E+02 -0.18639912309E+02 -0.16614178792E+02  0.27315939758E+02  0.51100000000E-03 0. -1.
        -11    1    3    3    0    0  0.35896057211E+01 -0.35194394352E+01  0.15227677688E+02  0.16036018558E+02  0.51100000000E-03 0.  1.
        -12    1    3    3    0    0 -0.94270227639E+01  0.21982411764E+02 -0.16591355035E+02  0.29109590294E+02  0.00000000000E+00 0.  1.
</event>
<event>
 7    1  0.2851651E-013  0.7246168E+02  0.7816164E-02  0.1226708E+00
        -11   -1    0    0    0    0  0.00000000000E+00  0.00000000000E+00  0.45593999997E+02  0.45594000000E+02  0.51100000000E-03 0.  1.
         11   -1    0    0    0    0 -0.00000000000E+00 -0.00000000000E+00 -0.45593999997E+02  0.45594000000E+02  0.51100000000E-03 0. -1.
    9900012    2    1    2    0    0  0.13483839756E+02  0.85453478378E+01  0.97896979858E+01  0.72461679195E+02  0.70000141864E+02 0.  0.
        -12    1    1    2    0    0 -0.13483839756E+02 -0.85453478378E+01 -0.97896979858E+01  0.18726320805E+02  0.00000000000E+00 0.  1.
         11    1    3    3    0    0  0.12122538830E+02  0.17748784391E+02 -0.14839365593E+02  0.26118615325E+02  0.51100000000E-03 0. -1.
        -11    1    3    3    0    0 -0.11538894831E+02 -0.91176878362E+01 -0.37434976843E+01  0.15175378103E+02  0.51100000000E-03 0.  1.
         12    1    3    3    0    0  0.12900195757E+02 -0.85748717167E-01  0.28372561263E+02  0.31167685767E+02  0.00000000000E+00 0. -1.
</event>
<event>
 7    1  0.3304760E-013  0.7246151E+02  0.7816164E-02  0.1226708E+00
        -11   -1    0    0    0    0  0.00000000000E+00  0.00000000000E+00  0.45593999997E+02  0.45594000000E+02  0.51100000000E-03 0.  1.
         11   -1    0    0    0    0 -0.00000000000E+00 -0.00000000000E+00 -0.45593999997E+02  0.45594000000E+02  0.51100000000E-03 0. -1.
    9900012    2    1    2    0    0 -0.16456511988E+02  0.88583832026E+01  0.11804959850E+01  0.72461513128E+02  0.69999925531E+02 0.  0.
        -12    1    1    2    0    0  0.16456511988E+02 -0.88583832026E+01 -0.11804959850E+01  0.18726486872E+02  0.00000000000E+00 0.  1.
         11    1    3    3    0    0 -0.11608341547E+02  0.11561425388E+02  0.17998727042E+02  0.24338741255E+02  0.51100000000E-03 0. -1.
        -11    1    3    3    0    0  0.60795058602E+01 -0.20199036832E+02  0.63206745288E+00  0.21103577658E+02  0.51100000000E-03 0.  1.
         12    1    3    3    0    0 -0.10927676301E+02  0.17495994646E+02 -0.17450298509E+02  0.27019194216E+02  0.00000000000E+00 0. -1.
</event>
<event>
 7    1  0.2851651E-013  0.7246186E+02  0.7816164E-02  0.1226707E+00
        -11   -1    0    0    0    0  0.00000000000E+00  0.00000000000E+00  0.45593999997E+02  0.45594000000E+02  0.51100000000E-03 0.  1.
         11   -1    0    0    0    0 -0.00000000000E+00 -0.00000000000E+00 -0.45593999997E+02  0.45594000000E+02  0.51100000000E-03 0. -1.
    9900012    2    1    2    0    0 -0.11545794998E+01 -0.24472658989E+01 -0.18529606644E+02  0.72461855533E+02  0.70000371575E+02 0.  0.
        -12    1    1    2    0    0  0.11545794998E+01  0.24472658989E+01  0.18529606644E+02  0.18726144467E+02  0.00000000000E+00 0.  1.
         11    1    3    3    0    0 -0.56393551617E+01 -0.35948098215E+01  0.84376526601E+00  0.67406916839E+01  0.51100000000E-03 0.  1.
        -11    1    3    3    0    0  0.17882288040E+02  0.27750560030E+02 -0.10412454052E+02  0.34616311288E+02  0.51100000000E-03 0. -1.
         12    1    3    3    0    0 -0.13397512379E+02 -0.26603016108E+02 -0.89609178581E+01  0.31104852561E+02  0.00000000000E+00 0. -1.
</event>
<event>
 7    1  0.2851651E-013  0.7246162E+02  0.7816164E-02  0.1226708E+00
        -11   -1    0    0    0    0  0.00000000000E+00  0.00000000000E+00  0.45593999997E+02  0.45594000000E+02  0.51100000000E-03 0.  1.
         11   -1    0    0    0    0 -0.00000000000E+00 -0.00000000000E+00 -0.45593999997E+02  0.45594000000E+02  0.51100000000E-03 0. -1.
    9900012    2    1    2    0    0  0.39720880136E+01  0.36122336413E+01 -0.17940220297E+02  0.72461622363E+02  0.70000067830E+02 0.  0.
        -12    1    1    2    0    0 -0.39720880136E+01 -0.36122336413E+01  0.17940220297E+02  0.18726377637E+02  0.00000000000E+00 0.  1.
         11    1    3    3    0    0  0.16324387867E+02  0.19008678378E+01  0.26004674426E+01  0.16639151689E+02  0.51100000000E-03 0.  1.
        -11    1    3    3    0    0 -0.13469111455E+02 -0.17639684907E+01 -0.36764092941E+02  0.39193457085E+02  0.51100000000E-03 0. -1.
         12    1    3    3    0    0  0.11168116022E+01  0.34753342943E+01  0.16223405201E+02  0.16629013589E+02  0.00000000000E+00 0. -1.
</event>
<event>
 7    1  0.2851651E-013  0.7246141E+02  0.7816164E-02  0.1226708E+00
        -11   -1    0    0    0    0  0.00000000000E+00  0.00000000000E+00  0.45593999997E+02  0.45594000000E+02  0.51100000000E-03 0.  1.
         11   -1    0    0    0    0 -0.00000000000E+00 -0.00000000000E+00 -0.45593999997E+02  0.45594000000E+02  0.51100000000E-03 0. -1.
    9900012    2    1    2    0    0 -0.57921920815E+01  0.31779722934E+01  0.17522449965E+02  0.72461407951E+02  0.69999788517E+02 0.  0.
        -12    1    1    2    0    0  0.57921920815E+01 -0.31779722934E+01 -0.17522449965E+02  0.18726592049E+02  0.00000000000E+00 0.  1.
         11    1    3    3    0    0  0.22792077856E+02  0.18122060140E+02  0.73687558590E+01  0.30036418560E+02  0.51100000000E-03 0. -1.
        -11    1    3    3    0    0 -0.64300099805E+01 -0.73527161375E+01  0.15577262708E+02  0.18386369317E+02  0.51100000000E-03 0.  1.
        -12    1    3    3    0    0 -0.22154259957E+02 -0.75913717090E+01 -0.54235686017E+01  0.24038620074E+02  0.00000000000E+00 0.  1.
</event>
<event>
 7    1  0.2851651E-013  0.7246144E+02  0.7816164E-02  0.1226708E+00
        -11   -1    0    0    0    0  0.00000000000E+00  0.00000000000E+00  0.45593999997E+02  0.45594000000E+02  0.51100000000E-03 0. -1.
         11   -1    0    0    0    0 -0.00000000000E+00 -0.00000000000E+00 -0.45593999997E+02  0.45594000000E+02  0.51100000000E-03 0.  1.
    9900012    2    1    2    0    0  0.18713086713E+02 -0.36175693394E+00  0.61134374795E+00  0.72461435350E+02  0.69999824210E+02 0.  0.
        -12    1    1    2    0    0 -0.18713086713E+02  0.36175693394E+00 -0.61134374795E+00  0.18726564650E+02  0.00000000000E+00 0.  1.
         11    1    3    3    0    0 -0.44938629463E+01  0.44368826199E+01 -0.36883663329E+01  0.73133287927E+01  0.51100000000E-03 0. -1.
        -11    1    3    3    0    0  0.36884786489E+01  0.27235443368E+02  0.12551702577E+01  0.27512718928E+02  0.51100000000E-03 0.  1.
         12    1    3    3    0    0  0.19518471011E+02 -0.32034082922E+02  0.30445398231E+01  0.37635387629E+02  0.00000000000E+00 0. -1.
</event>
<event>
 7    1  0.2851651E-013  0.7246162E+02  0.7816164E-02  0.1226708E+00
        -11   -1    0    0    0    0  0.00000000000E+00  0.00000000000E+00  0.45593999997E+02  0.45594000000E+02  0.51100000000E-03 0.  1.
         11   -1    0    0    0    0 -0.00000000000E+00 -0.00000000000E+00 -0.45593999997E+02  0.45594000000E+02  0.51100000000E-03 0. -1.
    9900012    2    1    2    0    0  0.89348126111E+01  0.34466099722E+00 -0.16453803363E+02  0.72461619872E+02  0.70000064584E+02 0.  0.
        -12    1    1    2    0    0 -0.89348126111E+01 -0.34466099722E+00  0.16453803363E+02  0.18726380128E+02  0.00000000000E+00 0.  1.
         11    1    3    3    0    0 -0.76949395695E+01 -0.52216557223E+01  0.27358014789E+01  0.96934201113E+01  0.51100000000E-03 0. -1.
        -11    1    3    3    0    0  0.18775384489E+02 -0.16003685873E+02  0.98212951506E+01  0.26553547088E+02  0.51100000000E-03 0.  1.
         12    1    3    3    0    0 -0.21456323087E+01  0.21570002592E+02 -0.29010899993E+02  0.36214652673E+02  0.00000000000E+00 0. -1.
</event>
<event>
 7    1  0.3188252E-013  0.7246158E+02  0.7816164E-02  0.1226708E+00
        -11   -1    0    0    0    0  0.00000000000E+00  0.00000000000E+00  0.45593999997E+02  0.45594000000E+02  0.51100000000E-03 0. -1.
         11   -1    0    0    0    0 -0.00000000000E+00 -0.00000000000E+00 -0.45593999997E+02  0.45594000000E+02  0.51100000000E-03 0.  1.
    9900012    2    1    2    0    0 -0.29285181261E+01 -0.58399936307E+01  0.17549843452E+02  0.72461581517E+02  0.70000014619E+02 0.  0.
        -12    1    1    2    0    0  0.29285181261E+01  0.58399936307E+01 -0.17549843452E+02  0.18726418483E+02  0.00000000000E+00 0.  1.
         11    1    3    3    0    0 -0.15698515208E+01  0.13223747797E+02 -0.73379830268E-01  0.13316806090E+02  0.51100000000E-03 0. -1.
        -11    1    3    3    0    0  0.21121345890E+02  0.65493934587E+01  0.97530562541E+01  0.24168738350E+02  0.51100000000E-03 0.  1.
         12    1    3    3    0    0 -0.22480012496E+02 -0.25613134886E+02  0.78701670283E+01  0.34976037076E+02  0.00000000000E+00 0. -1.
</event>
<event>
 7    1  0.2851651E-013  0.7246155E+02  0.7816164E-02  0.1226708E+00
        -11   -1    0    0    0    0  0.00000000000E+00  0.00000000000E+00  0.45593999997E+02  0.45594000000E+02  0.51100000000E-03 0.  1.
         11   -1    0    0    0    0 -0.00000000000E+00 -0.00000000000E+00 -0.45593999997E+02  0.45594000000E+02  0.51100000000E-03 0. -1.
    9900012    2    1    2    0    0  0.11994144816E+02  0.94521858706E+01  0.10838660391E+02  0.72461551146E+02  0.69999975056E+02 0.  0.
        -12    1    1    2    0    0 -0.11994144816E+02 -0.94521858706E+01 -0.10838660391E+02  0.18726448854E+02  0.00000000000E+00 0.  1.
         11    1    3    3    0    0  0.70257318932E+01  0.23067885838E+02  0.26844056360E+02  0.36084506755E+02  0.51100000000E-03 0.  1.
        -11    1    3    3    0    0  0.11240397026E+02  0.17502892012E+01  0.23657139359E+01  0.11619235787E+02  0.51100000000E-03 0. -1.
         12    1    3    3    0    0 -0.62719841032E+01 -0.15365989169E+02 -0.18371109904E+02  0.24757808603E+02  0.00000000000E+00 0. -1.
</event>
<event>
 7    1  0.2851651E-013  0.7246157E+02  0.7816164E-02  0.1226708E+00
        -11   -1    0    0    0    0  0.00000000000E+00  0.00000000000E+00  0.45593999997E+02  0.45594000000E+02  0.51100000000E-03 0. -1.
         11   -1    0    0    0    0 -0.00000000000E+00 -0.00000000000E+00 -0.45593999997E+02  0.45594000000E+02  0.51100000000E-03 0.  1.
    9900012    2    1    2    0    0 -0.15757343561E+01  0.10464919128E+02  0.15449326536E+02  0.72461570507E+02  0.70000000277E+02 0.  0.
        -12    1    1    2    0    0  0.15757343561E+01 -0.10464919128E+02 -0.15449326536E+02  0.18726429493E+02  0.00000000000E+00 0.  1.
         11    1    3    3    0    0  0.17389066573E+02  0.14014585975E+02  0.25130573823E+02  0.33620440170E+02  0.51100000000E-03 0. -1.
        -11    1    3    3    0    0  0.51987442199E+01  0.60158167955E+01  0.46019808844E+01  0.91866871886E+01  0.51100000000E-03 0.  1.
        -12    1    3    3    0    0 -0.24163545149E+02 -0.95654836416E+01 -0.14283228171E+02  0.29654443148E+02  0.00000000000E+00 0.  1.
</event>
<event>
 7    1  0.2851651E-013  0.7246156E+02  0.7816164E-02  0.1226708E+00
        -11   -1    0    0    0    0  0.00000000000E+00  0.00000000000E+00  0.45593999997E+02  0.45594000000E+02  0.51100000000E-03 0.  1.
         11   -1    0    0    0    0 -0.00000000000E+00 -0.00000000000E+00 -0.45593999997E+02  0.45594000000E+02  0.51100000000E-03 0. -1.
    9900012    2    1    2    0    0 -0.58046293977E+01  0.12692588838E+02 -0.12485354508E+02  0.72461558505E+02  0.69999984642E+02 0.  0.
        -12    1    1    2    0    0  0.58046293977E+01 -0.12692588838E+02  0.12485354508E+02  0.18726441495E+02  0.00000000000E+00 0.  1.
         11    1    3    3    0    0 -0.62060286184E+01  0.12804386783E+02 -0.11529525429E+02  0.18313849103E+02  0.51100000000E-03 0. -1.
        -11    1    3    3    0    0  0.87152060370E+00  0.26273187718E+02  0.57732061072E+01  0.26914119901E+02  0.51100000000E-03 0.  1.
         12    1    3    3    0    0 -0.47012138302E+00 -0.26384985663E+02 -0.67290351863E+01  0.27233589500E+02  0.00000000000E+00 0. -1.
</event>
<event>
 7    1  0.2851651E-013  0.7246152E+02  0.7816164E-02  0.1226708E+00
        -11   -1    0    0    0    0  0.00000000000E+00  0.00000000000E+00  0.45593999997E+02  0.45594000000E+02  0.51100000000E-03 0.  1.
         11   -1    0    0    0    0 -0.00000000000E+00 -0.00000000000E+00 -0.45593999997E+02  0.45594000000E+02  0.51100000000E-03 0. -1.
    9900012    2    1    2    0    0 -0.81115738735E+01  0.60066860423E+00 -0.16867799405E+02  0.72461519011E+02  0.69999933194E+02 0.  0.
        -12    1    1    2    0    0  0.81115738735E+01 -0.60066860423E+00  0.16867799405E+02  0.18726480989E+02  0.00000000000E+00 0.  1.
         11    1    3    3    0    0 -0.99333686458E+01 -0.25427644509E+01  0.77945835850E+01  0.12879945545E+02  0.51100000000E-03 0. -1.
        -11    1    3    3    0    0  0.43368324713E+01 -0.52905147466E+01  0.16303722872E+02  0.17680753431E+02  0.51100000000E-03 0.  1.
         12    1    3    3    0    0 -0.25150376989E+01  0.84339478018E+01 -0.40966105861E+02  0.41900820035E+02  0.00000000000E+00 0. -1.
</event>
<event>
 7    1  0.2851651E-013  0.7246154E+02  0.7816164E-02  0.1226708E+00
        -11   -1    0    0    0    0  0.00000000000E+00  0.00000000000E+00  0.45593999997E+02  0.45594000000E+02  0.51100000000E-03 0.  1.
         11   -1    0    0    0    0 -0.00000000000E+00 -0.00000000000E+00 -0.45593999997E+02  0.45594000000E+02  0.51100000000E-03 0. -1.
    9900012    2    1    2    0    0 -0.50782692128E+01 -0.13929467787E+02 -0.11439473161E+02  0.72461536447E+02  0.69999955907E+02 0.  0.
        -12    1    1    2    0    0  0.50782692128E+01  0.13929467787E+02  0.11439473161E+02  0.18726463553E+02  0.00000000000E+00 0.  1.
         11    1    3    3    0    0 -0.19616848005E+02 -0.32490635841E+02 -0.17509567921E+02  0.41797692664E+02  0.51100000000E-03 0. -1.
        -11    1    3    3    0    0 -0.32853901411E+01 -0.11089416424E+01  0.17038066222E+00  0.34716811168E+01  0.51100000000E-03 0.  1.
        -12    1    3    3    0    0  0.17823968934E+02  0.19670109696E+02  0.58997140985E+01  0.27192162666E+02  0.00000000000E+00 0.  1.
</event>
<event>
 7    1  0.2851651E-013  0.7246159E+02  0.7816164E-02  0.1226708E+00
        -11   -1    0    0    0    0  0.00000000000E+00  0.00000000000E+00  0.45593999997E+02  0.45594000000E+02  0.51100000000E-03 0. -1.
         11   -1    0    0    0    0 -0.00000000000E+00 -0.00000000000E+00 -0.45593999997E+02  0.45594000000E+02  0.51100000000E-03 0.  1.
    9900012    2    1    2    0    0 -0.19926962606E+01 -0.22600238618E+01  0.18482422699E+02  0.72461588302E+02  0.70000023458E+02 0.  0.
        -12    1    1    2    0    0  0.19926962606E+01  0.22600238618E+01 -0.18482422699E+02  0.18726411698E+02  0.00000000000E+00 0.  1.
         11    1    3    3    0    0 -0.16212271262E+02  0.99836225595E+01 -0.88016088995E+01  0.20975671107E+02  0.51100000000E-03 0. -1.
        -11    1    3    3    0    0  0.15395307482E+01 -0.12636819976E+01 -0.10214529901E+02  0.10406904846E+02  0.51100000000E-03 0.  1.
         12    1    3    3    0    0  0.12680044254E+02 -0.10979964424E+02  0.37498561500E+02  0.41079012349E+02  0.00000000000E+00 0. -1.
</event>
<event>
 7    1  0.2851651E-013  0.7246160E+02  0.7816164E-02  0.1226708E+00
        -11   -1    0    0    0    0  0.00000000000E+00  0.00000000000E+00  0.45593999997E+02  0.45594000000E+02  0.51100000000E-03 0.  1.
         11   -1    0    0    0    0 -0.00000000000E+00 -0.00000000000E+00 -0.45593999997E+02  0.45594000000E+02  0.51100000000E-03 0. -1.
    9900012    2    1    2    0    0  0.18256019795E+02  0.34132683358E+01  0.23969757585E+01  0.72461597455E+02  0.70000035382E+02 0.  0.
        -12    1    1    2    0    0 -0.18256019795E+02 -0.34132683358E+01 -0.23969757585E+01  0.18726402545E+02  0.00000000000E+00 0.  1.
         11    1    3    3    0    0 -0.17803939803E+01  0.23749322045E+01 -0.73284110012E+01  0.79066879137E+01  0.51100000000E-03 0. -1.
        -11    1    3    3    0    0  0.33786660408E+01  0.19626475448E+02 -0.18285689815E+02  0.27036648738E+02  0.51100000000E-03 0.  1.
        -12    1    3    3    0    0  0.16657747735E+02 -0.18588139316E+02  0.28011076575E+02  0.37518260803E+02  0.00000000000E+00 0.  1.
</event>
<event>
 7    1  0.2851651E-013  0.7246154E+02  0.7816164E-02  0.1226708E+00
        -11   -1    0    0    0    0  0.00000000000E+00  0.00000000000E+00  0.45593999997E+02  0.45594000000E+02  0.51100000000E-03 0. -1.
         11   -1    0    0    0    0 -0.00000000000E+00 -0.00000000000E+00 -0.45593999997E+02  0.45594000000E+02  0.51100000000E-03 0.  1.
    9900012    2    1    2    0    0  0.39707650550E+01 -0.15634876057E+02 -0.95112532484E+01  0.72461541103E+02  0.69999961973E+02 0.  0.
        -12    1    1    2    0    0 -0.39707650550E+01  0.15634876057E+02  0.95112532484E+01  0.18726458897E+02  0.00000000000E+00 0.  1.
         11    1    3    3    0    0  0.15048043559E+01 -0.55201816353E+01 -0.58143739645E+01  0.81574374834E+01  0.51100000000E-03 0. -1.
        -11    1    3    3    0    0 -0.20751222762E+02 -0.24665704665E+02  0.98946667445E+01  0.33718165178E+02  0.51100000000E-03 0.  1.
         12    1    3    3    0    0  0.23217183461E+02  0.14551010243E+02 -0.13591546028E+02  0.30585938442E+02  0.00000000000E+00 0. -1.
</event>
<event>
 7    1  0.2851651E-013  0.7246157E+02  0.7816164E-02  0.1226708E+00
        -11   -1    0    0    0    0  0.00000000000E+00  0.00000000000E+00  0.45593999997E+02  0.45594000000E+02  0.51100000000E-03 0.  1.
         11   -1    0    0    0    0 -0.00000000000E+00 -0.00000000000E+00 -0.45593999997E+02  0.45594000000E+02  0.51100000000E-03 0. -1.
    9900012    2    1    2    0    0  0.97311503781E+01 -0.87951427938E+01 -0.13365234972E+02  0.72461566001E+02  0.69999994407E+02 0.  0.
        -12    1    1    2    0    0 -0.97311503781E+01  0.87951427938E+01  0.13365234972E+02  0.18726433999E+02  0.00000000000E+00 0.  1.
         11    1    3    3    0    0  0.99236454105E+01 -0.47636830734E+01  0.21523666653E+01  0.11216242561E+02  0.51100000000E-03 0. -1.
        -11    1    3    3    0    0  0.78360247175E+01  0.10952410319E+02  0.18696057873E+02  0.23041292399E+02  0.51100000000E-03 0.  1.
         12    1    3    3    0    0 -0.80285197499E+01 -0.14983870040E+02 -0.34213659510E+02  0.38204031042E+02  0.00000000000E+00 0. -1.
</event>
<event>
 7    1  0.3436385E-013  0.7246152E+02  0.7816164E-02  0.1226708E+00
        -11   -1    0    0    0    0  0.00000000000E+00  0.00000000000E+00  0.45593999997E+02  0.45594000000E+02  0.51100000000E-03 0. -1.
         11   -1    0    0    0    0 -0.00000000000E+00 -0.00000000000E+00 -0.45593999997E+02  0.45594000000E+02  0.51100000000E-03 0.  1.
    9900012    2    1    2    0    0  0.77443556653E+01 -0.10797286083E+02  0.13195631616E+02  0.72461518078E+02  0.69999931978E+02 0.  0.
        -12    1    1    2    0    0 -0.77443556653E+01  0.10797286083E+02 -0.13195631616E+02  0.18726481922E+02  0.00000000000E+00 0.  1.
         11    1    3    3    0    0  0.32440687036E+01 -0.12406699634E+02  0.16659912534E+01  0.12931577811E+02  0.51100000000E-03 0. -1.
        -11    1    3    3    0    0 -0.17435381645E+00  0.63775419027E+01 -0.23252900462E+02  0.24112254563E+02  0.51100000000E-03 0.  1.
         12    1    3    3    0    0  0.46746407781E+01 -0.47681283520E+01  0.34782540825E+02  0.35417685704E+02  0.00000000000E+00 0. -1.
</event>
<event>
 7    1  0.2851651E-013  0.7246160E+02  0.7816164E-02  0.1226708E+00
        -11   -1    0    0    0    0  0.00000000000E+00  0.00000000000E+00  0.45593999997E+02  0.45594000000E+02  0.51100000000E-03 0.  1.
         11   -1    0    0    0    0 -0.00000000000E+00 -0.00000000000E+00 -0.45593999997E+02  0.45594000000E+02  0.51100000000E-03 0. -1.
    9900012    2    1    2    0    0 -0.17872095621E+02  0.35807112289E+01 -0.42947360597E+01  0.72461600116E+02  0.70000038848E+02 0.  0.
        -12    1    1    2    0    0  0.17872095621E+02 -0.35807112289E+01  0.42947360597E+01  0.18726399884E+02  0.00000000000E+00 0.  1.
         11    1    3    3    0    0 -0.27210361039E+02 -0.96491737204E+00 -0.17656927670E+01  0.27284656578E+02  0.51100000000E-03 0. -1.
        -11    1    3    3    0    0 -0.31206414351E+01  0.20531803930E+02  0.80998047448E+01  0.22291258662E+02  0.51100000000E-03 0.  1.
         12    1    3    3    0    0  0.12458906853E+02 -0.15986175329E+02 -0.10628848037E+02  0.22885684875E+02  0.00000000000E+00 0. -1.
</event>
<event>
 7    1  0.2851651E-013  0.7246190E+02  0.7816164E-02  0.1226707E+00
        -11   -1    0    0    0    0  0.00000000000E+00  0.00000000000E+00  0.45593999997E+02  0.45594000000E+02  0.51100000000E-03 0.  1.
         11   -1    0    0    0    0 -0.00000000000E+00 -0.00000000000E+00 -0.45593999997E+02  0.45594000000E+02  0.51100000000E-03 0. -1.
    9900012    2    1    2    0    0 -0.17976065870E+01 -0.15013362022E+02  0.11046917427E+02  0.72461900212E+02  0.70000429777E+02 0.  0.
        -12    1    1    2    0    0  0.17976065870E+01  0.15013362022E+02 -0.11046917427E+02  0.18726099788E+02  0.00000000000E+00 0.  1.
         11    1    3    3    0    0  0.68711082123E+00  0.21630341193E+02 -0.14120503059E+02  0.25840518344E+02  0.51100000000E-03 0. -1.
        -11    1    3    3    0    0  0.11351953126E+01 -0.28635206831E+00 -0.11122968152E+01  0.16148902040E+01  0.51100000000E-03 0.  1.
        -12    1    3    3    0    0 -0.36199127208E+01 -0.36357351147E+02  0.26279717300E+02  0.45006491664E+02  0.00000000000E+00 0.  1.
</event>
<event>
 7    1  0.2851651E-013  0.7246177E+02  0.7816164E-02  0.1226707E+00
        -11   -1    0    0    0    0  0.00000000000E+00  0.00000000000E+00  0.45593999997E+02  0.45594000000E+02  0.51100000000E-03 0.  1.
         11   -1    0    0    0    0 -0.00000000000E+00 -0.00000000000E+00 -0.45593999997E+02  0.45594000000E+02  0.51100000000E-03 0. -1.
    9900012    2    1    2    0    0 -0.93704831933E+01  0.13733347643E+02 -0.86174824369E+01  0.72461767162E+02  0.70000256456E+02 0.  0.
        -12    1    1    2    0    0  0.93704831933E+01 -0.13733347643E+02  0.86174824369E+01  0.18726232838E+02  0.00000000000E+00 0.  1.
         11    1    3    3    0    0  0.37150856459E+01 -0.16119523738E+02 -0.16734171760E+02  0.23530265864E+02  0.51100000000E-03 0. -1.
        -11    1    3    3    0    0 -0.18637982751E+02  0.12728075346E+01 -0.93400999064E-01  0.18681626376E+02  0.51100000000E-03 0.  1.
        -12    1    3    3    0    0  0.55524139118E+01  0.28580063846E+02  0.82100903217E+01  0.30249874922E+02  0.00000000000E+00 0.  1.
</event>
<event>
 7    1  0.2851651E-013  0.7246158E+02  0.7816164E-02  0.1226708E+00
        -11   -1    0    0    0    0  0.00000000000E+00  0.00000000000E+00  0.45593999997E+02  0.45594000000E+02  0.51100000000E-03 0.  1.
         11   -1    0    0    0    0 -0.00000000000E+00 -0.00000000000E+00 -0.45593999997E+02  0.45594000000E+02  0.51100000000E-03 0. -1.
    9900012    2    1    2    0    0  0.16988747586E+02  0.63550566535E+01  0.46555969048E+01  0.72461578234E+02  0.70000010343E+02 0.  0.
        -12    1    1    2    0    0 -0.16988747586E+02 -0.63550566535E+01 -0.46555969048E+01  0.18726421766E+02  0.00000000000E+00 0.  1.
         11    1    3    3    0    0  0.84827541113E+01  0.12931751574E+02 -0.27424921749E+02  0.31485133782E+02  0.51100000000E-03 0. -1.
        -11    1    3    3    0    0  0.37064150548E+01 -0.97824014201E+01  0.23905681873E+01  0.10730689942E+02  0.51100000000E-03 0.  1.
        -12    1    3    3    0    0  0.47995784197E+01  0.32057065001E+01  0.29689950467E+02  0.30245754510E+02  0.00000000000E+00 0.  1.
</event>
<event>
 7    1  0.2851651E-013  0.7246160E+02  0.7816164E-02  0.1226708E+00
        -11   -1    0    0    0    0  0.00000000000E+00  0.00000000000E+00  0.45593999997E+02  0.45594000000E+02  0.51100000000E-03 0.  1.
         11   -1    0    0    0    0 -0.00000000000E+00 -0.00000000000E+00 -0.45593999997E+02  0.45594000000E+02  0.51100000000E-03 0. -1.
    9900012    2    1    2    0    0 -0.14421374323E+02  0.10928824638E+02 -0.48231383103E+01  0.72461603964E+02  0.70000043861E+02 0.  0.
        -12    1    1    2    0    0  0.14421374323E+02 -0.10928824638E+02  0.48231383103E+01  0.18726396036E+02  0.00000000000E+00 0.  1.
         11    1    3    3    0    0 -0.10203160570E+02  0.15120297656E+02 -0.19489441002E+02  0.26693935597E+02  0.51100000000E-03 0. -1.
        -11    1    3    3    0    0 -0.15760616862E+02  0.12501733043E+02  0.15591328193E+02  0.25451520349E+02  0.51100000000E-03 0.  1.
        -12    1    3    3    0    0  0.11542403109E+02 -0.16693206062E+02 -0.92502550178E+00  0.20316148019E+02  0.00000000000E+00 0.  1.
</event>
<event>
 7    1  0.2851651E-013  0.7246147E+02  0.7816164E-02  0.1226708E+00
        -11   -1    0    0    0    0  0.00000000000E+00  0.00000000000E+00  0.45593999997E+02  0.45594000000E+02  0.51100000000E-03 0. -1.
         11   -1    0    0    0    0 -0.00000000000E+00 -0.00000000000E+00 -0.45593999997E+02  0.45594000000E+02  0.51100000000E-03 0.  1.
    9900012    2    1    2    0    0 -0.18143216837E+02  0.16176784385E+01  0.43462213504E+01  0.72461472272E+02  0.69999872308E+02 0.  0.
        -12    1    1    2    0    0  0.18143216837E+02 -0.16176784385E+01 -0.43462213504E+01  0.18726527728E+02  0.00000000000E+00 0.  1.
         11    1    3    3    0    0 -0.76740884891E+01 -0.20850617651E+02 -0.83111016900E+01  0.23721599906E+02  0.51100000000E-03 0. -1.
        -11    1    3    3    0    0 -0.18653741206E+02  0.18593061752E+02 -0.68667262057E+01  0.27217934076E+02  0.51100000000E-03 0.  1.
         12    1    3    3    0    0  0.81846128584E+01  0.38752343369E+01  0.19524049246E+02  0.21521938290E+02  0.00000000000E+00 0. -1.
</event>
<event>
 7    1  0.2851651E-013  0.7246154E+02  0.7816164E-02  0.1226708E+00
        -11   -1    0    0    0    0  0.00000000000E+00  0.00000000000E+00  0.45593999997E+02  0.45594000000E+02  0.51100000000E-03 0. -1.
         11   -1    0    0    0    0 -0.00000000000E+00 -0.00000000000E+00 -0.45593999997E+02  0.45594000000E+02  0.51100000000E-03 0.  1.
    9900012    2    1    2    0    0  0.11880491412E+02  0.11244711445E+02  0.91154029732E+01  0.72461543234E+02  0.69999964749E+02 0.  0.
        -12    1    1    2    0    0 -0.11880491412E+02 -0.11244711445E+02 -0.91154029732E+01  0.18726456766E+02  0.00000000000E+00 0.  1.
         11    1    3    3    0    0  0.18553845241E+02  0.15075286299E+02  0.23558634463E+02  0.33563651295E+02  0.51100000000E-03 0. -1.
        -11    1    3    3    0    0 -0.39359435373E+01 -0.10530570618E+02  0.89759437607E+01  0.14385831075E+02  0.51100000000E-03 0.  1.
        -12    1    3    3    0    0 -0.27374102919E+01  0.66999957634E+01 -0.23419175251E+02  0.24512060863E+02  0.00000000000E+00 0.  1.
</event>
<event>
 7    1  0.2851651E-013  0.7246169E+02  0.7816164E-02  0.1226708E+00
        -11   -1    0    0    0    0  0.00000000000E+00  0.00000000000E+00  0.45593999997E+02  0.45594000000E+02  0.51100000000E-03 0.  1.
         11   -1    0    0    0    0 -0.00000000000E+00 -0.00000000000E+00 -0.45593999997E+02  0.45594000000E+02  0.51100000000E-03 0. -1.
    9900012    2    1    2    0    0 -0.16838993898E+02  0.16186834490E+01 -0.80313548566E+01  0.72461694640E+02  0.70000161983E+02 0.  0.
        -12    1    1    2    0    0  0.16838993898E+02 -0.16186834490E+01  0.80313548566E+01  0.18726305360E+02  0.00000000000E+00 0.  1.
         11    1    3    3    0    0  0.68967882002E+01  0.55351046798E+01 -0.28890763335E+02  0.30213892130E+02  0.51100000000E-03 0. -1.
        -11    1    3    3    0    0  0.49298334136E+01  0.45995144687E+01  0.50369027363E+01  0.84160073829E+01  0.51100000000E-03 0.  1.
        -12    1    3    3    0    0 -0.28665615512E+02 -0.85159356995E+01  0.15822505742E+02  0.33831795127E+02  0.00000000000E+00 0.  1.
</event>
<event>
 7    1  0.2851651E-013  0.7246157E+02  0.7816164E-02  0.1226708E+00
        -11   -1    0    0    0    0  0.00000000000E+00  0.00000000000E+00  0.45593999997E+02  0.45594000000E+02  0.51100000000E-03 0.  1.
         11   -1    0    0    0    0 -0.00000000000E+00 -0.00000000000E+00 -0.45593999997E+02  0.45594000000E+02  0.51100000000E-03 0. -1.
    9900012    2    1    2    0    0 -0.75254064717E+01 -0.57195590201E+01 -0.16165831051E+02  0.72461569707E+02  0.69999999235E+02 0.  0.
        -12    1    1    2    0    0  0.75254064717E+01  0.57195590201E+01  0.16165831051E+02  0.18726430293E+02  0.00000000000E+00 0.  1.
         11    1    3    3    0    0  0.63884397052E+01  0.39755081647E+01 -0.28159586143E+02  0.29147540532E+02  0.51100000000E-03 0. -1.
        -11    1    3    3    0    0 -0.65786725225E+01  0.13311613125E+02 -0.26355138549E+01  0.15080580549E+02  0.51100000000E-03 0.  1.
         12    1    3    3    0    0 -0.73351736544E+01 -0.23006680310E+02  0.14629268947E+02  0.28233448627E+02  0.00000000000E+00 0. -1.
</event>
<event>
 7    1  0.2851651E-013  0.7246155E+02  0.7816164E-02  0.1226708E+00
        -11   -1    0    0    0    0  0.00000000000E+00  0.00000000000E+00  0.45593999997E+02  0.45594000000E+02  0.51100000000E-03 0.  1.
         11   -1    0    0    0    0 -0.00000000000E+00 -0.00000000000E+00 -0.45593999997E+02  0.45594000000E+02  0.51100000000E-03 0. -1.
    9900012    2    1    2    0    0  0.13194310869E+02 -0.12826040257E+02  0.34760177451E+01  0.72461552197E+02  0.69999976425E+02 0.  0.
        -12    1    1    2    0    0 -0.13194310869E+02  0.12826040257E+02 -0.34760177451E+01  0.18726447803E+02  0.00000000000E+00 0.  1.
         11    1    3    3    0    0  0.78076194779E+01  0.25671694421E+02 -0.64225161383E+01  0.27590642076E+02  0.51100000000E-03 0. -1.
        -11    1    3    3    0    0  0.56593283196E+01 -0.43283935140E+01  0.79055631225E+01  0.10642411192E+02  0.51100000000E-03 0.  1.
        -12    1    3    3    0    0 -0.27263692887E+00 -0.34169341164E+02  0.19929707609E+01  0.34228498929E+02  0.00000000000E+00 0.  1.
</event>
<event>
 7    1  0.2851651E-013  0.7246157E+02  0.7816164E-02  0.1226708E+00
        -11   -1    0    0    0    0  0.00000000000E+00  0.00000000000E+00  0.45593999997E+02  0.45594000000E+02  0.51100000000E-03 0.  1.
         11   -1    0    0    0    0 -0.00000000000E+00 -0.00000000000E+00 -0.45593999997E+02  0.45594000000E+02  0.51100000000E-03 0. -1.
    9900012    2    1    2    0    0  0.56136263889E+01 -0.12926155627E+02 -0.12332113193E+02  0.72461566374E+02  0.69999994893E+02 0.  0.
        -12    1    1    2    0    0 -0.56136263889E+01  0.12926155627E+02  0.12332113193E+02  0.18726433626E+02  0.00000000000E+00 0.  1.
         11    1    3    3    0    0  0.52248280495E+01  0.10016860028E+02  0.56062910956E+01  0.12612169245E+02  0.51100000000E-03 0. -1.
        -11    1    3    3    0    0 -0.72644093263E+01  0.25141178162E+01  0.15399038080E+02  0.17211124464E+02  0.51100000000E-03 0.  1.
         12    1    3    3    0    0  0.76532076656E+01 -0.25457133471E+02 -0.33337442369E+02  0.42638272665E+02  0.00000000000E+00 0. -1.
</event>
<event>
 7    1  0.2851651E-013  0.7246156E+02  0.7816164E-02  0.1226708E+00
        -11   -1    0    0    0    0  0.00000000000E+00  0.00000000000E+00  0.45593999997E+02  0.45594000000E+02  0.51100000000E-03 0.  1.
         11   -1    0    0    0    0 -0.00000000000E+00 -0.00000000000E+00 -0.45593999997E+02  0.45594000000E+02  0.51100000000E-03 0. -1.
    9900012    2    1    2    0    0 -0.69792177327E+01  0.36220107349E+01 -0.16995616187E+02  0.72461563833E+02  0.69999991583E+02 0.  0.
        -12    1    1    2    0    0  0.69792177327E+01 -0.36220107349E+01  0.16995616187E+02  0.18726436167E+02  0.00000000000E+00 0.  1.
         11    1    3    3    0    0  0.11340350788E+02 -0.36843056730E+01 -0.17124277878E+02  0.20866685347E+02  0.51100000000E-03 0.  1.
        -11    1    3    3    0    0 -0.64154421627E+01  0.19711795897E+02 -0.17383394083E+02  0.27053561424E+02  0.51100000000E-03 0. -1.
        -12    1    3    3    0    0 -0.11904126358E+02 -0.12405479489E+02  0.17512055774E+02  0.24541317062E+02  0.00000000000E+00 0.  1.
</event>
<event>
 7    1  0.2851651E-013  0.7246154E+02  0.7816164E-02  0.1226708E+00
        -11   -1    0    0    0    0  0.00000000000E+00  0.00000000000E+00  0.45593999997E+02  0.45594000000E+02  0.51100000000E-03 0. -1.
         11   -1    0    0    0    0 -0.00000000000E+00 -0.00000000000E+00 -0.45593999997E+02  0.45594000000E+02  0.51100000000E-03 0.  1.
    9900012    2    1    2    0    0  0.12070746471E+02 -0.25293720012E+01  0.14091833499E+02  0.72461537054E+02  0.69999956698E+02 0.  0.
        -12    1    1    2    0    0 -0.12070746471E+02  0.25293720012E+01 -0.14091833499E+02  0.18726462946E+02  0.00000000000E+00 0.  1.
         11    1    3    3    0    0 -0.15697233153E+02 -0.22123691653E+02  0.13792318514E+02  0.30431708977E+02  0.51100000000E-03 0. -1.
        -11    1    3    3    0    0 -0.31948108763E+01  0.42466041779E+01  0.48238505176E+01  0.71770465831E+01  0.51100000000E-03 0.  1.
        -12    1    3    3    0    0  0.30962790501E+02  0.15347715473E+02 -0.45243355324E+01  0.34852781494E+02  0.00000000000E+00 0.  1.
</event>
<event>
 7    1  0.2851651E-013  0.7246151E+02  0.7816164E-02  0.1226708E+00
        -11   -1    0    0    0    0  0.00000000000E+00  0.00000000000E+00  0.45593999997E+02  0.45594000000E+02  0.51100000000E-03 0.  1.
         11   -1    0    0    0    0 -0.00000000000E+00 -0.00000000000E+00 -0.45593999997E+02  0.45594000000E+02  0.51100000000E-03 0. -1.
    9900012    2    1    2    0    0 -0.63130344098E+01  0.87925741353E+01 -0.15281280075E+02  0.72461513834E+02  0.69999926450E+02 0.  0.
        -12    1    1    2    0    0  0.63130344098E+01 -0.87925741353E+01  0.15281280075E+02  0.18726486166E+02  0.00000000000E+00 0.  1.
         11    1    3    3    0    0 -0.18315163150E+02  0.48288203399E+01 -0.98046444606E+01  0.21328238566E+02  0.51100000000E-03 0. -1.
        -11    1    3    3    0    0 -0.63997288698E+01  0.28454200617E+00  0.19137587641E+02  0.20181297152E+02  0.51100000000E-03 0.  1.
         12    1    3    3    0    0  0.18401857610E+02  0.36792117892E+01 -0.24614223255E+02  0.30951978117E+02  0.00000000000E+00 0. -1.
</event>
<event>
 7    1  0.2851651E-013  0.7246155E+02  0.7816164E-02  0.1226708E+00
        -11   -1    0    0    0    0  0.00000000000E+00  0.00000000000E+00  0.45593999997E+02  0.45594000000E+02  0.51100000000E-03 0.  1.
         11   -1    0    0    0    0 -0.00000000000E+00 -0.00000000000E+00 -0.45593999997E+02  0.45594000000E+02  0.51100000000E-03 0. -1.
    9900012    2    1    2    0    0  0.10210403744E+02  0.15037051977E+02 -0.45071957390E+01  0.72461545712E+02  0.69999967977E+02 0.  0.
        -12    1    1    2    0    0 -0.10210403744E+02 -0.15037051977E+02  0.45071957390E+01  0.18726454288E+02  0.00000000000E+00 0.  1.
         11    1    3    3    0    0 -0.26464596100E+00  0.98993103811E+00  0.11455359242E+02  0.11501098060E+02  0.51100000000E-03 0. -1.
        -11    1    3    3    0    0  0.22456416839E+02  0.30712292498E+02 -0.76056621918E+01  0.38799248258E+02  0.51100000000E-03 0.  1.
         12    1    3    3    0    0 -0.11981367134E+02 -0.16665171559E+02 -0.83568927895E+01  0.22161199394E+02  0.00000000000E+00 0. -1.
</event>
<event>
 7    1  0.2851651E-013  0.7246151E+02  0.7816164E-02  0.1226708E+00
        -11   -1    0    0    0    0  0.00000000000E+00  0.00000000000E+00  0.45593999997E+02  0.45594000000E+02  0.51100000000E-03 0. -1.
         11   -1    0    0    0    0 -0.00000000000E+00 -0.00000000000E+00 -0.45593999997E+02  0.45594000000E+02  0.51100000000E-03 0.  1.
    9900012    2    1    2    0    0 -0.11259748104E+02 -0.12416942638E+01  0.14911658216E+02  0.72461513870E+02  0.69999926497E+02 0.  0.
        -12    1    1    2    0    0  0.11259748104E+02  0.12416942638E+01 -0.14911658216E+02  0.18726486130E+02  0.00000000000E+00 0.  1.
         11    1    3    3    0    0  0.25706756765E+00  0.37667931697E+01  0.20018098923E+02  0.20371035793E+02  0.51100000000E-03 0. -1.
        -11    1    3    3    0    0  0.12859615124E+02 -0.44439688579E+01  0.15170480355E+02  0.20377979164E+02  0.51100000000E-03 0.  1.
        -12    1    3    3    0    0 -0.24376430796E+02 -0.56451857550E+00 -0.20276921062E+02  0.31712498913E+02  0.00000000000E+00 0.  1.
</event>
<event>
 7    1  0.2851651E-013  0.7246156E+02  0.7816164E-02  0.1226708E+00
        -11   -1    0    0    0    0  0.00000000000E+00  0.00000000000E+00  0.45593999997E+02  0.45594000000E+02  0.51100000000E-03 0. -1.
         11   -1    0    0    0    0 -0.00000000000E+00 -0.00000000000E+00 -0.45593999997E+02  0.45594000000E+02  0.51100000000E-03 0.  1.
    9900012    2    1    2    0    0 -0.17608464654E+02  0.44113172437E+01  0.46001829940E+01  0.72461563316E+02  0.69999990909E+02 0.  0.
        -12    1    1    2    0    0  0.17608464654E+02 -0.44113172437E+01 -0.46001829940E+01  0.18726436684E+02  0.00000000000E+00 0.  1.
         11    1    3    3    0    0  0.42134393216E+01 -0.50331919435E+01  0.22485969339E+02  0.23424451102E+02  0.51100000000E-03 0. -1.
        -11    1    3    3    0    0  0.96393729038E+01 -0.80191297470E+00 -0.12027998660E+02  0.15434808921E+02  0.51100000000E-03 0.  1.
         12    1    3    3    0    0 -0.31461276880E+02  0.10246422162E+02 -0.58577876846E+01  0.33602303293E+02  0.00000000000E+00 0. -1.
</event>
<event>
 7    1  0.2983281E-013  0.7246158E+02  0.7816164E-02  0.1226708E+00
        -11   -1    0    0    0    0  0.00000000000E+00  0.00000000000E+00  0.45593999997E+02  0.45594000000E+02  0.51100000000E-03 0.  1.
         11   -1    0    0    0    0 -0.00000000000E+00 -0.00000000000E+00 -0.45593999997E+02  0.45594000000E+02  0.51100000000E-03 0. -1.
    9900012    2    1    2    0    0 -0.46755612618E+01  0.15657618330E+02 -0.91464066820E+01  0.72461584431E+02  0.70000018416E+02 0.  0.
        -12    1    1    2    0    0  0.46755612618E+01 -0.15657618330E+02  0.91464066820E+01  0.18726415569E+02  0.00000000000E+00 0.  1.
         11    1    3    3    0    0  0.15153293970E+02  0.62773493446E+01 -0.26482694156E+01  0.16614474535E+02  0.51100000000E-03 0. -1.
        -11    1    3    3    0    0 -0.29112087138E+01  0.18155275936E+02  0.17376390991E+02  0.25298777532E+02  0.51100000000E-03 0.  1.
         12    1    3    3    0    0 -0.16917646518E+02 -0.87750069507E+01 -0.23874528258E+02  0.30548332364E+02  0.00000000000E+00 0. -1.
</event>
<event>
 7    1  0.2851651E-013  0.7246159E+02  0.7816164E-02  0.1226708E+00
        -11   -1    0    0    0    0  0.00000000000E+00  0.00000000000E+00  0.45593999997E+02  0.45594000000E+02  0.51100000000E-03 0. -1.
         11   -1    0    0    0    0 -0.00000000000E+00 -0.00000000000E+00 -0.45593999997E+02  0.45594000000E+02  0.51100000000E-03 0.  1.
    9900012    2    1    2    0    0 -0.39088255025E+01  0.62832131911E+01  0.17202345685E+02  0.72461591324E+02  0.70000027396E+02 0.  0.
        -12    1    1    2    0    0  0.39088255025E+01 -0.62832131911E+01 -0.17202345685E+02  0.18726408676E+02  0.00000000000E+00 0.  1.
         11    1    3    3    0    0  0.19847040735E+01  0.13247818842E+02  0.31962831615E+02  0.34656404306E+02  0.51100000000E-03 0. -1.
        -11    1    3    3    0    0 -0.96905220850E+00  0.59970335615E+01  0.86658313029E+01  0.10583010259E+02  0.51100000000E-03 0.  1.
        -12    1    3    3    0    0 -0.49244773675E+01 -0.12961639212E+02 -0.23426317233E+02  0.27222176759E+02  0.00000000000E+00 0.  1.
</event>
<event>
 7    1  0.2851651E-013  0.7246157E+02  0.7816164E-02  0.1226708E+00
        -11   -1    0    0    0    0  0.00000000000E+00  0.00000000000E+00  0.45593999997E+02  0.45594000000E+02  0.51100000000E-03 0. -1.
         11   -1    0    0    0    0 -0.00000000000E+00 -0.00000000000E+00 -0.45593999997E+02  0.45594000000E+02  0.51100000000E-03 0.  1.
    9900012    2    1    2    0    0 -0.64625801750E+01 -0.94675934455E+00  0.17550440767E+02  0.72461567694E+02  0.69999996613E+02 0.  0.
        -12    1    1    2    0    0  0.64625801750E+01  0.94675934455E+00 -0.17550440767E+02  0.18726432306E+02  0.00000000000E+00 0.  1.
         11    1    3    3    0    0 -0.14325320288E+02 -0.11568684868E+02  0.26438204520E+02  0.32218440829E+02  0.51100000000E-03 0. -1.
        -11    1    3    3    0    0  0.27028359315E+00  0.35013088979E+01  0.14353776582E+02  0.14777114727E+02  0.51100000000E-03 0.  1.
        -12    1    3    3    0    0  0.75924565200E+01  0.71206166252E+01 -0.23241540335E+02  0.25466012139E+02  0.00000000000E+00 0.  1.
</event>
<event>
 7    1  0.2851651E-013  0.7246148E+02  0.7816164E-02  0.1226708E+00
        -11   -1    0    0    0    0  0.00000000000E+00  0.00000000000E+00  0.45593999997E+02  0.45594000000E+02  0.51100000000E-03 0. -1.
         11   -1    0    0    0    0 -0.00000000000E+00 -0.00000000000E+00 -0.45593999997E+02  0.45594000000E+02  0.51100000000E-03 0.  1.
    9900012    2    1    2    0    0 -0.35565180342E+01 -0.98326241960E+01  0.15535546795E+02  0.72461480480E+02  0.69999883000E+02 0.  0.
        -12    1    1    2    0    0  0.35565180342E+01  0.98326241960E+01 -0.15535546795E+02  0.18726519520E+02  0.00000000000E+00 0.  1.
         11    1    3    3    0    0  0.40832723120E+01 -0.54935971949E+01 -0.12195764496E+02  0.13985327841E+02  0.51100000000E-03 0. -1.
        -11    1    3    3    0    0 -0.11373490265E+02  0.50439161227E+01 -0.12117578582E+02  0.17367587098E+02  0.51100000000E-03 0.  1.
         12    1    3    3    0    0  0.37336999187E+01 -0.93829431238E+01  0.39848889873E+02  0.41108565541E+02  0.00000000000E+00 0. -1.
</event>
<event>
 7    1  0.2851651E-013  0.7246158E+02  0.7816164E-02  0.1226708E+00
        -11   -1    0    0    0    0  0.00000000000E+00  0.00000000000E+00  0.45593999997E+02  0.45594000000E+02  0.51100000000E-03 0. -1.
         11   -1    0    0    0    0 -0.00000000000E+00 -0.00000000000E+00 -0.45593999997E+02  0.45594000000E+02  0.51100000000E-03 0.  1.
    9900012    2    1    2    0    0 -0.99893829199E+01  0.13401286287E+02  0.84437365083E+01  0.72461576650E+02  0.70000008279E+02 0.  0.
        -12    1    1    2    0    0  0.99893829199E+01 -0.13401286287E+02 -0.84437365083E+01  0.18726423350E+02  0.00000000000E+00 0.  1.
         11    1    3    3    0    0  0.25294871568E+02 -0.30232881540E+01  0.44758694020E+01  0.25865115620E+02  0.51100000000E-03 0. -1.
        -11    1    3    3    0    0 -0.24446795673E+01  0.13122572398E+02  0.23341292607E+01  0.13550886472E+02  0.51100000000E-03 0.  1.
        -12    1    3    3    0    0 -0.32839574920E+02  0.33020020433E+01  0.16337378456E+01  0.33045574557E+02  0.00000000000E+00 0.  1.
</event>
<event>
 7    1  0.2851651E-013  0.7246153E+02  0.7816164E-02  0.1226708E+00
        -11   -1    0    0    0    0  0.00000000000E+00  0.00000000000E+00  0.45593999997E+02  0.45594000000E+02  0.51100000000E-03 0.  1.
         11   -1    0    0    0    0 -0.00000000000E+00 -0.00000000000E+00 -0.45593999997E+02  0.45594000000E+02  0.51100000000E-03 0. -1.
    9900012    2    1    2    0    0  0.73480045051E+01  0.95455372664E+01 -0.14337723712E+02  0.72461527477E+02  0.69999944223E+02 0.  0.
        -12    1    1    2    0    0 -0.73480045051E+01 -0.95455372664E+01  0.14337723712E+02  0.18726472523E+02  0.00000000000E+00 0.  1.
         11    1    3    3    0    0  0.85158414216E+01  0.62767039371E+01 -0.49283618914E+00  0.10590536115E+02  0.51100000000E-03 0. -1.
        -11    1    3    3    0    0 -0.16794611281E+02  0.25704835510E+02  0.10741542823E+01  0.30723791178E+02  0.51100000000E-03 0.  1.
        -12    1    3    3    0    0  0.15626774364E+02 -0.22436002181E+02 -0.14919041805E+02  0.31147200184E+02  0.00000000000E+00 0.  1.
</event>
<event>
 7    1  0.2851651E-013  0.7246153E+02  0.7816164E-02  0.1226708E+00
        -11   -1    0    0    0    0  0.00000000000E+00  0.00000000000E+00  0.45593999997E+02  0.45594000000E+02  0.51100000000E-03 0. -1.
         11   -1    0    0    0    0 -0.00000000000E+00 -0.00000000000E+00 -0.45593999997E+02  0.45594000000E+02  0.51100000000E-03 0.  1.
    9900012    2    1    2    0    0 -0.17461429412E+02  0.10977365776E+01  0.66763987664E+01  0.72461525607E+02  0.69999941786E+02 0.  0.
        -12    1    1    2    0    0  0.17461429412E+02 -0.10977365776E+01 -0.66763987664E+01  0.18726474393E+02  0.00000000000E+00 0.  1.
         11    1    3    3    0    0 -0.12993056345E+02 -0.12054026420E+02  0.32488435929E+01  0.18018713913E+02  0.51100000000E-03 0. -1.
        -11    1    3    3    0    0 -0.21349959701E+02  0.25609561075E+02  0.15347927461E+01  0.33377027830E+02  0.51100000000E-03 0.  1.
         12    1    3    3    0    0  0.16881586634E+02 -0.12457798078E+02  0.18927624274E+01  0.21065783865E+02  0.00000000000E+00 0. -1.
</event>
<event>
 7    1  0.2851651E-013  0.7246169E+02  0.7816164E-02  0.1226708E+00
        -11   -1    0    0    0    0  0.00000000000E+00  0.00000000000E+00  0.45593999997E+02  0.45594000000E+02  0.51100000000E-03 0. -1.
         11   -1    0    0    0    0 -0.00000000000E+00 -0.00000000000E+00 -0.45593999997E+02  0.45594000000E+02  0.51100000000E-03 0.  1.
    9900012    2    1    2    0    0 -0.17230878367E+02 -0.71410421920E+01  0.16664405089E+01  0.72461690250E+02  0.70000156264E+02 0.  0.
        -12    1    1    2    0    0  0.17230878367E+02  0.71410421920E+01 -0.16664405089E+01  0.18726309750E+02  0.00000000000E+00 0.  1.
         11    1    3    3    0    0  0.79492462301E+01 -0.12685356777E+02  0.10141310952E+02  0.18081896479E+02  0.51100000000E-03 0. -1.
        -11    1    3    3    0    0  0.10181951061E+02 -0.92857801254E+00 -0.14689099093E+02  0.17897039335E+02  0.51100000000E-03 0.  1.
        -12    1    3    3    0    0 -0.35362075659E+02  0.64728925972E+01  0.62142286497E+01  0.36482754435E+02  0.00000000000E+00 0.  1.
</event>
<event>
 7    1  0.2851651E-013  0.7246158E+02  0.7816164E-02  0.1226708E+00
        -11   -1    0    0    0    0  0.00000000000E+00  0.00000000000E+00  0.45593999997E+02  0.45594000000E+02  0.51100000000E-03 0. -1.
         11   -1    0    0    0    0 -0.00000000000E+00 -0.00000000000E+00 -0.45593999997E+02  0.45594000000E+02  0.51100000000E-03 0.  1.
    9900012    2    1    2    0    0  0.17217639925E+02  0.23919142245E+01 -0.69649505216E+01  0.72461577116E+02  0.70000008887E+02 0.  0.
        -12    1    1    2    0    0 -0.17217639925E+02 -0.23919142245E+01  0.69649505216E+01  0.18726422884E+02  0.00000000000E+00 0.  1.
         11    1    3    3    0    0  0.12834490234E+02 -0.11100181775E+02  0.48252582626E+01  0.17641465148E+02  0.51100000000E-03 0. -1.
        -11    1    3    3    0    0 -0.18913804775E+02 -0.91238514663E+01 -0.32759512246E+01  0.21253435800E+02  0.51100000000E-03 0.  1.
         12    1    3    3    0    0  0.23296954466E+02  0.22615947466E+02 -0.85142575596E+01  0.33566676168E+02  0.00000000000E+00 0. -1.
</event>
<event>
 7    1  0.2851651E-013  0.7246156E+02  0.7816164E-02  0.1226708E+00
        -11   -1    0    0    0    0  0.00000000000E+00  0.00000000000E+00  0.45593999997E+02  0.45594000000E+02  0.51100000000E-03 0.  1.
         11   -1    0    0    0    0 -0.00000000000E+00 -0.00000000000E+00 -0.45593999997E+02  0.45594000000E+02  0.51100000000E-03 0. -1.
    9900012    2    1    2    0    0 -0.13594445960E+01  0.41636317949E+01 -0.18207020396E+02  0.72461561176E+02  0.69999988122E+02 0.  0.
        -12    1    1    2    0    0  0.13594445960E+01 -0.41636317949E+01  0.18207020396E+02  0.18726438824E+02  0.00000000000E+00 0.  1.
         11    1    3    3    0    0  0.11841464742E+02 -0.63777071136E+01 -0.35339382438E+02  0.37812265029E+02  0.51100000000E-03 0. -1.
        -11    1    3    3    0    0 -0.33336454331E+00  0.14316218582E+02  0.20475150106E+01  0.14465737602E+02  0.51100000000E-03 0.  1.
         12    1    3    3    0    0 -0.12867544794E+02 -0.37748796731E+01  0.15084847031E+02  0.20183558545E+02  0.00000000000E+00 0. -1.
</event>
<event>
 7    1  0.2851651E-013  0.7246151E+02  0.7816164E-02  0.1226708E+00
        -11   -1    0    0    0    0  0.00000000000E+00  0.00000000000E+00  0.45593999997E+02  0.45594000000E+02  0.51100000000E-03 0.  1.
         11   -1    0    0    0    0 -0.00000000000E+00 -0.00000000000E+00 -0.45593999997E+02  0.45594000000E+02  0.51100000000E-03 0. -1.
    9900012    2    1    2    0    0 -0.89273866663E+01  0.12490470035E+02  0.10722474890E+02  0.72461506944E+02  0.69999917475E+02 0.  0.
        -12    1    1    2    0    0  0.89273866663E+01 -0.12490470035E+02 -0.10722474890E+02  0.18726493056E+02  0.00000000000E+00 0.  1.
         11    1    3    3    0    0 -0.19110904851E+00 -0.73826309331E+01  0.58267886525E+01  0.94069776456E+01  0.51100000000E-03 0. -1.
        -11    1    3    3    0    0  0.94362041469E+01  0.34048955644E+02  0.14360442321E+02  0.38139161411E+02  0.51100000000E-03 0.  1.
         12    1    3    3    0    0 -0.18172481765E+02 -0.14175854676E+02 -0.94647560834E+01  0.24915367888E+02  0.00000000000E+00 0. -1.
</event>
<event>
 7    1  0.2851651E-013  0.7246155E+02  0.7816164E-02  0.1226708E+00
        -11   -1    0    0    0    0  0.00000000000E+00  0.00000000000E+00  0.45593999997E+02  0.45594000000E+02  0.51100000000E-03 0.  1.
         11   -1    0    0    0    0 -0.00000000000E+00 -0.00000000000E+00 -0.45593999997E+02  0.45594000000E+02  0.51100000000E-03 0. -1.
    9900012    2    1    2    0    0  0.14365938918E+02  0.10758038324E+02 -0.53445766745E+01  0.72461545733E+02  0.69999968004E+02 0.  0.
        -12    1    1    2    0    0 -0.14365938918E+02 -0.10758038324E+02  0.53445766745E+01  0.18726454267E+02  0.00000000000E+00 0.  1.
         11    1    3    3    0    0  0.71746167845E+01 -0.82013526859E+01 -0.19020610520E+02  0.21920787775E+02  0.51100000000E-03 0. -1.
        -11    1    3    3    0    0 -0.85857220593E+01  0.19635562440E+01  0.23695116411E+02  0.25279017354E+02  0.51100000000E-03 0.  1.
         12    1    3    3    0    0  0.15777044193E+02  0.16995834766E+02 -0.10019082566E+02  0.25261740604E+02  0.00000000000E+00 0. -1.
</event>
<event>
 7    1  0.2851651E-013  0.7246157E+02  0.7816164E-02  0.1226708E+00
        -11   -1    0    0    0    0  0.00000000000E+00  0.00000000000E+00  0.45593999997E+02  0.45594000000E+02  0.51100000000E-03 0.  1.
         11   -1    0    0    0    0 -0.00000000000E+00 -0.00000000000E+00 -0.45593999997E+02  0.45594000000E+02  0.51100000000E-03 0. -1.
    9900012    2    1    2    0    0  0.63436514244E+01 -0.54044082460E+01 -0.16769905221E+02  0.72461567799E+02  0.69999996749E+02 0.  0.
        -12    1    1    2    0    0 -0.63436514244E+01  0.54044082460E+01  0.16769905221E+02  0.18726432201E+02  0.00000000000E+00 0.  1.
         11    1    3    3    0    0 -0.14144560853E+02 -0.28850269253E+01 -0.19580291692E+01  0.14567973798E+02  0.51100000000E-03 0. -1.
        -11    1    3    3    0    0 -0.16309444850E+02 -0.65787739738E+01  0.10502250158E+01  0.17617639772E+02  0.51100000000E-03 0.  1.
        -12    1    3    3    0    0  0.36797657127E+02  0.40593926531E+01 -0.15862101067E+02  0.40275954229E+02  0.00000000000E+00 0.  1.
</event>
<event>
 7    1  0.2851651E-013  0.7246151E+02  0.7816164E-02  0.1226708E+00
        -11   -1    0    0    0    0  0.00000000000E+00  0.00000000000E+00  0.45593999997E+02  0.45594000000E+02  0.51100000000E-03 0.  1.
         11   -1    0    0    0    0 -0.00000000000E+00 -0.00000000000E+00 -0.45593999997E+02  0.45594000000E+02  0.51100000000E-03 0. -1.
    9900012    2    1    2    0    0 -0.12946249790E+02 -0.11032950449E+02 -0.78326162923E+01  0.72461514552E+02  0.69999927385E+02 0.  0.
        -12    1    1    2    0    0  0.12946249790E+02  0.11032950449E+02  0.78326162923E+01  0.18726485448E+02  0.00000000000E+00 0.  1.
         11    1    3    3    0    0 -0.15734469525E+02 -0.25273577131E+02 -0.15624265379E+02  0.33622089482E+02  0.51100000000E-03 0. -1.
        -11    1    3    3    0    0  0.11392969413E+01  0.11332794640E+01 -0.13601484153E+02  0.13696083063E+02  0.51100000000E-03 0.  1.
        -12    1    3    3    0    0  0.16489227941E+01  0.13107347218E+02  0.21393133240E+02  0.25143342007E+02  0.00000000000E+00 0.  1.
</event>
<event>
 7    1  0.2851651E-013  0.7246172E+02  0.7816164E-02  0.1226708E+00
        -11   -1    0    0    0    0  0.00000000000E+00  0.00000000000E+00  0.45593999997E+02  0.45594000000E+02  0.51100000000E-03 0.  1.
         11   -1    0    0    0    0 -0.00000000000E+00 -0.00000000000E+00 -0.45593999997E+02  0.45594000000E+02  0.51100000000E-03 0. -1.
    9900012    2    1    2    0    0  0.79637755847E+01  0.35880313008E-01 -0.16948466278E+02  0.72461721188E+02  0.70000196567E+02 0.  0.
        -12    1    1    2    0    0 -0.79637755847E+01 -0.35880313008E-01  0.16948466278E+02  0.18726278812E+02  0.00000000000E+00 0.  1.
         11    1    3    3    0    0  0.27535205430E+02 -0.66281553226E+01 -0.26154422912E+02  0.38550925010E+02  0.51100000000E-03 0. -1.
        -11    1    3    3    0    0 -0.96982332894E+00  0.12941014922E+02  0.29795127795E+01  0.13314951039E+02  0.51100000000E-03 0.  1.
        -12    1    3    3    0    0 -0.18601606516E+02 -0.62769792861E+01  0.62264438549E+01  0.20595845140E+02  0.00000000000E+00 0.  1.
</event>
<event>
 7    1  0.2851651E-013  0.7246124E+02  0.7816164E-02  0.1226709E+00
        -11   -1    0    0    0    0  0.00000000000E+00  0.00000000000E+00  0.45593999997E+02  0.45594000000E+02  0.51100000000E-03 0. -1.
         11   -1    0    0    0    0 -0.00000000000E+00 -0.00000000000E+00 -0.45593999997E+02  0.45594000000E+02  0.51100000000E-03 0.  1.
    9900012    2    1    2    0    0  0.42235640006E-01 -0.16917367824E+02  0.80307212834E+01  0.72461238340E+02  0.69999567566E+02 0.  0.
        -12    1    1    2    0    0 -0.42235640006E-01  0.16917367824E+02 -0.80307212834E+01  0.18726761660E+02  0.00000000000E+00 0.  1.
         11    1    3    3    0    0 -0.12481843501E+02  0.11891717253E+02  0.52064153693E+01  0.18008778906E+02  0.51100000000E-03 0. -1.
        -11    1    3    3    0    0 -0.13080297583E-01 -0.17640162397E+02 -0.19644944646E+02  0.26402639090E+02  0.51100000000E-03 0.  1.
         12    1    3    3    0    0  0.12537159439E+02 -0.11168922680E+02  0.22469250560E+02  0.28049820345E+02  0.00000000000E+00 0. -1.
</event>
<event>
 7    1  0.2851651E-013  0.7246139E+02  0.7816164E-02  0.1226708E+00
        -11   -1    0    0    0    0  0.00000000000E+00  0.00000000000E+00  0.45593999997E+02  0.45594000000E+02  0.51100000000E-03 0.  1.
         11   -1    0    0    0    0 -0.00000000000E+00 -0.00000000000E+00 -0.45593999997E+02  0.45594000000E+02  0.51100000000E-03 0. -1.
    9900012    2    1    2    0    0  0.54332606423E+01 -0.15131142920E+02 -0.96028155974E+01  0.72461391266E+02  0.69999766783E+02 0.  0.
        -12    1    1    2    0    0 -0.54332606423E+01  0.15131142920E+02  0.96028155974E+01  0.18726608734E+02  0.00000000000E+00 0.  1.
         11    1    3    3    0    0  0.17323457366E+02  0.56817700760E+01 -0.28006856874E+02  0.33418089690E+02  0.51100000000E-03 0. -1.
        -11    1    3    3    0    0  0.32642734348E+01 -0.15831366803E+02  0.22151354648E+01  0.16315467548E+02  0.51100000000E-03 0.  1.
         12    1    3    3    0    0 -0.15154470158E+02 -0.49815461924E+01  0.16188905812E+02  0.22727834029E+02  0.00000000000E+00 0. -1.
</event>
<event>
 7    1  0.2851651E-013  0.7246155E+02  0.7816164E-02  0.1226708E+00
        -11   -1    0    0    0    0  0.00000000000E+00  0.00000000000E+00  0.45593999997E+02  0.45594000000E+02  0.51100000000E-03 0. -1.
         11   -1    0    0    0    0 -0.00000000000E+00 -0.00000000000E+00 -0.45593999997E+02  0.45594000000E+02  0.51100000000E-03 0.  1.
    9900012    2    1    2    0    0 -0.16758211580E+02  0.54246946839E+01  0.63572743855E+01  0.72461550647E+02  0.69999974405E+02 0.  0.
        -12    1    1    2    0    0  0.16758211580E+02 -0.54246946839E+01 -0.63572743855E+01  0.18726449353E+02  0.00000000000E+00 0.  1.
         11    1    3    3    0    0  0.11190571635E+02  0.15805145123E+02  0.24566391040E+01  0.19520926766E+02  0.51100000000E-03 0. -1.
        -11    1    3    3    0    0  0.82875522583E+00  0.14514312224E+02 -0.10142659320E+01  0.14573291674E+02  0.51100000000E-03 0.  1.
        -12    1    3    3    0    0 -0.28777538440E+02 -0.24894762663E+02  0.49149012135E+01  0.38367332207E+02  0.00000000000E+00 0.  1.
</event>
<event>
 7    1  0.2851651E-013  0.7246160E+02  0.7816164E-02  0.1226708E+00
        -11   -1    0    0    0    0  0.00000000000E+00  0.00000000000E+00  0.45593999997E+02  0.45594000000E+02  0.51100000000E-03 0. -1.
         11   -1    0    0    0    0 -0.00000000000E+00 -0.00000000000E+00 -0.45593999997E+02  0.45594000000E+02  0.51100000000E-03 0.  1.
    9900012    2    1    2    0    0  0.13215432757E+02  0.91453707486E+01 -0.96121127806E+01  0.72461596683E+02  0.70000034376E+02 0.  0.
        -12    1    1    2    0    0 -0.13215432757E+02 -0.91453707486E+01  0.96121127806E+01  0.18726403317E+02  0.00000000000E+00 0.  1.
         11    1    3    3    0    0 -0.25270333441E+02 -0.35943426625E+01  0.40264078927E+01  0.25840298222E+02  0.51100000000E-03 0. -1.
        -11    1    3    3    0    0  0.35430721194E+01  0.80627368076E+01 -0.56805704730E+01  0.10479979295E+02  0.51100000000E-03 0.  1.
        -12    1    3    3    0    0  0.34942694079E+02  0.46769766035E+01 -0.79579502003E+01  0.36141319166E+02  0.00000000000E+00 0.  1.
</event>
<event>
 7    1  0.3244957E-013  0.7246151E+02  0.7816164E-02  0.1226708E+00
        -11   -1    0    0    0    0  0.00000000000E+00  0.00000000000E+00  0.45593999997E+02  0.45594000000E+02  0.51100000000E-03 0. -1.
         11   -1    0    0    0    0 -0.00000000000E+00 -0.00000000000E+00 -0.45593999997E+02  0.45594000000E+02  0.51100000000E-03 0.  1.
    9900012    2    1    2    0    0  0.68206599508E+01 -0.17083302250E+01  0.17356310525E+02  0.72461513160E+02  0.69999925572E+02 0.  0.
        -12    1    1    2    0    0 -0.68206599508E+01  0.17083302250E+01 -0.17356310525E+02  0.18726486840E+02  0.00000000000E+00 0.  1.
         11    1    3    3    0    0  0.95095825094E+01 -0.11311352010E+02 -0.27058489397E+01  0.15023330607E+02  0.51100000000E-03 0. -1.
        -11    1    3    3    0    0  0.15933953062E+02  0.22996977496E+02  0.16547737451E+01  0.28026596485E+02  0.51100000000E-03 0.  1.
         12    1    3    3    0    0 -0.18622875621E+02 -0.13393955711E+02  0.18407385720E+02  0.29411586068E+02  0.00000000000E+00 0. -1.
</event>
<event>
 7    1  0.2851651E-013  0.7246166E+02  0.7816164E-02  0.1226708E+00
        -11   -1    0    0    0    0  0.00000000000E+00  0.00000000000E+00  0.45593999997E+02  0.45594000000E+02  0.51100000000E-03 0.  1.
         11   -1    0    0    0    0 -0.00000000000E+00 -0.00000000000E+00 -0.45593999997E+02  0.45594000000E+02  0.51100000000E-03 0. -1.
    9900012    2    1    2    0    0  0.13750170307E+02  0.91113983776E+01 -0.88651489041E+01  0.72461664828E+02  0.70000123148E+02 0.  0.
        -12    1    1    2    0    0 -0.13750170307E+02 -0.91113983776E+01  0.88651489041E+01  0.18726335172E+02  0.00000000000E+00 0.  1.
         11    1    3    3    0    0 -0.66089914688E-02  0.40240410787E+01 -0.12926487173E+02  0.13538353710E+02  0.51100000000E-03 0. -1.
        -11    1    3    3    0    0  0.85444160588E+01  0.30085145348E+02  0.97546538240E+01  0.32760895712E+02  0.51100000000E-03 0.  1.
        -12    1    3    3    0    0  0.52123632398E+01 -0.24997788049E+02 -0.56933155548E+01  0.26162415406E+02  0.00000000000E+00 0.  1.
</event>
<event>
 7    1  0.3705352E-013  0.7246157E+02  0.7816164E-02  0.1226708E+00
        -11   -1    0    0    0    0  0.00000000000E+00  0.00000000000E+00  0.45593999997E+02  0.45594000000E+02  0.51100000000E-03 0. -1.
         11   -1    0    0    0    0 -0.00000000000E+00 -0.00000000000E+00 -0.45593999997E+02  0.45594000000E+02  0.51100000000E-03 0.  1.
    9900012    2    1    2    0    0  0.62152919991E+01 -0.12313193456E+02  0.12666278126E+02  0.72461569767E+02  0.69999999312E+02 0.  0.
        -12    1    1    2    0    0 -0.62152919991E+01  0.12313193456E+02 -0.12666278126E+02  0.18726430233E+02  0.00000000000E+00 0.  1.
         11    1    3    3    0    0  0.30258630763E+01  0.41764958471E+01  0.47812528323E+01  0.70327337376E+01  0.51100000000E-03 0. -1.
        -11    1    3    3    0    0  0.40096267846E+01  0.19989607558E+02 -0.12218495119E+02  0.23768742930E+02  0.51100000000E-03 0.  1.
         12    1    3    3    0    0 -0.82019786179E+00 -0.36479296861E+02  0.20103520413E+02  0.41660093099E+02  0.00000000000E+00 0. -1.
</event>
<event>
 7    1  0.2851651E-013  0.7246154E+02  0.7816164E-02  0.1226708E+00
        -11   -1    0    0    0    0  0.00000000000E+00  0.00000000000E+00  0.45593999997E+02  0.45594000000E+02  0.51100000000E-03 0.  1.
         11   -1    0    0    0    0 -0.00000000000E+00 -0.00000000000E+00 -0.45593999997E+02  0.45594000000E+02  0.51100000000E-03 0. -1.
    9900012    2    1    2    0    0 -0.88831122514E+01  0.10404162614E+02 -0.12787657101E+02  0.72461535916E+02  0.69999955215E+02 0.  0.
        -12    1    1    2    0    0  0.88831122514E+01 -0.10404162614E+02  0.12787657101E+02  0.18726464084E+02  0.00000000000E+00 0.  1.
         11    1    3    3    0    0 -0.20116954827E+01  0.22315832219E+02 -0.12052874746E+02  0.25442387393E+02  0.51100000000E-03 0. -1.
        -11    1    3    3    0    0 -0.20921512772E+02 -0.56846623258E+01  0.13935898452E+02  0.25772744293E+02  0.51100000000E-03 0.  1.
         12    1    3    3    0    0  0.14050096003E+02 -0.62270072794E+01 -0.14670680807E+02  0.21246404230E+02  0.00000000000E+00 0. -1.
</event>
<event>
 7    1  0.2851651E-013  0.7246162E+02  0.7816164E-02  0.1226708E+00
        -11   -1    0    0    0    0  0.00000000000E+00  0.00000000000E+00  0.45593999997E+02  0.45594000000E+02  0.51100000000E-03 0.  1.
         11   -1    0    0    0    0 -0.00000000000E+00 -0.00000000000E+00 -0.45593999997E+02  0.45594000000E+02  0.51100000000E-03 0. -1.
    9900012    2    1    2    0    0 -0.14903654598E+02 -0.67552977497E+01 -0.91062830676E+01  0.72461618626E+02  0.70000062961E+02 0.  0.
        -12    1    1    2    0    0  0.14903654598E+02  0.67552977497E+01  0.91062830676E+01  0.18726381374E+02  0.00000000000E+00 0.  1.
         11    1    3    3    0    0 -0.31746157637E+01 -0.28031632073E+01 -0.28620351944E+02  0.28931997077E+02  0.51100000000E-03 0. -1.
        -11    1    3    3    0    0  0.23211399722E+01  0.22852788077E+01 -0.98556940696E+01  0.10380023885E+02  0.51100000000E-03 0.  1.
        -12    1    3    3    0    0 -0.14050178806E+02 -0.62374133501E+01  0.29369762946E+02  0.33149597664E+02  0.00000000000E+00 0.  1.
</event>
<event>
 7    1  0.2851651E-013  0.7246175E+02  0.7816164E-02  0.1226708E+00
        -11   -1    0    0    0    0  0.00000000000E+00  0.00000000000E+00  0.45593999997E+02  0.45594000000E+02  0.51100000000E-03 0. -1.
         11   -1    0    0    0    0 -0.00000000000E+00 -0.00000000000E+00 -0.45593999997E+02  0.45594000000E+02  0.51100000000E-03 0.  1.
    9900012    2    1    2    0    0  0.81893565763E+01  0.15770428679E+02  0.59076615551E+01  0.72461749790E+02  0.70000233827E+02 0.  0.
        -12    1    1    2    0    0 -0.81893565763E+01 -0.15770428679E+02 -0.59076615551E+01  0.18726250210E+02  0.00000000000E+00 0.  1.
         11    1    3    3    0    0  0.36576509052E+01 -0.11875049177E+01 -0.13886511336E+01  0.40886342837E+01  0.51100000000E-03 0. -1.
        -11    1    3    3    0    0 -0.98993804195E+01 -0.20763699880E+02 -0.91623978519E+01  0.24760422049E+02  0.51100000000E-03 0.  1.
         12    1    3    3    0    0  0.14431086091E+02  0.37721633477E+02  0.16458710541E+02  0.43612693457E+02  0.00000000000E+00 0. -1.
</event>
<event>
 7    1  0.2851651E-013  0.7246156E+02  0.7816164E-02  0.1226708E+00
        -11   -1    0    0    0    0  0.00000000000E+00  0.00000000000E+00  0.45593999997E+02  0.45594000000E+02  0.51100000000E-03 0. -1.
         11   -1    0    0    0    0 -0.00000000000E+00 -0.00000000000E+00 -0.45593999997E+02  0.45594000000E+02  0.51100000000E-03 0.  1.
    9900012    2    1    2    0    0  0.17095538454E+01  0.17841159005E+02  0.54267919491E+01  0.72461558805E+02  0.69999985032E+02 0.  0.
        -12    1    1    2    0    0 -0.17095538454E+01 -0.17841159005E+02 -0.54267919491E+01  0.18726441195E+02  0.00000000000E+00 0.  1.
         11    1    3    3    0    0 -0.15073407814E+02  0.11596418576E+02 -0.95963328991E+00  0.19042201638E+02  0.51100000000E-03 0. -1.
        -11    1    3    3    0    0 -0.82743343808E+01 -0.16322531709E+02  0.72572159644E+01  0.19686463234E+02  0.51100000000E-03 0.  1.
        -12    1    3    3    0    0  0.25057296040E+02  0.22567272137E+02 -0.87079072538E+00  0.33732893932E+02  0.00000000000E+00 0.  1.
</event>
<event>
 7    1  0.2851651E-013  0.7246156E+02  0.7816164E-02  0.1226708E+00
        -11   -1    0    0    0    0  0.00000000000E+00  0.00000000000E+00  0.45593999997E+02  0.45594000000E+02  0.51100000000E-03 0.  1.
         11   -1    0    0    0    0 -0.00000000000E+00 -0.00000000000E+00 -0.45593999997E+02  0.45594000000E+02  0.51100000000E-03 0. -1.
    9900012    2    1    2    0    0 -0.46291157671E+00  0.18432722988E+02  0.32710806803E+01  0.72461560597E+02  0.69999987368E+02 0.  0.
        -12    1    1    2    0    0  0.46291157671E+00 -0.18432722988E+02 -0.32710806803E+01  0.18726439403E+02  0.00000000000E+00 0.  1.
         11    1    3    3    0    0 -0.10623977816E+02  0.78999274721E+01  0.24070756500E+02  0.27471422924E+02  0.51100000000E-03 0.  1.
        -11    1    3    3    0    0  0.83800593584E+01 -0.92148217787E+01  0.41432762540E+01  0.13126502719E+02  0.51100000000E-03 0. -1.
        -12    1    3    3    0    0  0.17810068809E+01  0.19747617295E+02 -0.24942952074E+02  0.31863634954E+02  0.00000000000E+00 0.  1.
</event>
<event>
 7    1  0.2851651E-013  0.7246165E+02  0.7816164E-02  0.1226708E+00
        -11   -1    0    0    0    0  0.00000000000E+00  0.00000000000E+00  0.45593999997E+02  0.45594000000E+02  0.51100000000E-03 0.  1.
         11   -1    0    0    0    0 -0.00000000000E+00 -0.00000000000E+00 -0.45593999997E+02  0.45594000000E+02  0.51100000000E-03 0. -1.
    9900012    2    1    2    0    0  0.95951812966E+01  0.64104753488E+01 -0.14748377719E+02  0.72461645746E+02  0.70000098289E+02 0.  0.
        -12    1    1    2    0    0 -0.95951812966E+01 -0.64104753488E+01  0.14748377719E+02  0.18726354254E+02  0.00000000000E+00 0.  1.
         11    1    3    3    0    0  0.13590933434E+02 -0.23823034000E+02 -0.20259581269E+02  0.34098402514E+02  0.51100000000E-03 0. -1.
        -11    1    3    3    0    0  0.68829297601E+01  0.19313773999E+02 -0.30535613581E+01  0.20729708763E+02  0.51100000000E-03 0.  1.
        -12    1    3    3    0    0 -0.10878681897E+02  0.10919735350E+02  0.85647649077E+01  0.17633534469E+02  0.00000000000E+00 0.  1.
</event>
<event>
 7    1  0.2851651E-013  0.7246155E+02  0.7816164E-02  0.1226708E+00
        -11   -1    0    0    0    0  0.00000000000E+00  0.00000000000E+00  0.45593999997E+02  0.45594000000E+02  0.51100000000E-03 0. -1.
         11   -1    0    0    0    0 -0.00000000000E+00 -0.00000000000E+00 -0.45593999997E+02  0.45594000000E+02  0.51100000000E-03 0.  1.
    9900012    2    1    2    0    0  0.14637573076E+01 -0.12340454670E+02  0.14008948555E+02  0.72461546878E+02  0.69999969495E+02 0.  0.
        -12    1    1    2    0    0 -0.14637573076E+01  0.12340454670E+02 -0.14008948555E+02  0.18726453122E+02  0.00000000000E+00 0.  1.
         11    1    3    3    0    0  0.38192404088E+01 -0.10409281492E+02  0.28809478487E+02  0.30869496100E+02  0.51100000000E-03 0. -1.
        -11    1    3    3    0    0  0.43257374516E+01 -0.97651074136E+01  0.10067203323E+02  0.14677122004E+02  0.51100000000E-03 0.  1.
        -12    1    3    3    0    0 -0.66812205528E+01  0.78339342358E+01 -0.24867733255E+02  0.26914928774E+02  0.00000000000E+00 0.  1.
</event>
<event>
 7    1  0.2851651E-013  0.7246140E+02  0.7816164E-02  0.1226708E+00
        -11   -1    0    0    0    0  0.00000000000E+00  0.00000000000E+00  0.45593999997E+02  0.45594000000E+02  0.51100000000E-03 0. -1.
         11   -1    0    0    0    0 -0.00000000000E+00 -0.00000000000E+00 -0.45593999997E+02  0.45594000000E+02  0.51100000000E-03 0.  1.
    9900012    2    1    2    0    0  0.56996239203E+01  0.17281831350E+02 -0.44201774567E+01  0.72461404570E+02  0.69999784113E+02 0.  0.
        -12    1    1    2    0    0 -0.56996239203E+01 -0.17281831350E+02  0.44201774567E+01  0.18726595430E+02  0.00000000000E+00 0.  1.
         11    1    3    3    0    0  0.26950727547E+01  0.18845241845E+02  0.17620778474E+02  0.25940285111E+02  0.51100000000E-03 0. -1.
        -11    1    3    3    0    0  0.18596238755E+02 -0.42015025061E+00  0.10557005579E+01  0.18630918550E+02  0.51100000000E-03 0.  1.
        -12    1    3    3    0    0 -0.15591687590E+02 -0.11432602442E+01 -0.23096656488E+02  0.27890200910E+02  0.00000000000E+00 0.  1.
</event>
<event>
 7    1  0.2851651E-013  0.7246165E+02  0.7816164E-02  0.1226708E+00
        -11   -1    0    0    0    0  0.00000000000E+00  0.00000000000E+00  0.45593999997E+02  0.45594000000E+02  0.51100000000E-03 0.  1.
         11   -1    0    0    0    0 -0.00000000000E+00 -0.00000000000E+00 -0.45593999997E+02  0.45594000000E+02  0.51100000000E-03 0. -1.
    9900012    2    1    2    0    0 -0.35184917453E+01  0.12271029198E+01 -0.18351857138E+02  0.72461648883E+02  0.70000102377E+02 0.  0.
        -12    1    1    2    0    0  0.35184917453E+01 -0.12271029198E+01  0.18351857138E+02  0.18726351117E+02  0.00000000000E+00 0.  1.
         11    1    3    3    0    0 -0.13380395689E+02 -0.13382908269E+02  0.44131050528E+01  0.19432259750E+02  0.51100000000E-03 0. -1.
        -11    1    3    3    0    0  0.75129307929E+01 -0.10353399831E+02  0.66177948353E+01  0.14402507625E+02  0.51100000000E-03 0.  1.
        -12    1    3    3    0    0  0.23489731505E+01  0.24963411019E+02 -0.29382757026E+02  0.38626881508E+02  0.00000000000E+00 0.  1.
</event>
<event>
 7    1  0.2851651E-013  0.7246156E+02  0.7816164E-02  0.1226708E+00
        -11   -1    0    0    0    0  0.00000000000E+00  0.00000000000E+00  0.45593999997E+02  0.45594000000E+02  0.51100000000E-03 0.  1.
         11   -1    0    0    0    0 -0.00000000000E+00 -0.00000000000E+00 -0.45593999997E+02  0.45594000000E+02  0.51100000000E-03 0. -1.
    9900012    2    1    2    0    0  0.69080441403E+01 -0.16163588563E+02  0.64573168359E+01  0.72461558539E+02  0.69999984687E+02 0.  0.
        -12    1    1    2    0    0 -0.69080441403E+01  0.16163588563E+02 -0.64573168359E+01  0.18726441461E+02  0.00000000000E+00 0.  1.
         11    1    3    3    0    0 -0.70134888931E+01 -0.33871929844E+01  0.16980535535E+01  0.79715424416E+01  0.51100000000E-03 0. -1.
        -11    1    3    3    0    0 -0.28737921890E+01 -0.16117948891E+02  0.29889564957E+02  0.34079804160E+02  0.51100000000E-03 0.  1.
         12    1    3    3    0    0  0.16795325222E+02  0.33415533127E+01 -0.25130301674E+02  0.30410211938E+02  0.00000000000E+00 0. -1.
</event>
<event>
 7    1  0.2851651E-013  0.7246161E+02  0.7816164E-02  0.1226708E+00
        -11   -1    0    0    0    0  0.00000000000E+00  0.00000000000E+00  0.45593999997E+02  0.45594000000E+02  0.51100000000E-03 0.  1.
         11   -1    0    0    0    0 -0.00000000000E+00 -0.00000000000E+00 -0.45593999997E+02  0.45594000000E+02  0.51100000000E-03 0. -1.
    9900012    2    1    2    0    0 -0.17461774934E+02 -0.38250598345E+01 -0.55797022916E+01  0.72461608350E+02  0.70000049574E+02 0.  0.
        -12    1    1    2    0    0  0.17461774934E+02  0.38250598345E+01  0.55797022916E+01  0.18726391650E+02  0.00000000000E+00 0.  1.
         11    1    3    3    0    0 -0.15654409394E+02 -0.10417056794E+02 -0.10730398255E+02  0.21649874196E+02  0.51100000000E-03 0. -1.
        -11    1    3    3    0    0 -0.14353709456E+02  0.89149759098E+01  0.23204195966E+02  0.28704363454E+02  0.51100000000E-03 0.  1.
        -12    1    3    3    0    0  0.12546343917E+02 -0.23229789507E+01 -0.18053500003E+02  0.22107370699E+02  0.00000000000E+00 0.  1.
</event>
<event>
 7    1  0.2851651E-013  0.7246167E+02  0.7816164E-02  0.1226708E+00
        -11   -1    0    0    0    0  0.00000000000E+00  0.00000000000E+00  0.45593999997E+02  0.45594000000E+02  0.51100000000E-03 0.  1.
         11   -1    0    0    0    0 -0.00000000000E+00 -0.00000000000E+00 -0.45593999997E+02  0.45594000000E+02  0.51100000000E-03 0. -1.
    9900012    2    1    2    0    0  0.14972784840E+02 -0.11242646665E+02 -0.30666767021E+00  0.72461670008E+02  0.70000129896E+02 0.  0.
        -12    1    1    2    0    0 -0.14972784840E+02  0.11242646665E+02  0.30666767021E+00  0.18726329992E+02  0.00000000000E+00 0.  1.
         11    1    3    3    0    0 -0.22877036339E+01 -0.99577648314E+01  0.18764171156E+02  0.21365504623E+02  0.51100000000E-03 0. -1.
        -11    1    3    3    0    0 -0.13087992392E+02 -0.30247395007E-01  0.31496527884E+01  0.13461677930E+02  0.51100000000E-03 0.  1.
         12    1    3    3    0    0  0.30348480866E+02 -0.12546344383E+01 -0.22220491615E+02  0.37634487455E+02  0.00000000000E+00 0. -1.
</event>
<event>
 7    1  0.2851651E-013  0.7246158E+02  0.7816164E-02  0.1226708E+00
        -11   -1    0    0    0    0  0.00000000000E+00  0.00000000000E+00  0.45593999997E+02  0.45594000000E+02  0.51100000000E-03 0. -1.
         11   -1    0    0    0    0 -0.00000000000E+00 -0.00000000000E+00 -0.45593999997E+02  0.45594000000E+02  0.51100000000E-03 0.  1.
    9900012    2    1    2    0    0 -0.12730437617E+02 -0.95979653378E+01  0.98231230870E+01  0.72461582090E+02  0.70000015366E+02 0.  0.
        -12    1    1    2    0    0  0.12730437617E+02  0.95979653378E+01 -0.98231230870E+01  0.18726417910E+02  0.00000000000E+00 0.  1.
         11    1    3    3    0    0  0.35731375319E+01 -0.49341094510E+01  0.28511853611E+02  0.29155420499E+02  0.51100000000E-03 0. -1.
        -11    1    3    3    0    0  0.87243377363E+01 -0.40034609148E+01  0.31299096003E+01  0.10096440095E+02  0.51100000000E-03 0.  1.
        -12    1    3    3    0    0 -0.25027912886E+02 -0.66039497207E+00 -0.21818640124E+02  0.33209721495E+02  0.00000000000E+00 0.  1.
</event>
<event>
 7    1  0.2851651E-013  0.7246161E+02  0.7816164E-02  0.1226708E+00
        -11   -1    0    0    0    0  0.00000000000E+00  0.00000000000E+00  0.45593999997E+02  0.45594000000E+02  0.51100000000E-03 0.  1.
         11   -1    0    0    0    0 -0.00000000000E+00 -0.00000000000E+00 -0.45593999997E+02  0.45594000000E+02  0.51100000000E-03 0. -1.
    9900012    2    1    2    0    0 -0.81018565647E-01  0.11008847435E+02 -0.15148472687E+02  0.72461614588E+02  0.70000057701E+02 0.  0.
        -12    1    1    2    0    0  0.81018565647E-01 -0.11008847435E+02  0.15148472687E+02  0.18726385412E+02  0.00000000000E+00 0.  1.
         11    1    3    3    0    0  0.10729567413E+02  0.74727130583E+01 -0.35973038142E+02  0.38275638867E+02  0.51100000000E-03 0. -1.
        -11    1    3    3    0    0  0.74979998639E-04 -0.18338304726E+01 -0.51915553895E+01  0.55059224324E+01  0.51100000000E-03 0.  1.
        -12    1    3    3    0    0 -0.10810660958E+02  0.53699648489E+01  0.26016120845E+02  0.28680053289E+02  0.00000000000E+00 0.  1.
</event>
<event>
 7    1  0.2851651E-013  0.7246152E+02  0.7816164E-02  0.1226708E+00
        -11   -1    0    0    0    0  0.00000000000E+00  0.00000000000E+00  0.45593999997E+02  0.45594000000E+02  0.51100000000E-03 0.  1.
         11   -1    0    0    0    0 -0.00000000000E+00 -0.00000000000E+00 -0.45593999997E+02  0.45594000000E+02  0.51100000000E-03 0. -1.
    9900012    2    1    2    0    0  0.55211272611E+01 -0.28984893018E+01 -0.17657774461E+02  0.72461519140E+02  0.69999933362E+02 0.  0.
        -12    1    1    2    0    0 -0.55211272611E+01  0.28984893018E+01  0.17657774461E+02  0.18726480860E+02  0.00000000000E+00 0.  1.
         11    1    3    3    0    0  0.18033222585E+02  0.76092109443E+01 -0.69240926529E+01  0.20761509274E+02  0.51100000000E-03 0. -1.
        -11    1    3    3    0    0 -0.16305013338E+02  0.12909364375E+02  0.71504032074E+01  0.21991666941E+02  0.51100000000E-03 0.  1.
         12    1    3    3    0    0  0.37929180144E+01 -0.23417064621E+02 -0.17884085016E+02  0.29708342926E+02  0.00000000000E+00 0. -1.
</event>
<event>
 7    1  0.2851651E-013  0.7246159E+02  0.7816164E-02  0.1226708E+00
        -11   -1    0    0    0    0  0.00000000000E+00  0.00000000000E+00  0.45593999997E+02  0.45594000000E+02  0.51100000000E-03 0.  1.
         11   -1    0    0    0    0 -0.00000000000E+00 -0.00000000000E+00 -0.45593999997E+02  0.45594000000E+02  0.51100000000E-03 0. -1.
    9900012    2    1    2    0    0  0.69729721124E+01 -0.16273075182E+02 -0.61027119206E+01  0.72461590607E+02  0.70000026462E+02 0.  0.
        -12    1    1    2    0    0 -0.69729721124E+01  0.16273075182E+02  0.61027119206E+01  0.18726409393E+02  0.00000000000E+00 0.  1.
         11    1    3    3    0    0  0.23182368756E+02 -0.69803358462E+01  0.73204515562E+01  0.25293009329E+02  0.51100000000E-03 0. -1.
        -11    1    3    3    0    0  0.20902494630E+01 -0.12116936452E+02  0.11014823429E+02  0.16508047348E+02  0.51100000000E-03 0.  1.
         12    1    3    3    0    0 -0.18299646106E+02  0.28241971166E+01 -0.24437986905E+02  0.30660533931E+02  0.00000000000E+00 0. -1.
</event>
<event>
 7    1  0.2851651E-013  0.7246156E+02  0.7816164E-02  0.1226708E+00
        -11   -1    0    0    0    0  0.00000000000E+00  0.00000000000E+00  0.45593999997E+02  0.45594000000E+02  0.51100000000E-03 0.  1.
         11   -1    0    0    0    0 -0.00000000000E+00 -0.00000000000E+00 -0.45593999997E+02  0.45594000000E+02  0.51100000000E-03 0. -1.
    9900012    2    1    2    0    0  0.24828842880E+01  0.16340159337E+02  0.88042132430E+01  0.72461556334E+02  0.69999981814E+02 0.  0.
        -12    1    1    2    0    0 -0.24828842880E+01 -0.16340159337E+02 -0.88042132430E+01  0.18726443666E+02  0.00000000000E+00 0.  1.
         11    1    3    3    0    0  0.12193557213E+02 -0.92672617397E+01 -0.13662772346E+02  0.20524042635E+02  0.51100000000E-03 0. -1.
        -11    1    3    3    0    0 -0.90021790544E+01  0.11688375114E+02 -0.91671327446E+01  0.17369331120E+02  0.51100000000E-03 0.  1.
        -12    1    3    3    0    0 -0.70849387056E+00  0.13919045963E+02  0.31634118333E+02  0.34568182579E+02  0.00000000000E+00 0.  1.
</event>
<event>
 7    1  0.2851651E-013  0.7246160E+02  0.7816164E-02  0.1226708E+00
        -11   -1    0    0    0    0  0.00000000000E+00  0.00000000000E+00  0.45593999997E+02  0.45594000000E+02  0.51100000000E-03 0.  1.
         11   -1    0    0    0    0 -0.00000000000E+00 -0.00000000000E+00 -0.45593999997E+02  0.45594000000E+02  0.51100000000E-03 0. -1.
    9900012    2    1    2    0    0  0.34743771518E+01 -0.18285661982E+02  0.20594323197E+01  0.72461601729E+02  0.70000040949E+02 0.  0.
        -12    1    1    2    0    0 -0.34743771518E+01  0.18285661982E+02 -0.20594323197E+01  0.18726398271E+02  0.00000000000E+00 0.  1.
         11    1    3    3    0    0 -0.19274485206E+01 -0.71953037207E+01  0.41040158086E+01  0.85047280645E+01  0.51100000000E-03 0. -1.
        -11    1    3    3    0    0 -0.21636791839E+02 -0.17022354115E+02 -0.17137014142E+02  0.32428206158E+02  0.51100000000E-03 0.  1.
         12    1    3    3    0    0  0.27038617511E+02  0.59319958535E+01  0.15092430653E+02  0.31528667506E+02  0.00000000000E+00 0. -1.
</event>
<event>
 7    1  0.2851651E-013  0.7246157E+02  0.7816164E-02  0.1226708E+00
        -11   -1    0    0    0    0  0.00000000000E+00  0.00000000000E+00  0.45593999997E+02  0.45594000000E+02  0.51100000000E-03 0.  1.
         11   -1    0    0    0    0 -0.00000000000E+00 -0.00000000000E+00 -0.45593999997E+02  0.45594000000E+02  0.51100000000E-03 0. -1.
    9900012    2    1    2    0    0 -0.18209557458E+02  0.27036860377E+01  0.34324112692E+01  0.72461565526E+02  0.69999993788E+02 0.  0.
        -12    1    1    2    0    0  0.18209557458E+02 -0.27036860377E+01 -0.34324112692E+01  0.18726434474E+02  0.00000000000E+00 0.  1.
         11    1    3    3    0    0 -0.32656408818E+02 -0.11478061398E+02 -0.14720054798E+01  0.34646121439E+02  0.51100000000E-03 0. -1.
        -11    1    3    3    0    0  0.18580080950E+01 -0.17666342534E+01  0.14936899691E+02  0.15155334483E+02  0.51100000000E-03 0.  1.
        -12    1    3    3    0    0  0.12588843265E+02  0.15948381689E+02 -0.10032482942E+02  0.22660109604E+02  0.00000000000E+00 0.  1.
</event>
<event>
 7    1  0.2851651E-013  0.7246151E+02  0.7816164E-02  0.1226708E+00
        -11   -1    0    0    0    0  0.00000000000E+00  0.00000000000E+00  0.45593999997E+02  0.45594000000E+02  0.51100000000E-03 0. -1.
         11   -1    0    0    0    0 -0.00000000000E+00 -0.00000000000E+00 -0.45593999997E+02  0.45594000000E+02  0.51100000000E-03 0.  1.
    9900012    2    1    2    0    0  0.13335899246E+02 -0.11111421238E+02  0.70264937485E+01  0.72461507936E+02  0.69999918766E+02 0.  0.
        -12    1    1    2    0    0 -0.13335899246E+02  0.11111421238E+02 -0.70264937485E+01  0.18726492064E+02  0.00000000000E+00 0.  1.
         11    1    3    3    0    0 -0.14343333710E+02 -0.12987101628E+02 -0.10538001162E+02  0.22032827766E+02  0.51100000000E-03 0. -1.
        -11    1    3    3    0    0  0.64687985033E+01  0.18949745540E+02  0.81451380359E+01  0.21616694567E+02  0.51100000000E-03 0.  1.
         12    1    3    3    0    0  0.21210434453E+02 -0.17074065151E+02  0.94193568750E+01  0.28811985603E+02  0.00000000000E+00 0. -1.
</event>
<event>
 7    1  0.2851651E-013  0.7246139E+02  0.7816164E-02  0.1226708E+00
        -11   -1    0    0    0    0  0.00000000000E+00  0.00000000000E+00  0.45593999997E+02  0.45594000000E+02  0.51100000000E-03 0.  1.
         11   -1    0    0    0    0 -0.00000000000E+00 -0.00000000000E+00 -0.45593999997E+02  0.45594000000E+02  0.51100000000E-03 0. -1.
    9900012    2    1    2    0    0 -0.18110393011E+02 -0.32117008933E+01 -0.35191518914E+01  0.72461393589E+02  0.69999769808E+02 0.  0.
        -12    1    1    2    0    0  0.18110393011E+02  0.32117008933E+01  0.35191518914E+01  0.18726606411E+02  0.00000000000E+00 0.  1.
         11    1    3    3    0    0 -0.14510651787E+02 -0.55560596243E+00 -0.56418008505E+00  0.14532240457E+02  0.51100000000E-03 0. -1.
        -11    1    3    3    0    0  0.40976079664E+01 -0.29309136079E+02  0.23382664840E+01  0.29686416745E+02  0.51100000000E-03 0.  1.
         12    1    3    3    0    0 -0.76973491910E+01  0.26653041148E+02 -0.52932382904E+01  0.28242736387E+02  0.00000000000E+00 0. -1.
</event>
<event>
 7    1  0.2851651E-013  0.7246164E+02  0.7816164E-02  0.1226708E+00
        -11   -1    0    0    0    0  0.00000000000E+00  0.00000000000E+00  0.45593999997E+02  0.45594000000E+02  0.51100000000E-03 0.  1.
         11   -1    0    0    0    0 -0.00000000000E+00 -0.00000000000E+00 -0.45593999997E+02  0.45594000000E+02  0.51100000000E-03 0. -1.
    9900012    2    1    2    0    0 -0.31991947371E+01  0.12459032730E+01 -0.18408946055E+02  0.72461643793E+02  0.70000095745E+02 0.  0.
        -12    1    1    2    0    0  0.31991947371E+01 -0.12459032730E+01  0.18408946055E+02  0.18726356207E+02  0.00000000000E+00 0.  1.
         11    1    3    3    0    0 -0.17121542634E+01  0.20668340191E+01 -0.28965962650E+01  0.39488663269E+01  0.51100000000E-03 0. -1.
        -11    1    3    3    0    0 -0.12267785073E+02  0.55915606660E+01  0.23742053690E+02  0.27302915869E+02  0.51100000000E-03 0.  1.
         12    1    3    3    0    0  0.10780744600E+02 -0.64124914121E+01 -0.39254403480E+02  0.41209861597E+02  0.00000000000E+00 0. -1.
</event>
<event>
 7    1  0.2851651E-013  0.7246159E+02  0.7816164E-02  0.1226708E+00
        -11   -1    0    0    0    0  0.00000000000E+00  0.00000000000E+00  0.45593999997E+02  0.45594000000E+02  0.51100000000E-03 0.  1.
         11   -1    0    0    0    0 -0.00000000000E+00 -0.00000000000E+00 -0.45593999997E+02  0.45594000000E+02  0.51100000000E-03 0. -1.
    9900012    2    1    2    0    0 -0.10615069351E+02 -0.51195138856E+00 -0.15418710784E+02  0.72461589939E+02  0.70000025590E+02 0.  0.
        -12    1    1    2    0    0  0.10615069351E+02  0.51195138856E+00  0.15418710784E+02  0.18726410061E+02  0.00000000000E+00 0.  1.
         11    1    3    3    0    0 -0.17349351467E+00  0.12160234724E+02 -0.24991314398E+02  0.27793294230E+02  0.51100000000E-03 0. -1.
        -11    1    3    3    0    0 -0.25824726648E+02 -0.54147114835E+01  0.35483290532E+01  0.26623790981E+02  0.51100000000E-03 0.  1.
         12    1    3    3    0    0  0.15383150811E+02 -0.72574746289E+01  0.60242745614E+01  0.18044504728E+02  0.00000000000E+00 0. -1.
</event>
<event>
 7    1  0.2851651E-013  0.7246162E+02  0.7816164E-02  0.1226708E+00
        -11   -1    0    0    0    0  0.00000000000E+00  0.00000000000E+00  0.45593999997E+02  0.45594000000E+02  0.51100000000E-03 0.  1.
         11   -1    0    0    0    0 -0.00000000000E+00 -0.00000000000E+00 -0.45593999997E+02  0.45594000000E+02  0.51100000000E-03 0. -1.
    9900012    2    1    2    0    0 -0.60260542377E+00 -0.17226824776E+02 -0.73178369990E+01  0.72461618515E+02  0.70000062817E+02 0.  0.
        -12    1    1    2    0    0  0.60260542377E+00  0.17226824776E+02  0.73178369990E+01  0.18726381485E+02  0.00000000000E+00 0.  1.
         11    1    3    3    0    0  0.12075358896E+02 -0.34600650834E+02 -0.73988037579E+01  0.37386650397E+02  0.51100000000E-03 0. -1.
        -11    1    3    3    0    0 -0.10464729158E+02  0.30986613407E+00  0.10607254208E+02  0.14903704756E+02  0.51100000000E-03 0.  1.
        -12    1    3    3    0    0 -0.22132351620E+01  0.17063959924E+02 -0.10526287449E+02  0.20171263362E+02  0.00000000000E+00 0.  1.
</event>
<event>
 7    1  0.2851651E-013  0.7246158E+02  0.7816164E-02  0.1226708E+00
        -11   -1    0    0    0    0  0.00000000000E+00  0.00000000000E+00  0.45593999997E+02  0.45594000000E+02  0.51100000000E-03 0.  1.
         11   -1    0    0    0    0 -0.00000000000E+00 -0.00000000000E+00 -0.45593999997E+02  0.45594000000E+02  0.51100000000E-03 0. -1.
    9900012    2    1    2    0    0 -0.85893130869E+01 -0.99155612218E+00 -0.16610816619E+02  0.72461582521E+02  0.70000015928E+02 0.  0.
        -12    1    1    2    0    0  0.85893130869E+01  0.99155612218E+00  0.16610816619E+02  0.18726417479E+02  0.00000000000E+00 0.  1.
         11    1    3    3    0    0  0.71972957457E+00  0.55696107630E+01 -0.15937209815E+02  0.16897728594E+02  0.51100000000E-03 0. -1.
        -11    1    3    3    0    0  0.51621528625E+01  0.10697965652E+02 -0.21708440154E+02  0.24745720144E+02  0.51100000000E-03 0.  1.
        -12    1    3    3    0    0 -0.14471195524E+02 -0.17259132537E+02  0.21034833350E+02  0.30818133783E+02  0.00000000000E+00 0.  1.
</event>
<event>
 7    1  0.3185202E-013  0.7246157E+02  0.7816164E-02  0.1226708E+00
        -11   -1    0    0    0    0  0.00000000000E+00  0.00000000000E+00  0.45593999997E+02  0.45594000000E+02  0.51100000000E-03 0. -1.
         11   -1    0    0    0    0 -0.00000000000E+00 -0.00000000000E+00 -0.45593999997E+02  0.45594000000E+02  0.51100000000E-03 0.  1.
    9900012    2    1    2    0    0 -0.14972069979E+02 -0.64190109998E+01  0.92364741456E+01  0.72461573851E+02  0.70000004634E+02 0.  0.
        -12    1    1    2    0    0  0.14972069979E+02  0.64190109998E+01 -0.92364741456E+01  0.18726426149E+02  0.00000000000E+00 0.  1.
         11    1    3    3    0    0 -0.40426766589E+01  0.11210870027E+02  0.68727242012E+01  0.13757222813E+02  0.51100000000E-03 0. -1.
        -11    1    3    3    0    0  0.18246011196E+02  0.77612117952E+01 -0.11942151153E+01  0.19864024846E+02  0.51100000000E-03 0.  1.
         12    1    3    3    0    0 -0.29175404515E+02 -0.25391092822E+02  0.35579650597E+01  0.38840326192E+02  0.00000000000E+00 0. -1.
</event>
<event>
 7    1  0.2851651E-013  0.7246158E+02  0.7816164E-02  0.1226708E+00
        -11   -1    0    0    0    0  0.00000000000E+00  0.00000000000E+00  0.45593999997E+02  0.45594000000E+02  0.51100000000E-03 0.  1.
         11   -1    0    0    0    0 -0.00000000000E+00 -0.00000000000E+00 -0.45593999997E+02  0.45594000000E+02  0.51100000000E-03 0. -1.
    9900012    2    1    2    0    0 -0.47478574394E+01  0.12884385291E+02 -0.12733005907E+02  0.72461575514E+02  0.70000006800E+02 0.  0.
        -12    1    1    2    0    0  0.47478574394E+01 -0.12884385291E+02  0.12733005907E+02  0.18726424486E+02  0.00000000000E+00 0.  1.
         11    1    3    3    0    0  0.79882678324E+01  0.34886424285E+01  0.13618093082E+02  0.16168967450E+02  0.51100000000E-03 0. -1.
        -11    1    3    3    0    0 -0.11527172949E+02  0.21134603241E+02  0.33755011254E+01  0.24309281735E+02  0.51100000000E-03 0.  1.
         12    1    3    3    0    0 -0.12089523224E+01 -0.11738860378E+02 -0.29726600114E+02  0.31983326329E+02  0.00000000000E+00 0. -1.
</event>
<event>
 7    1  0.2851651E-013  0.7246162E+02  0.7816164E-02  0.1226708E+00
        -11   -1    0    0    0    0  0.00000000000E+00  0.00000000000E+00  0.45593999997E+02  0.45594000000E+02  0.51100000000E-03 0. -1.
         11   -1    0    0    0    0 -0.00000000000E+00 -0.00000000000E+00 -0.45593999997E+02  0.45594000000E+02  0.51100000000E-03 0.  1.
    9900012    2    1    2    0    0  0.48171814281E+01  0.12371478508E+02 -0.13206767561E+02  0.72461616826E+02  0.70000060616E+02 0.  0.
        -12    1    1    2    0    0 -0.48171814281E+01 -0.12371478508E+02  0.13206767561E+02  0.18726383174E+02  0.00000000000E+00 0.  1.
         11    1    3    3    0    0 -0.30712798100E+01  0.14248134564E+02  0.83396528663E+01  0.16792614699E+02  0.51100000000E-03 0. -1.
        -11    1    3    3    0    0 -0.10945796653E+02  0.18132189140E+02 -0.18315766102E+02  0.28000964904E+02  0.51100000000E-03 0.  1.
         12    1    3    3    0    0  0.18834257891E+02 -0.20008845197E+02 -0.32306543249E+01  0.27668037223E+02  0.00000000000E+00 0. -1.
</event>
<event>
 7    1  0.2851651E-013  0.7246145E+02  0.7816164E-02  0.1226708E+00
        -11   -1    0    0    0    0  0.00000000000E+00  0.00000000000E+00  0.45593999997E+02  0.45594000000E+02  0.51100000000E-03 0. -1.
         11   -1    0    0    0    0 -0.00000000000E+00 -0.00000000000E+00 -0.45593999997E+02  0.45594000000E+02  0.51100000000E-03 0.  1.
    9900012    2    1    2    0    0  0.17430154737E+02 -0.64871894451E+01 -0.21885344267E+01  0.72461451894E+02  0.69999845761E+02 0.  0.
        -12    1    1    2    0    0 -0.17430154737E+02  0.64871894451E+01  0.21885344267E+01  0.18726548106E+02  0.00000000000E+00 0.  1.
         11    1    3    3    0    0 -0.11189691311E+02  0.13606857173E+02  0.13165358371E+02  0.21992780976E+02  0.51100000000E-03 0. -1.
        -11    1    3    3    0    0  0.59440955865E+01  0.10054077081E+01  0.91614729590E+01  0.10967028040E+02  0.51100000000E-03 0.  1.
        -12    1    3    3    0    0  0.22675750462E+02 -0.21099454326E+02 -0.24515365756E+02  0.39501642877E+02  0.00000000000E+00 0.  1.
</event>
<event>
 7    1  0.2851651E-013  0.7246151E+02  0.7816164E-02  0.1226708E+00
        -11   -1    0    0    0    0  0.00000000000E+00  0.00000000000E+00  0.45593999997E+02  0.45594000000E+02  0.51100000000E-03 0.  1.
         11   -1    0    0    0    0 -0.00000000000E+00 -0.00000000000E+00 -0.45593999997E+02  0.45594000000E+02  0.51100000000E-03 0. -1.
    9900012    2    1    2    0    0  0.10181424773E+02  0.26785223991E+01 -0.15486945879E+02  0.72461511132E+02  0.69999922930E+02 0.  0.
        -12    1    1    2    0    0 -0.10181424773E+02 -0.26785223991E+01  0.15486945879E+02  0.18726488868E+02  0.00000000000E+00 0.  1.
         11    1    3    3    0    0  0.18723465125E+01 -0.15427500973E+02 -0.10480967989E+02  0.18744710134E+02  0.51100000000E-03 0. -1.
        -11    1    3    3    0    0 -0.70829859911E+00 -0.17000139259E+02 -0.38897887190E+01  0.17453849955E+02  0.51100000000E-03 0.  1.
        -12    1    3    3    0    0  0.90173768597E+01  0.35106162631E+02 -0.11161891712E+01  0.36262951043E+02  0.00000000000E+00 0.  1.
</event>
<event>
 7    1  0.2851651E-013  0.7246155E+02  0.7816164E-02  0.1226708E+00
        -11   -1    0    0    0    0  0.00000000000E+00  0.00000000000E+00  0.45593999997E+02  0.45594000000E+02  0.51100000000E-03 0.  1.
         11   -1    0    0    0    0 -0.00000000000E+00 -0.00000000000E+00 -0.45593999997E+02  0.45594000000E+02  0.51100000000E-03 0. -1.
    9900012    2    1    2    0    0  0.84903408500E+01  0.15101507417E+02 -0.71090555637E+01  0.72461545850E+02  0.69999968157E+02 0.  0.
        -12    1    1    2    0    0 -0.84903408500E+01 -0.15101507417E+02  0.71090555637E+01  0.18726454150E+02  0.00000000000E+00 0.  1.
         11    1    3    3    0    0  0.19500350776E+02  0.26060436564E+02 -0.21678336807E+02  0.39107036724E+02  0.51100000000E-03 0. -1.
        -11    1    3    3    0    0  0.34417072449E+01  0.50362598011E+00 -0.52384660881E+01  0.62881249275E+01  0.51100000000E-03 0.  1.
        -12    1    3    3    0    0 -0.14451717171E+02 -0.11462555127E+02  0.19807747332E+02  0.27066384199E+02  0.00000000000E+00 0.  1.
</event>
<event>
 7    1  0.2851651E-013  0.7246152E+02  0.7816164E-02  0.1226708E+00
        -11   -1    0    0    0    0  0.00000000000E+00  0.00000000000E+00  0.45593999997E+02  0.45594000000E+02  0.51100000000E-03 0.  1.
         11   -1    0    0    0    0 -0.00000000000E+00 -0.00000000000E+00 -0.45593999997E+02  0.45594000000E+02  0.51100000000E-03 0. -1.
    9900012    2    1    2    0    0 -0.17412247567E+02 -0.45077489232E+01 -0.52129549844E+01  0.72461519675E+02  0.69999934059E+02 0.  0.
        -12    1    1    2    0    0  0.17412247567E+02  0.45077489232E+01  0.52129549844E+01  0.18726480325E+02  0.00000000000E+00 0.  1.
         11    1    3    3    0    0 -0.33640007281E+02  0.63919309910E+01  0.58157260323E+01  0.34732255055E+02  0.51100000000E-03 0. -1.
        -11    1    3    3    0    0 -0.28082816795E+01 -0.62427215879E+01  0.79206551477E+01  0.10468753366E+02  0.51100000000E-03 0.  1.
        -12    1    3    3    0    0  0.19036041393E+02 -0.46569583263E+01 -0.18949336164E+02  0.27260511254E+02  0.00000000000E+00 0.  1.
</event>
<event>
 7    1  0.4464443E-013  0.7246155E+02  0.7816164E-02  0.1226708E+00
        -11   -1    0    0    0    0  0.00000000000E+00  0.00000000000E+00  0.45593999997E+02  0.45594000000E+02  0.51100000000E-03 0.  1.
         11   -1    0    0    0    0 -0.00000000000E+00 -0.00000000000E+00 -0.45593999997E+02  0.45594000000E+02  0.51100000000E-03 0. -1.
    9900012    2    1    2    0    0  0.15233819433E+02  0.65503745068E+01 -0.87007639639E+01  0.72461549342E+02  0.69999972706E+02 0.  0.
        -12    1    1    2    0    0 -0.15233819433E+02 -0.65503745068E+01  0.87007639639E+01  0.18726450658E+02  0.00000000000E+00 0.  1.
         11    1    3    3    0    0  0.20251367907E+02 -0.13045194369E+02 -0.54698020459E+01  0.24702504588E+02  0.51100000000E-03 0. -1.
        -11    1    3    3    0    0 -0.17734220383E+02 -0.26233807699E+01  0.82105269873E+01  0.19717947483E+02  0.51100000000E-03 0.  1.
         12    1    3    3    0    0  0.12716671908E+02  0.22218949646E+02 -0.11441488905E+02  0.28041097271E+02  0.00000000000E+00 0. -1.
</event>
<event>
 7    1  0.2851651E-013  0.7246153E+02  0.7816164E-02  0.1226708E+00
        -11   -1    0    0    0    0  0.00000000000E+00  0.00000000000E+00  0.45593999997E+02  0.45594000000E+02  0.51100000000E-03 0. -1.
         11   -1    0    0    0    0 -0.00000000000E+00 -0.00000000000E+00 -0.45593999997E+02  0.45594000000E+02  0.51100000000E-03 0.  1.
    9900012    2    1    2    0    0 -0.12583094908E+02  0.34361391406E+00  0.13864648027E+02  0.72461526416E+02  0.69999942841E+02 0.  0.
        -12    1    1    2    0    0  0.12583094908E+02 -0.34361391406E+00 -0.13864648027E+02  0.18726473584E+02  0.00000000000E+00 0.  1.
         11    1    3    3    0    0 -0.14702140227E+01  0.80906371382E+01  0.55109173339E+01  0.98989973581E+01  0.51100000000E-03 0. -1.
        -11    1    3    3    0    0 -0.10799039360E+02  0.15909624278E+01 -0.25343346027E+02  0.27594122575E+02  0.51100000000E-03 0.  1.
         12    1    3    3    0    0 -0.31384152465E+00 -0.93379856519E+01  0.33697076720E+02  0.34968406484E+02  0.00000000000E+00 0. -1.
</event>
<event>
 7    1  0.2851651E-013  0.7246157E+02  0.7816164E-02  0.1226708E+00
        -11   -1    0    0    0    0  0.00000000000E+00  0.00000000000E+00  0.45593999997E+02  0.45594000000E+02  0.51100000000E-03 0.  1.
         11   -1    0    0    0    0 -0.00000000000E+00 -0.00000000000E+00 -0.45593999997E+02  0.45594000000E+02  0.51100000000E-03 0. -1.
    9900012    2    1    2    0    0  0.40148596305E+01  0.17146720886E+02 -0.63678777364E+01  0.72461574771E+02  0.70000005831E+02 0.  0.
        -12    1    1    2    0    0 -0.40148596305E+01 -0.17146720886E+02  0.63678777364E+01  0.18726425229E+02  0.00000000000E+00 0.  1.
         11    1    3    3    0    0  0.11976990499E+02 -0.37319288382E+01  0.89008451576E+01  0.15381828209E+02  0.51100000000E-03 0. -1.
        -11    1    3    3    0    0 -0.13662213457E+02  0.23402912260E+02  0.11614610096E+02  0.29483072206E+02  0.51100000000E-03 0.  1.
         12    1    3    3    0    0  0.57000825883E+01 -0.25242625352E+01 -0.26883332990E+02  0.27596674356E+02  0.00000000000E+00 0. -1.
</event>
<event>
 7    1  0.2851651E-013  0.7246156E+02  0.7816164E-02  0.1226708E+00
        -11   -1    0    0    0    0  0.00000000000E+00  0.00000000000E+00  0.45593999997E+02  0.45594000000E+02  0.51100000000E-03 0.  1.
         11   -1    0    0    0    0 -0.00000000000E+00 -0.00000000000E+00 -0.45593999997E+02  0.45594000000E+02  0.51100000000E-03 0. -1.
    9900012    2    1    2    0    0 -0.15033270948E+02 -0.84167463082E+01 -0.73374811140E+01  0.72461561926E+02  0.69999989099E+02 0.  0.
        -12    1    1    2    0    0  0.15033270948E+02  0.84167463082E+01  0.73374811140E+01  0.18726438074E+02  0.00000000000E+00 0.  1.
         11    1    3    3    0    0 -0.16905946602E+02 -0.13460718684E+02  0.13876712685E+00  0.21610674089E+02  0.51100000000E-03 0. -1.
        -11    1    3    3    0    0 -0.21141595350E+02  0.13967578851E+02 -0.64444800711E+01  0.26145585412E+02  0.51100000000E-03 0.  1.
        -12    1    3    3    0    0  0.23014271004E+02 -0.89236064751E+01 -0.10317681698E+01  0.24705302425E+02  0.00000000000E+00 0.  1.
</event>
<event>
 7    1  0.2851651E-013  0.7246159E+02  0.7816164E-02  0.1226708E+00
        -11   -1    0    0    0    0  0.00000000000E+00  0.00000000000E+00  0.45593999997E+02  0.45594000000E+02  0.51100000000E-03 0. -1.
         11   -1    0    0    0    0 -0.00000000000E+00 -0.00000000000E+00 -0.45593999997E+02  0.45594000000E+02  0.51100000000E-03 0.  1.
    9900012    2    1    2    0    0  0.13986310753E+02  0.17505521566E+01  0.12328714179E+02  0.72461587780E+02  0.70000022778E+02 0.  0.
        -12    1    1    2    0    0 -0.13986310753E+02 -0.17505521566E+01 -0.12328714179E+02  0.18726412220E+02  0.00000000000E+00 0.  1.
         11    1    3    3    0    0  0.25264888446E+01 -0.24541865673E+01  0.27607816601E+02  0.27831595630E+02  0.51100000000E-03 0. -1.
        -11    1    3    3    0    0  0.25817270311E+00 -0.34137324460E+01  0.12909195115E+02  0.13355431147E+02  0.51100000000E-03 0.  1.
        -12    1    3    3    0    0  0.11201649206E+02  0.76184711699E+01 -0.28188297537E+02  0.31274561003E+02  0.00000000000E+00 0.  1.
</event>
<event>
 7    1  0.2851651E-013  0.7246160E+02  0.7816164E-02  0.1226708E+00
        -11   -1    0    0    0    0  0.00000000000E+00  0.00000000000E+00  0.45593999997E+02  0.45594000000E+02  0.51100000000E-03 0.  1.
         11   -1    0    0    0    0 -0.00000000000E+00 -0.00000000000E+00 -0.45593999997E+02  0.45594000000E+02  0.51100000000E-03 0. -1.
    9900012    2    1    2    0    0 -0.12749537948E+01  0.45099929890E+01 -0.18130434002E+02  0.72461596687E+02  0.70000034381E+02 0.  0.
        -12    1    1    2    0    0  0.12749537948E+01 -0.45099929890E+01  0.18130434002E+02  0.18726403313E+02  0.00000000000E+00 0.  1.
         11    1    3    3    0    0 -0.26087695607E+01 -0.50336616576E+01 -0.61700051197E+01  0.83792834862E+01  0.51100000000E-03 0. -1.
        -11    1    3    3    0    0 -0.24930886364E+02  0.15768958736E+02 -0.20325247748E+02  0.35823523707E+02  0.51100000000E-03 0.  1.
         12    1    3    3    0    0  0.26264702130E+02 -0.62253040899E+01  0.83648188649E+01  0.28258789493E+02  0.00000000000E+00 0. -1.
</event>
<event>
 7    1  0.2851651E-013  0.7246139E+02  0.7816164E-02  0.1226708E+00
        -11   -1    0    0    0    0  0.00000000000E+00  0.00000000000E+00  0.45593999997E+02  0.45594000000E+02  0.51100000000E-03 0.  1.
         11   -1    0    0    0    0 -0.00000000000E+00 -0.00000000000E+00 -0.45593999997E+02  0.45594000000E+02  0.51100000000E-03 0. -1.
    9900012    2    1    2    0    0 -0.28209376745E+01  0.18334995507E+02 -0.25604834659E+01  0.72461392587E+02  0.69999768503E+02 0.  0.
        -12    1    1    2    0    0  0.28209376745E+01 -0.18334995507E+02  0.25604834659E+01  0.18726607413E+02  0.00000000000E+00 0.  1.
         11    1    3    3    0    0 -0.66378769408E+01 -0.90536662111E+01 -0.14888959405E+01  0.11324623328E+02  0.51100000000E-03 0. -1.
        -11    1    3    3    0    0 -0.32314278565E+01 -0.16423234630E+02  0.29025129494E+00  0.16740639408E+02  0.51100000000E-03 0.  1.
         12    1    3    3    0    0  0.70483671228E+01  0.43811896349E+02 -0.13618388204E+01  0.44396129851E+02  0.00000000000E+00 0. -1.
</event>
<event>
 7    1  0.2851651E-013  0.7246157E+02  0.7816164E-02  0.1226708E+00
        -11   -1    0    0    0    0  0.00000000000E+00  0.00000000000E+00  0.45593999997E+02  0.45594000000E+02  0.51100000000E-03 0. -1.
         11   -1    0    0    0    0 -0.00000000000E+00 -0.00000000000E+00 -0.45593999997E+02  0.45594000000E+02  0.51100000000E-03 0.  1.
    9900012    2    1    2    0    0  0.18506153728E+02 -0.28089009471E+01  0.55821854385E+00  0.72461567924E+02  0.69999996912E+02 0.  0.
        -12    1    1    2    0    0 -0.18506153728E+02  0.28089009471E+01 -0.55821854385E+00  0.18726432076E+02  0.00000000000E+00 0.  1.
         11    1    3    3    0    0  0.24988628454E+02 -0.62950788939E+01 -0.86876007557E+01  0.27194374004E+02  0.51100000000E-03 0. -1.
        -11    1    3    3    0    0  0.85028458996E+01 -0.14920363079E+02 -0.46133528510E+01  0.17781975357E+02  0.51100000000E-03 0.  1.
        -12    1    3    3    0    0 -0.14985320625E+02  0.18406541026E+02  0.13859172151E+02  0.27485218564E+02  0.00000000000E+00 0.  1.
</event>
<event>
 7    1  0.2851651E-013  0.7246156E+02  0.7816164E-02  0.1226708E+00
        -11   -1    0    0    0    0  0.00000000000E+00  0.00000000000E+00  0.45593999997E+02  0.45594000000E+02  0.51100000000E-03 0. -1.
         11   -1    0    0    0    0 -0.00000000000E+00 -0.00000000000E+00 -0.45593999997E+02  0.45594000000E+02  0.51100000000E-03 0.  1.
    9900012    2    1    2    0    0 -0.12013671129E+02  0.11814376578E+02  0.81713969982E+01  0.72461561022E+02  0.69999987920E+02 0.  0.
        -12    1    1    2    0    0  0.12013671129E+02 -0.11814376578E+02 -0.81713969982E+01  0.18726438978E+02  0.00000000000E+00 0.  1.
         11    1    3    3    0    0  0.36017522951E+01  0.45113651797E+01  0.28977939680E+01  0.64592759286E+01  0.51100000000E-03 0. -1.
        -11    1    3    3    0    0  0.23870231028E+02  0.23764410397E+01 -0.58375319646E+01  0.24688300489E+02  0.51100000000E-03 0.  1.
         12    1    3    3    0    0 -0.39485654452E+02  0.49265703583E+01  0.11111134995E+02  0.41313984604E+02  0.00000000000E+00 0. -1.
</event>
<event>
 7    1  0.2851651E-013  0.7246151E+02  0.7816164E-02  0.1226708E+00
        -11   -1    0    0    0    0  0.00000000000E+00  0.00000000000E+00  0.45593999997E+02  0.45594000000E+02  0.51100000000E-03 0.  1.
         11   -1    0    0    0    0 -0.00000000000E+00 -0.00000000000E+00 -0.45593999997E+02  0.45594000000E+02  0.51100000000E-03 0. -1.
    9900012    2    1    2    0    0 -0.11239653500E+02  0.84172684121E+01 -0.12389563658E+02  0.72461507911E+02  0.69999918734E+02 0.  0.
        -12    1    1    2    0    0  0.11239653500E+02 -0.84172684121E+01  0.12389563658E+02  0.18726492089E+02  0.00000000000E+00 0.  1.
         11    1    3    3    0    0 -0.18893785918E+00  0.14336426414E+02 -0.81931118091E+01  0.16513506630E+02  0.51100000000E-03 0. -1.
        -11    1    3    3    0    0  0.14494027267E+02  0.14557168177E+01 -0.20208018322E+02  0.24911040577E+02  0.51100000000E-03 0.  1.
        -12    1    3    3    0    0 -0.25544742908E+02 -0.73748748195E+01  0.16011566473E+02  0.31036960704E+02  0.00000000000E+00 0.  1.
</event>
<event>
 7    1  0.2851651E-013  0.7246158E+02  0.7816164E-02  0.1226708E+00
        -11   -1    0    0    0    0  0.00000000000E+00  0.00000000000E+00  0.45593999997E+02  0.45594000000E+02  0.51100000000E-03 0. -1.
         11   -1    0    0    0    0 -0.00000000000E+00 -0.00000000000E+00 -0.45593999997E+02  0.45594000000E+02  0.51100000000E-03 0.  1.
    9900012    2    1    2    0    0 -0.78891155686E+01 -0.15003046530E+02 -0.79592228785E+01  0.72461580736E+02  0.70000013602E+02 0.  0.
        -12    1    1    2    0    0  0.78891155686E+01  0.15003046530E+02  0.79592228785E+01  0.18726419264E+02  0.00000000000E+00 0.  1.
         11    1    3    3    0    0  0.37972408118E+01 -0.35954102335E+02  0.70714553263E+01  0.36839136705E+02  0.51100000000E-03 0. -1.
        -11    1    3    3    0    0  0.49417756879E+01  0.11480279624E+01 -0.68034622754E+01  0.84868259289E+01  0.51100000000E-03 0.  1.
        -12    1    3    3    0    0 -0.16628132068E+02  0.19803027843E+02 -0.82272159294E+01  0.27135618102E+02  0.00000000000E+00 0.  1.
</event>
<event>
 7    1  0.2851651E-013  0.7246142E+02  0.7816164E-02  0.1226708E+00
        -11   -1    0    0    0    0  0.00000000000E+00  0.00000000000E+00  0.45593999997E+02  0.45594000000E+02  0.51100000000E-03 0. -1.
         11   -1    0    0    0    0 -0.00000000000E+00 -0.00000000000E+00 -0.45593999997E+02  0.45594000000E+02  0.51100000000E-03 0.  1.
    9900012    2    1    2    0    0  0.99871674795E+01 -0.13880793736E+02 -0.76331480738E+01  0.72461417330E+02  0.69999800735E+02 0.  0.
        -12    1    1    2    0    0 -0.99871674795E+01  0.13880793736E+02  0.76331480738E+01  0.18726582670E+02  0.00000000000E+00 0.  1.
         11    1    3    3    0    0 -0.27987582929E+01  0.59174372459E+01 -0.57725214998E+01  0.87276065601E+01  0.51100000000E-03 0. -1.
        -11    1    3    3    0    0 -0.14392911413E+02  0.14112826418E+02 -0.21707074971E+01  0.20274115017E+02  0.51100000000E-03 0.  1.
         12    1    3    3    0    0  0.27178837185E+02 -0.33911057400E+02  0.31008092306E+00  0.43459695752E+02  0.00000000000E+00 0. -1.
</event>
<event>
 7    1  0.2851651E-013  0.7246173E+02  0.7816164E-02  0.1226708E+00
        -11   -1    0    0    0    0  0.00000000000E+00  0.00000000000E+00  0.45593999997E+02  0.45594000000E+02  0.51100000000E-03 0.  1.
         11   -1    0    0    0    0 -0.00000000000E+00 -0.00000000000E+00 -0.45593999997E+02  0.45594000000E+02  0.51100000000E-03 0. -1.
    9900012    2    1    2    0    0  0.57554016789E+01  0.17808052133E+02 -0.64959423287E+00  0.72461725894E+02  0.70000202697E+02 0.  0.
        -12    1    1    2    0    0 -0.57554016789E+01 -0.17808052133E+02  0.64959423287E+00  0.18726274106E+02  0.00000000000E+00 0.  1.
         11    1    3    3    0    0  0.26559020665E+02 -0.64230488650E+01 -0.19903671651E+01  0.27397056359E+02  0.51100000000E-03 0. -1.
        -11    1    3    3    0    0 -0.72309156312E+00 -0.72219155638E+01 -0.21907715244E+01  0.75814514411E+01  0.51100000000E-03 0.  1.
         12    1    3    3    0    0 -0.20080527423E+02  0.31453016561E+02  0.35315444566E+01  0.37483218094E+02  0.00000000000E+00 0. -1.
</event>
<event>
 7    1  0.2851651E-013  0.7246155E+02  0.7816164E-02  0.1226708E+00
        -11   -1    0    0    0    0  0.00000000000E+00  0.00000000000E+00  0.45593999997E+02  0.45594000000E+02  0.51100000000E-03 0.  1.
         11   -1    0    0    0    0 -0.00000000000E+00 -0.00000000000E+00 -0.45593999997E+02  0.45594000000E+02  0.51100000000E-03 0. -1.
    9900012    2    1    2    0    0 -0.49417283876E+01 -0.64299673020E+01  0.16879421480E+02  0.72461547361E+02  0.69999970125E+02 0.  0.
        -12    1    1    2    0    0  0.49417283876E+01  0.64299673020E+01 -0.16879421480E+02  0.18726452639E+02  0.00000000000E+00 0.  1.
         11    1    3    3    0    0 -0.26384150096E+01 -0.17821298841E+02  0.17743859798E+02  0.25286448681E+02  0.51100000000E-03 0. -1.
        -11    1    3    3    0    0 -0.18251630681E+02  0.66488717804E+01  0.14724328780E+02  0.24374892343E+02  0.51100000000E-03 0.  1.
        -12    1    3    3    0    0  0.15948317303E+02  0.47424597583E+01 -0.15588767098E+02  0.22800206336E+02  0.00000000000E+00 0.  1.
</event>
<event>
 7    1  0.2851651E-013  0.7246156E+02  0.7816164E-02  0.1226708E+00
        -11   -1    0    0    0    0  0.00000000000E+00  0.00000000000E+00  0.45593999997E+02  0.45594000000E+02  0.51100000000E-03 0.  1.
         11   -1    0    0    0    0 -0.00000000000E+00 -0.00000000000E+00 -0.45593999997E+02  0.45594000000E+02  0.51100000000E-03 0. -1.
    9900012    2    1    2    0    0  0.10094405081E+02  0.81877099086E+01 -0.13481239841E+02  0.72461563202E+02  0.69999990761E+02 0.  0.
        -12    1    1    2    0    0 -0.10094405081E+02 -0.81877099086E+01  0.13481239841E+02  0.18726436798E+02  0.00000000000E+00 0.  1.
         11    1    3    3    0    0 -0.61219315672E+01 -0.39349379659E+01 -0.17739022860E+02  0.19173802836E+02  0.51100000000E-03 0. -1.
        -11    1    3    3    0    0 -0.14433449960E+02 -0.79199384831E+01  0.45850531473E+00  0.16469976646E+02  0.51100000000E-03 0.  1.
        -12    1    3    3    0    0  0.30649786608E+02  0.20042586358E+02  0.37992777038E+01  0.36817783721E+02  0.00000000000E+00 0.  1.
</event>
<event>
 7    1  0.2851651E-013  0.7246158E+02  0.7816164E-02  0.1226708E+00
        -11   -1    0    0    0    0  0.00000000000E+00  0.00000000000E+00  0.45593999997E+02  0.45594000000E+02  0.51100000000E-03 0. -1.
         11   -1    0    0    0    0 -0.00000000000E+00 -0.00000000000E+00 -0.45593999997E+02  0.45594000000E+02  0.51100000000E-03 0.  1.
    9900012    2    1    2    0    0 -0.81921008564E+01  0.84890962463E+01  0.14543155551E+02  0.72461584302E+02  0.70000018248E+02 0.  0.
        -12    1    1    2    0    0  0.81921008564E+01 -0.84890962463E+01 -0.14543155551E+02  0.18726415698E+02  0.00000000000E+00 0.  1.
         11    1    3    3    0    0 -0.24768285187E+02 -0.19617248288E+02  0.12648096539E+02  0.34033494206E+02  0.51100000000E-03 0. -1.
        -11    1    3    3    0    0  0.71192398715E+00  0.16563993583E+02 -0.54909845139E+01  0.17464925719E+02  0.51100000000E-03 0.  1.
        -12    1    3    3    0    0  0.15864260344E+02  0.11542350951E+02  0.73860435258E+01  0.20963164377E+02  0.00000000000E+00 0.  1.
</event>
<event>
 7    1  0.2851651E-013  0.7246154E+02  0.7816164E-02  0.1226708E+00
        -11   -1    0    0    0    0  0.00000000000E+00  0.00000000000E+00  0.45593999997E+02  0.45594000000E+02  0.51100000000E-03 0.  1.
         11   -1    0    0    0    0 -0.00000000000E+00 -0.00000000000E+00 -0.45593999997E+02  0.45594000000E+02  0.51100000000E-03 0. -1.
    9900012    2    1    2    0    0 -0.43451966358E+01 -0.84172509714E+01 -0.16153925601E+02  0.72461543848E+02  0.69999965548E+02 0.  0.
        -12    1    1    2    0    0  0.43451966358E+01  0.84172509714E+01  0.16153925601E+02  0.18726456152E+02  0.00000000000E+00 0.  1.
         11    1    3    3    0    0 -0.26089224822E+01 -0.26896580629E+02 -0.46719288238E+01  0.27423702252E+02  0.51100000000E-03 0. -1.
        -11    1    3    3    0    0  0.16723021115E+02 -0.64594272303E-01 -0.83313191964E+01  0.18683535197E+02  0.51100000000E-03 0.  1.
        -12    1    3    3    0    0 -0.18459295269E+02  0.18543923930E+02 -0.31506775804E+01  0.26354306398E+02  0.00000000000E+00 0.  1.
</event>
<event>
 7    1  0.2851651E-013  0.7246159E+02  0.7816164E-02  0.1226708E+00
        -11   -1    0    0    0    0  0.00000000000E+00  0.00000000000E+00  0.45593999997E+02  0.45594000000E+02  0.51100000000E-03 0.  1.
         11   -1    0    0    0    0 -0.00000000000E+00 -0.00000000000E+00 -0.45593999997E+02  0.45594000000E+02  0.51100000000E-03 0. -1.
    9900012    2    1    2    0    0 -0.39847688780E+01 -0.15362453420E+02 -0.99395730848E+01  0.72461588940E+02  0.70000024289E+02 0.  0.
        -12    1    1    2    0    0  0.39847688780E+01  0.15362453420E+02  0.99395730848E+01  0.18726411060E+02  0.00000000000E+00 0.  1.
         11    1    3    3    0    0  0.39950901414E+01 -0.90937580455E+01  0.11360476689E+02  0.15090315155E+02  0.51100000000E-03 0.  1.
        -11    1    3    3    0    0 -0.13190013033E+02  0.20200924210E+02 -0.20154752982E+01  0.24209831137E+02  0.51100000000E-03 0. -1.
         12    1    3    3    0    0  0.52101540132E+01 -0.26469619584E+02 -0.19284574475E+02  0.33161442648E+02  0.00000000000E+00 0. -1.
</event>
<event>
 7    1  0.2851651E-013  0.7246165E+02  0.7816164E-02  0.1226708E+00
        -11   -1    0    0    0    0  0.00000000000E+00  0.00000000000E+00  0.45593999997E+02  0.45594000000E+02  0.51100000000E-03 0.  1.
         11   -1    0    0    0    0 -0.00000000000E+00 -0.00000000000E+00 -0.45593999997E+02  0.45594000000E+02  0.51100000000E-03 0. -1.
    9900012    2    1    2    0    0 -0.57261672429E+01  0.46544329509E+01 -0.17211147022E+02  0.72461646398E+02  0.70000099140E+02 0.  0.
        -12    1    1    2    0    0  0.57261672429E+01 -0.46544329509E+01  0.17211147022E+02  0.18726353602E+02  0.00000000000E+00 0.  1.
         11    1    3    3    0    0 -0.23541626151E+02  0.37387299930E+01 -0.29640284314E+02  0.38035939824E+02  0.51100000000E-03 0. -1.
        -11    1    3    3    0    0 -0.18140913916E+01  0.10108421240E+02  0.24216961904E+01  0.10551574302E+02  0.51100000000E-03 0.  1.
        -12    1    3    3    0    0  0.19629550300E+02 -0.91927182821E+01  0.10007441102E+02  0.23874132273E+02  0.00000000000E+00 0.  1.
</event>
<event>
 7    1  0.2851651E-013  0.7246154E+02  0.7816164E-02  0.1226708E+00
        -11   -1    0    0    0    0  0.00000000000E+00  0.00000000000E+00  0.45593999997E+02  0.45594000000E+02  0.51100000000E-03 0.  1.
         11   -1    0    0    0    0 -0.00000000000E+00 -0.00000000000E+00 -0.45593999997E+02  0.45594000000E+02  0.51100000000E-03 0. -1.
    9900012    2    1    2    0    0 -0.11701026045E+02  0.65645015944E+00 -0.14606008742E+02  0.72461536675E+02  0.69999956204E+02 0.  0.
        -12    1    1    2    0    0  0.11701026045E+02 -0.65645015944E+00  0.14606008742E+02  0.18726463325E+02  0.00000000000E+00 0.  1.
         11    1    3    3    0    0  0.38442937915E+01 -0.78639452134E+00 -0.32998168996E+01  0.51269682007E+01  0.51100000000E-03 0. -1.
        -11    1    3    3    0    0 -0.17009985515E+01 -0.55435835735E+01  0.26155251182E+02  0.26790331830E+02  0.51100000000E-03 0.  1.
         12    1    3    3    0    0 -0.13844321285E+02  0.69864282543E+01 -0.37461443024E+02  0.40544236644E+02  0.00000000000E+00 0. -1.
</event>
<event>
 7    1  0.2851651E-013  0.7246180E+02  0.7816164E-02  0.1226707E+00
        -11   -1    0    0    0    0  0.00000000000E+00  0.00000000000E+00  0.45593999997E+02  0.45594000000E+02  0.51100000000E-03 0.  1.
         11   -1    0    0    0    0 -0.00000000000E+00 -0.00000000000E+00 -0.45593999997E+02  0.45594000000E+02  0.51100000000E-03 0. -1.
    9900012    2    1    2    0    0 -0.13431229101E+02 -0.26281010260E+01 -0.12781458348E+02  0.72461801569E+02  0.70000301278E+02 0.  0.
        -12    1    1    2    0    0  0.13431229101E+02  0.26281010260E+01  0.12781458348E+02  0.18726198431E+02  0.00000000000E+00 0.  1.
         11    1    3    3    0    0  0.77070903408E+01 -0.10513134247E+02 -0.65925155222E+01  0.14607754598E+02  0.51100000000E-03 0. -1.
        -11    1    3    3    0    0  0.24944839785E+01  0.10832362847E+02  0.19735547863E+02  0.22650703850E+02  0.51100000000E-03 0.  1.
         12    1    3    3    0    0 -0.23632803421E+02 -0.29473296262E+01 -0.25924490689E+02  0.35203343121E+02  0.00000000000E+00 0. -1.
</event>
<event>
 7    1  0.2851651E-013  0.7246100E+02  0.7816164E-02  0.1226710E+00
        -11   -1    0    0    0    0  0.00000000000E+00  0.00000000000E+00  0.45593999997E+02  0.45594000000E+02  0.51100000000E-03 0.  1.
         11   -1    0    0    0    0 -0.00000000000E+00 -0.00000000000E+00 -0.45593999997E+02  0.45594000000E+02  0.51100000000E-03 0. -1.
    9900012    2    1    2    0    0 -0.70685112710E+01 -0.24589454434E+01 -0.17166543155E+02  0.72461001624E+02  0.69999259197E+02 0.  0.
        -12    1    1    2    0    0  0.70685112710E+01  0.24589454434E+01  0.17166543155E+02  0.18726998376E+02  0.00000000000E+00 0.  1.
         11    1    3    3    0    0 -0.77258325275E-01 -0.61721292201E+01 -0.30805402281E+01  0.68986140867E+01  0.51100000000E-03 0. -1.
        -11    1    3    3    0    0 -0.15086127625E+02 -0.19538559804E+02 -0.27963450347E+02  0.37300149082E+02  0.51100000000E-03 0.  1.
         12    1    3    3    0    0  0.80948746791E+01  0.23251743581E+02  0.13877447420E+02  0.28262238456E+02  0.00000000000E+00 0. -1.
</event>
<event>
 7    1  0.2851651E-013  0.7246158E+02  0.7816164E-02  0.1226708E+00
        -11   -1    0    0    0    0  0.00000000000E+00  0.00000000000E+00  0.45593999997E+02  0.45594000000E+02  0.51100000000E-03 0.  1.
         11   -1    0    0    0    0 -0.00000000000E+00 -0.00000000000E+00 -0.45593999997E+02  0.45594000000E+02  0.51100000000E-03 0. -1.
    9900012    2    1    2    0    0 -0.82019207326E+01 -0.16823691751E+02  0.60894480811E+00  0.72461576913E+02  0.70000008622E+02 0.  0.
        -12    1    1    2    0    0  0.82019207326E+01  0.16823691751E+02 -0.60894480811E+00  0.18726423087E+02  0.00000000000E+00 0.  1.
         11    1    3    3    0    0 -0.82393140984E+01 -0.16920551429E+01 -0.21538282608E+02  0.23122434244E+02  0.51100000000E-03 0. -1.
        -11    1    3    3    0    0 -0.14649097145E+02  0.28685866677E+01 -0.28679264455E+01  0.15200323647E+02  0.51100000000E-03 0.  1.
        -12    1    3    3    0    0  0.14686490510E+02 -0.18000223276E+02  0.25015153861E+02  0.34138819022E+02  0.00000000000E+00 0.  1.
</event>
<event>
 7    1  0.2851651E-013  0.7246158E+02  0.7816164E-02  0.1226708E+00
        -11   -1    0    0    0    0  0.00000000000E+00  0.00000000000E+00  0.45593999997E+02  0.45594000000E+02  0.51100000000E-03 0. -1.
         11   -1    0    0    0    0 -0.00000000000E+00 -0.00000000000E+00 -0.45593999997E+02  0.45594000000E+02  0.51100000000E-03 0.  1.
    9900012    2    1    2    0    0  0.23609758462E+01  0.11406304587E+02  0.14662905521E+02  0.72461580438E+02  0.70000013214E+02 0.  0.
        -12    1    1    2    0    0 -0.23609758462E+01 -0.11406304587E+02 -0.14662905521E+02  0.18726419562E+02  0.00000000000E+00 0.  1.
         11    1    3    3    0    0  0.35404203931E+01 -0.57141793211E+01 -0.26488161749E+01  0.72251400861E+01  0.51100000000E-03 0. -1.
        -11    1    3    3    0    0 -0.28420789066E+02  0.21056987581E+02  0.99798869403E+01  0.36752362111E+02  0.51100000000E-03 0.  1.
         12    1    3    3    0    0  0.27241344519E+02 -0.39365036724E+01  0.73318347560E+01  0.28484078241E+02  0.00000000000E+00 0. -1.
</event>
<event>
 7    1  0.2851651E-013  0.7246153E+02  0.7816164E-02  0.1226708E+00
        -11   -1    0    0    0    0  0.00000000000E+00  0.00000000000E+00  0.45593999997E+02  0.45594000000E+02  0.51100000000E-03 0. -1.
         11   -1    0    0    0    0 -0.00000000000E+00 -0.00000000000E+00 -0.45593999997E+02  0.45594000000E+02  0.51100000000E-03 0.  1.
    9900012    2    1    2    0    0 -0.18065608223E+02 -0.30501111037E+01  0.38744406190E+01  0.72461530276E+02  0.69999947868E+02 0.  0.
        -12    1    1    2    0    0  0.18065608223E+02  0.30501111037E+01 -0.38744406190E+01  0.18726469724E+02  0.00000000000E+00 0.  1.
         11    1    3    3    0    0  0.13610984924E+02 -0.15559674734E+02  0.13361379302E+02  0.24614809476E+02  0.51100000000E-03 0. -1.
        -11    1    3    3    0    0 -0.75150547262E+01  0.25709924691E+01  0.11746993546E+02  0.14180194197E+02  0.51100000000E-03 0.  1.
        -12    1    3    3    0    0 -0.24161538421E+02  0.99385711610E+01 -0.21233932229E+02  0.33666526603E+02  0.00000000000E+00 0.  1.
</event>
<event>
 7    1  0.2851651E-013  0.7246159E+02  0.7816164E-02  0.1226708E+00
        -11   -1    0    0    0    0  0.00000000000E+00  0.00000000000E+00  0.45593999997E+02  0.45594000000E+02  0.51100000000E-03 0. -1.
         11   -1    0    0    0    0 -0.00000000000E+00 -0.00000000000E+00 -0.45593999997E+02  0.45594000000E+02  0.51100000000E-03 0.  1.
    9900012    2    1    2    0    0  0.81988312212E+01 -0.12165121332E+02  0.11639040712E+02  0.72461594069E+02  0.70000030970E+02 0.  0.
        -12    1    1    2    0    0 -0.81988312212E+01  0.12165121332E+02 -0.11639040712E+02  0.18726405931E+02  0.00000000000E+00 0.  1.
         11    1    3    3    0    0 -0.85255328700E+01  0.14832373923E+02  0.41176089933E+01  0.17596554521E+02  0.51100000000E-03 0. -1.
        -11    1    3    3    0    0 -0.21118564389E+01  0.97852775777E+01  0.90733958860E+01  0.13510666455E+02  0.51100000000E-03 0.  1.
        -12    1    3    3    0    0  0.18836220530E+02 -0.36782772833E+02 -0.15519641674E+01  0.41354373093E+02  0.00000000000E+00 0.  1.
</event>
<event>
 7    1  0.2851651E-013  0.7246155E+02  0.7816164E-02  0.1226708E+00
        -11   -1    0    0    0    0  0.00000000000E+00  0.00000000000E+00  0.45593999997E+02  0.45594000000E+02  0.51100000000E-03 0.  1.
         11   -1    0    0    0    0 -0.00000000000E+00 -0.00000000000E+00 -0.45593999997E+02  0.45594000000E+02  0.51100000000E-03 0. -1.
    9900012    2    1    2    0    0 -0.17333578169E+02 -0.45815255616E+01  0.54070824244E+01  0.72461552153E+02  0.69999976367E+02 0.  0.
        -12    1    1    2    0    0  0.17333578169E+02  0.45815255616E+01 -0.54070824244E+01  0.18726447847E+02  0.00000000000E+00 0.  1.
         11    1    3    3    0    0  0.14058838375E+02  0.92503879567E+01 -0.53095381186E+01  0.17646864002E+02  0.51100000000E-03 0. -1.
        -11    1    3    3    0    0  0.18682406501E+01  0.28699077360E+01  0.16762100667E+02  0.17108322904E+02  0.51100000000E-03 0.  1.
        -12    1    3    3    0    0 -0.33260657195E+02 -0.16701821254E+02 -0.60454801244E+01  0.37706365247E+02  0.00000000000E+00 0.  1.
</event>
<event>
 7    1  0.4111426E-013  0.7246157E+02  0.7816164E-02  0.1226708E+00
        -11   -1    0    0    0    0  0.00000000000E+00  0.00000000000E+00  0.45593999997E+02  0.45594000000E+02  0.51100000000E-03 0.  1.
         11   -1    0    0    0    0 -0.00000000000E+00 -0.00000000000E+00 -0.45593999997E+02  0.45594000000E+02  0.51100000000E-03 0. -1.
    9900012    2    1    2    0    0 -0.36435916900E+01  0.16905105096E+02 -0.71847538062E+01  0.72461574127E+02  0.70000004993E+02 0.  0.
        -12    1    1    2    0    0  0.36435916900E+01 -0.16905105096E+02  0.71847538062E+01  0.18726425873E+02  0.00000000000E+00 0.  1.
         11    1    3    3    0    0  0.19020062328E-02 -0.73177709498E+01 -0.20259823142E+00  0.73205752230E+01  0.51100000000E-03 0. -1.
        -11    1    3    3    0    0  0.12911429897E+02 -0.16130849484E+02  0.14597959248E+01  0.20713288765E+02  0.51100000000E-03 0.  1.
         12    1    3    3    0    0 -0.16556923594E+02  0.40353725530E+02 -0.84419514996E+01  0.44427710139E+02  0.00000000000E+00 0. -1.
</event>
<event>
 7    1  0.2851651E-013  0.7246158E+02  0.7816164E-02  0.1226708E+00
        -11   -1    0    0    0    0  0.00000000000E+00  0.00000000000E+00  0.45593999997E+02  0.45594000000E+02  0.51100000000E-03 0.  1.
         11   -1    0    0    0    0 -0.00000000000E+00 -0.00000000000E+00 -0.45593999997E+02  0.45594000000E+02  0.51100000000E-03 0. -1.
    9900012    2    1    2    0    0 -0.13393430437E+02 -0.85836959749E+01  0.98800286940E+01  0.72461580629E+02  0.70000013463E+02 0.  0.
        -12    1    1    2    0    0  0.13393430437E+02  0.85836959749E+01 -0.98800286940E+01  0.18726419371E+02  0.00000000000E+00 0.  1.
         11    1    3    3    0    0  0.20955487618E+01 -0.40021392384E+01 -0.11170849114E+02  0.12049743287E+02  0.51100000000E-03 0. -1.
        -11    1    3    3    0    0 -0.33878496022E+02  0.65617901175E+00  0.23353224946E+02  0.41152839261E+02  0.51100000000E-03 0.  1.
         12    1    3    3    0    0  0.18389516823E+02 -0.52377357482E+01 -0.23023471385E+01  0.19258998081E+02  0.00000000000E+00 0. -1.
</event>
<event>
 7    1  0.2851651E-013  0.7246160E+02  0.7816164E-02  0.1226708E+00
        -11   -1    0    0    0    0  0.00000000000E+00  0.00000000000E+00  0.45593999997E+02  0.45594000000E+02  0.51100000000E-03 0. -1.
         11   -1    0    0    0    0 -0.00000000000E+00 -0.00000000000E+00 -0.45593999997E+02  0.45594000000E+02  0.51100000000E-03 0.  1.
    9900012    2    1    2    0    0  0.14006507870E+02  0.94692026511E+01  0.80517163986E+01  0.72461596220E+02  0.70000033773E+02 0.  0.
        -12    1    1    2    0    0 -0.14006507870E+02 -0.94692026511E+01 -0.80517163986E+01  0.18726403780E+02  0.00000000000E+00 0.  1.
         11    1    3    3    0    0  0.30886503172E+02 -0.52307702929E+01  0.36758939668E+01  0.31541230679E+02  0.51100000000E-03 0. -1.
        -11    1    3    3    0    0 -0.93111245037E+01  0.15386976117E+01  0.18126759672E+02  0.20436341315E+02  0.51100000000E-03 0.  1.
        -12    1    3    3    0    0 -0.75688707977E+01  0.13161275332E+02 -0.13750937240E+02  0.20484024226E+02  0.00000000000E+00 0.  1.
</event>
<event>
 7    1  0.2851651E-013  0.7246158E+02  0.7816164E-02  0.1226708E+00
        -11   -1    0    0    0    0  0.00000000000E+00  0.00000000000E+00  0.45593999997E+02  0.45594000000E+02  0.51100000000E-03 0. -1.
         11   -1    0    0    0    0 -0.00000000000E+00 -0.00000000000E+00 -0.45593999997E+02  0.45594000000E+02  0.51100000000E-03 0.  1.
    9900012    2    1    2    0    0 -0.13867354867E+02 -0.12405220123E+02 -0.21179394835E+01  0.72461583232E+02  0.70000016854E+02 0.  0.
        -12    1    1    2    0    0  0.13867354867E+02  0.12405220123E+02  0.21179394835E+01  0.18726416768E+02  0.00000000000E+00 0.  1.
         11    1    3    3    0    0 -0.57094609974E+01 -0.10769183844E+02  0.26397806586E+02  0.29076063322E+02  0.51100000000E-03 0.  1.
        -11    1    3    3    0    0 -0.59929453537E+00 -0.16136394419E+02 -0.16554445306E+02  0.23125571095E+02  0.51100000000E-03 0. -1.
        -12    1    3    3    0    0 -0.75585993338E+01  0.14500358139E+02 -0.11961300763E+02  0.20259948815E+02  0.00000000000E+00 0.  1.
</event>
<event>
 7    1  0.2851651E-013  0.7246152E+02  0.7816164E-02  0.1226708E+00
        -11   -1    0    0    0    0  0.00000000000E+00  0.00000000000E+00  0.45593999997E+02  0.45594000000E+02  0.51100000000E-03 0.  1.
         11   -1    0    0    0    0 -0.00000000000E+00 -0.00000000000E+00 -0.45593999997E+02  0.45594000000E+02  0.51100000000E-03 0. -1.
    9900012    2    1    2    0    0 -0.20719320267E+01 -0.18074146371E+02  0.44399845737E+01  0.72461517886E+02  0.69999931728E+02 0.  0.
        -12    1    1    2    0    0  0.20719320267E+01  0.18074146371E+02 -0.44399845737E+01  0.18726482114E+02  0.00000000000E+00 0.  1.
         11    1    3    3    0    0 -0.13679407118E+02  0.48050035501E+01 -0.76517015908E+01  0.16393985962E+02  0.51100000000E-03 0. -1.
        -11    1    3    3    0    0 -0.99200999631E+01  0.66281817165E+01 -0.80154735825E+01  0.14373203998E+02  0.51100000000E-03 0.  1.
        -12    1    3    3    0    0  0.21527575055E+02 -0.29507331638E+02  0.20107159747E+02  0.41694327926E+02  0.00000000000E+00 0.  1.
</event>
<event>
 7    1  0.2851651E-013  0.7246143E+02  0.7816164E-02  0.1226708E+00
        -11   -1    0    0    0    0  0.00000000000E+00  0.00000000000E+00  0.45593999997E+02  0.45594000000E+02  0.51100000000E-03 0.  1.
         11   -1    0    0    0    0 -0.00000000000E+00 -0.00000000000E+00 -0.45593999997E+02  0.45594000000E+02  0.51100000000E-03 0. -1.
    9900012    2    1    2    0    0  0.30580768116E+01  0.51558411156E+01 -0.17741191177E+02  0.72461430752E+02  0.69999818221E+02 0.  0.
        -12    1    1    2    0    0 -0.30580768116E+01 -0.51558411156E+01  0.17741191177E+02  0.18726569248E+02  0.00000000000E+00 0.  1.
         11    1    3    3    0    0  0.21735294683E+02  0.27918605438E+02 -0.16559568984E+02  0.39065213295E+02  0.51100000000E-03 0. -1.
        -11    1    3    3    0    0 -0.39132024699E+01  0.21124357090E+01 -0.43742904764E-01  0.44471847159E+01  0.51100000000E-03 0.  1.
        -12    1    3    3    0    0 -0.14764015402E+02 -0.24875200032E+02 -0.11378792890E+01  0.28949032742E+02  0.00000000000E+00 0.  1.
</event>
<event>
 7    1  0.2851651E-013  0.7246157E+02  0.7816164E-02  0.1226708E+00
        -11   -1    0    0    0    0  0.00000000000E+00  0.00000000000E+00  0.45593999997E+02  0.45594000000E+02  0.51100000000E-03 0.  1.
         11   -1    0    0    0    0 -0.00000000000E+00 -0.00000000000E+00 -0.45593999997E+02  0.45594000000E+02  0.51100000000E-03 0. -1.
    9900012    2    1    2    0    0  0.39282097326E+01 -0.16614272658E+02  0.76950928947E+01  0.72461565681E+02  0.69999993990E+02 0.  0.
        -12    1    1    2    0    0 -0.39282097326E+01  0.16614272658E+02 -0.76950928947E+01  0.18726434319E+02  0.00000000000E+00 0.  1.
         11    1    3    3    0    0  0.17905348221E+02  0.14098545175E+02  0.18377077036E+01  0.22863675138E+02  0.51100000000E-03 0. -1.
        -11    1    3    3    0    0 -0.13119599340E+02  0.17883100446E+01  0.10310658073E+02  0.16781883381E+02  0.51100000000E-03 0.  1.
         12    1    3    3    0    0 -0.85753914788E+00 -0.32501127877E+02 -0.44532728816E+01  0.32816007162E+02  0.00000000000E+00 0. -1.
</event>
<event>
 7    1  0.2851651E-013  0.7246171E+02  0.7816164E-02  0.1226708E+00
        -11   -1    0    0    0    0  0.00000000000E+00  0.00000000000E+00  0.45593999997E+02  0.45594000000E+02  0.51100000000E-03 0.  1.
         11   -1    0    0    0    0 -0.00000000000E+00 -0.00000000000E+00 -0.45593999997E+02  0.45594000000E+02  0.51100000000E-03 0. -1.
    9900012    2    1    2    0    0  0.14921524600E+02  0.12868073384E+01 -0.11241266089E+02  0.72461712787E+02  0.70000185623E+02 0.  0.
        -12    1    1    2    0    0 -0.14921524600E+02 -0.12868073384E+01  0.11241266089E+02  0.18726287213E+02  0.00000000000E+00 0.  1.
         11    1    3    3    0    0 -0.62913990047E+00 -0.23992472639E+02  0.26121075953E+00  0.24002141397E+02  0.51100000000E-03 0. -1.
        -11    1    3    3    0    0 -0.11900340236E+02  0.10025570416E+02 -0.22628350959E+01  0.15724203726E+02  0.51100000000E-03 0.  1.
         12    1    3    3    0    0  0.27451004736E+02  0.15253709561E+02 -0.92396417524E+01  0.32735367664E+02  0.00000000000E+00 0. -1.
</event>
<event>
 7    1  0.2851651E-013  0.7246164E+02  0.7816164E-02  0.1226708E+00
        -11   -1    0    0    0    0  0.00000000000E+00  0.00000000000E+00  0.45593999997E+02  0.45594000000E+02  0.51100000000E-03 0.  1.
         11   -1    0    0    0    0 -0.00000000000E+00 -0.00000000000E+00 -0.45593999997E+02  0.45594000000E+02  0.51100000000E-03 0. -1.
    9900012    2    1    2    0    0 -0.10639765605E+02  0.73763188077E+00 -0.15392459646E+02  0.72461640853E+02  0.70000091916E+02 0.  0.
        -12    1    1    2    0    0  0.10639765605E+02 -0.73763188077E+00  0.15392459646E+02  0.18726359147E+02  0.00000000000E+00 0.  1.
         11    1    3    3    0    0  0.79074504630E+01 -0.24177701056E+02 -0.19717427133E+02  0.32184871200E+02  0.51100000000E-03 0. -1.
        -11    1    3    3    0    0  0.80131412016E+00  0.66623196765E+01  0.10970103277E+02  0.12859695718E+02  0.51100000000E-03 0.  1.
         12    1    3    3    0    0 -0.19348530188E+02  0.18253013260E+02 -0.66451357902E+01  0.27417073936E+02  0.00000000000E+00 0. -1.
</event>
<event>
 7    1  0.2851651E-013  0.7246183E+02  0.7816164E-02  0.1226707E+00
        -11   -1    0    0    0    0  0.00000000000E+00  0.00000000000E+00  0.45593999997E+02  0.45594000000E+02  0.51100000000E-03 0.  1.
         11   -1    0    0    0    0 -0.00000000000E+00 -0.00000000000E+00 -0.45593999997E+02  0.45594000000E+02  0.51100000000E-03 0. -1.
    9900012    2    1    2    0    0 -0.10411854429E+02  0.15564087572E+02  0.14794243837E+00  0.72461830569E+02  0.70000339056E+02 0.  0.
        -12    1    1    2    0    0  0.10411854429E+02 -0.15564087572E+02 -0.14794243837E+00  0.18726169431E+02  0.00000000000E+00 0.  1.
         11    1    3    3    0    0 -0.19025180346E+02  0.57932184423E+01  0.12092653125E+02  0.23275547834E+02  0.51100000000E-03 0.  1.
        -11    1    3    3    0    0  0.11061640152E+02  0.20834137551E+02  0.91016173024E+01  0.25283603543E+02  0.51100000000E-03 0. -1.
        -12    1    3    3    0    0 -0.24483142345E+01 -0.11063268421E+02 -0.21046327989E+02  0.23902679193E+02  0.00000000000E+00 0.  1.
</event>
<event>
 7    1  0.2851651E-013  0.7246152E+02  0.7816164E-02  0.1226708E+00
        -11   -1    0    0    0    0  0.00000000000E+00  0.00000000000E+00  0.45593999997E+02  0.45594000000E+02  0.51100000000E-03 0.  1.
         11   -1    0    0    0    0 -0.00000000000E+00 -0.00000000000E+00 -0.45593999997E+02  0.45594000000E+02  0.51100000000E-03 0. -1.
    9900012    2    1    2    0    0 -0.16081830561E+02 -0.15287385235E+01 -0.94719976386E+01  0.72461519954E+02  0.69999934422E+02 0.  0.
        -12    1    1    2    0    0  0.16081830561E+02  0.15287385235E+01  0.94719976386E+01  0.18726480046E+02  0.00000000000E+00 0.  1.
         11    1    3    3    0    0 -0.16581793006E+02 -0.13609734302E+02 -0.18987160323E+02  0.28647739604E+02  0.51100000000E-03 0. -1.
        -11    1    3    3    0    0 -0.12218507167E+02 -0.74425661784E+01 -0.63209339085E+01  0.15640905167E+02  0.51100000000E-03 0.  1.
        -12    1    3    3    0    0  0.12718469612E+02  0.19523561957E+02  0.15836096592E+02  0.28172875182E+02  0.00000000000E+00 0.  1.
</event>
<event>
 7    1  0.2851651E-013  0.7246159E+02  0.7816164E-02  0.1226708E+00
        -11   -1    0    0    0    0  0.00000000000E+00  0.00000000000E+00  0.45593999997E+02  0.45594000000E+02  0.51100000000E-03 0.  1.
         11   -1    0    0    0    0 -0.00000000000E+00 -0.00000000000E+00 -0.45593999997E+02  0.45594000000E+02  0.51100000000E-03 0. -1.
    9900012    2    1    2    0    0  0.51652263291E+01  0.94158712182E+01 -0.15340805970E+02  0.72461587593E+02  0.70000022535E+02 0.  0.
        -12    1    1    2    0    0 -0.51652263291E+01 -0.94158712182E+01  0.15340805970E+02  0.18726412407E+02  0.00000000000E+00 0.  1.
         11    1    3    3    0    0 -0.87975524481E+01 -0.88196128529E+01 -0.29757442639E+02  0.32259694553E+02  0.51100000000E-03 0. -1.
        -11    1    3    3    0    0  0.14033574971E+02  0.28925753346E-01 -0.37043422852E+01  0.14514276254E+02  0.51100000000E-03 0.  1.
        -12    1    3    3    0    0 -0.70796193599E-01  0.18206558318E+02  0.18120978955E+02  0.25687616786E+02  0.00000000000E+00 0.  1.
</event>
<event>
 7    1  0.2851651E-013  0.7246160E+02  0.7816164E-02  0.1226708E+00
        -11   -1    0    0    0    0  0.00000000000E+00  0.00000000000E+00  0.45593999997E+02  0.45594000000E+02  0.51100000000E-03 0.  1.
         11   -1    0    0    0    0 -0.00000000000E+00 -0.00000000000E+00 -0.45593999997E+02  0.45594000000E+02  0.51100000000E-03 0. -1.
    9900012    2    1    2    0    0 -0.12841639978E+02  0.13417221781E+02  0.23975823819E+01  0.72461602617E+02  0.70000042107E+02 0.  0.
        -12    1    1    2    0    0  0.12841639978E+02 -0.13417221781E+02 -0.23975823819E+01  0.18726397383E+02  0.00000000000E+00 0.  1.
         11    1    3    3    0    0 -0.26919192112E+02  0.26940935244E+02  0.70010436933E+01  0.38723010069E+02  0.51100000000E-03 0. -1.
        -11    1    3    3    0    0  0.28038618035E+01 -0.17146773162E+02  0.54454562134E+01  0.18207868204E+02  0.51100000000E-03 0.  1.
        -12    1    3    3    0    0  0.11273690330E+02  0.36230596997E+01 -0.10048917525E+02  0.15530724345E+02  0.00000000000E+00 0.  1.
</event>
<event>
 7    1  0.2851651E-013  0.7246153E+02  0.7816164E-02  0.1226708E+00
        -11   -1    0    0    0    0  0.00000000000E+00  0.00000000000E+00  0.45593999997E+02  0.45594000000E+02  0.51100000000E-03 0.  1.
         11   -1    0    0    0    0 -0.00000000000E+00 -0.00000000000E+00 -0.45593999997E+02  0.45594000000E+02  0.51100000000E-03 0. -1.
    9900012    2    1    2    0    0  0.13134059415E+02  0.13095884570E+02 -0.25835661828E+01  0.72461534140E+02  0.69999952902E+02 0.  0.
        -12    1    1    2    0    0 -0.13134059415E+02 -0.13095884570E+02  0.25835661828E+01  0.18726465860E+02  0.00000000000E+00 0.  1.
         11    1    3    3    0    0 -0.89130599126E+01  0.45149672988E+01  0.12595643583E+01  0.10070455270E+02  0.51100000000E-03 0. -1.
        -11    1    3    3    0    0 -0.16178558954E+02  0.16338746298E+01  0.12229036812E+02  0.20346121443E+02  0.51100000000E-03 0.  1.
         12    1    3    3    0    0  0.38225678282E+02  0.69470426416E+01 -0.16072167353E+02  0.42044957427E+02  0.00000000000E+00 0. -1.
</event>
<event>
 7    1  0.2851651E-013  0.7246159E+02  0.7816164E-02  0.1226708E+00
        -11   -1    0    0    0    0  0.00000000000E+00  0.00000000000E+00  0.45593999997E+02  0.45594000000E+02  0.51100000000E-03 0. -1.
         11   -1    0    0    0    0 -0.00000000000E+00 -0.00000000000E+00 -0.45593999997E+02  0.45594000000E+02  0.51100000000E-03 0.  1.
    9900012    2    1    2    0    0  0.60033189939E+00 -0.10105433831E+02  0.15754307814E+02  0.72461590681E+02  0.70000026557E+02 0.  0.
        -12    1    1    2    0    0 -0.60033189939E+00  0.10105433831E+02 -0.15754307814E+02  0.18726409319E+02  0.00000000000E+00 0.  1.
         11    1    3    3    0    0  0.67410402558E+01  0.39164304496E+01  0.32368448043E+02  0.33294090769E+02  0.51100000000E-03 0. -1.
        -11    1    3    3    0    0 -0.76231569219E+00 -0.16840130179E+02  0.42938526610E+01  0.17395639701E+02  0.51100000000E-03 0.  1.
        -12    1    3    3    0    0 -0.53783926642E+01  0.28182658989E+01 -0.20907992890E+02  0.21771860210E+02  0.00000000000E+00 0.  1.
</event>
<event>
 7    1  0.2851651E-013  0.7246155E+02  0.7816164E-02  0.1226708E+00
        -11   -1    0    0    0    0  0.00000000000E+00  0.00000000000E+00  0.45593999997E+02  0.45594000000E+02  0.51100000000E-03 0.  1.
         11   -1    0    0    0    0 -0.00000000000E+00 -0.00000000000E+00 -0.45593999997E+02  0.45594000000E+02  0.51100000000E-03 0. -1.
    9900012    2    1    2    0    0  0.11372213390E+02 -0.13330120991E+02  0.66076250106E+01  0.72461546216E+02  0.69999968634E+02 0.  0.
        -12    1    1    2    0    0 -0.11372213390E+02  0.13330120991E+02 -0.66076250106E+01  0.18726453784E+02  0.00000000000E+00 0.  1.
         11    1    3    3    0    0 -0.21538980486E+02  0.66247133461E+01 -0.60308977183E+01  0.23327799614E+02  0.51100000000E-03 0. -1.
        -11    1    3    3    0    0 -0.34011252701E+00 -0.11446020390E+02  0.91048396155E+01  0.14629598900E+02  0.51100000000E-03 0.  1.
        -12    1    3    3    0    0  0.33251306403E+02 -0.85088139477E+01  0.35336831134E+01  0.34504147702E+02  0.00000000000E+00 0.  1.
</event>
<event>
 7    1  0.2851651E-013  0.7246174E+02  0.7816164E-02  0.1226708E+00
        -11   -1    0    0    0    0  0.00000000000E+00  0.00000000000E+00  0.45593999997E+02  0.45594000000E+02  0.51100000000E-03 0. -1.
         11   -1    0    0    0    0 -0.00000000000E+00 -0.00000000000E+00 -0.45593999997E+02  0.45594000000E+02  0.51100000000E-03 0.  1.
    9900012    2    1    2    0    0 -0.73623393395E+01  0.10745144195E+01  0.17184713514E+02  0.72461735014E+02  0.70000214577E+02 0.  0.
        -12    1    1    2    0    0  0.73623393395E+01 -0.10745144195E+01 -0.17184713514E+02  0.18726264986E+02  0.00000000000E+00 0.  1.
         11    1    3    3    0    0 -0.11586953290E+02 -0.26869211808E+01  0.15931248560E+02  0.19881692909E+02  0.51100000000E-03 0.  1.
        -11    1    3    3    0    0  0.13962470621E+02  0.19459776915E+02  0.16117854794E+02  0.28868992827E+02  0.51100000000E-03 0. -1.
        -12    1    3    3    0    0 -0.97378566707E+01 -0.15698341314E+02 -0.14864389840E+02  0.23711049278E+02  0.00000000000E+00 0.  1.
</event>
<event>
 7    1  0.2851651E-013  0.7246133E+02  0.7816164E-02  0.1226709E+00
        -11   -1    0    0    0    0  0.00000000000E+00  0.00000000000E+00  0.45593999997E+02  0.45594000000E+02  0.51100000000E-03 0.  1.
         11   -1    0    0    0    0 -0.00000000000E+00 -0.00000000000E+00 -0.45593999997E+02  0.45594000000E+02  0.51100000000E-03 0. -1.
    9900012    2    1    2    0    0  0.80123256793E+01  0.13320761033E+02 -0.10442602821E+02  0.72461334761E+02  0.69999693173E+02 0.  0.
        -12    1    1    2    0    0 -0.80123256793E+01 -0.13320761033E+02  0.10442602821E+02  0.18726665239E+02  0.00000000000E+00 0.  1.
         11    1    3    3    0    0  0.11741279490E+02  0.17269621109E+01 -0.20598933270E+02  0.23773011889E+02  0.51100000000E-03 0. -1.
        -11    1    3    3    0    0  0.20855513006E+02  0.73154574017E+01  0.84998618733E+01  0.23679442389E+02  0.51100000000E-03 0.  1.
        -12    1    3    3    0    0 -0.24584466817E+02  0.42783415204E+01  0.16564685750E+01  0.25008880482E+02  0.00000000000E+00 0.  1.
</event>
<event>
 7    1  0.2851651E-013  0.7246085E+02  0.7816164E-02  0.1226710E+00
        -11   -1    0    0    0    0  0.00000000000E+00  0.00000000000E+00  0.45593999997E+02  0.45594000000E+02  0.51100000000E-03 0. -1.
         11   -1    0    0    0    0 -0.00000000000E+00 -0.00000000000E+00 -0.45593999997E+02  0.45594000000E+02  0.51100000000E-03 0.  1.
    9900012    2    1    2    0    0 -0.54040115983E+01  0.63016005166E+01  0.16786679595E+02  0.72460850664E+02  0.69999062542E+02 0.  0.
        -12    1    1    2    0    0  0.54040115983E+01 -0.63016005166E+01 -0.16786679595E+02  0.18727149336E+02  0.00000000000E+00 0.  1.
         11    1    3    3    0    0 -0.20437370415E+02 -0.17378476936E+02  0.11874044885E+01  0.26853444840E+02  0.51100000000E-03 0. -1.
        -11    1    3    3    0    0  0.12379078724E+02 -0.53772785127E+01  0.30048745137E+01  0.13827002038E+02  0.51100000000E-03 0.  1.
        -12    1    3    3    0    0  0.26542800929E+01  0.29057355965E+02  0.12594400593E+02  0.31780403786E+02  0.00000000000E+00 0.  1.
</event>
<event>
 7    1  0.2851651E-013  0.7246157E+02  0.7816164E-02  0.1226708E+00
        -11   -1    0    0    0    0  0.00000000000E+00  0.00000000000E+00  0.45593999997E+02  0.45594000000E+02  0.51100000000E-03 0. -1.
         11   -1    0    0    0    0 -0.00000000000E+00 -0.00000000000E+00 -0.45593999997E+02  0.45594000000E+02  0.51100000000E-03 0.  1.
    9900012    2    1    2    0    0 -0.12111192094E+02 -0.21060797433E+01  0.14126666897E+02  0.72461567787E+02  0.69999996733E+02 0.  0.
        -12    1    1    2    0    0  0.12111192094E+02  0.21060797433E+01 -0.14126666897E+02  0.18726432213E+02  0.00000000000E+00 0.  1.
         11    1    3    3    0    0  0.15294856249E+02 -0.69905348978E+01  0.24154855843E+02  0.29432248757E+02  0.51100000000E-03 0. -1.
        -11    1    3    3    0    0  0.43916646627E+01  0.23880599347E+01  0.56034930524E+01  0.75092398691E+01  0.51100000000E-03 0.  1.
        -12    1    3    3    0    0 -0.31797713006E+02  0.24963952199E+01 -0.15631681998E+02  0.35520079161E+02  0.00000000000E+00 0.  1.
</event>
<event>
 7    1  0.2851651E-013  0.7246210E+02  0.7816164E-02  0.1226707E+00
        -11   -1    0    0    0    0  0.00000000000E+00  0.00000000000E+00  0.45593999997E+02  0.45594000000E+02  0.51100000000E-03 0.  1.
         11   -1    0    0    0    0 -0.00000000000E+00 -0.00000000000E+00 -0.45593999997E+02  0.45594000000E+02  0.51100000000E-03 0. -1.
    9900012    2    1    2    0    0  0.54635596066E+01 -0.84880927218E+00 -0.17891010818E+02  0.72462102723E+02  0.70000693583E+02 0.  0.
        -12    1    1    2    0    0 -0.54635596066E+01  0.84880927218E+00  0.17891010818E+02  0.18725897277E+02  0.00000000000E+00 0.  1.
         11    1    3    3    0    0 -0.86577891786E+01 -0.23680943104E+02 -0.14438953815E+01  0.25255280911E+02  0.51100000000E-03 0. -1.
        -11    1    3    3    0    0 -0.66424372479E+01  0.17548429664E+02  0.20843983160E+01  0.18878931984E+02  0.51100000000E-03 0.  1.
        -12    1    3    3    0    0  0.20763786033E+02  0.52837041681E+01 -0.18531513752E+02  0.28327889828E+02  0.00000000000E+00 0.  1.
</event>
<event>
 7    1  0.2851651E-013  0.7246154E+02  0.7816164E-02  0.1226708E+00
        -11   -1    0    0    0    0  0.00000000000E+00  0.00000000000E+00  0.45593999997E+02  0.45594000000E+02  0.51100000000E-03 0. -1.
         11   -1    0    0    0    0 -0.00000000000E+00 -0.00000000000E+00 -0.45593999997E+02  0.45594000000E+02  0.51100000000E-03 0.  1.
    9900012    2    1    2    0    0 -0.22993065223E+01 -0.13237514830E+01  0.18537556283E+02  0.72461544879E+02  0.69999966892E+02 0.  0.
        -12    1    1    2    0    0  0.22993065223E+01  0.13237514830E+01 -0.18537556283E+02  0.18726455121E+02  0.00000000000E+00 0.  1.
         11    1    3    3    0    0 -0.46092614599E+01  0.29322609771E+00  0.47649420168E+01  0.66359585167E+01  0.51100000000E-03 0. -1.
        -11    1    3    3    0    0  0.14049035075E+02  0.23385188314E+02 -0.10325998517E+02  0.29169653146E+02  0.51100000000E-03 0.  1.
         12    1    3    3    0    0 -0.11739080137E+02 -0.25002165894E+02  0.24098612783E+02  0.36655933216E+02  0.00000000000E+00 0. -1.
</event>
<event>
 7    1  0.2851651E-013  0.7246146E+02  0.7816164E-02  0.1226708E+00
        -11   -1    0    0    0    0  0.00000000000E+00  0.00000000000E+00  0.45593999997E+02  0.45594000000E+02  0.51100000000E-03 0.  1.
         11   -1    0    0    0    0 -0.00000000000E+00 -0.00000000000E+00 -0.45593999997E+02  0.45594000000E+02  0.51100000000E-03 0. -1.
    9900012    2    1    2    0    0  0.90223845824E+01 -0.10637349032E+02 -0.12495059981E+02  0.72461464231E+02  0.69999861833E+02 0.  0.
        -12    1    1    2    0    0 -0.90223845824E+01  0.10637349032E+02  0.12495059981E+02  0.18726535769E+02  0.00000000000E+00 0.  1.
         11    1    3    3    0    0  0.28082695603E+01 -0.24002845045E+02 -0.20508276574E+02  0.31695620463E+02  0.51100000000E-03 0. -1.
        -11    1    3    3    0    0 -0.13730596835E+02  0.32908207818E+01  0.11423981251E+02  0.18162217342E+02  0.51100000000E-03 0.  1.
        -12    1    3    3    0    0  0.19944711858E+02  0.10074675231E+02 -0.34107646576E+01  0.22603626427E+02  0.00000000000E+00 0.  1.
</event>
<event>
 7    1  0.2851651E-013  0.7246161E+02  0.7816164E-02  0.1226708E+00
        -11   -1    0    0    0    0  0.00000000000E+00  0.00000000000E+00  0.45593999997E+02  0.45594000000E+02  0.51100000000E-03 0.  1.
         11   -1    0    0    0    0 -0.00000000000E+00 -0.00000000000E+00 -0.45593999997E+02  0.45594000000E+02  0.51100000000E-03 0. -1.
    9900012    2    1    2    0    0  0.95389469333E+01 -0.15660088980E+02 -0.38010133426E+01  0.72461612257E+02  0.70000054665E+02 0.  0.
        -12    1    1    2    0    0 -0.95389469333E+01  0.15660088980E+02  0.38010133426E+01  0.18726387743E+02  0.00000000000E+00 0.  1.
         11    1    3    3    0    0  0.13367410363E+02 -0.49957973338E+01 -0.40513512841E+01  0.14834389044E+02  0.51100000000E-03 0. -1.
        -11    1    3    3    0    0  0.18769512627E+02  0.14519882897E+02  0.13969452769E+01  0.23771265426E+02  0.51100000000E-03 0.  1.
         12    1    3    3    0    0 -0.22597976057E+02 -0.25184174543E+02 -0.11466073354E+01  0.33855957787E+02  0.00000000000E+00 0. -1.
</event>
<event>
 7    1  0.2851651E-013  0.7246159E+02  0.7816164E-02  0.1226708E+00
        -11   -1    0    0    0    0  0.00000000000E+00  0.00000000000E+00  0.45593999997E+02  0.45594000000E+02  0.51100000000E-03 0. -1.
         11   -1    0    0    0    0 -0.00000000000E+00 -0.00000000000E+00 -0.45593999997E+02  0.45594000000E+02  0.51100000000E-03 0.  1.
    9900012    2    1    2    0    0  0.18427917492E+02 -0.42792631791E+00 -0.33026089724E+01  0.72461588437E+02  0.70000023634E+02 0.  0.
        -12    1    1    2    0    0 -0.18427917492E+02  0.42792631791E+00  0.33026089724E+01  0.18726411563E+02  0.00000000000E+00 0.  1.
         11    1    3    3    0    0  0.20121637448E+02 -0.14237866423E+02  0.26261891912E+02  0.36017830320E+02  0.51100000000E-03 0. -1.
        -11    1    3    3    0    0 -0.10108657699E+01 -0.32732937202E+01 -0.18860169087E+01  0.39106727586E+01  0.51100000000E-03 0.  1.
        -12    1    3    3    0    0 -0.68285418665E+00  0.17083233825E+02 -0.27678483975E+02  0.32533085359E+02  0.00000000000E+00 0.  1.
</event>
<event>
 7    1  0.2851651E-013  0.7246156E+02  0.7816164E-02  0.1226708E+00
        -11   -1    0    0    0    0  0.00000000000E+00  0.00000000000E+00  0.45593999997E+02  0.45594000000E+02  0.51100000000E-03 0. -1.
         11   -1    0    0    0    0 -0.00000000000E+00 -0.00000000000E+00 -0.45593999997E+02  0.45594000000E+02  0.51100000000E-03 0.  1.
    9900012    2    1    2    0    0  0.69566329750E+01  0.70727722145E+01  0.15882715086E+02  0.72461561800E+02  0.69999988935E+02 0.  0.
        -12    1    1    2    0    0 -0.69566329750E+01 -0.70727722145E+01 -0.15882715086E+02  0.18726438200E+02  0.00000000000E+00 0.  1.
         11    1    3    3    0    0 -0.87160470295E+01 -0.26362482586E+01  0.11632625504E+01  0.91800033074E+01  0.51100000000E-03 0. -1.
        -11    1    3    3    0    0 -0.21753153863E+02 -0.28489436722E+01  0.72404530067E+01  0.23102821105E+02  0.51100000000E-03 0.  1.
         12    1    3    3    0    0  0.37425833867E+02  0.12557964145E+02  0.74789995286E+01  0.40178737388E+02  0.00000000000E+00 0. -1.
</event>
<event>
 7    1  0.2851651E-013  0.7246162E+02  0.7816164E-02  0.1226708E+00
        -11   -1    0    0    0    0  0.00000000000E+00  0.00000000000E+00  0.45593999997E+02  0.45594000000E+02  0.51100000000E-03 0.  1.
         11   -1    0    0    0    0 -0.00000000000E+00 -0.00000000000E+00 -0.45593999997E+02  0.45594000000E+02  0.51100000000E-03 0. -1.
    9900012    2    1    2    0    0 -0.10693528579E+02 -0.38996891912E+01 -0.14870047039E+02  0.72461616788E+02  0.70000060566E+02 0.  0.
        -12    1    1    2    0    0  0.10693528579E+02  0.38996891912E+01  0.14870047039E+02  0.18726383212E+02  0.00000000000E+00 0.  1.
         11    1    3    3    0    0 -0.12302979043E+02 -0.56912659809E+01 -0.11517399248E+02  0.17787756674E+02  0.51100000000E-03 0. -1.
        -11    1    3    3    0    0 -0.46614882271E+01 -0.29560758261E+01  0.24818702073E+02  0.25425102352E+02  0.51100000000E-03 0.  1.
         12    1    3    3    0    0  0.62709386911E+01  0.47476526158E+01 -0.28171349864E+02  0.29248757762E+02  0.00000000000E+00 0. -1.
</event>
<event>
 7    1  0.2851651E-013  0.7246157E+02  0.7816164E-02  0.1226708E+00
        -11   -1    0    0    0    0  0.00000000000E+00  0.00000000000E+00  0.45593999997E+02  0.45594000000E+02  0.51100000000E-03 0.  1.
         11   -1    0    0    0    0 -0.00000000000E+00 -0.00000000000E+00 -0.45593999997E+02  0.45594000000E+02  0.51100000000E-03 0. -1.
    9900012    2    1    2    0    0  0.93934790011E+01 -0.10211716778E+02 -0.12576273278E+02  0.72461567962E+02  0.69999996962E+02 0.  0.
        -12    1    1    2    0    0 -0.93934790011E+01  0.10211716778E+02  0.12576273278E+02  0.18726432038E+02  0.00000000000E+00 0.  1.
         11    1    3    3    0    0  0.16538238933E+02  0.20172967156E+02 -0.13425662608E+02  0.29337865765E+02  0.51100000000E-03 0. -1.
        -11    1    3    3    0    0  0.54164508921E+01  0.38510562399E+01 -0.19422149702E-01  0.66459726083E+01  0.51100000000E-03 0.  1.
        -12    1    3    3    0    0 -0.12561210824E+02 -0.34235740174E+02  0.86881147952E+00  0.36477729589E+02  0.00000000000E+00 0.  1.
</event>
<event>
 7    1  0.2851651E-013  0.7246147E+02  0.7816164E-02  0.1226708E+00
        -11   -1    0    0    0    0  0.00000000000E+00  0.00000000000E+00  0.45593999997E+02  0.45594000000E+02  0.51100000000E-03 0. -1.
         11   -1    0    0    0    0 -0.00000000000E+00 -0.00000000000E+00 -0.45593999997E+02  0.45594000000E+02  0.51100000000E-03 0.  1.
    9900012    2    1    2    0    0 -0.70998226953E+01  0.15116107322E+02  0.84722368300E+01  0.72461468560E+02  0.69999867472E+02 0.  0.
        -12    1    1    2    0    0  0.70998226953E+01 -0.15116107322E+02 -0.84722368300E+01  0.18726531440E+02  0.00000000000E+00 0.  1.
         11    1    3    3    0    0  0.70163321332E+01  0.22708259823E+02  0.16736128608E+01  0.23826350141E+02  0.51100000000E-03 0. -1.
        -11    1    3    3    0    0  0.14877598428E+02 -0.10078184847E+02  0.76313445629E+01  0.19523067507E+02  0.51100000000E-03 0.  1.
        -12    1    3    3    0    0 -0.28993753256E+02  0.24860323458E+01 -0.83272059367E+00  0.29112050912E+02  0.00000000000E+00 0.  1.
</event>
<event>
 7    1  0.2851651E-013  0.7246166E+02  0.7816164E-02  0.1226708E+00
        -11   -1    0    0    0    0  0.00000000000E+00  0.00000000000E+00  0.45593999997E+02  0.45594000000E+02  0.51100000000E-03 0.  1.
         11   -1    0    0    0    0 -0.00000000000E+00 -0.00000000000E+00 -0.45593999997E+02  0.45594000000E+02  0.51100000000E-03 0. -1.
    9900012    2    1    2    0    0  0.79726457220E+01  0.15459272045E+02 -0.69371332787E+01  0.72461655186E+02  0.70000110587E+02 0.  0.
        -12    1    1    2    0    0 -0.79726457220E+01 -0.15459272045E+02  0.69371332787E+01  0.18726344814E+02  0.00000000000E+00 0.  1.
         11    1    3    3    0    0  0.10207513125E+02  0.14036192190E+02  0.10169366463E+02  0.20115268577E+02  0.51100000000E-03 0. -1.
        -11    1    3    3    0    0 -0.18081703666E+02  0.91397324123E+01  0.79053112245E+01  0.21748026619E+02  0.51100000000E-03 0.  1.
        -12    1    3    3    0    0  0.15846836263E+02 -0.77166525579E+01 -0.25011810967E+02  0.30598359990E+02  0.00000000000E+00 0.  1.
</event>
<event>
 7    1  0.2851651E-013  0.7246156E+02  0.7816164E-02  0.1226708E+00
        -11   -1    0    0    0    0  0.00000000000E+00  0.00000000000E+00  0.45593999997E+02  0.45594000000E+02  0.51100000000E-03 0. -1.
         11   -1    0    0    0    0 -0.00000000000E+00 -0.00000000000E+00 -0.45593999997E+02  0.45594000000E+02  0.51100000000E-03 0.  1.
    9900012    2    1    2    0    0  0.77619086156E+01 -0.14132629393E+02  0.95237171573E+01  0.72461558069E+02  0.69999984074E+02 0.  0.
        -12    1    1    2    0    0 -0.77619086156E+01  0.14132629393E+02 -0.95237171573E+01  0.18726441931E+02  0.00000000000E+00 0.  1.
         11    1    3    3    0    0  0.18241898446E+02 -0.68197089438E+01  0.23545454714E+02  0.30555911490E+02  0.51100000000E-03 0. -1.
        -11    1    3    3    0    0 -0.18588619138E+02  0.54566906933E+00  0.54655671772E+01  0.19383161275E+02  0.51100000000E-03 0.  1.
        -12    1    3    3    0    0  0.81086293075E+01 -0.78585895184E+01 -0.19487304734E+02  0.22522485304E+02  0.00000000000E+00 0.  1.
</event>
<event>
 7    1  0.2851651E-013  0.7246155E+02  0.7816164E-02  0.1226708E+00
        -11   -1    0    0    0    0  0.00000000000E+00  0.00000000000E+00  0.45593999997E+02  0.45594000000E+02  0.51100000000E-03 0.  1.
         11   -1    0    0    0    0 -0.00000000000E+00 -0.00000000000E+00 -0.45593999997E+02  0.45594000000E+02  0.51100000000E-03 0. -1.
    9900012    2    1    2    0    0  0.14632556847E+02  0.10121409138E+02  0.58416708802E+01  0.72461554489E+02  0.69999979410E+02 0.  0.
        -12    1    1    2    0    0 -0.14632556847E+02 -0.10121409138E+02 -0.58416708802E+01  0.18726445511E+02  0.00000000000E+00 0.  1.
         11    1    3    3    0    0  0.22850966658E+01 -0.35754668789E+01  0.81691975010E+01  0.92055102111E+01  0.51100000000E-03 0. -1.
        -11    1    3    3    0    0  0.21288983544E+02 -0.18920531329E+02  0.42633864842E+01  0.28799024128E+02  0.51100000000E-03 0.  1.
         12    1    3    3    0    0 -0.89415233632E+01  0.32617407346E+02 -0.65909131050E+01  0.34457020150E+02  0.00000000000E+00 0. -1.
</event>
<event>
 7    1  0.2851651E-013  0.7246157E+02  0.7816164E-02  0.1226708E+00
        -11   -1    0    0    0    0  0.00000000000E+00  0.00000000000E+00  0.45593999997E+02  0.45594000000E+02  0.51100000000E-03 0. -1.
         11   -1    0    0    0    0 -0.00000000000E+00 -0.00000000000E+00 -0.45593999997E+02  0.45594000000E+02  0.51100000000E-03 0.  1.
    9900012    2    1    2    0    0  0.72913685963E+01  0.16366168390E+02  0.54464181059E+01  0.72461574982E+02  0.70000006106E+02 0.  0.
        -12    1    1    2    0    0 -0.72913685963E+01 -0.16366168390E+02 -0.54464181059E+01  0.18726425018E+02  0.00000000000E+00 0.  1.
         11    1    3    3    0    0 -0.23687726562E+01  0.40581287793E+02 -0.13532860590E+01  0.40672882690E+02  0.51100000000E-03 0. -1.
        -11    1    3    3    0    0 -0.44125149517E+01 -0.38183858436E+01  0.34609128817E+01  0.67844142625E+01  0.51100000000E-03 0.  1.
        -12    1    3    3    0    0  0.14072656204E+02 -0.20396733560E+02  0.33387912832E+01  0.25004278030E+02  0.00000000000E+00 0.  1.
</event>
<event>
 7    1  0.2851651E-013  0.7246172E+02  0.7816164E-02  0.1226708E+00
        -11   -1    0    0    0    0  0.00000000000E+00  0.00000000000E+00  0.45593999997E+02  0.45594000000E+02  0.51100000000E-03 0. -1.
         11   -1    0    0    0    0 -0.00000000000E+00 -0.00000000000E+00 -0.45593999997E+02  0.45594000000E+02  0.51100000000E-03 0.  1.
    9900012    2    1    2    0    0  0.16806674729E+02 -0.76238277129E+01 -0.31759289115E+01  0.72461719299E+02  0.70000194106E+02 0.  0.
        -12    1    1    2    0    0 -0.16806674729E+02  0.76238277129E+01  0.31759289115E+01  0.18726280701E+02  0.00000000000E+00 0.  1.
         11    1    3    3    0    0  0.10033054802E+01 -0.10752694317E+02 -0.25499693320E+02  0.27692262757E+02  0.51100000000E-03 0. -1.
        -11    1    3    3    0    0 -0.47941860949E+01 -0.11198406214E+02  0.17178148383E+01  0.12302008378E+02  0.51100000000E-03 0.  1.
        -12    1    3    3    0    0  0.20597555344E+02  0.14327272819E+02  0.20605949570E+02  0.32467448163E+02  0.00000000000E+00 0.  1.
</event>
<event>
 7    1  0.2851651E-013  0.7246153E+02  0.7816164E-02  0.1226708E+00
        -11   -1    0    0    0    0  0.00000000000E+00  0.00000000000E+00  0.45593999997E+02  0.45594000000E+02  0.51100000000E-03 0. -1.
         11   -1    0    0    0    0 -0.00000000000E+00 -0.00000000000E+00 -0.45593999997E+02  0.45594000000E+02  0.51100000000E-03 0.  1.
    9900012    2    1    2    0    0  0.94908238008E+01  0.36683683793E+01  0.15720945688E+02  0.72461526858E+02  0.69999943417E+02 0.  0.
        -12    1    1    2    0    0 -0.94908238008E+01 -0.36683683793E+01 -0.15720945688E+02  0.18726473142E+02  0.00000000000E+00 0.  1.
         11    1    3    3    0    0 -0.26284366887E+01  0.54140373146E+01 -0.16295594654E+02  0.17371438768E+02  0.51100000000E-03 0. -1.
        -11    1    3    3    0    0 -0.57679116911E+00 -0.15155090124E+01 -0.10547949958E+02  0.10671865076E+02  0.51100000000E-03 0.  1.
         12    1    3    3    0    0  0.12696051659E+02 -0.23015992293E+00  0.42564490300E+02  0.44418223015E+02  0.00000000000E+00 0. -1.
</event>
<event>
 7    1  0.2851651E-013  0.7246158E+02  0.7816164E-02  0.1226708E+00
        -11   -1    0    0    0    0  0.00000000000E+00  0.00000000000E+00  0.45593999997E+02  0.45594000000E+02  0.51100000000E-03 0. -1.
         11   -1    0    0    0    0 -0.00000000000E+00 -0.00000000000E+00 -0.45593999997E+02  0.45594000000E+02  0.51100000000E-03 0.  1.
    9900012    2    1    2    0    0  0.98555078982E+01 -0.82783362901E+01  0.13602089351E+02  0.72461582233E+02  0.70000015552E+02 0.  0.
        -12    1    1    2    0    0 -0.98555078982E+01  0.82783362901E+01 -0.13602089351E+02  0.18726417767E+02  0.00000000000E+00 0.  1.
         11    1    3    3    0    0  0.10100045841E+02 -0.94495139299E+00  0.99729522902E+01  0.14225457349E+02  0.51100000000E-03 0. -1.
        -11    1    3    3    0    0  0.14146141299E+02 -0.90969796899E+01  0.26363955997E+02  0.31271816852E+02  0.51100000000E-03 0.  1.
        -12    1    3    3    0    0 -0.14390679242E+02  0.17635947928E+01 -0.22734818936E+02  0.26964308033E+02  0.00000000000E+00 0.  1.
</event>
<event>
 7    1  0.2851651E-013  0.7246148E+02  0.7816164E-02  0.1226708E+00
        -11   -1    0    0    0    0  0.00000000000E+00  0.00000000000E+00  0.45593999997E+02  0.45594000000E+02  0.51100000000E-03 0. -1.
         11   -1    0    0    0    0 -0.00000000000E+00 -0.00000000000E+00 -0.45593999997E+02  0.45594000000E+02  0.51100000000E-03 0.  1.
    9900012    2    1    2    0    0  0.80488407661E+01  0.98989883145E+01  0.13707977120E+02  0.72461482864E+02  0.69999886105E+02 0.  0.
        -12    1    1    2    0    0 -0.80488407661E+01 -0.98989883145E+01 -0.13707977120E+02  0.18726517136E+02  0.00000000000E+00 0.  1.
         11    1    3    3    0    0 -0.51757087558E+01  0.48377255788E+01 -0.22280973516E+01  0.74267064012E+01  0.51100000000E-03 0. -1.
        -11    1    3    3    0    0 -0.20286497692E+02  0.48638929587E+01  0.22718558920E+02  0.30843676224E+02  0.51100000000E-03 0.  1.
         12    1    3    3    0    0  0.33511047214E+02  0.19736977698E+00 -0.67824844487E+01  0.34191100238E+02  0.00000000000E+00 0. -1.
</event>
<event>
 7    1  0.2851651E-013  0.7246158E+02  0.7816164E-02  0.1226708E+00
        -11   -1    0    0    0    0  0.00000000000E+00  0.00000000000E+00  0.45593999997E+02  0.45594000000E+02  0.51100000000E-03 0. -1.
         11   -1    0    0    0    0 -0.00000000000E+00 -0.00000000000E+00 -0.45593999997E+02  0.45594000000E+02  0.51100000000E-03 0.  1.
    9900012    2    1    2    0    0  0.13056843602E+02  0.10484117529E+02 -0.83833791703E+01  0.72461576649E+02  0.70000008278E+02 0.  0.
        -12    1    1    2    0    0 -0.13056843602E+02 -0.10484117529E+02  0.83833791703E+01  0.18726423351E+02  0.00000000000E+00 0.  1.
         11    1    3    3    0    0 -0.52981993890E+01 -0.11137565031E+02  0.23544991602E+01  0.12556270869E+02  0.51100000000E-03 0. -1.
        -11    1    3    3    0    0 -0.74862114949E+01 -0.11283676621E+02 -0.11933016625E+02  0.18048867185E+02  0.51100000000E-03 0.  1.
         12    1    3    3    0    0  0.25841254486E+02  0.32905359181E+02  0.11951382942E+01  0.41856438594E+02  0.00000000000E+00 0. -1.
</event>
<event>
 7    1  0.2851651E-013  0.7246162E+02  0.7816164E-02  0.1226708E+00
        -11   -1    0    0    0    0  0.00000000000E+00  0.00000000000E+00  0.45593999997E+02  0.45594000000E+02  0.51100000000E-03 0. -1.
         11   -1    0    0    0    0 -0.00000000000E+00 -0.00000000000E+00 -0.45593999997E+02  0.45594000000E+02  0.51100000000E-03 0.  1.
    9900012    2    1    2    0    0  0.62194805756E+01 -0.16917547704E+02  0.50785916235E+01  0.72461616157E+02  0.70000059745E+02 0.  0.
        -12    1    1    2    0    0 -0.62194805756E+01  0.16917547704E+02 -0.50785916235E+01  0.18726383843E+02  0.00000000000E+00 0.  1.
         11    1    3    3    0    0  0.68153162509E+01  0.22328885389E+01 -0.14744179937E+02  0.16395888787E+02  0.51100000000E-03 0. -1.
        -11    1    3    3    0    0 -0.14846080991E+02 -0.58172194729E+01 -0.11150517963E+02  0.19457137875E+02  0.51100000000E-03 0.  1.
         12    1    3    3    0    0  0.14250245315E+02 -0.13333216770E+02  0.30973289524E+02  0.36608589496E+02  0.00000000000E+00 0. -1.
</event>
<event>
 7    1  0.2851651E-013  0.7246167E+02  0.7816164E-02  0.1226708E+00
        -11   -1    0    0    0    0  0.00000000000E+00  0.00000000000E+00  0.45593999997E+02  0.45594000000E+02  0.51100000000E-03 0.  1.
         11   -1    0    0    0    0 -0.00000000000E+00 -0.00000000000E+00 -0.45593999997E+02  0.45594000000E+02  0.51100000000E-03 0. -1.
    9900012    2    1    2    0    0 -0.18673208781E+02  0.39283127987E+00 -0.13536427463E+01  0.72461671174E+02  0.70000131415E+02 0.  0.
        -12    1    1    2    0    0  0.18673208781E+02 -0.39283127987E+00  0.13536427463E+01  0.18726328826E+02  0.00000000000E+00 0.  1.
         11    1    3    3    0    0 -0.61687095652E+01 -0.17147886508E+01 -0.14401551707E+02  0.15760652577E+02  0.51100000000E-03 0. -1.
        -11    1    3    3    0    0  0.15359211325E+02 -0.10516071934E+02 -0.72641218594E+01  0.19981506653E+02  0.51100000000E-03 0.  1.
        -12    1    3    3    0    0 -0.27863710541E+02  0.12623691865E+02  0.20312030820E+02  0.36719511945E+02  0.00000000000E+00 0.  1.
</event>
<event>
 7    1  0.2851651E-013  0.7246152E+02  0.7816164E-02  0.1226708E+00
        -11   -1    0    0    0    0  0.00000000000E+00  0.00000000000E+00  0.45593999997E+02  0.45594000000E+02  0.51100000000E-03 0. -1.
         11   -1    0    0    0    0 -0.00000000000E+00 -0.00000000000E+00 -0.45593999997E+02  0.45594000000E+02  0.51100000000E-03 0.  1.
    9900012    2    1    2    0    0 -0.16261270510E+02 -0.86126511799E+01 -0.34748086364E+01  0.72461522114E+02  0.69999937237E+02 0.  0.
        -12    1    1    2    0    0  0.16261270510E+02  0.86126511799E+01  0.34748086364E+01  0.18726477886E+02  0.00000000000E+00 0.  1.
         11    1    3    3    0    0 -0.64824598238E+01  0.13213874230E+02 -0.17840653247E+00  0.14719394916E+02  0.51100000000E-03 0. -1.
        -11    1    3    3    0    0 -0.20168754926E+02 -0.23208431423E+02 -0.20953559872E+02  0.37208354384E+02  0.51100000000E-03 0.  1.
         12    1    3    3    0    0  0.10389944240E+02  0.13819060133E+01  0.17657157768E+02  0.20533772815E+02  0.00000000000E+00 0. -1.
</event>
<event>
 7    1  0.2965547E-013  0.7246161E+02  0.7816164E-02  0.1226708E+00
        -11   -1    0    0    0    0  0.00000000000E+00  0.00000000000E+00  0.45593999997E+02  0.45594000000E+02  0.51100000000E-03 0.  1.
         11   -1    0    0    0    0 -0.00000000000E+00 -0.00000000000E+00 -0.45593999997E+02  0.45594000000E+02  0.51100000000E-03 0. -1.
    9900012    2    1    2    0    0  0.65377663906E+01 -0.14125532064E+02 -0.10411757241E+02  0.72461608615E+02  0.70000049919E+02 0.  0.
        -12    1    1    2    0    0 -0.65377663906E+01  0.14125532064E+02  0.10411757241E+02  0.18726391385E+02  0.00000000000E+00 0.  1.
         11    1    3    3    0    0 -0.16470213575E+02 -0.27227630605E+01  0.48476567376E+00  0.16700789560E+02  0.51100000000E-03 0. -1.
        -11    1    3    3    0    0  0.10870864495E+02  0.16988963061E+02  0.53548316979E+01  0.20868032574E+02  0.51100000000E-03 0.  1.
         12    1    3    3    0    0  0.12137115472E+02 -0.28391732065E+02 -0.16251354612E+02  0.34892786480E+02  0.00000000000E+00 0. -1.
</event>
<event>
 7    1  0.2851651E-013  0.7246171E+02  0.7816164E-02  0.1226708E+00
        -11   -1    0    0    0    0  0.00000000000E+00  0.00000000000E+00  0.45593999997E+02  0.45594000000E+02  0.51100000000E-03 0.  1.
         11   -1    0    0    0    0 -0.00000000000E+00 -0.00000000000E+00 -0.45593999997E+02  0.45594000000E+02  0.51100000000E-03 0. -1.
    9900012    2    1    2    0    0  0.78519941144E+01 -0.15034134307E+02 -0.79369454178E+01  0.72461705426E+02  0.70000176033E+02 0.  0.
        -12    1    1    2    0    0 -0.78519941144E+01  0.15034134307E+02  0.79369454178E+01  0.18726294574E+02  0.00000000000E+00 0.  1.
         11    1    3    3    0    0 -0.58586555507E+01 -0.10518050693E+02 -0.19373575536E+02  0.22809837012E+02  0.51100000000E-03 0. -1.
        -11    1    3    3    0    0 -0.14602322910E+01  0.16029724182E+02 -0.75977722208E+01  0.17799170730E+02  0.51100000000E-03 0.  1.
        -12    1    3    3    0    0  0.15170881956E+02 -0.20545807796E+02  0.19034402339E+02  0.31852697683E+02  0.00000000000E+00 0.  1.
</event>
<event>
 7    1  0.2851651E-013  0.7246151E+02  0.7816164E-02  0.1226708E+00
        -11   -1    0    0    0    0  0.00000000000E+00  0.00000000000E+00  0.45593999997E+02  0.45594000000E+02  0.51100000000E-03 0.  1.
         11   -1    0    0    0    0 -0.00000000000E+00 -0.00000000000E+00 -0.45593999997E+02  0.45594000000E+02  0.51100000000E-03 0. -1.
    9900012    2    1    2    0    0  0.81860994365E+01 -0.16201060056E+02 -0.46037959996E+01  0.72461507843E+02  0.69999918645E+02 0.  0.
        -12    1    1    2    0    0 -0.81860994365E+01  0.16201060056E+02  0.46037959996E+01  0.18726492157E+02  0.00000000000E+00 0.  1.
         11    1    3    3    0    0  0.56888141032E+01 -0.14056481560E+01  0.39579673131E+01  0.70713476899E+01  0.51100000000E-03 0. -1.
        -11    1    3    3    0    0 -0.29377134301E+02  0.17455802378E+00 -0.11277927236E+01  0.29399292627E+02  0.51100000000E-03 0.  1.
         12    1    3    3    0    0  0.31874419635E+02 -0.14969969923E+02 -0.74339705891E+01  0.35990867526E+02  0.00000000000E+00 0. -1.
</event>
<event>
 7    1  0.2851651E-013  0.7246153E+02  0.7816164E-02  0.1226708E+00
        -11   -1    0    0    0    0  0.00000000000E+00  0.00000000000E+00  0.45593999997E+02  0.45594000000E+02  0.51100000000E-03 0.  1.
         11   -1    0    0    0    0 -0.00000000000E+00 -0.00000000000E+00 -0.45593999997E+02  0.45594000000E+02  0.51100000000E-03 0. -1.
    9900012    2    1    2    0    0 -0.92991360353E+01  0.14716535757E+02 -0.69014730523E+01  0.72461529805E+02  0.69999947255E+02 0.  0.
        -12    1    1    2    0    0  0.92991360353E+01 -0.14716535757E+02  0.69014730523E+01  0.18726470195E+02  0.00000000000E+00 0.  1.
         11    1    3    3    0    0 -0.49205998368E+01 -0.13584700264E+01 -0.55530472790E+00  0.51347937806E+01  0.51100000000E-03 0. -1.
        -11    1    3    3    0    0 -0.16466761380E+02 -0.13401547106E+02  0.17514668947E+02  0.27523068938E+02  0.51100000000E-03 0.  1.
         12    1    3    3    0    0  0.12088225181E+02  0.29476552889E+02 -0.23860837272E+02  0.39803667087E+02  0.00000000000E+00 0. -1.
</event>
<event>
 7    1  0.2851651E-013  0.7246158E+02  0.7816164E-02  0.1226708E+00
        -11   -1    0    0    0    0  0.00000000000E+00  0.00000000000E+00  0.45593999997E+02  0.45594000000E+02  0.51100000000E-03 0.  1.
         11   -1    0    0    0    0 -0.00000000000E+00 -0.00000000000E+00 -0.45593999997E+02  0.45594000000E+02  0.51100000000E-03 0. -1.
    9900012    2    1    2    0    0 -0.41702875086E+01 -0.42762469946E+01 -0.17748274616E+02  0.72461579143E+02  0.70000011527E+02 0.  0.
        -12    1    1    2    0    0  0.41702875086E+01  0.42762469946E+01  0.17748274616E+02  0.18726420857E+02  0.00000000000E+00 0.  1.
         11    1    3    3    0    0 -0.73293024842E+01 -0.77803063289E+01  0.73559288996E+01  0.12975420290E+02  0.51100000000E-03 0. -1.
        -11    1    3    3    0    0 -0.23938288316E+02  0.88645441055E+01 -0.70345577558E+01  0.26478421267E+02  0.51100000000E-03 0.  1.
         12    1    3    3    0    0  0.27097303292E+02 -0.53604847711E+01 -0.18069645760E+02  0.33007737586E+02  0.00000000000E+00 0. -1.
</event>
<event>
 7    1  0.2851651E-013  0.7246154E+02  0.7816164E-02  0.1226708E+00
        -11   -1    0    0    0    0  0.00000000000E+00  0.00000000000E+00  0.45593999997E+02  0.45594000000E+02  0.51100000000E-03 0. -1.
         11   -1    0    0    0    0 -0.00000000000E+00 -0.00000000000E+00 -0.45593999997E+02  0.45594000000E+02  0.51100000000E-03 0.  1.
    9900012    2    1    2    0    0 -0.12766877290E+02  0.16458091772E+01  0.13600676749E+02  0.72461541402E+02  0.69999962362E+02 0.  0.
        -12    1    1    2    0    0  0.12766877290E+02 -0.16458091772E+01 -0.13600676749E+02  0.18726458598E+02  0.00000000000E+00 0.  1.
         11    1    3    3    0    0  0.33741273269E+01  0.38647777984E+01  0.33976565661E+01  0.61534797514E+01  0.51100000000E-03 0. -1.
        -11    1    3    3    0    0  0.80653018587E+01  0.25753935144E+02  0.11400248794E+02  0.29296415178E+02  0.51100000000E-03 0.  1.
         12    1    3    3    0    0 -0.24206306476E+02 -0.27972903765E+02 -0.11972286111E+01  0.37011646472E+02  0.00000000000E+00 0. -1.
</event>
<event>
 7    1  0.2851651E-013  0.7246158E+02  0.7816164E-02  0.1226708E+00
        -11   -1    0    0    0    0  0.00000000000E+00  0.00000000000E+00  0.45593999997E+02  0.45594000000E+02  0.51100000000E-03 0. -1.
         11   -1    0    0    0    0 -0.00000000000E+00 -0.00000000000E+00 -0.45593999997E+02  0.45594000000E+02  0.51100000000E-03 0.  1.
    9900012    2    1    2    0    0  0.10286868433E+02  0.15646638493E+02 -0.20425506977E+00  0.72461583407E+02  0.70000017082E+02 0.  0.
        -12    1    1    2    0    0 -0.10286868433E+02 -0.15646638493E+02  0.20425506977E+00  0.18726416593E+02  0.00000000000E+00 0.  1.
         11    1    3    3    0    0 -0.70754436789E+01 -0.11037352229E+02 -0.29861201222E+01  0.13446261976E+02  0.51100000000E-03 0. -1.
        -11    1    3    3    0    0 -0.69645941054E+01  0.10988945437E+02 -0.18830232238E+02  0.22887554244E+02  0.51100000000E-03 0.  1.
         12    1    3    3    0    0  0.24326906217E+02  0.15695045285E+02  0.21612097291E+02  0.36127767187E+02  0.00000000000E+00 0. -1.
</event>
<event>
 7    1  0.2851651E-013  0.7246158E+02  0.7816164E-02  0.1226708E+00
        -11   -1    0    0    0    0  0.00000000000E+00  0.00000000000E+00  0.45593999997E+02  0.45594000000E+02  0.51100000000E-03 0.  1.
         11   -1    0    0    0    0 -0.00000000000E+00 -0.00000000000E+00 -0.45593999997E+02  0.45594000000E+02  0.51100000000E-03 0. -1.
    9900012    2    1    2    0    0  0.87633918196E+01  0.37932178914E+01 -0.16108791329E+02  0.72461582931E+02  0.70000016462E+02 0.  0.
        -12    1    1    2    0    0 -0.87633918196E+01 -0.37932178914E+01  0.16108791329E+02  0.18726417069E+02  0.00000000000E+00 0.  1.
         11    1    3    3    0    0  0.41259946249E+01 -0.83763182724E+01  0.45031184222E+01  0.10366514131E+02  0.51100000000E-03 0. -1.
        -11    1    3    3    0    0  0.58346618605E+01  0.29869099607E+02  0.50990922045E+01  0.30857853650E+02  0.51100000000E-03 0.  1.
         12    1    3    3    0    0 -0.11972646658E+01 -0.17699563443E+02 -0.25711001956E+02  0.31237215150E+02  0.00000000000E+00 0. -1.
</event>
<event>
 7    1  0.2851651E-013  0.7246151E+02  0.7816164E-02  0.1226708E+00
        -11   -1    0    0    0    0  0.00000000000E+00  0.00000000000E+00  0.45593999997E+02  0.45594000000E+02  0.51100000000E-03 0.  1.
         11   -1    0    0    0    0 -0.00000000000E+00 -0.00000000000E+00 -0.45593999997E+02  0.45594000000E+02  0.51100000000E-03 0. -1.
    9900012    2    1    2    0    0 -0.16180653430E+02  0.82707608669E+01 -0.45235451492E+01  0.72461508298E+02  0.69999919238E+02 0.  0.
        -12    1    1    2    0    0  0.16180653430E+02 -0.82707608669E+01  0.45235451492E+01  0.18726491702E+02  0.00000000000E+00 0.  1.
         11    1    3    3    0    0 -0.12914349456E+02 -0.52894109206E+01  0.69072293239E+01  0.15571387445E+02  0.51100000000E-03 0. -1.
        -11    1    3    3    0    0  0.12974132185E+02 -0.11963632183E+02  0.95575242879E+01  0.20069949470E+02  0.51100000000E-03 0.  1.
         12    1    3    3    0    0 -0.16240436159E+02  0.25523803971E+02 -0.20988298761E+02  0.36820171383E+02  0.00000000000E+00 0. -1.
</event>
<event>
 7    1  0.2851651E-013  0.7246164E+02  0.7816164E-02  0.1226708E+00
        -11   -1    0    0    0    0  0.00000000000E+00  0.00000000000E+00  0.45593999997E+02  0.45594000000E+02  0.51100000000E-03 0. -1.
         11   -1    0    0    0    0 -0.00000000000E+00 -0.00000000000E+00 -0.45593999997E+02  0.45594000000E+02  0.51100000000E-03 0.  1.
    9900012    2    1    2    0    0  0.14507852928E+02  0.11338301124E+02  0.34120010427E+01  0.72461638366E+02  0.70000088675E+02 0.  0.
        -12    1    1    2    0    0 -0.14507852928E+02 -0.11338301124E+02 -0.34120010427E+01  0.18726361634E+02  0.00000000000E+00 0.  1.
         11    1    3    3    0    0  0.12030539977E+02  0.16557462271E+02 -0.57324157780E+00  0.20474668621E+02  0.51100000000E-03 0. -1.
        -11    1    3    3    0    0 -0.22090085535E+02  0.67294398846E+01 -0.41934032547E+01  0.23470020691E+02  0.51100000000E-03 0.  1.
         12    1    3    3    0    0  0.24567398486E+02 -0.11948601032E+02  0.81786458752E+01  0.28516949054E+02  0.00000000000E+00 0. -1.
</event>
<event>
 7    1  0.2851651E-013  0.7246146E+02  0.7816164E-02  0.1226708E+00
        -11   -1    0    0    0    0  0.00000000000E+00  0.00000000000E+00  0.45593999997E+02  0.45594000000E+02  0.51100000000E-03 0.  1.
         11   -1    0    0    0    0 -0.00000000000E+00 -0.00000000000E+00 -0.45593999997E+02  0.45594000000E+02  0.51100000000E-03 0. -1.
    9900012    2    1    2    0    0 -0.61938756068E+01  0.16090468919E+02 -0.73086192316E+01  0.72461462676E+02  0.69999859807E+02 0.  0.
        -12    1    1    2    0    0  0.61938756068E+01 -0.16090468919E+02  0.73086192316E+01  0.18726537324E+02  0.00000000000E+00 0.  1.
         11    1    3    3    0    0 -0.51697503624E+01  0.18457619288E+01  0.18935804019E+01  0.58067893803E+01  0.51100000000E-03 0. -1.
        -11    1    3    3    0    0 -0.14550910864E+02  0.46596460368E+01  0.24627014369E+02  0.28981565610E+02  0.51100000000E-03 0.  1.
         12    1    3    3    0    0  0.13526785620E+02  0.95850609535E+01 -0.33829214003E+02  0.37673107686E+02  0.00000000000E+00 0. -1.
</event>
<event>
 7    1  0.2851651E-013  0.7246156E+02  0.7816164E-02  0.1226708E+00
        -11   -1    0    0    0    0  0.00000000000E+00  0.00000000000E+00  0.45593999997E+02  0.45594000000E+02  0.51100000000E-03 0. -1.
         11   -1    0    0    0    0 -0.00000000000E+00 -0.00000000000E+00 -0.45593999997E+02  0.45594000000E+02  0.51100000000E-03 0.  1.
    9900012    2    1    2    0    0  0.51566349834E+01 -0.53196933331E+01  0.17198530876E+02  0.72461561850E+02  0.69999988999E+02 0.  0.
        -12    1    1    2    0    0 -0.51566349834E+01  0.53196933331E+01 -0.17198530876E+02  0.18726438150E+02  0.00000000000E+00 0.  1.
         11    1    3    3    0    0  0.18395741566E+02 -0.59426747933E+01  0.20013828358E+01  0.19435128633E+02  0.51100000000E-03 0. -1.
        -11    1    3    3    0    0 -0.10349806691E+02  0.17137460669E+00 -0.17428125223E+02  0.20270358084E+02  0.51100000000E-03 0.  1.
        -12    1    3    3    0    0 -0.28892998917E+01  0.45160685355E+00  0.32625273263E+02  0.32756075133E+02  0.00000000000E+00 0.  1.
</event>
<event>
 7    1  0.2851651E-013  0.7246159E+02  0.7816164E-02  0.1226708E+00
        -11   -1    0    0    0    0  0.00000000000E+00  0.00000000000E+00  0.45593999997E+02  0.45594000000E+02  0.51100000000E-03 0. -1.
         11   -1    0    0    0    0 -0.00000000000E+00 -0.00000000000E+00 -0.45593999997E+02  0.45594000000E+02  0.51100000000E-03 0.  1.
    9900012    2    1    2    0    0  0.15860856215E+02 -0.83085573596E+01 -0.54844945301E+01  0.72461586422E+02  0.70000021009E+02 0.  0.
        -12    1    1    2    0    0 -0.15860856215E+02  0.83085573596E+01  0.54844945301E+01  0.18726413578E+02  0.00000000000E+00 0.  1.
         11    1    3    3    0    0  0.11489558942E+02 -0.59234074348E+00 -0.81223374209E+01  0.14083081966E+02  0.51100000000E-03 0. -1.
        -11    1    3    3    0    0  0.25603890447E+02  0.16685964267E+01 -0.14547584559E+02  0.29495349410E+02  0.51100000000E-03 0.  1.
         12    1    3    3    0    0 -0.21232593174E+02 -0.93848130428E+01  0.17185427450E+02  0.28883155045E+02  0.00000000000E+00 0. -1.
</event>
<event>
 7    1  0.2851651E-013  0.7246153E+02  0.7816164E-02  0.1226708E+00
        -11   -1    0    0    0    0  0.00000000000E+00  0.00000000000E+00  0.45593999997E+02  0.45594000000E+02  0.51100000000E-03 0.  1.
         11   -1    0    0    0    0 -0.00000000000E+00 -0.00000000000E+00 -0.45593999997E+02  0.45594000000E+02  0.51100000000E-03 0. -1.
    9900012    2    1    2    0    0  0.18337780395E+02  0.35313822911E+00 -0.37791361188E+01  0.72461527662E+02  0.69999944463E+02 0.  0.
        -12    1    1    2    0    0 -0.18337780395E+02 -0.35313822911E+00  0.37791361188E+01  0.18726472338E+02  0.00000000000E+00 0.  1.
         11    1    3    3    0    0  0.26183947382E+02  0.46472315030E+01 -0.79004311281E+01  0.27741893833E+02  0.51100000000E-03 0. -1.
        -11    1    3    3    0    0  0.12628965485E+02  0.97473406284E+01 -0.71153191757E+01  0.17467947383E+02  0.51100000000E-03 0.  1.
        -12    1    3    3    0    0 -0.20475132472E+02 -0.14041433902E+02  0.11236614185E+02  0.27251686445E+02  0.00000000000E+00 0.  1.
</event>
<event>
 7    1  0.2851651E-013  0.7246093E+02  0.7816164E-02  0.1226710E+00
        -11   -1    0    0    0    0  0.00000000000E+00  0.00000000000E+00  0.45593999997E+02  0.45594000000E+02  0.51100000000E-03 0. -1.
         11   -1    0    0    0    0 -0.00000000000E+00 -0.00000000000E+00 -0.45593999997E+02  0.45594000000E+02  0.51100000000E-03 0.  1.
    9900012    2    1    2    0    0  0.33669913689E+01  0.17899878018E+02  0.43544158558E+01  0.72460928649E+02  0.69999164133E+02 0.  0.
        -12    1    1    2    0    0 -0.33669913689E+01 -0.17899878018E+02 -0.43544158558E+01  0.18727071351E+02  0.00000000000E+00 0.  1.
         11    1    3    3    0    0 -0.12014404081E+01 -0.11020142882E+01  0.69784715255E+01  0.71663770232E+01  0.51100000000E-03 0. -1.
        -11    1    3    3    0    0  0.30166804445E+02  0.23089564713E+02 -0.79953024318E+01  0.38821243544E+02  0.51100000000E-03 0.  1.
         12    1    3    3    0    0 -0.25598372668E+02 -0.40876724069E+01  0.53712467622E+01  0.26473308081E+02  0.00000000000E+00 0. -1.
</event>
<event>
 7    1  0.2851651E-013  0.7246155E+02  0.7816164E-02  0.1226708E+00
        -11   -1    0    0    0    0  0.00000000000E+00  0.00000000000E+00  0.45593999997E+02  0.45594000000E+02  0.51100000000E-03 0. -1.
         11   -1    0    0    0    0 -0.00000000000E+00 -0.00000000000E+00 -0.45593999997E+02  0.45594000000E+02  0.51100000000E-03 0.  1.
    9900012    2    1    2    0    0 -0.30558907504E+00 -0.13538196310E+02  0.12934595179E+02  0.72461550885E+02  0.69999974716E+02 0.  0.
        -12    1    1    2    0    0  0.30558907504E+00  0.13538196310E+02 -0.12934595179E+02  0.18726449115E+02  0.00000000000E+00 0.  1.
         11    1    3    3    0    0 -0.18236887931E+01 -0.73766433923E+00  0.19863911480E+02  0.19961086369E+02  0.51100000000E-03 0. -1.
        -11    1    3    3    0    0  0.49611473361E+01  0.69354627427E+01  0.18356259047E+02  0.20240204367E+02  0.51100000000E-03 0.  1.
        -12    1    3    3    0    0 -0.34430476180E+01 -0.19735994714E+02 -0.25285575348E+02  0.32260260149E+02  0.00000000000E+00 0.  1.
</event>
<event>
 7    1  0.2851651E-013  0.7246158E+02  0.7816164E-02  0.1226708E+00
        -11   -1    0    0    0    0  0.00000000000E+00  0.00000000000E+00  0.45593999997E+02  0.45594000000E+02  0.51100000000E-03 0.  1.
         11   -1    0    0    0    0 -0.00000000000E+00 -0.00000000000E+00 -0.45593999997E+02  0.45594000000E+02  0.51100000000E-03 0. -1.
    9900012    2    1    2    0    0  0.34397539163E+01  0.13258324667E+02 -0.12769641211E+02  0.72461579716E+02  0.70000012274E+02 0.  0.
        -12    1    1    2    0    0 -0.34397539163E+01 -0.13258324667E+02  0.12769641211E+02  0.18726420284E+02  0.00000000000E+00 0.  1.
         11    1    3    3    0    0 -0.38893422538E+00 -0.45950201188E+01 -0.37337794517E+02  0.37621488266E+02  0.51100000000E-03 0. -1.
        -11    1    3    3    0    0  0.56166096859E+01  0.85017023139E+00  0.13028938623E+02  0.14213456148E+02  0.51100000000E-03 0.  1.
        -12    1    3    3    0    0 -0.17879215442E+01  0.17003174554E+02  0.11539214683E+02  0.20626635302E+02  0.00000000000E+00 0.  1.
</event>
<event>
 7    1  0.2914977E-013  0.7246157E+02  0.7816164E-02  0.1226708E+00
        -11   -1    0    0    0    0  0.00000000000E+00  0.00000000000E+00  0.45593999997E+02  0.45594000000E+02  0.51100000000E-03 0. -1.
         11   -1    0    0    0    0 -0.00000000000E+00 -0.00000000000E+00 -0.45593999997E+02  0.45594000000E+02  0.51100000000E-03 0.  1.
    9900012    2    1    2    0    0 -0.50040226877E+01  0.17212139160E+02  0.54204535830E+01  0.72461566956E+02  0.69999995651E+02 0.  0.
        -12    1    1    2    0    0  0.50040226877E+01 -0.17212139160E+02 -0.54204535830E+01  0.18726433044E+02  0.00000000000E+00 0.  1.
         11    1    3    3    0    0  0.11115245477E+02  0.13164659442E+02  0.10848897941E+02  0.20360636705E+02  0.51100000000E-03 0. -1.
        -11    1    3    3    0    0  0.11207860443E+02  0.55855796359E+00 -0.18477181365E+02  0.21617917433E+02  0.51100000000E-03 0.  1.
         12    1    3    3    0    0 -0.27327128608E+02  0.34889217549E+01  0.13048737007E+02  0.30483012817E+02  0.00000000000E+00 0. -1.
</event>
<event>
 7    1  0.2851651E-013  0.7246153E+02  0.7816164E-02  0.1226708E+00
        -11   -1    0    0    0    0  0.00000000000E+00  0.00000000000E+00  0.45593999997E+02  0.45594000000E+02  0.51100000000E-03 0. -1.
         11   -1    0    0    0    0 -0.00000000000E+00 -0.00000000000E+00 -0.45593999997E+02  0.45594000000E+02  0.51100000000E-03 0.  1.
    9900012    2    1    2    0    0  0.17939955109E+01 -0.49119202993E+01  0.17981521600E+02  0.72461534771E+02  0.69999953724E+02 0.  0.
        -12    1    1    2    0    0 -0.17939955109E+01  0.49119202993E+01 -0.17981521600E+02  0.18726465229E+02  0.00000000000E+00 0.  1.
         11    1    3    3    0    0 -0.12881147987E+02  0.13122038554E+01  0.18197193084E+02  0.22333465670E+02  0.51100000000E-03 0. -1.
        -11    1    3    3    0    0  0.47255854913E+01 -0.51672070250E+01  0.23429289002E+02  0.24453277287E+02  0.51100000000E-03 0.  1.
        -12    1    3    3    0    0  0.99495580067E+01 -0.10569171297E+01 -0.23644960485E+02  0.25674791814E+02  0.00000000000E+00 0.  1.
</event>
<event>
 7    1  0.2851651E-013  0.7246161E+02  0.7816164E-02  0.1226708E+00
        -11   -1    0    0    0    0  0.00000000000E+00  0.00000000000E+00  0.45593999997E+02  0.45594000000E+02  0.51100000000E-03 0.  1.
         11   -1    0    0    0    0 -0.00000000000E+00 -0.00000000000E+00 -0.45593999997E+02  0.45594000000E+02  0.51100000000E-03 0. -1.
    9900012    2    1    2    0    0 -0.33442856619E+00 -0.13431509973E+02 -0.13044558412E+02  0.72461606680E+02  0.70000047399E+02 0.  0.
        -12    1    1    2    0    0  0.33442856619E+00  0.13431509973E+02  0.13044558412E+02  0.18726393320E+02  0.00000000000E+00 0.  1.
         11    1    3    3    0    0  0.83845176171E+01 -0.27683555749E+02  0.10611350489E+02  0.30810390358E+02  0.51100000000E-03 0. -1.
        -11    1    3    3    0    0  0.22206073840E+01  0.24347064874E+00 -0.23772134323E+02  0.23876866328E+02  0.51100000000E-03 0.  1.
        -12    1    3    3    0    0 -0.10939553567E+02  0.14008575127E+02  0.11622542177E+00  0.17774349994E+02  0.00000000000E+00 0.  1.
</event>
<event>
 7    1  0.2851651E-013  0.7246157E+02  0.7816164E-02  0.1226708E+00
        -11   -1    0    0    0    0  0.00000000000E+00  0.00000000000E+00  0.45593999997E+02  0.45594000000E+02  0.51100000000E-03 0. -1.
         11   -1    0    0    0    0 -0.00000000000E+00 -0.00000000000E+00 -0.45593999997E+02  0.45594000000E+02  0.51100000000E-03 0.  1.
    9900012    2    1    2    0    0 -0.11105846102E+02  0.10912240770E+02  0.10404912934E+02  0.72461574035E+02  0.70000004872E+02 0.  0.
        -12    1    1    2    0    0  0.11105846102E+02 -0.10912240770E+02 -0.10404912934E+02  0.18726425965E+02  0.00000000000E+00 0.  1.
         11    1    3    3    0    0 -0.12437077435E+02  0.17711012399E+02 -0.78241012095E+01  0.23012549084E+02  0.51100000000E-03 0. -1.
        -11    1    3    3    0    0  0.48674211675E+01 -0.20208153854E+02 -0.59101047385E+01  0.21609965509E+02  0.51100000000E-03 0.  1.
         12    1    3    3    0    0 -0.35361898342E+01  0.13409382225E+02  0.24139118882E+02  0.27839059442E+02  0.00000000000E+00 0. -1.
</event>
<event>
 7    1  0.2851651E-013  0.7246155E+02  0.7816164E-02  0.1226708E+00
        -11   -1    0    0    0    0  0.00000000000E+00  0.00000000000E+00  0.45593999997E+02  0.45594000000E+02  0.51100000000E-03 0.  1.
         11   -1    0    0    0    0 -0.00000000000E+00 -0.00000000000E+00 -0.45593999997E+02  0.45594000000E+02  0.51100000000E-03 0. -1.
    9900012    2    1    2    0    0  0.74174839659E+01 -0.16903407066E+02 -0.31521145872E+01  0.72461546380E+02  0.69999968847E+02 0.  0.
        -12    1    1    2    0    0 -0.74174839659E+01  0.16903407066E+02  0.31521145872E+01  0.18726453620E+02  0.00000000000E+00 0.  1.
         11    1    3    3    0    0 -0.37919249258E+01 -0.15893774386E+02 -0.53719095258E+01  0.17200237531E+02  0.51100000000E-03 0.  1.
        -11    1    3    3    0    0  0.21290086821E+02 -0.22210842571E+02 -0.38684171593E+01  0.31008933812E+02  0.51100000000E-03 0. -1.
        -12    1    3    3    0    0 -0.10080677930E+02  0.21201209892E+02  0.60882120979E+01  0.24252375037E+02  0.00000000000E+00 0.  1.
</event>
<event>
 7    1  0.2851651E-013  0.7246160E+02  0.7816164E-02  0.1226708E+00
        -11   -1    0    0    0    0  0.00000000000E+00  0.00000000000E+00  0.45593999997E+02  0.45594000000E+02  0.51100000000E-03 0.  1.
         11   -1    0    0    0    0 -0.00000000000E+00 -0.00000000000E+00 -0.45593999997E+02  0.45594000000E+02  0.51100000000E-03 0. -1.
    9900012    2    1    2    0    0  0.58088082701E+01  0.17269586083E+02 -0.43240213737E+01  0.72461601045E+02  0.70000040058E+02 0.  0.
        -12    1    1    2    0    0 -0.58088082701E+01 -0.17269586083E+02  0.43240213737E+01  0.18726398955E+02  0.00000000000E+00 0.  1.
         11    1    3    3    0    0 -0.86457068654E+01  0.12981638138E+02  0.52976896291E+01  0.16472300738E+02  0.51100000000E-03 0. -1.
        -11    1    3    3    0    0 -0.13256716742E+02 -0.13199613847E+02  0.60571217491E+01  0.19663648406E+02  0.51100000000E-03 0.  1.
         12    1    3    3    0    0  0.27711231877E+02  0.17487561792E+02 -0.15678832752E+02  0.36325651901E+02  0.00000000000E+00 0. -1.
</event>
<event>
 7    1  0.2851651E-013  0.7246179E+02  0.7816164E-02  0.1226707E+00
        -11   -1    0    0    0    0  0.00000000000E+00  0.00000000000E+00  0.45593999997E+02  0.45594000000E+02  0.51100000000E-03 0.  1.
         11   -1    0    0    0    0 -0.00000000000E+00 -0.00000000000E+00 -0.45593999997E+02  0.45594000000E+02  0.51100000000E-03 0. -1.
    9900012    2    1    2    0    0 -0.39279601966E+01  0.10223734688E+02 -0.15189386132E+02  0.72461786465E+02  0.70000281602E+02 0.  0.
        -12    1    1    2    0    0  0.39279601966E+01 -0.10223734688E+02  0.15189386132E+02  0.18726213535E+02  0.00000000000E+00 0.  1.
         11    1    3    3    0    0  0.17607706253E+02  0.17900809503E+02 -0.49135382027E+01  0.25585409090E+02  0.51100000000E-03 0. -1.
        -11    1    3    3    0    0 -0.17980494240E+02  0.12446425359E+02  0.36180732063E+01  0.22165336255E+02  0.51100000000E-03 0.  1.
        -12    1    3    3    0    0 -0.35551722100E+01 -0.20123500174E+02 -0.13893921136E+02  0.24711041120E+02  0.00000000000E+00 0.  1.
</event>
<event>
 7    1  0.2851651E-013  0.7246158E+02  0.7816164E-02  0.1226708E+00
        -11   -1    0    0    0    0  0.00000000000E+00  0.00000000000E+00  0.45593999997E+02  0.45594000000E+02  0.51100000000E-03 0. -1.
         11   -1    0    0    0    0 -0.00000000000E+00 -0.00000000000E+00 -0.45593999997E+02  0.45594000000E+02  0.51100000000E-03 0.  1.
    9900012    2    1    2    0    0  0.64877637260E+01  0.15650395235E+01  0.17496808244E+02  0.72461582147E+02  0.70000015441E+02 0.  0.
        -12    1    1    2    0    0 -0.64877637260E+01 -0.15650395235E+01 -0.17496808244E+02  0.18726417853E+02  0.00000000000E+00 0.  1.
         11    1    3    3    0    0 -0.89744980524E+01  0.39882491848E+01  0.27573000848E+02  0.29269747571E+02  0.51100000000E-03 0. -1.
        -11    1    3    3    0    0  0.19206003520E+02 -0.26667001591E+01  0.10654332732E+02  0.22124571570E+02  0.51100000000E-03 0.  1.
        -12    1    3    3    0    0 -0.37437417413E+01  0.24349049773E+00 -0.20730525336E+02  0.21067263006E+02  0.00000000000E+00 0.  1.
</event>
<event>
 7    1  0.3333610E-013  0.7246165E+02  0.7816164E-02  0.1226708E+00
        -11   -1    0    0    0    0  0.00000000000E+00  0.00000000000E+00  0.45593999997E+02  0.45594000000E+02  0.51100000000E-03 0. -1.
         11   -1    0    0    0    0 -0.00000000000E+00 -0.00000000000E+00 -0.45593999997E+02  0.45594000000E+02  0.51100000000E-03 0.  1.
    9900012    2    1    2    0    0 -0.49891476906E+00 -0.18052321153E+02  0.49538854368E+01  0.72461649691E+02  0.70000103429E+02 0.  0.
        -12    1    1    2    0    0  0.49891476906E+00  0.18052321153E+02 -0.49538854368E+01  0.18726350309E+02  0.00000000000E+00 0.  1.
         11    1    3    3    0    0 -0.13653322805E+02 -0.16231429976E+02  0.92954838268E+01  0.23157689058E+02  0.51100000000E-03 0. -1.
        -11    1    3    3    0    0  0.39066847091E+01 -0.18312075930E+02 -0.18005102262E+02  0.25976489717E+02  0.51100000000E-03 0.  1.
         12    1    3    3    0    0  0.92477233268E+01  0.16491184752E+02  0.13663503872E+02  0.23327470916E+02  0.00000000000E+00 0. -1.
</event>
<event>
 7    1  0.2851651E-013  0.7246154E+02  0.7816164E-02  0.1226708E+00
        -11   -1    0    0    0    0  0.00000000000E+00  0.00000000000E+00  0.45593999997E+02  0.45594000000E+02  0.51100000000E-03 0. -1.
         11   -1    0    0    0    0 -0.00000000000E+00 -0.00000000000E+00 -0.45593999997E+02  0.45594000000E+02  0.51100000000E-03 0.  1.
    9900012    2    1    2    0    0 -0.13318775559E+02 -0.12639476147E+02  0.36788667099E+01  0.72461542782E+02  0.69999964161E+02 0.  0.
        -12    1    1    2    0    0  0.13318775559E+02  0.12639476147E+02 -0.36788667099E+01  0.18726457218E+02  0.00000000000E+00 0.  1.
         11    1    3    3    0    0  0.17260103168E+01 -0.39252384703E+01 -0.16390957050E+02  0.16942552403E+02  0.51100000000E-03 0. -1.
        -11    1    3    3    0    0  0.11984114446E+01 -0.46144382582E+01 -0.15491884847E+02  0.16208878024E+02  0.51100000000E-03 0.  1.
         12    1    3    3    0    0 -0.16243197320E+02 -0.40997994185E+01  0.35561708606E+02  0.39310112356E+02  0.00000000000E+00 0. -1.
</event>
<event>
 7    1  0.2851651E-013  0.7246155E+02  0.7816164E-02  0.1226708E+00
        -11   -1    0    0    0    0  0.00000000000E+00  0.00000000000E+00  0.45593999997E+02  0.45594000000E+02  0.51100000000E-03 0. -1.
         11   -1    0    0    0    0 -0.00000000000E+00 -0.00000000000E+00 -0.45593999997E+02  0.45594000000E+02  0.51100000000E-03 0.  1.
    9900012    2    1    2    0    0 -0.31607398637E+01  0.17051276097E+02  0.70670737994E+01  0.72461552790E+02  0.69999977197E+02 0.  0.
        -12    1    1    2    0    0  0.31607398637E+01 -0.17051276097E+02 -0.70670737994E+01  0.18726447210E+02  0.00000000000E+00 0.  1.
         11    1    3    3    0    0 -0.20758555899E+02  0.18898956104E+02  0.65058935775E+01  0.28816919272E+02  0.51100000000E-03 0.  1.
        -11    1    3    3    0    0  0.25066214075E+02  0.11259605213E+01  0.13438976494E+02  0.28463818517E+02  0.51100000000E-03 0. -1.
        -12    1    3    3    0    0 -0.74683980398E+01 -0.29736405283E+01 -0.12877796272E+02  0.15180815001E+02  0.00000000000E+00 0.  1.
</event>
<event>
 7    1  0.2851651E-013  0.7246159E+02  0.7816164E-02  0.1226708E+00
        -11   -1    0    0    0    0  0.00000000000E+00  0.00000000000E+00  0.45593999997E+02  0.45594000000E+02  0.51100000000E-03 0. -1.
         11   -1    0    0    0    0 -0.00000000000E+00 -0.00000000000E+00 -0.45593999997E+02  0.45594000000E+02  0.51100000000E-03 0.  1.
    9900012    2    1    2    0    0 -0.12351501151E+02 -0.11960024933E+02  0.74213676713E+01  0.72461588833E+02  0.70000024150E+02 0.  0.
        -12    1    1    2    0    0  0.12351501151E+02  0.11960024933E+02 -0.74213676713E+01  0.18726411167E+02  0.00000000000E+00 0.  1.
         11    1    3    3    0    0 -0.15456717634E+02 -0.14597992328E+02  0.18877918606E+02  0.28432152771E+02  0.51100000000E-03 0. -1.
        -11    1    3    3    0    0  0.19921128459E+02 -0.29301097480E+01  0.39897756212E+01  0.20526938690E+02  0.51100000000E-03 0.  1.
         12    1    3    3    0    0 -0.16815911976E+02  0.55680771428E+01 -0.15446326556E+02  0.23502497372E+02  0.00000000000E+00 0. -1.
</event>
<event>
 7    1  0.2851651E-013  0.7246161E+02  0.7816164E-02  0.1226708E+00
        -11   -1    0    0    0    0  0.00000000000E+00  0.00000000000E+00  0.45593999997E+02  0.45594000000E+02  0.51100000000E-03 0. -1.
         11   -1    0    0    0    0 -0.00000000000E+00 -0.00000000000E+00 -0.45593999997E+02  0.45594000000E+02  0.51100000000E-03 0.  1.
    9900012    2    1    2    0    0 -0.15236388007E+02  0.99068080858E+01  0.45150119150E+01  0.72461609570E+02  0.70000051164E+02 0.  0.
        -12    1    1    2    0    0  0.15236388007E+02 -0.99068080858E+01 -0.45150119150E+01  0.18726390430E+02  0.00000000000E+00 0.  1.
         11    1    3    3    0    0  0.31255592884E+01  0.12288670451E+02  0.13628869789E+01  0.12752960578E+02  0.51100000000E-03 0. -1.
        -11    1    3    3    0    0  0.10695888981E+02 -0.52490358278E+01  0.21954855290E+02  0.24979393292E+02  0.51100000000E-03 0.  1.
         12    1    3    3    0    0 -0.29057836276E+02  0.28671734624E+01 -0.18802730353E+02  0.34729255700E+02  0.00000000000E+00 0. -1.
</event>
<event>
 7    1  0.2851651E-013  0.7246143E+02  0.7816164E-02  0.1226708E+00
        -11   -1    0    0    0    0  0.00000000000E+00  0.00000000000E+00  0.45593999997E+02  0.45594000000E+02  0.51100000000E-03 0. -1.
         11   -1    0    0    0    0 -0.00000000000E+00 -0.00000000000E+00 -0.45593999997E+02  0.45594000000E+02  0.51100000000E-03 0.  1.
    9900012    2    1    2    0    0 -0.99909299398E+01  0.15737887164E+02  0.17845628677E+01  0.72461429623E+02  0.69999816749E+02 0.  0.
        -12    1    1    2    0    0  0.99909299398E+01 -0.15737887164E+02 -0.17845628677E+01  0.18726570377E+02  0.00000000000E+00 0.  1.
         11    1    3    3    0    0  0.76862742798E+01  0.98327154301E+01  0.24760833296E+02  0.27728324342E+02  0.51100000000E-03 0. -1.
        -11    1    3    3    0    0 -0.28253757318E+01  0.35384949907E+01  0.86218294634E+01  0.97385644929E+01  0.51100000000E-03 0.  1.
        -12    1    3    3    0    0 -0.14851828488E+02  0.23666767437E+01 -0.31598099891E+02  0.34994540788E+02  0.00000000000E+00 0.  1.
</event>
<event>
 7    1  0.2851651E-013  0.7246155E+02  0.7816164E-02  0.1226708E+00
        -11   -1    0    0    0    0  0.00000000000E+00  0.00000000000E+00  0.45593999997E+02  0.45594000000E+02  0.51100000000E-03 0.  1.
         11   -1    0    0    0    0 -0.00000000000E+00 -0.00000000000E+00 -0.45593999997E+02  0.45594000000E+02  0.51100000000E-03 0. -1.
    9900012    2    1    2    0    0  0.10818452999E+02 -0.10292331478E+02 -0.11300834413E+02  0.72461551565E+02  0.69999975602E+02 0.  0.
        -12    1    1    2    0    0 -0.10818452999E+02  0.10292331478E+02  0.11300834413E+02  0.18726448435E+02  0.00000000000E+00 0.  1.
         11    1    3    3    0    0  0.19196718474E+02 -0.18102642070E+02 -0.10691565030E+02  0.28469794751E+02  0.51100000000E-03 0. -1.
        -11    1    3    3    0    0  0.11158250392E+02 -0.11845398613E+02 -0.37072831339E+00  0.16277513934E+02  0.51100000000E-03 0.  1.
         12    1    3    3    0    0 -0.19536515867E+02  0.19655709206E+02 -0.23854106973E+00  0.27714242881E+02  0.00000000000E+00 0. -1.
</event>
<event>
 7    1  0.2851651E-013  0.7246103E+02  0.7816164E-02  0.1226709E+00
        -11   -1    0    0    0    0  0.00000000000E+00  0.00000000000E+00  0.45593999997E+02  0.45594000000E+02  0.51100000000E-03 0.  1.
         11   -1    0    0    0    0 -0.00000000000E+00 -0.00000000000E+00 -0.45593999997E+02  0.45594000000E+02  0.51100000000E-03 0. -1.
    9900012    2    1    2    0    0 -0.16442174254E+02  0.60470990519E+01 -0.66171759146E+01  0.72461026987E+02  0.69999292238E+02 0.  0.
        -12    1    1    2    0    0  0.16442174254E+02 -0.60470990519E+01  0.66171759146E+01  0.18726973013E+02  0.00000000000E+00 0.  1.
         11    1    3    3    0    0 -0.15017492625E+02  0.10705135661E+02  0.35407835945E+01  0.18779301451E+02  0.51100000000E-03 0. -1.
        -11    1    3    3    0    0 -0.18191184622E+02 -0.22004153303E+02 -0.45010262289E+01  0.28902615763E+02  0.51100000000E-03 0.  1.
        -12    1    3    3    0    0  0.16766502993E+02  0.17346116694E+02 -0.56569332802E+01  0.24779109773E+02  0.00000000000E+00 0.  1.
</event>
<event>
 7    1  0.2851651E-013  0.7246180E+02  0.7816164E-02  0.1226707E+00
        -11   -1    0    0    0    0  0.00000000000E+00  0.00000000000E+00  0.45593999997E+02  0.45594000000E+02  0.51100000000E-03 0.  1.
         11   -1    0    0    0    0 -0.00000000000E+00 -0.00000000000E+00 -0.45593999997E+02  0.45594000000E+02  0.51100000000E-03 0. -1.
    9900012    2    1    2    0    0 -0.16024478176E+02 -0.44265251977E+01 -0.86193075246E+01  0.72461802085E+02  0.70000301950E+02 0.  0.
        -12    1    1    2    0    0  0.16024478176E+02  0.44265251977E+01  0.86193075246E+01  0.18726197915E+02  0.00000000000E+00 0.  1.
         11    1    3    3    0    0 -0.17266077691E+02  0.14490657540E+01 -0.19347838185E+02  0.25972217331E+02  0.51100000000E-03 0. -1.
        -11    1    3    3    0    0 -0.42451385666E+01  0.18991613241E+02  0.19681419732E+01  0.19559554137E+02  0.51100000000E-03 0.  1.
         12    1    3    3    0    0  0.54867380823E+01 -0.24867204192E+02  0.87603886870E+01  0.26930030618E+02  0.00000000000E+00 0. -1.
</event>
<event>
 7    1  0.2851651E-013  0.7246150E+02  0.7816164E-02  0.1226708E+00
        -11   -1    0    0    0    0  0.00000000000E+00  0.00000000000E+00  0.45593999997E+02  0.45594000000E+02  0.51100000000E-03 0. -1.
         11   -1    0    0    0    0 -0.00000000000E+00 -0.00000000000E+00 -0.45593999997E+02  0.45594000000E+02  0.51100000000E-03 0.  1.
    9900012    2    1    2    0    0  0.10818461438E+02  0.14612398367E+02  0.44855946574E+01  0.72461498636E+02  0.69999906651E+02 0.  0.
        -12    1    1    2    0    0 -0.10818461438E+02 -0.14612398367E+02 -0.44855946574E+01  0.18726501364E+02  0.00000000000E+00 0.  1.
         11    1    3    3    0    0 -0.14723084518E+02  0.20549420259E+02  0.14739525193E+02  0.29262629647E+02  0.51100000000E-03 0. -1.
        -11    1    3    3    0    0  0.89829126140E+01 -0.13914589572E+02  0.70078263659E+01  0.17983830310E+02  0.51100000000E-03 0.  1.
        -12    1    3    3    0    0  0.16558633342E+02  0.79775676803E+01 -0.17261756901E+02  0.25215038679E+02  0.00000000000E+00 0.  1.
</event>
<event>
 7    1  0.2851651E-013  0.7246089E+02  0.7816164E-02  0.1226710E+00
        -11   -1    0    0    0    0  0.00000000000E+00  0.00000000000E+00  0.45593999997E+02  0.45594000000E+02  0.51100000000E-03 0. -1.
         11   -1    0    0    0    0 -0.00000000000E+00 -0.00000000000E+00 -0.45593999997E+02  0.45594000000E+02  0.51100000000E-03 0.  1.
    9900012    2    1    2    0    0 -0.65896604344E+01 -0.10479004854E+02  0.14052453793E+02  0.72460890640E+02  0.69999114618E+02 0.  0.
        -12    1    1    2    0    0  0.65896604344E+01  0.10479004854E+02 -0.14052453793E+02  0.18727109360E+02  0.00000000000E+00 0.  1.
         11    1    3    3    0    0  0.13961901814E+01 -0.50254707321E+01  0.63412696876E+01  0.82107493333E+01  0.51100000000E-03 0. -1.
        -11    1    3    3    0    0  0.14026393668E+02  0.18346119060E+02 -0.12287657341E+02  0.26159249361E+02  0.51100000000E-03 0.  1.
         12    1    3    3    0    0 -0.22012244284E+02 -0.23799653183E+02  0.19998841446E+02  0.38090891946E+02  0.00000000000E+00 0. -1.
</event>
<event>
 7    1  0.2861643E-013  0.7246156E+02  0.7816164E-02  0.1226708E+00
        -11   -1    0    0    0    0  0.00000000000E+00  0.00000000000E+00  0.45593999997E+02  0.45594000000E+02  0.51100000000E-03 0.  1.
         11   -1    0    0    0    0 -0.00000000000E+00 -0.00000000000E+00 -0.45593999997E+02  0.45594000000E+02  0.51100000000E-03 0. -1.
    9900012    2    1    2    0    0 -0.54044699016E+01  0.17824114492E+02 -0.19422117274E+01  0.72461560437E+02  0.69999987158E+02 0.  0.
        -12    1    1    2    0    0  0.54044699016E+01 -0.17824114492E+02  0.19422117274E+01  0.18726439563E+02  0.00000000000E+00 0.  1.
         11    1    3    3    0    0  0.95227821369E+01  0.42526917918E+01 -0.61884617686E+01  0.12127069985E+02  0.51100000000E-03 0. -1.
        -11    1    3    3    0    0 -0.16557819435E+02 -0.18937146612E+02 -0.66333122882E+01  0.26014952209E+02  0.51100000000E-03 0.  1.
         12    1    3    3    0    0  0.16305673969E+01  0.32508569311E+02  0.10879562329E+02  0.34319538243E+02  0.00000000000E+00 0. -1.
</event>
<event>
 7    1  0.2851651E-013  0.7246169E+02  0.7816164E-02  0.1226708E+00
        -11   -1    0    0    0    0  0.00000000000E+00  0.00000000000E+00  0.45593999997E+02  0.45594000000E+02  0.51100000000E-03 0.  1.
         11   -1    0    0    0    0 -0.00000000000E+00 -0.00000000000E+00 -0.45593999997E+02  0.45594000000E+02  0.51100000000E-03 0. -1.
    9900012    2    1    2    0    0  0.25935964770E+00  0.11932350950E+02 -0.14430047224E+02  0.72461694184E+02  0.70000161389E+02 0.  0.
        -12    1    1    2    0    0 -0.25935964770E+00 -0.11932350950E+02  0.14430047224E+02  0.18726305816E+02  0.00000000000E+00 0.  1.
         11    1    3    3    0    0  0.79267211679E+01  0.15679590481E+02  0.14816699273E+02  0.22982972909E+02  0.51100000000E-03 0. -1.
        -11    1    3    3    0    0 -0.80206012988E+01 -0.17313501461E+02 -0.21861599858E+01  0.19205902056E+02  0.51100000000E-03 0.  1.
         12    1    3    3    0    0  0.35323977863E+00  0.13566261930E+02 -0.27060586511E+02  0.30272819219E+02  0.00000000000E+00 0. -1.
</event>
<event>
 7    1  0.2851651E-013  0.7246158E+02  0.7816164E-02  0.1226708E+00
        -11   -1    0    0    0    0  0.00000000000E+00  0.00000000000E+00  0.45593999997E+02  0.45594000000E+02  0.51100000000E-03 0.  1.
         11   -1    0    0    0    0 -0.00000000000E+00 -0.00000000000E+00 -0.45593999997E+02  0.45594000000E+02  0.51100000000E-03 0. -1.
    9900012    2    1    2    0    0  0.25378838860E+01 -0.85278857701E+01 -0.16477658082E+02  0.72461577326E+02  0.70000009160E+02 0.  0.
        -12    1    1    2    0    0 -0.25378838860E+01  0.85278857701E+01  0.16477658082E+02  0.18726422674E+02  0.00000000000E+00 0.  1.
         11    1    3    3    0    0  0.11893038873E+01 -0.19529844391E+00  0.42250658251E+01  0.43936052060E+01  0.51100000000E-03 0. -1.
        -11    1    3    3    0    0  0.13965481857E+00  0.26402508388E+02  0.21207879195E+01  0.26487916005E+02  0.51100000000E-03 0.  1.
         12    1    3    3    0    0  0.12089251801E+01 -0.34735095714E+02 -0.22823511826E+02  0.41580056114E+02  0.00000000000E+00 0. -1.
</event>
<event>
 7    1  0.2851651E-013  0.7246157E+02  0.7816164E-02  0.1226708E+00
        -11   -1    0    0    0    0  0.00000000000E+00  0.00000000000E+00  0.45593999997E+02  0.45594000000E+02  0.51100000000E-03 0. -1.
         11   -1    0    0    0    0 -0.00000000000E+00 -0.00000000000E+00 -0.45593999997E+02  0.45594000000E+02  0.51100000000E-03 0.  1.
    9900012    2    1    2    0    0 -0.99118059575E+01 -0.63331734827E+01  0.14571411376E+02  0.72461574468E+02  0.70000005437E+02 0.  0.
        -12    1    1    2    0    0  0.99118059575E+01  0.63331734827E+01 -0.14571411376E+02  0.18726425532E+02  0.00000000000E+00 0.  1.
         11    1    3    3    0    0  0.16003734008E+02 -0.12693942156E+02  0.25362717179E+02  0.32565673533E+02  0.51100000000E-03 0. -1.
        -11    1    3    3    0    0 -0.14052220886E+02 -0.40788762440E+01  0.68973886335E+01  0.16176406074E+02  0.51100000000E-03 0.  1.
        -12    1    3    3    0    0 -0.11863319080E+02  0.10439644918E+02 -0.17688694437E+02  0.23719494861E+02  0.00000000000E+00 0.  1.
</event>
<event>
 7    1  0.2851651E-013  0.7246163E+02  0.7816164E-02  0.1226708E+00
        -11   -1    0    0    0    0  0.00000000000E+00  0.00000000000E+00  0.45593999997E+02  0.45594000000E+02  0.51100000000E-03 0.  1.
         11   -1    0    0    0    0 -0.00000000000E+00 -0.00000000000E+00 -0.45593999997E+02  0.45594000000E+02  0.51100000000E-03 0. -1.
    9900012    2    1    2    0    0  0.81437405118E+01 -0.16152338535E+02  0.48433955212E+01  0.72461627424E+02  0.70000074422E+02 0.  0.
        -12    1    1    2    0    0 -0.81437405118E+01  0.16152338535E+02 -0.48433955212E+01  0.18726372576E+02  0.00000000000E+00 0.  1.
         11    1    3    3    0    0 -0.61341390393E+01 -0.12199307230E+02  0.22380363523E+02  0.26217006510E+02  0.51100000000E-03 0. -1.
        -11    1    3    3    0    0  0.10550009191E+02  0.13004826075E+02  0.52927834441E+01  0.17562509844E+02  0.51100000000E-03 0.  1.
        -12    1    3    3    0    0  0.37278703596E+01 -0.16957857381E+02 -0.22829751446E+02  0.28682111070E+02  0.00000000000E+00 0.  1.
</event>
<event>
 7    1  0.2851651E-013  0.7246142E+02  0.7816164E-02  0.1226708E+00
        -11   -1    0    0    0    0  0.00000000000E+00  0.00000000000E+00  0.45593999997E+02  0.45594000000E+02  0.51100000000E-03 0. -1.
         11   -1    0    0    0    0 -0.00000000000E+00 -0.00000000000E+00 -0.45593999997E+02  0.45594000000E+02  0.51100000000E-03 0.  1.
    9900012    2    1    2    0    0  0.13720005993E+02 -0.93617515353E+01  0.86489178838E+01  0.72461421647E+02  0.69999806359E+02 0.  0.
        -12    1    1    2    0    0 -0.13720005993E+02  0.93617515353E+01 -0.86489178838E+01  0.18726578353E+02  0.00000000000E+00 0.  1.
         11    1    3    3    0    0 -0.36886373425E+01 -0.13474626247E+02  0.17363893259E+02  0.22286237621E+02  0.51100000000E-03 0. -1.
        -11    1    3    3    0    0 -0.14658565493E+01 -0.14189616428E+02  0.10413519074E+02  0.17661691017E+02  0.51100000000E-03 0.  1.
        -12    1    3    3    0    0  0.18874499884E+02  0.18302491140E+02 -0.19128494449E+02  0.32513493010E+02  0.00000000000E+00 0.  1.
</event>
<event>
 7    1  0.2851651E-013  0.7246157E+02  0.7816164E-02  0.1226708E+00
        -11   -1    0    0    0    0  0.00000000000E+00  0.00000000000E+00  0.45593999997E+02  0.45594000000E+02  0.51100000000E-03 0.  1.
         11   -1    0    0    0    0 -0.00000000000E+00 -0.00000000000E+00 -0.45593999997E+02  0.45594000000E+02  0.51100000000E-03 0. -1.
    9900012    2    1    2    0    0 -0.84649675790E+01  0.16224556418E+02  0.39733231610E+01  0.72461569373E+02  0.69999998800E+02 0.  0.
        -12    1    1    2    0    0  0.84649675790E+01 -0.16224556418E+02 -0.39733231610E+01  0.18726430627E+02  0.00000000000E+00 0.  1.
         11    1    3    3    0    0 -0.18674453605E+00 -0.14594338245E+02  0.99981456295E+01  0.17691594010E+02  0.51100000000E-03 0. -1.
        -11    1    3    3    0    0 -0.14363058122E+02 -0.66073527567E+01 -0.58334888213E+01  0.16851829015E+02  0.51100000000E-03 0.  1.
         12    1    3    3    0    0  0.60848350790E+01  0.37426247420E+02 -0.19133364730E+00  0.37918146348E+02  0.00000000000E+00 0. -1.
</event>
<event>
 7    1  0.2851651E-013  0.7246158E+02  0.7816164E-02  0.1226708E+00
        -11   -1    0    0    0    0  0.00000000000E+00  0.00000000000E+00  0.45593999997E+02  0.45594000000E+02  0.51100000000E-03 0.  1.
         11   -1    0    0    0    0 -0.00000000000E+00 -0.00000000000E+00 -0.45593999997E+02  0.45594000000E+02  0.51100000000E-03 0. -1.
    9900012    2    1    2    0    0  0.18486435840E+02  0.28389563002E+01  0.93325036288E+00  0.72461576444E+02  0.70000008012E+02 0.  0.
        -12    1    1    2    0    0 -0.18486435840E+02 -0.28389563002E+01 -0.93325036288E+00  0.18726423556E+02  0.00000000000E+00 0.  1.
         11    1    3    3    0    0  0.31937543035E+01 -0.12979176895E+02 -0.13839948895E+02  0.19240667481E+02  0.51100000000E-03 0. -1.
        -11    1    3    3    0    0 -0.10352598868E+02  0.69961205778E+01 -0.10370800409E+02  0.16238088183E+02  0.51100000000E-03 0.  1.
        -12    1    3    3    0    0  0.25645280405E+02  0.88220126176E+01  0.25143999666E+02  0.36982820781E+02  0.00000000000E+00 0.  1.
</event>
<event>
 7    1  0.2851651E-013  0.7246131E+02  0.7816164E-02  0.1226709E+00
        -11   -1    0    0    0    0  0.00000000000E+00  0.00000000000E+00  0.45593999997E+02  0.45594000000E+02  0.51100000000E-03 0.  1.
         11   -1    0    0    0    0 -0.00000000000E+00 -0.00000000000E+00 -0.45593999997E+02  0.45594000000E+02  0.51100000000E-03 0. -1.
    9900012    2    1    2    0    0 -0.87123955396E+01 -0.41024594504E+01 -0.16060910376E+02  0.72461311780E+02  0.69999663237E+02 0.  0.
        -12    1    1    2    0    0  0.87123955396E+01  0.41024594504E+01  0.16060910376E+02  0.18726688220E+02  0.00000000000E+00 0.  1.
         11    1    3    3    0    0 -0.12548589740E+02 -0.76591323300E+01 -0.19657580097E+01  0.14832181812E+02  0.51100000000E-03 0. -1.
        -11    1    3    3    0    0  0.14437532046E+02 -0.12460041376E+02  0.13956245014E+02  0.23632006640E+02  0.51100000000E-03 0.  1.
         12    1    3    3    0    0 -0.10601337846E+02  0.16016714255E+02 -0.28051397379E+02  0.33997123328E+02  0.00000000000E+00 0. -1.
</event>
<event>
 7    1  0.2851651E-013  0.7246157E+02  0.7816164E-02  0.1226708E+00
        -11   -1    0    0    0    0  0.00000000000E+00  0.00000000000E+00  0.45593999997E+02  0.45594000000E+02  0.51100000000E-03 0.  1.
         11   -1    0    0    0    0 -0.00000000000E+00 -0.00000000000E+00 -0.45593999997E+02  0.45594000000E+02  0.51100000000E-03 0. -1.
    9900012    2    1    2    0    0 -0.55758051500E+01 -0.34410562037E+01 -0.17542766530E+02  0.72461571393E+02  0.70000001431E+02 0.  0.
        -12    1    1    2    0    0  0.55758051500E+01  0.34410562037E+01  0.17542766530E+02  0.18726428607E+02  0.00000000000E+00 0.  1.
         11    1    3    3    0    0  0.21842361379E+02 -0.95147666361E+01 -0.69470093258E+01  0.24816939247E+02  0.51100000000E-03 0. -1.
        -11    1    3    3    0    0 -0.15580600846E+02 -0.87902883318E+01  0.92750611079E+01  0.20150708436E+02  0.51100000000E-03 0.  1.
         12    1    3    3    0    0 -0.11837565683E+02  0.14863998764E+02 -0.19870818312E+02  0.27493923710E+02  0.00000000000E+00 0. -1.
</event>
<event>
 7    1  0.2851651E-013  0.7246152E+02  0.7816164E-02  0.1226708E+00
        -11   -1    0    0    0    0  0.00000000000E+00  0.00000000000E+00  0.45593999997E+02  0.45594000000E+02  0.51100000000E-03 0.  1.
         11   -1    0    0    0    0 -0.00000000000E+00 -0.00000000000E+00 -0.45593999997E+02  0.45594000000E+02  0.51100000000E-03 0. -1.
    9900012    2    1    2    0    0 -0.32444618326E+01  0.16381835208E+02 -0.84728922576E+01  0.72461522473E+02  0.69999937704E+02 0.  0.
        -12    1    1    2    0    0  0.32444618326E+01 -0.16381835208E+02  0.84728922576E+01  0.18726477527E+02  0.00000000000E+00 0.  1.
         11    1    3    3    0    0  0.77556827124E+01  0.45579448805E+01 -0.39703565937E+01  0.98330670501E+01  0.51100000000E-03 0. -1.
        -11    1    3    3    0    0  0.57356326521E+01 -0.22732669758E+02 -0.60095718295E+01  0.24203031010E+02  0.51100000000E-03 0.  1.
        -12    1    3    3    0    0 -0.16735777197E+02  0.34556560085E+02  0.15070361655E+01  0.38425424413E+02  0.00000000000E+00 0.  1.
</event>
<event>
 7    1  0.2851651E-013  0.7246169E+02  0.7816164E-02  0.1226708E+00
        -11   -1    0    0    0    0  0.00000000000E+00  0.00000000000E+00  0.45593999997E+02  0.45594000000E+02  0.51100000000E-03 0.  1.
         11   -1    0    0    0    0 -0.00000000000E+00 -0.00000000000E+00 -0.45593999997E+02  0.45594000000E+02  0.51100000000E-03 0. -1.
    9900012    2    1    2    0    0  0.68315743548E+01  0.17314401116E+02 -0.20532786031E+01  0.72461685701E+02  0.70000150339E+02 0.  0.
        -12    1    1    2    0    0 -0.68315743548E+01 -0.17314401116E+02  0.20532786031E+01  0.18726314299E+02  0.00000000000E+00 0.  1.
         11    1    3    3    0    0  0.74768460070E+01  0.30960778793E+01 -0.51039951047E+01  0.95676376779E+01  0.51100000000E-03 0. -1.
        -11    1    3    3    0    0  0.27228444021E+02  0.97083784391E+00  0.13374561800E+02  0.30351434785E+02  0.51100000000E-03 0.  1.
         12    1    3    3    0    0 -0.27873715673E+02  0.13247485393E+02 -0.10323845299E+02  0.32542613239E+02  0.00000000000E+00 0. -1.
</event>
<event>
 7    1  0.2851651E-013  0.7246148E+02  0.7816164E-02  0.1226708E+00
        -11   -1    0    0    0    0  0.00000000000E+00  0.00000000000E+00  0.45593999997E+02  0.45594000000E+02  0.51100000000E-03 0.  1.
         11   -1    0    0    0    0 -0.00000000000E+00 -0.00000000000E+00 -0.45593999997E+02  0.45594000000E+02  0.51100000000E-03 0. -1.
    9900012    2    1    2    0    0 -0.12376852555E+02  0.69882323447E+01 -0.12192649350E+02  0.72461479537E+02  0.69999881772E+02 0.  0.
        -12    1    1    2    0    0  0.12376852555E+02 -0.69882323447E+01  0.12192649350E+02  0.18726520463E+02  0.00000000000E+00 0.  1.
         11    1    3    3    0    0 -0.15389166720E+00  0.30300647192E+01  0.86037366769E+01  0.91230071750E+01  0.51100000000E-03 0. -1.
        -11    1    3    3    0    0 -0.12169751643E+02  0.83134123548E+01  0.18583530534E+02  0.23718416630E+02  0.51100000000E-03 0.  1.
         12    1    3    3    0    0 -0.53209244861E-01 -0.43552447293E+01 -0.39379916561E+02  0.39620055733E+02  0.00000000000E+00 0. -1.
</event>
<event>
 7    1  0.2851651E-013  0.7246157E+02  0.7816164E-02  0.1226708E+00
        -11   -1    0    0    0    0  0.00000000000E+00  0.00000000000E+00  0.45593999997E+02  0.45594000000E+02  0.51100000000E-03 0.  1.
         11   -1    0    0    0    0 -0.00000000000E+00 -0.00000000000E+00 -0.45593999997E+02  0.45594000000E+02  0.51100000000E-03 0. -1.
    9900012    2    1    2    0    0  0.29780983388E+01 -0.12653787965E+02 -0.13479314850E+02  0.72461565518E+02  0.69999993778E+02 0.  0.
        -12    1    1    2    0    0 -0.29780983388E+01  0.12653787965E+02  0.13479314850E+02  0.18726434482E+02  0.00000000000E+00 0.  1.
         11    1    3    3    0    0  0.10030717003E+02 -0.12303749993E+02 -0.11874355229E+02  0.19824173624E+02  0.51100000000E-03 0. -1.
        -11    1    3    3    0    0 -0.29602355903E+02 -0.15846492404E+01 -0.40573898476E+01  0.29921112962E+02  0.51100000000E-03 0.  1.
         12    1    3    3    0    0  0.22549737239E+02  0.12346112688E+01  0.24524302263E+01  0.22716278932E+02  0.00000000000E+00 0. -1.
</event>
<event>
 7    1  0.2851651E-013  0.7246147E+02  0.7816164E-02  0.1226708E+00
        -11   -1    0    0    0    0  0.00000000000E+00  0.00000000000E+00  0.45593999997E+02  0.45594000000E+02  0.51100000000E-03 0.  1.
         11   -1    0    0    0    0 -0.00000000000E+00 -0.00000000000E+00 -0.45593999997E+02  0.45594000000E+02  0.51100000000E-03 0. -1.
    9900012    2    1    2    0    0 -0.66446126120E+00 -0.12255594719E+02 -0.14143613262E+02  0.72461470509E+02  0.69999870011E+02 0.  0.
        -12    1    1    2    0    0  0.66446126120E+00  0.12255594719E+02  0.14143613262E+02  0.18726529491E+02  0.00000000000E+00 0.  1.
         11    1    3    3    0    0  0.21779636238E+02 -0.14097463683E+02 -0.98013470489E+01  0.27733687839E+02  0.51100000000E-03 0. -1.
        -11    1    3    3    0    0 -0.77114188861E+01  0.13674658239E+02 -0.16087974445E+02  0.22478549357E+02  0.51100000000E-03 0.  1.
        -12    1    3    3    0    0 -0.14732678613E+02 -0.11832789275E+02  0.11745708232E+02  0.22249233313E+02  0.00000000000E+00 0.  1.
</event>
<event>
 7    1  0.2851651E-013  0.7246155E+02  0.7816164E-02  0.1226708E+00
        -11   -1    0    0    0    0  0.00000000000E+00  0.00000000000E+00  0.45593999997E+02  0.45594000000E+02  0.51100000000E-03 0. -1.
         11   -1    0    0    0    0 -0.00000000000E+00 -0.00000000000E+00 -0.45593999997E+02  0.45594000000E+02  0.51100000000E-03 0.  1.
    9900012    2    1    2    0    0  0.65682151507E+01  0.26142360188E+01  0.17340831083E+02  0.72461545374E+02  0.69999967536E+02 0.  0.
        -12    1    1    2    0    0 -0.65682151507E+01 -0.26142360188E+01 -0.17340831083E+02  0.18726454626E+02  0.00000000000E+00 0.  1.
         11    1    3    3    0    0  0.60891575867E+01  0.44020310096E+01  0.33336494954E+01  0.82200326243E+01  0.51100000000E-03 0. -1.
        -11    1    3    3    0    0 -0.17784504239E+02  0.19834569144E+02  0.22306999922E+02  0.34746236774E+02  0.51100000000E-03 0.  1.
         12    1    3    3    0    0  0.18263561803E+02 -0.21622364135E+02 -0.82998183347E+01  0.29495275976E+02  0.00000000000E+00 0. -1.
</event>
<event>
 7    1  0.2851651E-013  0.7246211E+02  0.7816164E-02  0.1226707E+00
        -11   -1    0    0    0    0  0.00000000000E+00  0.00000000000E+00  0.45593999997E+02  0.45594000000E+02  0.51100000000E-03 0.  1.
         11   -1    0    0    0    0 -0.00000000000E+00 -0.00000000000E+00 -0.45593999997E+02  0.45594000000E+02  0.51100000000E-03 0. -1.
    9900012    2    1    2    0    0 -0.10007103360E+02 -0.79353070174E+01 -0.13694805753E+02  0.72462110976E+02  0.70000704335E+02 0.  0.
        -12    1    1    2    0    0  0.10007103360E+02  0.79353070174E+01  0.13694805753E+02  0.18725889024E+02  0.00000000000E+00 0.  1.
         11    1    3    3    0    0  0.86698406699E+01 -0.72268564060E+01 -0.23759478312E+02  0.26304113759E+02  0.51100000000E-03 0. -1.
        -11    1    3    3    0    0 -0.43328935062E+01  0.14843007639E+02 -0.88181752014E+01  0.17800254382E+02  0.51100000000E-03 0.  1.
         12    1    3    3    0    0 -0.14344050524E+02 -0.15551458250E+02  0.18882847760E+02  0.28357742835E+02  0.00000000000E+00 0. -1.
</event>
<event>
 7    1  0.2851651E-013  0.7246155E+02  0.7816164E-02  0.1226708E+00
        -11   -1    0    0    0    0  0.00000000000E+00  0.00000000000E+00  0.45593999997E+02  0.45594000000E+02  0.51100000000E-03 0. -1.
         11   -1    0    0    0    0 -0.00000000000E+00 -0.00000000000E+00 -0.45593999997E+02  0.45594000000E+02  0.51100000000E-03 0.  1.
    9900012    2    1    2    0    0 -0.22656482055E+01  0.59333718078E+01  0.17616517303E+02  0.72461554937E+02  0.69999979994E+02 0.  0.
        -12    1    1    2    0    0  0.22656482055E+01 -0.59333718078E+01 -0.17616517303E+02  0.18726445063E+02  0.00000000000E+00 0.  1.
         11    1    3    3    0    0 -0.10701750200E+02 -0.56336487226E+01  0.14184370829E+02  0.18640328091E+02  0.51100000000E-03 0. -1.
        -11    1    3    3    0    0  0.14237063509E+02 -0.17058889691E+02 -0.61966301034E+01  0.23067247772E+02  0.51100000000E-03 0.  1.
        -12    1    3    3    0    0 -0.58009615147E+01  0.28625910222E+02  0.96287765775E+01  0.30753979074E+02  0.00000000000E+00 0.  1.
</event>
<event>
 7    1  0.2851651E-013  0.7246158E+02  0.7816164E-02  0.1226708E+00
        -11   -1    0    0    0    0  0.00000000000E+00  0.00000000000E+00  0.45593999997E+02  0.45594000000E+02  0.51100000000E-03 0. -1.
         11   -1    0    0    0    0 -0.00000000000E+00 -0.00000000000E+00 -0.45593999997E+02  0.45594000000E+02  0.51100000000E-03 0.  1.
    9900012    2    1    2    0    0  0.85075088913E+01  0.16435486467E+02 -0.28593557016E+01  0.72461579147E+02  0.70000011532E+02 0.  0.
        -12    1    1    2    0    0 -0.85075088913E+01 -0.16435486467E+02  0.28593557016E+01  0.18726420853E+02  0.00000000000E+00 0.  1.
         11    1    3    3    0    0  0.20008300150E+02 -0.14082582302E+02  0.76566851559E+01  0.25637395090E+02  0.51100000000E-03 0. -1.
        -11    1    3    3    0    0  0.10730951224E+02  0.13358103385E+02 -0.70454532052E+01  0.18526485132E+02  0.51100000000E-03 0.  1.
        -12    1    3    3    0    0 -0.22231742483E+02  0.17159965384E+02 -0.34705876523E+01  0.28297698925E+02  0.00000000000E+00 0.  1.
</event>
<event>
 7    1  0.2851651E-013  0.7246156E+02  0.7816164E-02  0.1226708E+00
        -11   -1    0    0    0    0  0.00000000000E+00  0.00000000000E+00  0.45593999997E+02  0.45594000000E+02  0.51100000000E-03 0.  1.
         11   -1    0    0    0    0 -0.00000000000E+00 -0.00000000000E+00 -0.45593999997E+02  0.45594000000E+02  0.51100000000E-03 0. -1.
    9900012    2    1    2    0    0 -0.89741495638E+01 -0.12670495130E+02 -0.10469132070E+02  0.72461560575E+02  0.69999987339E+02 0.  0.
        -12    1    1    2    0    0  0.89741495638E+01  0.12670495130E+02  0.10469132070E+02  0.18726439425E+02  0.00000000000E+00 0.  1.
         11    1    3    3    0    0 -0.18005582680E+02  0.46916907845E+01 -0.22307003074E+02  0.29048500072E+02  0.51100000000E-03 0. -1.
        -11    1    3    3    0    0 -0.14098686564E+02 -0.37795464819E+01  0.68747567509E+01  0.16134441889E+02  0.51100000000E-03 0.  1.
        -12    1    3    3    0    0  0.23130119680E+02 -0.13582639432E+02  0.49631142524E+01  0.27278618613E+02  0.00000000000E+00 0.  1.
</event>
<event>
 7    1  0.2851651E-013  0.7246157E+02  0.7816164E-02  0.1226708E+00
        -11   -1    0    0    0    0  0.00000000000E+00  0.00000000000E+00  0.45593999997E+02  0.45594000000E+02  0.51100000000E-03 0.  1.
         11   -1    0    0    0    0 -0.00000000000E+00 -0.00000000000E+00 -0.45593999997E+02  0.45594000000E+02  0.51100000000E-03 0. -1.
    9900012    2    1    2    0    0  0.10151994188E+02 -0.15661816891E+02  0.15243056516E+01  0.72461574766E+02  0.70000005825E+02 0.  0.
        -12    1    1    2    0    0 -0.10151994188E+02  0.15661816891E+02 -0.15243056516E+01  0.18726425234E+02  0.00000000000E+00 0.  1.
         11    1    3    3    0    0  0.15963067006E+02  0.18718048569E+01 -0.17459125526E+02  0.23730660043E+02  0.51100000000E-03 0. -1.
        -11    1    3    3    0    0 -0.10722643276E+02  0.11117545289E+02  0.36739696996E+01  0.15876805274E+02  0.51100000000E-03 0.  1.
        -12    1    3    3    0    0  0.49115704579E+01 -0.28651167038E+02  0.15309461478E+02  0.32854109450E+02  0.00000000000E+00 0.  1.
</event>
<event>
 7    1  0.2851651E-013  0.7246160E+02  0.7816164E-02  0.1226708E+00
        -11   -1    0    0    0    0  0.00000000000E+00  0.00000000000E+00  0.45593999997E+02  0.45594000000E+02  0.51100000000E-03 0.  1.
         11   -1    0    0    0    0 -0.00000000000E+00 -0.00000000000E+00 -0.45593999997E+02  0.45594000000E+02  0.51100000000E-03 0. -1.
    9900012    2    1    2    0    0  0.48910406146E+01  0.11068540743E+01 -0.18042468381E+02  0.72461599664E+02  0.70000038260E+02 0.  0.
        -12    1    1    2    0    0 -0.48910406146E+01 -0.11068540743E+01  0.18042468381E+02  0.18726400336E+02  0.00000000000E+00 0.  1.
         11    1    3    3    0    0  0.94548465002E+01  0.70094980354E+01  0.99012456809E+01  0.15380567328E+02  0.51100000000E-03 0. -1.
        -11    1    3    3    0    0  0.66063014850E+01 -0.43068705849E+01  0.12672857040E+02  0.14926274129E+02  0.51100000000E-03 0.  1.
         12    1    3    3    0    0 -0.11170107371E+02 -0.15957733762E+01 -0.40616571103E+02  0.42154758207E+02  0.00000000000E+00 0. -1.
</event>
<event>
 7    1  0.2851651E-013  0.7246156E+02  0.7816164E-02  0.1226708E+00
        -11   -1    0    0    0    0  0.00000000000E+00  0.00000000000E+00  0.45593999997E+02  0.45594000000E+02  0.51100000000E-03 0.  1.
         11   -1    0    0    0    0 -0.00000000000E+00 -0.00000000000E+00 -0.45593999997E+02  0.45594000000E+02  0.51100000000E-03 0. -1.
    9900012    2    1    2    0    0  0.12005856513E+02  0.14336694026E+02 -0.99908896811E+00  0.72461559736E+02  0.69999986245E+02 0.  0.
        -12    1    1    2    0    0 -0.12005856513E+02 -0.14336694026E+02  0.99908896811E+00  0.18726440264E+02  0.00000000000E+00 0.  1.
         11    1    3    3    0    0  0.56348835297E+01  0.13425862012E+02  0.15699761894E+02  0.21412337727E+02  0.51100000000E-03 0. -1.
        -11    1    3    3    0    0  0.21243782896E+02  0.11642947506E+02  0.26734268777E+01  0.24372192144E+02  0.51100000000E-03 0.  1.
         12    1    3    3    0    0 -0.14872809912E+02 -0.10732115492E+02 -0.19372277739E+02  0.26677029865E+02  0.00000000000E+00 0. -1.
</event>
<event>
 7    1  0.2851651E-013  0.7246155E+02  0.7816164E-02  0.1226708E+00
        -11   -1    0    0    0    0  0.00000000000E+00  0.00000000000E+00  0.45593999997E+02  0.45594000000E+02  0.51100000000E-03 0. -1.
         11   -1    0    0    0    0 -0.00000000000E+00 -0.00000000000E+00 -0.45593999997E+02  0.45594000000E+02  0.51100000000E-03 0.  1.
    9900012    2    1    2    0    0 -0.15600687810E+02 -0.64384960198E+01  0.81144543100E+01  0.72461546521E+02  0.69999969031E+02 0.  0.
        -12    1    1    2    0    0  0.15600687810E+02  0.64384960198E+01 -0.81144543100E+01  0.18726453479E+02  0.00000000000E+00 0.  1.
         11    1    3    3    0    0 -0.12847506069E+02 -0.31304900216E+02  0.32997040780E+01  0.33999165240E+02  0.51100000000E-03 0. -1.
        -11    1    3    3    0    0 -0.12381515520E+02  0.60724311075E+01 -0.56400983953E+01  0.14899230057E+02  0.51100000000E-03 0.  1.
        -12    1    3    3    0    0  0.96283337792E+01  0.18793973089E+02  0.10454848627E+02  0.23563151225E+02  0.00000000000E+00 0.  1.
</event>
<event>
 7    1  0.2851651E-013  0.7246151E+02  0.7816164E-02  0.1226708E+00
        -11   -1    0    0    0    0  0.00000000000E+00  0.00000000000E+00  0.45593999997E+02  0.45594000000E+02  0.51100000000E-03 0. -1.
         11   -1    0    0    0    0 -0.00000000000E+00 -0.00000000000E+00 -0.45593999997E+02  0.45594000000E+02  0.51100000000E-03 0.  1.
    9900012    2    1    2    0    0  0.44726118655E+01 -0.94494884667E+01  0.15536551818E+02  0.72461507227E+02  0.69999917843E+02 0.  0.
        -12    1    1    2    0    0 -0.44726118655E+01  0.94494884667E+01 -0.15536551818E+02  0.18726492773E+02  0.00000000000E+00 0.  1.
         11    1    3    3    0    0 -0.18096526347E+02 -0.12908851080E+02 -0.10766063166E+02  0.24698801963E+02  0.51100000000E-03 0. -1.
        -11    1    3    3    0    0 -0.39260556786E+01 -0.82322892901E+01  0.13032662628E+02  0.15907067473E+02  0.51100000000E-03 0.  1.
        -12    1    3    3    0    0  0.26495193891E+02  0.11691651904E+02  0.13269952356E+02  0.31855637791E+02  0.00000000000E+00 0.  1.
</event>
<event>
 7    1  0.2851651E-013  0.7246148E+02  0.7816164E-02  0.1226708E+00
        -11   -1    0    0    0    0  0.00000000000E+00  0.00000000000E+00  0.45593999997E+02  0.45594000000E+02  0.51100000000E-03 0.  1.
         11   -1    0    0    0    0 -0.00000000000E+00 -0.00000000000E+00 -0.45593999997E+02  0.45594000000E+02  0.51100000000E-03 0. -1.
    9900012    2    1    2    0    0 -0.16231743035E+02  0.62036678885E+01  0.69805105997E+01  0.72461481224E+02  0.69999883969E+02 0.  0.
        -12    1    1    2    0    0  0.16231743035E+02 -0.62036678885E+01 -0.69805105997E+01  0.18726518776E+02  0.00000000000E+00 0.  1.
         11    1    3    3    0    0 -0.12585504570E+02  0.29278465427E+00  0.79366037425E+01  0.14881879161E+02  0.51100000000E-03 0. -1.
        -11    1    3    3    0    0 -0.22218421073E+01 -0.23538382873E+02  0.10602099875E+02  0.25911321322E+02  0.51100000000E-03 0.  1.
         12    1    3    3    0    0 -0.14243963582E+01  0.29449266107E+02 -0.11558193018E+02  0.31668280741E+02  0.00000000000E+00 0. -1.
</event>
<event>
 7    1  0.3110944E-013  0.7246159E+02  0.7816164E-02  0.1226708E+00
        -11   -1    0    0    0    0  0.00000000000E+00  0.00000000000E+00  0.45593999997E+02  0.45594000000E+02  0.51100000000E-03 0.  1.
         11   -1    0    0    0    0 -0.00000000000E+00 -0.00000000000E+00 -0.45593999997E+02  0.45594000000E+02  0.51100000000E-03 0. -1.
    9900012    2    1    2    0    0  0.23471053085E+01  0.14039250776E+02 -0.12168357379E+02  0.72461591188E+02  0.70000027218E+02 0.  0.
        -12    1    1    2    0    0 -0.23471053085E+01 -0.14039250776E+02  0.12168357379E+02  0.18726408812E+02  0.00000000000E+00 0.  1.
         11    1    3    3    0    0  0.44294238807E+01 -0.53188916985E+01  0.94075027600E+00  0.69853715834E+01  0.51100000000E-03 0. -1.
        -11    1    3    3    0    0 -0.34919991493E+01 -0.20515179443E+02  0.53915307801E+01  0.21497331231E+02  0.51100000000E-03 0.  1.
         12    1    3    3    0    0  0.14096805771E+01  0.39873321918E+02 -0.18500638435E+02  0.43978888374E+02  0.00000000000E+00 0. -1.
</event>
<event>
 7    1  0.2851651E-013  0.7246159E+02  0.7816164E-02  0.1226708E+00
        -11   -1    0    0    0    0  0.00000000000E+00  0.00000000000E+00  0.45593999997E+02  0.45594000000E+02  0.51100000000E-03 0. -1.
         11   -1    0    0    0    0 -0.00000000000E+00 -0.00000000000E+00 -0.45593999997E+02  0.45594000000E+02  0.51100000000E-03 0.  1.
    9900012    2    1    2    0    0 -0.17031986359E+02 -0.76841090431E+01 -0.12427205684E+01  0.72461589625E+02  0.70000025182E+02 0.  0.
        -12    1    1    2    0    0  0.17031986359E+02  0.76841090431E+01  0.12427205684E+01  0.18726410375E+02  0.00000000000E+00 0.  1.
         11    1    3    3    0    0 -0.10552349039E+02 -0.13140587921E+02 -0.13925584520E+02  0.21862045321E+02  0.51100000000E-03 0. -1.
        -11    1    3    3    0    0  0.11802773621E+01  0.17623063778E+02 -0.12474670864E+02  0.21623664005E+02  0.51100000000E-03 0.  1.
         12    1    3    3    0    0 -0.76599146824E+01 -0.12166584900E+02  0.25157534816E+02  0.28975880299E+02  0.00000000000E+00 0. -1.
</event>
<event>
 7    1  0.2851651E-013  0.7246159E+02  0.7816164E-02  0.1226708E+00
        -11   -1    0    0    0    0  0.00000000000E+00  0.00000000000E+00  0.45593999997E+02  0.45594000000E+02  0.51100000000E-03 0. -1.
         11   -1    0    0    0    0 -0.00000000000E+00 -0.00000000000E+00 -0.45593999997E+02  0.45594000000E+02  0.51100000000E-03 0.  1.
    9900012    2    1    2    0    0  0.42746720293E+01 -0.25985843649E+01  0.18045861902E+02  0.72461585676E+02  0.70000020037E+02 0.  0.
        -12    1    1    2    0    0 -0.42746720293E+01  0.25985843649E+01 -0.18045861902E+02  0.18726414324E+02  0.00000000000E+00 0.  1.
         11    1    3    3    0    0  0.93054396340E+01  0.23567576131E+00  0.36965008414E+02  0.38119005721E+02  0.51100000000E-03 0. -1.
        -11    1    3    3    0    0  0.82433376980E+01  0.66180681398E+01 -0.18285349955E+01  0.10728232976E+02  0.51100000000E-03 0.  1.
        -12    1    3    3    0    0 -0.13274105303E+02 -0.94523282660E+01 -0.17090611516E+02  0.23614346979E+02  0.00000000000E+00 0.  1.
</event>
<event>
 7    1  0.2979663E-013  0.7246155E+02  0.7816164E-02  0.1226708E+00
        -11   -1    0    0    0    0  0.00000000000E+00  0.00000000000E+00  0.45593999997E+02  0.45594000000E+02  0.51100000000E-03 0. -1.
         11   -1    0    0    0    0 -0.00000000000E+00 -0.00000000000E+00 -0.45593999997E+02  0.45594000000E+02  0.51100000000E-03 0.  1.
    9900012    2    1    2    0    0  0.12979952688E+02 -0.91713718985E+01  0.99038773929E+01  0.72461547541E+02  0.69999970359E+02 0.  0.
        -12    1    1    2    0    0 -0.12979952688E+02  0.91713718985E+01 -0.99038773929E+01  0.18726452459E+02  0.00000000000E+00 0.  1.
         11    1    3    3    0    0 -0.23237436426E+01 -0.23782096168E+01  0.89393061372E+01  0.95376548467E+01  0.51100000000E-03 0. -1.
        -11    1    3    3    0    0 -0.10228181646E+01 -0.32471135189E+02  0.38121893624E+00  0.32489476844E+02  0.51100000000E-03 0.  1.
         12    1    3    3    0    0  0.16326514495E+02  0.25677972908E+02  0.58335231941E+00  0.30434415850E+02  0.00000000000E+00 0. -1.
</event>
<event>
 7    1  0.2851651E-013  0.7246158E+02  0.7816164E-02  0.1226708E+00
        -11   -1    0    0    0    0  0.00000000000E+00  0.00000000000E+00  0.45593999997E+02  0.45594000000E+02  0.51100000000E-03 0.  1.
         11   -1    0    0    0    0 -0.00000000000E+00 -0.00000000000E+00 -0.45593999997E+02  0.45594000000E+02  0.51100000000E-03 0. -1.
    9900012    2    1    2    0    0 -0.44257287120E+01  0.71909478531E+01 -0.16714722682E+02  0.72461581229E+02  0.70000014244E+02 0.  0.
        -12    1    1    2    0    0  0.44257287120E+01 -0.71909478531E+01  0.16714722682E+02  0.18726418771E+02  0.00000000000E+00 0.  1.
         11    1    3    3    0    0 -0.13684042522E+02  0.50221943920E+01  0.20200573029E+01  0.14715844795E+02  0.51100000000E-03 0.  1.
        -11    1    3    3    0    0  0.22067531213E+02  0.20514622280E+02 -0.27663532469E+01  0.30256873131E+02  0.51100000000E-03 0. -1.
         12    1    3    3    0    0 -0.12809217403E+02 -0.18345868819E+02 -0.15968426738E+02  0.27488863303E+02  0.00000000000E+00 0. -1.
</event>
<event>
 7    1  0.2851651E-013  0.7246154E+02  0.7816164E-02  0.1226708E+00
        -11   -1    0    0    0    0  0.00000000000E+00  0.00000000000E+00  0.45593999997E+02  0.45594000000E+02  0.51100000000E-03 0.  1.
         11   -1    0    0    0    0 -0.00000000000E+00 -0.00000000000E+00 -0.45593999997E+02  0.45594000000E+02  0.51100000000E-03 0. -1.
    9900012    2    1    2    0    0  0.53740665376E+01  0.96148344428E+01 -0.15144455450E+02  0.72461543758E+02  0.69999965432E+02 0.  0.
        -12    1    1    2    0    0 -0.53740665376E+01 -0.96148344428E+01  0.15144455450E+02  0.18726456242E+02  0.00000000000E+00 0.  1.
         11    1    3    3    0    0  0.15563330544E+02  0.10647287729E+02  0.16480532736E+02  0.25043760763E+02  0.51100000000E-03 0. -1.
        -11    1    3    3    0    0 -0.53955967009E+01  0.13528009267E+02 -0.28880742476E+01  0.14847911355E+02  0.51100000000E-03 0.  1.
         12    1    3    3    0    0 -0.47936673052E+01 -0.14560462553E+02 -0.28736913938E+02  0.32569871641E+02  0.00000000000E+00 0. -1.
</event>
<event>
 7    1  0.2851651E-013  0.7246155E+02  0.7816164E-02  0.1226708E+00
        -11   -1    0    0    0    0  0.00000000000E+00  0.00000000000E+00  0.45593999997E+02  0.45594000000E+02  0.51100000000E-03 0.  1.
         11   -1    0    0    0    0 -0.00000000000E+00 -0.00000000000E+00 -0.45593999997E+02  0.45594000000E+02  0.51100000000E-03 0. -1.
    9900012    2    1    2    0    0  0.25617642235E+01  0.13809934907E+02 -0.12385590217E+02  0.72461553912E+02  0.69999978659E+02 0.  0.
        -12    1    1    2    0    0 -0.25617642235E+01 -0.13809934907E+02  0.12385590217E+02  0.18726446088E+02  0.00000000000E+00 0.  1.
         11    1    3    3    0    0  0.43812511686E+01 -0.20316079231E+02 -0.22112771255E+02  0.30346549885E+02  0.51100000000E-03 0. -1.
        -11    1    3    3    0    0 -0.71452980547E+01  0.22625474632E+01  0.59891437296E+01  0.95939693656E+01  0.51100000000E-03 0.  1.
        -12    1    3    3    0    0  0.53258111096E+01  0.31863466675E+02  0.37380373081E+01  0.32521034661E+02  0.00000000000E+00 0.  1.
</event>
<event>
 7    1  0.2851651E-013  0.7246155E+02  0.7816164E-02  0.1226708E+00
        -11   -1    0    0    0    0  0.00000000000E+00  0.00000000000E+00  0.45593999997E+02  0.45594000000E+02  0.51100000000E-03 0. -1.
         11   -1    0    0    0    0 -0.00000000000E+00 -0.00000000000E+00 -0.45593999997E+02  0.45594000000E+02  0.51100000000E-03 0.  1.
    9900012    2    1    2    0    0  0.11635771089E+02 -0.13072560468E+02  0.66630919651E+01  0.72461553445E+02  0.69999978051E+02 0.  0.
        -12    1    1    2    0    0 -0.11635771089E+02  0.13072560468E+02 -0.66630919651E+01  0.18726446555E+02  0.00000000000E+00 0.  1.
         11    1    3    3    0    0  0.16314693338E+02 -0.12368458032E+02  0.25163286263E+02  0.32439774176E+02  0.51100000000E-03 0. -1.
        -11    1    3    3    0    0  0.98613753197E+01  0.25983023892E+01  0.56357187592E+01  0.11651576061E+02  0.51100000000E-03 0.  1.
        -12    1    3    3    0    0 -0.14540297568E+02 -0.33024048255E+01 -0.24135913057E+02  0.28370203209E+02  0.00000000000E+00 0.  1.
</event>
<event>
 7    1  0.2851651E-013  0.7246093E+02  0.7816164E-02  0.1226710E+00
        -11   -1    0    0    0    0  0.00000000000E+00  0.00000000000E+00  0.45593999997E+02  0.45594000000E+02  0.51100000000E-03 0. -1.
         11   -1    0    0    0    0 -0.00000000000E+00 -0.00000000000E+00 -0.45593999997E+02  0.45594000000E+02  0.51100000000E-03 0.  1.
    9900012    2    1    2    0    0  0.14517544435E+02 -0.11427092658E+02  0.30603332687E+01  0.72460929146E+02  0.69999164780E+02 0.  0.
        -12    1    1    2    0    0 -0.14517544435E+02  0.11427092658E+02 -0.30603332687E+01  0.18727070854E+02  0.00000000000E+00 0.  1.
         11    1    3    3    0    0 -0.45023208481E+01  0.42737953102E+01  0.89322007103E+00  0.62716873112E+01  0.51100000000E-03 0. -1.
        -11    1    3    3    0    0  0.26724256796E+02  0.16783505983E+02  0.73545448978E+01  0.32403106415E+02  0.51100000000E-03 0.  1.
        -12    1    3    3    0    0 -0.77043915131E+01 -0.32484393952E+02 -0.51874317001E+01  0.33786135420E+02  0.00000000000E+00 0.  1.
</event>
<event>
 7    1  0.2851651E-013  0.7246151E+02  0.7816164E-02  0.1226708E+00
        -11   -1    0    0    0    0  0.00000000000E+00  0.00000000000E+00  0.45593999997E+02  0.45594000000E+02  0.51100000000E-03 0.  1.
         11   -1    0    0    0    0 -0.00000000000E+00 -0.00000000000E+00 -0.45593999997E+02  0.45594000000E+02  0.51100000000E-03 0. -1.
    9900012    2    1    2    0    0  0.15953662612E+02  0.63040011718E+00 -0.97859485776E+01  0.72461506879E+02  0.69999917390E+02 0.  0.
        -12    1    1    2    0    0 -0.15953662612E+02 -0.63040011718E+00  0.97859485776E+01  0.18726493121E+02  0.00000000000E+00 0.  1.
         11    1    3    3    0    0  0.91238868064E+01  0.13998775981E+02  0.13940472862E+02  0.21761153998E+02  0.51100000000E-03 0. -1.
        -11    1    3    3    0    0  0.68639920660E+01  0.92028162733E+01  0.63318422994E+01  0.13111004600E+02  0.51100000000E-03 0.  1.
         12    1    3    3    0    0 -0.34216260750E-01 -0.22571192137E+02 -0.30058263740E+02  0.37589348282E+02  0.00000000000E+00 0. -1.
</event>
<event>
 7    1  0.2851651E-013  0.7246152E+02  0.7816164E-02  0.1226708E+00
        -11   -1    0    0    0    0  0.00000000000E+00  0.00000000000E+00  0.45593999997E+02  0.45594000000E+02  0.51100000000E-03 0.  1.
         11   -1    0    0    0    0 -0.00000000000E+00 -0.00000000000E+00 -0.45593999997E+02  0.45594000000E+02  0.51100000000E-03 0. -1.
    9900012    2    1    2    0    0 -0.16494497602E+02  0.87799235864E+01  0.12351263822E+01  0.72461520179E+02  0.69999934715E+02 0.  0.
        -12    1    1    2    0    0  0.16494497602E+02 -0.87799235864E+01 -0.12351263822E+01  0.18726479821E+02  0.00000000000E+00 0.  1.
         11    1    3    3    0    0 -0.20223929089E+01 -0.12945084228E+02 -0.15389696353E+02  0.20211581651E+02  0.51100000000E-03 0. -1.
        -11    1    3    3    0    0 -0.17175875227E+01 -0.11558383201E+02 -0.22763696767E+01  0.11904964859E+02  0.51100000000E-03 0.  1.
        -12    1    3    3    0    0 -0.12754517170E+02  0.33283391016E+02  0.18901192412E+02  0.40344973669E+02  0.00000000000E+00 0.  1.
</event>
<event>
 7    1  0.2851651E-013  0.7246162E+02  0.7816164E-02  0.1226708E+00
        -11   -1    0    0    0    0  0.00000000000E+00  0.00000000000E+00  0.45593999997E+02  0.45594000000E+02  0.51100000000E-03 0.  1.
         11   -1    0    0    0    0 -0.00000000000E+00 -0.00000000000E+00 -0.45593999997E+02  0.45594000000E+02  0.51100000000E-03 0. -1.
    9900012    2    1    2    0    0 -0.13793250501E+02 -0.90119568841E+01 -0.88998916803E+01  0.72461622930E+02  0.70000068567E+02 0.  0.
        -12    1    1    2    0    0  0.13793250501E+02  0.90119568841E+01  0.88998916803E+01  0.18726377070E+02  0.00000000000E+00 0.  1.
         11    1    3    3    0    0  0.15760792329E+01  0.20000632582E+02 -0.52014737903E+01  0.20725941699E+02  0.51100000000E-03 0. -1.
        -11    1    3    3    0    0  0.68705151719E+01  0.66555075855E+01 -0.94120396261E+00  0.96117441242E+01  0.51100000000E-03 0.  1.
        -12    1    3    3    0    0 -0.22239844905E+02 -0.35668097052E+02 -0.27572139274E+01  0.42123937107E+02  0.00000000000E+00 0.  1.
</event>
<event>
 7    1  0.2851651E-013  0.7246211E+02  0.7816164E-02  0.1226707E+00
        -11   -1    0    0    0    0  0.00000000000E+00  0.00000000000E+00  0.45593999997E+02  0.45594000000E+02  0.51100000000E-03 0.  1.
         11   -1    0    0    0    0 -0.00000000000E+00 -0.00000000000E+00 -0.45593999997E+02  0.45594000000E+02  0.51100000000E-03 0. -1.
    9900012    2    1    2    0    0 -0.43301820249E+01 -0.17527255082E+02  0.49702894043E+01  0.72462110867E+02  0.70000704192E+02 0.  0.
        -12    1    1    2    0    0  0.43301820249E+01  0.17527255082E+02 -0.49702894043E+01  0.18725889133E+02  0.00000000000E+00 0.  1.
         11    1    3    3    0    0  0.23823413667E+02 -0.12773140742E+02  0.59187803399E+01  0.27672009760E+02  0.51100000000E-03 0. -1.
        -11    1    3    3    0    0  0.40389835204E+01  0.30454803113E+01 -0.93381182814E+01  0.10620206754E+02  0.51100000000E-03 0.  1.
         12    1    3    3    0    0 -0.32192579212E+02 -0.77995946511E+01  0.83896273458E+01  0.34169894353E+02  0.00000000000E+00 0. -1.
</event>
<event>
 7    1  0.2851651E-013  0.7246156E+02  0.7816164E-02  0.1226708E+00
        -11   -1    0    0    0    0  0.00000000000E+00  0.00000000000E+00  0.45593999997E+02  0.45594000000E+02  0.51100000000E-03 0.  1.
         11   -1    0    0    0    0 -0.00000000000E+00 -0.00000000000E+00 -0.45593999997E+02  0.45594000000E+02  0.51100000000E-03 0. -1.
    9900012    2    1    2    0    0  0.57785114192E+01  0.74775931358E+01 -0.16167068750E+02  0.72461555989E+02  0.69999981365E+02 0.  0.
        -12    1    1    2    0    0 -0.57785114192E+01 -0.74775931358E+01  0.16167068750E+02  0.18726444011E+02  0.00000000000E+00 0.  1.
         11    1    3    3    0    0 -0.38189545282E+01  0.14388959261E+02 -0.82190122825E+00  0.14909798261E+02  0.51100000000E-03 0. -1.
        -11    1    3    3    0    0 -0.20262661144E+01 -0.14536498924E+02  0.16932259179E+02  0.22407966362E+02  0.51100000000E-03 0.  1.
         12    1    3    3    0    0  0.11623732062E+02  0.76251327988E+01 -0.32277426700E+02  0.35143791367E+02  0.00000000000E+00 0. -1.
</event>
<event>
 7    1  0.2851651E-013  0.7246154E+02  0.7816164E-02  0.1226708E+00
        -11   -1    0    0    0    0  0.00000000000E+00  0.00000000000E+00  0.45593999997E+02  0.45594000000E+02  0.51100000000E-03 0.  1.
         11   -1    0    0    0    0 -0.00000000000E+00 -0.00000000000E+00 -0.45593999997E+02  0.45594000000E+02  0.51100000000E-03 0. -1.
    9900012    2    1    2    0    0  0.13892390242E+01 -0.54742180808E+01 -0.17854500181E+02  0.72461542102E+02  0.69999963275E+02 0.  0.
        -12    1    1    2    0    0 -0.13892390242E+01  0.54742180808E+01  0.17854500181E+02  0.18726457898E+02  0.00000000000E+00 0.  1.
         11    1    3    3    0    0 -0.17179871345E+02 -0.15631780917E+02  0.21765388531E+01  0.23328906441E+02  0.51100000000E-03 0. -1.
        -11    1    3    3    0    0 -0.10948137662E+02  0.10693767910E+02 -0.77982502303E+01  0.17176469291E+02  0.51100000000E-03 0.  1.
         12    1    3    3    0    0  0.29517248031E+02 -0.53620507389E+00 -0.12232788804E+02  0.31956166371E+02  0.00000000000E+00 0. -1.
</event>
<event>
 7    1  0.2851651E-013  0.7246160E+02  0.7816164E-02  0.1226708E+00
        -11   -1    0    0    0    0  0.00000000000E+00  0.00000000000E+00  0.45593999997E+02  0.45594000000E+02  0.51100000000E-03 0.  1.
         11   -1    0    0    0    0 -0.00000000000E+00 -0.00000000000E+00 -0.45593999997E+02  0.45594000000E+02  0.51100000000E-03 0. -1.
    9900012    2    1    2    0    0 -0.26058570357E+01 -0.58696565975E+01 -0.17590750838E+02  0.72461604872E+02  0.70000045043E+02 0.  0.
        -12    1    1    2    0    0  0.26058570357E+01  0.58696565975E+01  0.17590750838E+02  0.18726395128E+02  0.00000000000E+00 0.  1.
         11    1    3    3    0    0  0.15637094689E+02 -0.15059413859E+02 -0.94255782153E+01  0.23667407991E+02  0.51100000000E-03 0. -1.
        -11    1    3    3    0    0 -0.11293798657E+01  0.10721822916E+02  0.15908665773E+02  0.19217664595E+02  0.51100000000E-03 0.  1.
        -12    1    3    3    0    0 -0.17113571859E+02 -0.15320656543E+01 -0.24073838396E+02  0.29576532286E+02  0.00000000000E+00 0.  1.
</event>
<event>
 7    1  0.2851651E-013  0.7246155E+02  0.7816164E-02  0.1226708E+00
        -11   -1    0    0    0    0  0.00000000000E+00  0.00000000000E+00  0.45593999997E+02  0.45594000000E+02  0.51100000000E-03 0.  1.
         11   -1    0    0    0    0 -0.00000000000E+00 -0.00000000000E+00 -0.45593999997E+02  0.45594000000E+02  0.51100000000E-03 0. -1.
    9900012    2    1    2    0    0  0.92151441303E+01  0.13697031480E+02 -0.88403766390E+01  0.72461553145E+02  0.69999977660E+02 0.  0.
        -12    1    1    2    0    0 -0.92151441303E+01 -0.13697031480E+02  0.88403766390E+01  0.18726446855E+02  0.00000000000E+00 0.  1.
         11    1    3    3    0    0  0.34841608082E+01  0.60519245371E+00 -0.56723745176E+01  0.66844197484E+01  0.51100000000E-03 0. -1.
        -11    1    3    3    0    0  0.59642808002E+01 -0.15012183104E+02 -0.25291025311E+02  0.30009569283E+02  0.51100000000E-03 0.  1.
         12    1    3    3    0    0 -0.23329747814E+00  0.28104022130E+02  0.22123023190E+02  0.35767564114E+02  0.00000000000E+00 0. -1.
</event>
<event>
 7    1  0.2851651E-013  0.7246158E+02  0.7816164E-02  0.1226708E+00
        -11   -1    0    0    0    0  0.00000000000E+00  0.00000000000E+00  0.45593999997E+02  0.45594000000E+02  0.51100000000E-03 0. -1.
         11   -1    0    0    0    0 -0.00000000000E+00 -0.00000000000E+00 -0.45593999997E+02  0.45594000000E+02  0.51100000000E-03 0.  1.
    9900012    2    1    2    0    0 -0.81930363558E+01  0.96280751379E+01  0.13814956216E+02  0.72461583075E+02  0.70000016649E+02 0.  0.
        -12    1    1    2    0    0  0.81930363558E+01 -0.96280751379E+01 -0.13814956216E+02  0.18726416925E+02  0.00000000000E+00 0.  1.
         11    1    3    3    0    0  0.72468355940E+01  0.29215899847E+02  0.14676705569E+02  0.33488671467E+02  0.51100000000E-03 0. -1.
        -11    1    3    3    0    0  0.41400228030E+01 -0.10518718237E+02 -0.10418588991E+02  0.15373035451E+02  0.51100000000E-03 0.  1.
        -12    1    3    3    0    0 -0.19579894753E+02 -0.90691064727E+01  0.95568396377E+01  0.23599876157E+02  0.00000000000E+00 0.  1.
</event>
<event>
 7    1  0.2851651E-013  0.7246162E+02  0.7816164E-02  0.1226708E+00
        -11   -1    0    0    0    0  0.00000000000E+00  0.00000000000E+00  0.45593999997E+02  0.45594000000E+02  0.51100000000E-03 0.  1.
         11   -1    0    0    0    0 -0.00000000000E+00 -0.00000000000E+00 -0.45593999997E+02  0.45594000000E+02  0.51100000000E-03 0. -1.
    9900012    2    1    2    0    0  0.13898597619E+02 -0.17662299400E+01 -0.12425243568E+02  0.72461621234E+02  0.70000066358E+02 0.  0.
        -12    1    1    2    0    0 -0.13898597619E+02  0.17662299400E+01  0.12425243568E+02  0.18726378766E+02  0.00000000000E+00 0.  1.
         11    1    3    3    0    0 -0.13868706493E+01  0.40983624091E+01 -0.16310495673E+02  0.16874603817E+02  0.51100000000E-03 0. -1.
        -11    1    3    3    0    0  0.31995718944E+01  0.24066552178E+01 -0.23870791639E+02  0.24204213339E+02  0.51100000000E-03 0.  1.
        -12    1    3    3    0    0  0.12085896374E+02 -0.82712475669E+01  0.27756043744E+02  0.31382804078E+02  0.00000000000E+00 0.  1.
</event>
<event>
 7    1  0.2851651E-013  0.7246160E+02  0.7816164E-02  0.1226708E+00
        -11   -1    0    0    0    0  0.00000000000E+00  0.00000000000E+00  0.45593999997E+02  0.45594000000E+02  0.51100000000E-03 0. -1.
         11   -1    0    0    0    0 -0.00000000000E+00 -0.00000000000E+00 -0.45593999997E+02  0.45594000000E+02  0.51100000000E-03 0.  1.
    9900012    2    1    2    0    0  0.25214729798E+01  0.14275703106E+02  0.11854300057E+02  0.72461602723E+02  0.70000042244E+02 0.  0.
        -12    1    1    2    0    0 -0.25214729798E+01 -0.14275703106E+02 -0.11854300057E+02  0.18726397277E+02  0.00000000000E+00 0.  1.
         11    1    3    3    0    0  0.56725986904E+01 -0.62000762092E+01  0.28334458669E+01  0.88683559155E+01  0.51100000000E-03 0. -1.
        -11    1    3    3    0    0  0.27820535000E+01 -0.20523359548E+02  0.78550611543E+01  0.22150622899E+02  0.51100000000E-03 0.  1.
         12    1    3    3    0    0 -0.59331792107E+01  0.40999138863E+02  0.11657930356E+01  0.41442623908E+02  0.00000000000E+00 0. -1.
</event>
<event>
 7    1  0.2851651E-013  0.7246177E+02  0.7816164E-02  0.1226707E+00
        -11   -1    0    0    0    0  0.00000000000E+00  0.00000000000E+00  0.45593999997E+02  0.45594000000E+02  0.51100000000E-03 0.  1.
         11   -1    0    0    0    0 -0.00000000000E+00 -0.00000000000E+00 -0.45593999997E+02  0.45594000000E+02  0.51100000000E-03 0. -1.
    9900012    2    1    2    0    0  0.16298222871E+02  0.21212478335E+01  0.89743946855E+01  0.72461774510E+02  0.70000266028E+02 0.  0.
        -12    1    1    2    0    0 -0.16298222871E+02 -0.21212478335E+01 -0.89743946855E+01  0.18726225490E+02  0.00000000000E+00 0.  1.
         11    1    3    3    0    0  0.24953434902E+01  0.86748569208E+01 -0.11010180495E+02  0.14237413969E+02  0.51100000000E-03 0. -1.
        -11    1    3    3    0    0  0.50380940475E+01 -0.29099114069E+02  0.16372614692E+02  0.33766897153E+02  0.51100000000E-03 0.  1.
         12    1    3    3    0    0  0.87647853337E+01  0.22545504982E+02  0.36119604881E+01  0.24457463388E+02  0.00000000000E+00 0. -1.
</event>
<event>
 7    1  0.3766678E-013  0.7246163E+02  0.7816164E-02  0.1226708E+00
        -11   -1    0    0    0    0  0.00000000000E+00  0.00000000000E+00  0.45593999997E+02  0.45594000000E+02  0.51100000000E-03 0. -1.
         11   -1    0    0    0    0 -0.00000000000E+00 -0.00000000000E+00 -0.45593999997E+02  0.45594000000E+02  0.51100000000E-03 0.  1.
    9900012    2    1    2    0    0 -0.75917462065E+01  0.96706663787E+01  0.14125178003E+02  0.72461626825E+02  0.70000073642E+02 0.  0.
        -12    1    1    2    0    0  0.75917462065E+01 -0.96706663787E+01 -0.14125178003E+02  0.18726373175E+02  0.00000000000E+00 0.  1.
         11    1    3    3    0    0  0.94681771681E+00  0.16086514935E+01  0.76059588525E+01  0.78316558749E+01  0.51100000000E-03 0. -1.
        -11    1    3    3    0    0  0.19857729895E+02 -0.16891032352E+02 -0.99237753140E+00  0.26088718327E+02  0.51100000000E-03 0.  1.
         12    1    3    3    0    0 -0.28396293819E+02  0.24953047237E+02  0.75115966818E+01  0.38541252623E+02  0.00000000000E+00 0. -1.
</event>
<event>
 7    1  0.2851651E-013  0.7246178E+02  0.7816164E-02  0.1226707E+00
        -11   -1    0    0    0    0  0.00000000000E+00  0.00000000000E+00  0.45593999997E+02  0.45594000000E+02  0.51100000000E-03 0.  1.
         11   -1    0    0    0    0 -0.00000000000E+00 -0.00000000000E+00 -0.45593999997E+02  0.45594000000E+02  0.51100000000E-03 0. -1.
    9900012    2    1    2    0    0 -0.78054680657E+01 -0.15741096068E+02 -0.64779660948E+01  0.72461775558E+02  0.70000267393E+02 0.  0.
        -12    1    1    2    0    0  0.78054680657E+01  0.15741096068E+02  0.64779660948E+01  0.18726224442E+02  0.00000000000E+00 0.  1.
         11    1    3    3    0    0  0.10999862737E+02  0.17374055004E+02 -0.44758551903E+01  0.21044905499E+02  0.51100000000E-03 0. -1.
        -11    1    3    3    0    0 -0.76878584009E+01  0.16668997646E+01  0.10231911527E+02  0.12906344772E+02  0.51100000000E-03 0.  1.
         12    1    3    3    0    0 -0.11117472401E+02 -0.34782050837E+02 -0.12234022432E+02  0.38510525287E+02  0.00000000000E+00 0. -1.
</event>
<event>
 7    1  0.2851651E-013  0.7246160E+02  0.7816164E-02  0.1226708E+00
        -11   -1    0    0    0    0  0.00000000000E+00  0.00000000000E+00  0.45593999997E+02  0.45594000000E+02  0.51100000000E-03 0.  1.
         11   -1    0    0    0    0 -0.00000000000E+00 -0.00000000000E+00 -0.45593999997E+02  0.45594000000E+02  0.51100000000E-03 0. -1.
    9900012    2    1    2    0    0  0.15637104864E+02 -0.95230056057E+01 -0.39333833459E+01  0.72461596479E+02  0.70000034110E+02 0.  0.
        -12    1    1    2    0    0 -0.15637104864E+02  0.95230056057E+01  0.39333833459E+01  0.18726403521E+02  0.00000000000E+00 0.  1.
         11    1    3    3    0    0  0.54086377503E+01  0.50887197600E+00 -0.14967815482E+01  0.56349506002E+01  0.51100000000E-03 0. -1.
        -11    1    3    3    0    0  0.20927533644E+02 -0.28320428142E+02  0.16057795796E+02  0.38702210798E+02  0.51100000000E-03 0.  1.
         12    1    3    3    0    0 -0.10699066531E+02  0.18288550561E+02 -0.18494397594E+02  0.28124435080E+02  0.00000000000E+00 0. -1.
</event>
<event>
 7    1  0.2851651E-013  0.7246157E+02  0.7816164E-02  0.1226708E+00
        -11   -1    0    0    0    0  0.00000000000E+00  0.00000000000E+00  0.45593999997E+02  0.45594000000E+02  0.51100000000E-03 0.  1.
         11   -1    0    0    0    0 -0.00000000000E+00 -0.00000000000E+00 -0.45593999997E+02  0.45594000000E+02  0.51100000000E-03 0. -1.
    9900012    2    1    2    0    0 -0.12354094208E+02 -0.61909770450E+00 -0.14059591771E+02  0.72461573581E+02  0.70000004281E+02 0.  0.
        -12    1    1    2    0    0  0.12354094208E+02  0.61909770450E+00  0.14059591771E+02  0.18726426419E+02  0.00000000000E+00 0.  1.
         11    1    3    3    0    0  0.37545132111E+01  0.83467964291E+01 -0.14882925316E+01  0.92725614046E+01  0.51100000000E-03 0. -1.
        -11    1    3    3    0    0  0.18658468295E+02  0.10597455408E+02 -0.33239473759E+00  0.21460544885E+02  0.51100000000E-03 0.  1.
         12    1    3    3    0    0 -0.34767075714E+02 -0.19563349542E+02 -0.12238904502E+02  0.41728467291E+02  0.00000000000E+00 0. -1.
</event>
<event>
 7    1  0.2851651E-013  0.7246158E+02  0.7816164E-02  0.1226708E+00
        -11   -1    0    0    0    0  0.00000000000E+00  0.00000000000E+00  0.45593999997E+02  0.45594000000E+02  0.51100000000E-03 0.  1.
         11   -1    0    0    0    0 -0.00000000000E+00 -0.00000000000E+00 -0.45593999997E+02  0.45594000000E+02  0.51100000000E-03 0. -1.
    9900012    2    1    2    0    0 -0.93129686602E+00  0.14577255590E+02 -0.11718159026E+02  0.72461576280E+02  0.70000007798E+02 0.  0.
        -12    1    1    2    0    0  0.93129686602E+00 -0.14577255590E+02  0.11718159026E+02  0.18726423720E+02  0.00000000000E+00 0.  1.
         11    1    3    3    0    0  0.31811331926E+01 -0.57336162136E+01  0.67655652775E+00  0.65917897623E+01  0.51100000000E-03 0. -1.
        -11    1    3    3    0    0  0.12123268953E+02 -0.15274310796E+02  0.87866400143E+01  0.21388858394E+02  0.51100000000E-03 0.  1.
         12    1    3    3    0    0 -0.16235699011E+02  0.35585182600E+02 -0.21181355568E+02  0.44480928124E+02  0.00000000000E+00 0. -1.
</event>
<event>
 7    1  0.2851651E-013  0.7246157E+02  0.7816164E-02  0.1226708E+00
        -11   -1    0    0    0    0  0.00000000000E+00  0.00000000000E+00  0.45593999997E+02  0.45594000000E+02  0.51100000000E-03 0. -1.
         11   -1    0    0    0    0 -0.00000000000E+00 -0.00000000000E+00 -0.45593999997E+02  0.45594000000E+02  0.51100000000E-03 0.  1.
    9900012    2    1    2    0    0 -0.29313016669E+01 -0.47476028228E+00  0.18489493981E+02  0.72461566424E+02  0.69999994958E+02 0.  0.
        -12    1    1    2    0    0  0.29313016669E+01  0.47476028228E+00 -0.18489493981E+02  0.18726433576E+02  0.00000000000E+00 0.  1.
         11    1    3    3    0    0 -0.90684283278E+01  0.29555235455E+02  0.59296335753E+01  0.31478705338E+02  0.51100000000E-03 0. -1.
        -11    1    3    3    0    0  0.60710872640E+01  0.13614654221E+01  0.65260470801E+01  0.90167055744E+01  0.51100000000E-03 0.  1.
        -12    1    3    3    0    0  0.66039396919E-01 -0.31391461160E+02  0.60338133258E+01  0.31966155512E+02  0.00000000000E+00 0.  1.
</event>
<event>
 7    1  0.2851651E-013  0.7246157E+02  0.7816164E-02  0.1226708E+00
        -11   -1    0    0    0    0  0.00000000000E+00  0.00000000000E+00  0.45593999997E+02  0.45594000000E+02  0.51100000000E-03 0. -1.
         11   -1    0    0    0    0 -0.00000000000E+00 -0.00000000000E+00 -0.45593999997E+02  0.45594000000E+02  0.51100000000E-03 0.  1.
    9900012    2    1    2    0    0 -0.11546836149E+02 -0.14539561734E+02 -0.24394624369E+01  0.72461567947E+02  0.69999996942E+02 0.  0.
        -12    1    1    2    0    0  0.11546836149E+02  0.14539561734E+02  0.24394624369E+01  0.18726432053E+02  0.00000000000E+00 0.  1.
         11    1    3    3    0    0 -0.10942080763E+02  0.21168884131E+02  0.81875854761E+01  0.25196970909E+02  0.51100000000E-03 0. -1.
        -11    1    3    3    0    0  0.11237537934E+01  0.31817824139E+01  0.43925030675E+01  0.55390112274E+01  0.51100000000E-03 0.  1.
        -12    1    3    3    0    0 -0.17285091795E+01 -0.38890228279E+02 -0.15019550981E+02  0.41725585811E+02  0.00000000000E+00 0.  1.
</event>
<event>
 7    1  0.2851651E-013  0.7246157E+02  0.7816164E-02  0.1226708E+00
        -11   -1    0    0    0    0  0.00000000000E+00  0.00000000000E+00  0.45593999997E+02  0.45594000000E+02  0.51100000000E-03 0.  1.
         11   -1    0    0    0    0 -0.00000000000E+00 -0.00000000000E+00 -0.45593999997E+02  0.45594000000E+02  0.51100000000E-03 0. -1.
    9900012    2    1    2    0    0  0.65524581438E+01 -0.17106573477E+02  0.38870849953E+01  0.72461574991E+02  0.70000006118E+02 0.  0.
        -12    1    1    2    0    0 -0.65524581438E+01  0.17106573477E+02 -0.38870849953E+01  0.18726425009E+02  0.00000000000E+00 0.  1.
         11    1    3    3    0    0  0.44097745729E+01 -0.15731556012E+02 -0.13340802011E+02  0.21092770441E+02  0.51100000000E-03 0. -1.
        -11    1    3    3    0    0 -0.15053708978E+02 -0.36243609553E+01  0.27247448476E+02  0.31339648929E+02  0.51100000000E-03 0.  1.
         12    1    3    3    0    0  0.17196392549E+02  0.22493434896E+01 -0.10019561469E+02  0.20029155620E+02  0.00000000000E+00 0. -1.
</event>
<event>
 7    1  0.2851651E-013  0.7246159E+02  0.7816164E-02  0.1226708E+00
        -11   -1    0    0    0    0  0.00000000000E+00  0.00000000000E+00  0.45593999997E+02  0.45594000000E+02  0.51100000000E-03 0.  1.
         11   -1    0    0    0    0 -0.00000000000E+00 -0.00000000000E+00 -0.45593999997E+02  0.45594000000E+02  0.51100000000E-03 0. -1.
    9900012    2    1    2    0    0 -0.12175523049E+02 -0.64754719332E+01 -0.12668991848E+02  0.72461589433E+02  0.70000024932E+02 0.  0.
        -12    1    1    2    0    0  0.12175523049E+02  0.64754719332E+01  0.12668991848E+02  0.18726410567E+02  0.00000000000E+00 0.  1.
         11    1    3    3    0    0  0.90139229738E+01 -0.58387863775E+01 -0.17788395443E+02  0.20779057881E+02  0.51100000000E-03 0. -1.
        -11    1    3    3    0    0  0.61500663898E+01 -0.21980795304E+01 -0.15882003563E+02  0.17172446176E+02  0.51100000000E-03 0.  1.
        -12    1    3    3    0    0 -0.27339512412E+02  0.15613939747E+01  0.21001407158E+02  0.34510085376E+02  0.00000000000E+00 0.  1.
</event>
<event>
 7    1  0.3679708E-013  0.7246156E+02  0.7816164E-02  0.1226708E+00
        -11   -1    0    0    0    0  0.00000000000E+00  0.00000000000E+00  0.45593999997E+02  0.45594000000E+02  0.51100000000E-03 0. -1.
         11   -1    0    0    0    0 -0.00000000000E+00 -0.00000000000E+00 -0.45593999997E+02  0.45594000000E+02  0.51100000000E-03 0.  1.
    9900012    2    1    2    0    0  0.37238873659E+01 -0.11371563971E+02  0.14404854277E+02  0.72461557973E+02  0.69999983949E+02 0.  0.
        -12    1    1    2    0    0 -0.37238873659E+01  0.11371563971E+02 -0.14404854277E+02  0.18726442027E+02  0.00000000000E+00 0.  1.
         11    1    3    3    0    0 -0.67642068280E+00  0.23165033767E+01  0.37619121466E+00  0.24423867273E+01  0.51100000000E-03 0. -1.
        -11    1    3    3    0    0 -0.18255127757E+02  0.74667776969E+01 -0.17089672953E+02  0.26097114409E+02  0.51100000000E-03 0.  1.
         12    1    3    3    0    0  0.22655435805E+02 -0.21154845045E+02  0.31118336015E+02  0.43922056836E+02  0.00000000000E+00 0. -1.
</event>
<event>
 7    1  0.2851651E-013  0.7246156E+02  0.7816164E-02  0.1226708E+00
        -11   -1    0    0    0    0  0.00000000000E+00  0.00000000000E+00  0.45593999997E+02  0.45594000000E+02  0.51100000000E-03 0.  1.
         11   -1    0    0    0    0 -0.00000000000E+00 -0.00000000000E+00 -0.45593999997E+02  0.45594000000E+02  0.51100000000E-03 0. -1.
    9900012    2    1    2    0    0  0.62674372310E+00  0.13729637220E+02 -0.12719424226E+02  0.72461561509E+02  0.69999988556E+02 0.  0.
        -12    1    1    2    0    0 -0.62674372310E+00 -0.13729637220E+02  0.12719424226E+02  0.18726438491E+02  0.00000000000E+00 0.  1.
         11    1    3    3    0    0  0.22234423573E+02  0.14798349163E+02 -0.17229275841E+02  0.31783780075E+02  0.51100000000E-03 0. -1.
        -11    1    3    3    0    0 -0.63536228139E+01  0.96759184136E+01  0.15252693213E+02  0.19147756279E+02  0.51100000000E-03 0.  1.
        -12    1    3    3    0    0 -0.15254057036E+02 -0.10744630356E+02 -0.10742841598E+02  0.21530025155E+02  0.00000000000E+00 0.  1.
</event>
<event>
 7    1  0.2851651E-013  0.7246168E+02  0.7816164E-02  0.1226708E+00
        -11   -1    0    0    0    0  0.00000000000E+00  0.00000000000E+00  0.45593999997E+02  0.45594000000E+02  0.51100000000E-03 0.  1.
         11   -1    0    0    0    0 -0.00000000000E+00 -0.00000000000E+00 -0.45593999997E+02  0.45594000000E+02  0.51100000000E-03 0. -1.
    9900012    2    1    2    0    0 -0.14899866834E+01 -0.18502435837E+02 -0.24728069311E+01  0.72461682520E+02  0.70000146195E+02 0.  0.
        -12    1    1    2    0    0  0.14899866834E+01  0.18502435837E+02  0.24728069311E+01  0.18726317480E+02  0.00000000000E+00 0.  1.
         11    1    3    3    0    0  0.89756745025E+01  0.19652160449E+01 -0.10627561722E+02  0.14048838931E+02  0.51100000000E-03 0. -1.
        -11    1    3    3    0    0 -0.55965248240E+01 -0.16928250511E+02 -0.21627009946E+02  0.28028812228E+02  0.51100000000E-03 0.  1.
        -12    1    3    3    0    0 -0.48691363619E+01 -0.35394013716E+01  0.29781764737E+02  0.30384031362E+02  0.00000000000E+00 0.  1.
</event>
<event>
 7    1  0.2851651E-013  0.7246157E+02  0.7816164E-02  0.1226708E+00
        -11   -1    0    0    0    0  0.00000000000E+00  0.00000000000E+00  0.45593999997E+02  0.45594000000E+02  0.51100000000E-03 0.  1.
         11   -1    0    0    0    0 -0.00000000000E+00 -0.00000000000E+00 -0.45593999997E+02  0.45594000000E+02  0.51100000000E-03 0. -1.
    9900012    2    1    2    0    0  0.10524304689E+02  0.19735956157E+01 -0.15363041823E+02  0.72461571540E+02  0.70000001622E+02 0.  0.
        -12    1    1    2    0    0 -0.10524304689E+02 -0.19735956157E+01  0.15363041823E+02  0.18726428460E+02  0.00000000000E+00 0.  1.
         11    1    3    3    0    0  0.26717937020E+02 -0.17869836127E+02 -0.28183748977E+02  0.42749303017E+02  0.51100000000E-03 0. -1.
        -11    1    3    3    0    0 -0.23377246941E+01  0.61333561312E+00  0.34783386999E+01  0.42355610835E+01  0.51100000000E-03 0.  1.
        -12    1    3    3    0    0 -0.13855907638E+02  0.19230096129E+02  0.93423684538E+01  0.25476707439E+02  0.00000000000E+00 0.  1.
</event>
<event>
 7    1  0.2851651E-013  0.7246156E+02  0.7816164E-02  0.1226708E+00
        -11   -1    0    0    0    0  0.00000000000E+00  0.00000000000E+00  0.45593999997E+02  0.45594000000E+02  0.51100000000E-03 0.  1.
         11   -1    0    0    0    0 -0.00000000000E+00 -0.00000000000E+00 -0.45593999997E+02  0.45594000000E+02  0.51100000000E-03 0. -1.
    9900012    2    1    2    0    0 -0.10941248958E+02  0.84808392016E+01 -0.12611268465E+02  0.72461557342E+02  0.69999983127E+02 0.  0.
        -12    1    1    2    0    0  0.10941248958E+02 -0.84808392016E+01  0.12611268465E+02  0.18726442658E+02  0.00000000000E+00 0.  1.
         11    1    3    3    0    0 -0.56573559700E+01 -0.11527545633E+02  0.32901854080E+01  0.13255764978E+02  0.51100000000E-03 0. -1.
        -11    1    3    3    0    0 -0.29300778451E+01  0.33726722515E+02  0.48698043926E+01  0.34202224531E+02  0.51100000000E-03 0.  1.
         12    1    3    3    0    0 -0.23538151424E+01 -0.13718337680E+02 -0.20771258266E+02  0.25003567833E+02  0.00000000000E+00 0. -1.
</event>
<event>
 7    1  0.2851651E-013  0.7246085E+02  0.7816164E-02  0.1226710E+00
        -11   -1    0    0    0    0  0.00000000000E+00  0.00000000000E+00  0.45593999997E+02  0.45594000000E+02  0.51100000000E-03 0.  1.
         11   -1    0    0    0    0 -0.00000000000E+00 -0.00000000000E+00 -0.45593999997E+02  0.45594000000E+02  0.51100000000E-03 0. -1.
    9900012    2    1    2    0    0  0.82587757570E+01 -0.16043978269E+02  0.50089409458E+01  0.72460851122E+02  0.69999063138E+02 0.  0.
        -12    1    1    2    0    0 -0.82587757570E+01  0.16043978269E+02 -0.50089409458E+01  0.18727148878E+02  0.00000000000E+00 0.  1.
         11    1    3    3    0    0 -0.11326631456E+02 -0.34841283658E+01  0.41671571840E+01  0.12561724797E+02  0.51100000000E-03 0. -1.
        -11    1    3    3    0    0 -0.19636260117E+01 -0.14382785906E+02 -0.23322332478E+02  0.27470921900E+02  0.51100000000E-03 0.  1.
        -12    1    3    3    0    0  0.21549033225E+02  0.18229360024E+01  0.24164116240E+02  0.32428204425E+02  0.00000000000E+00 0.  1.
</event>
<event>
 7    1  0.2851651E-013  0.7246173E+02  0.7816164E-02  0.1226708E+00
        -11   -1    0    0    0    0  0.00000000000E+00  0.00000000000E+00  0.45593999997E+02  0.45594000000E+02  0.51100000000E-03 0. -1.
         11   -1    0    0    0    0 -0.00000000000E+00 -0.00000000000E+00 -0.45593999997E+02  0.45594000000E+02  0.51100000000E-03 0.  1.
    9900012    2    1    2    0    0 -0.35157100569E+01 -0.14069199398E+02  0.11847805814E+02  0.72461732580E+02  0.70000211406E+02 0.  0.
        -12    1    1    2    0    0  0.35157100569E+01  0.14069199398E+02 -0.11847805814E+02  0.18726267420E+02  0.00000000000E+00 0.  1.
         11    1    3    3    0    0  0.13521101131E+01 -0.15180803693E+01 -0.10980133533E+02  0.11166740905E+02  0.51100000000E-03 0. -1.
        -11    1    3    3    0    0 -0.20075979358E+02 -0.67771232004E+01 -0.10915305082E+02  0.23835230886E+02  0.51100000000E-03 0.  1.
         12    1    3    3    0    0  0.15208159188E+02 -0.57739958282E+01  0.33743244430E+02  0.37459760789E+02  0.00000000000E+00 0. -1.
</event>
<event>
 7    1  0.2851651E-013  0.7246170E+02  0.7816164E-02  0.1226708E+00
        -11   -1    0    0    0    0  0.00000000000E+00  0.00000000000E+00  0.45593999997E+02  0.45594000000E+02  0.51100000000E-03 0. -1.
         11   -1    0    0    0    0 -0.00000000000E+00 -0.00000000000E+00 -0.45593999997E+02  0.45594000000E+02  0.51100000000E-03 0.  1.
    9900012    2    1    2    0    0  0.27888219296E+01 -0.40738633653E+01  0.18063789203E+02  0.72461698421E+02  0.70000166909E+02 0.  0.
        -12    1    1    2    0    0 -0.27888219296E+01  0.40738633653E+01 -0.18063789203E+02  0.18726301579E+02  0.00000000000E+00 0.  1.
         11    1    3    3    0    0  0.11578508532E+02 -0.15514412914E+02  0.33842838804E+02  0.38988416311E+02  0.51100000000E-03 0. -1.
        -11    1    3    3    0    0 -0.42796357333E+01 -0.33384768795E+01  0.51339099779E+01  0.74711272113E+01  0.51100000000E-03 0.  1.
        -12    1    3    3    0    0 -0.45100508693E+01  0.14779026428E+02 -0.20912959579E+02  0.26002154899E+02  0.00000000000E+00 0.  1.
</event>
<event>
 7    1  0.2851651E-013  0.7246158E+02  0.7816164E-02  0.1226708E+00
        -11   -1    0    0    0    0  0.00000000000E+00  0.00000000000E+00  0.45593999997E+02  0.45594000000E+02  0.51100000000E-03 0. -1.
         11   -1    0    0    0    0 -0.00000000000E+00 -0.00000000000E+00 -0.45593999997E+02  0.45594000000E+02  0.51100000000E-03 0.  1.
    9900012    2    1    2    0    0  0.11855820519E+02  0.40012720539E+00  0.14489933705E+02  0.72461581209E+02  0.70000014218E+02 0.  0.
        -12    1    1    2    0    0 -0.11855820519E+02 -0.40012720539E+00 -0.14489933705E+02  0.18726418791E+02  0.00000000000E+00 0.  1.
         11    1    3    3    0    0  0.22382780735E+02 -0.26176981829E+01 -0.30341491865E+01  0.22738673637E+02  0.51100000000E-03 0. -1.
        -11    1    3    3    0    0  0.74574047453E+01 -0.98284805858E+01  0.23748428830E+02  0.26761909280E+02  0.51100000000E-03 0.  1.
        -12    1    3    3    0    0 -0.17984364961E+02  0.12846305974E+02 -0.62243459378E+01  0.22960998293E+02  0.00000000000E+00 0.  1.
</event>
<event>
 7    1  0.2851651E-013  0.7246147E+02  0.7816164E-02  0.1226708E+00
        -11   -1    0    0    0    0  0.00000000000E+00  0.00000000000E+00  0.45593999997E+02  0.45594000000E+02  0.51100000000E-03 0.  1.
         11   -1    0    0    0    0 -0.00000000000E+00 -0.00000000000E+00 -0.45593999997E+02  0.45594000000E+02  0.51100000000E-03 0. -1.
    9900012    2    1    2    0    0 -0.61382176173E+00 -0.66790908914E+01 -0.17484162871E+02  0.72461468458E+02  0.69999867339E+02 0.  0.
        -12    1    1    2    0    0  0.61382176173E+00  0.66790908914E+01  0.17484162871E+02  0.18726531542E+02  0.00000000000E+00 0.  1.
         11    1    3    3    0    0 -0.10121215700E+02  0.21621365608E+01 -0.26823090959E+02  0.28750513919E+02  0.51100000000E-03 0. -1.
        -11    1    3    3    0    0  0.10323330081E+02  0.14171294990E+02 -0.26794352534E+01  0.17736293841E+02  0.51100000000E-03 0.  1.
         12    1    3    3    0    0 -0.81593614277E+00 -0.23012522442E+02  0.12018363341E+02  0.25974660698E+02  0.00000000000E+00 0. -1.
</event>
<event>
 7    1  0.2851651E-013  0.7246147E+02  0.7816164E-02  0.1226708E+00
        -11   -1    0    0    0    0  0.00000000000E+00  0.00000000000E+00  0.45593999997E+02  0.45594000000E+02  0.51100000000E-03 0. -1.
         11   -1    0    0    0    0 -0.00000000000E+00 -0.00000000000E+00 -0.45593999997E+02  0.45594000000E+02  0.51100000000E-03 0.  1.
    9900012    2    1    2    0    0  0.12264972043E+01 -0.13269181758E+02  0.13157034703E+02  0.72461466897E+02  0.69999865305E+02 0.  0.
        -12    1    1    2    0    0 -0.12264972043E+01  0.13269181758E+02 -0.13157034703E+02  0.18726533103E+02  0.00000000000E+00 0.  1.
         11    1    3    3    0    0  0.63516222245E+01 -0.15920322843E+02  0.10513260524E+02  0.20107919620E+02  0.51100000000E-03 0. -1.
        -11    1    3    3    0    0  0.10315950120E+01 -0.22117544376E+02 -0.94948944910E+01  0.24091554104E+02  0.51100000000E-03 0.  1.
         12    1    3    3    0    0 -0.61567200322E+01  0.24768685462E+02  0.12138668670E+02  0.28261993173E+02  0.00000000000E+00 0. -1.
</event>
<event>
 7    1  0.2851651E-013  0.7246156E+02  0.7816164E-02  0.1226708E+00
        -11   -1    0    0    0    0  0.00000000000E+00  0.00000000000E+00  0.45593999997E+02  0.45594000000E+02  0.51100000000E-03 0. -1.
         11   -1    0    0    0    0 -0.00000000000E+00 -0.00000000000E+00 -0.45593999997E+02  0.45594000000E+02  0.51100000000E-03 0.  1.
    9900012    2    1    2    0    0  0.77078645093E+01 -0.27204191333E+01  0.16848373497E+02  0.72461560267E+02  0.69999986938E+02 0.  0.
        -12    1    1    2    0    0 -0.77078645093E+01  0.27204191333E+01 -0.16848373497E+02  0.18726439733E+02  0.00000000000E+00 0.  1.
         11    1    3    3    0    0 -0.58201902005E+00 -0.70560592666E+01  0.30693285305E+02  0.31499277477E+02  0.51100000000E-03 0. -1.
        -11    1    3    3    0    0 -0.13097842278E+02  0.93152782921E+01 -0.91904966469E+01  0.18514672854E+02  0.51100000000E-03 0.  1.
        -12    1    3    3    0    0  0.21387725807E+02 -0.49796381588E+01 -0.46544151602E+01  0.22447609937E+02  0.00000000000E+00 0.  1.
</event>
<event>
 7    1  0.2851651E-013  0.7246157E+02  0.7816164E-02  0.1226708E+00
        -11   -1    0    0    0    0  0.00000000000E+00  0.00000000000E+00  0.45593999997E+02  0.45594000000E+02  0.51100000000E-03 0.  1.
         11   -1    0    0    0    0 -0.00000000000E+00 -0.00000000000E+00 -0.45593999997E+02  0.45594000000E+02  0.51100000000E-03 0. -1.
    9900012    2    1    2    0    0  0.15336592233E+02 -0.50891366727E+01 -0.94640728914E+01  0.72461573510E+02  0.70000004189E+02 0.  0.
        -12    1    1    2    0    0 -0.15336592233E+02  0.50891366727E+01  0.94640728914E+01  0.18726426490E+02  0.00000000000E+00 0.  1.
         11    1    3    3    0    0  0.17769097968E+02 -0.48390593500E+01 -0.22195129190E+02  0.28840615424E+02  0.51100000000E-03 0. -1.
        -11    1    3    3    0    0  0.27450046400E+01  0.10366842049E+02 -0.12072852308E+02  0.16148071948E+02  0.51100000000E-03 0.  1.
        -12    1    3    3    0    0 -0.51775103753E+01 -0.10616919371E+02  0.24803908606E+02  0.27472886138E+02  0.00000000000E+00 0.  1.
</event>
<event>
 7    1  0.2851651E-013  0.7246165E+02  0.7816164E-02  0.1226708E+00
        -11   -1    0    0    0    0  0.00000000000E+00  0.00000000000E+00  0.45593999997E+02  0.45594000000E+02  0.51100000000E-03 0. -1.
         11   -1    0    0    0    0 -0.00000000000E+00 -0.00000000000E+00 -0.45593999997E+02  0.45594000000E+02  0.51100000000E-03 0.  1.
    9900012    2    1    2    0    0  0.96633117404E+01  0.90900580166E+01  0.13216185339E+02  0.72461646819E+02  0.70000099687E+02 0.  0.
        -12    1    1    2    0    0 -0.96633117404E+01 -0.90900580166E+01 -0.13216185339E+02  0.18726353181E+02  0.00000000000E+00 0.  1.
         11    1    3    3    0    0  0.84209966971E+00 -0.12908447155E+02  0.20683244389E+02  0.24395363053E+02  0.51100000000E-03 0. -1.
        -11    1    3    3    0    0 -0.17231763632E+01 -0.10237976392E+02  0.55072788205E+01  0.11752260108E+02  0.51100000000E-03 0.  1.
        -12    1    3    3    0    0  0.10544388434E+02  0.32236481563E+02 -0.12974337870E+02  0.36314023657E+02  0.00000000000E+00 0.  1.
</event>
<event>
 7    1  0.2851651E-013  0.7246160E+02  0.7816164E-02  0.1226708E+00
        -11   -1    0    0    0    0  0.00000000000E+00  0.00000000000E+00  0.45593999997E+02  0.45594000000E+02  0.51100000000E-03 0.  1.
         11   -1    0    0    0    0 -0.00000000000E+00 -0.00000000000E+00 -0.45593999997E+02  0.45594000000E+02  0.51100000000E-03 0. -1.
    9900012    2    1    2    0    0 -0.55122094437E+01 -0.79289015896E+01 -0.16044506381E+02  0.72461598360E+02  0.70000036561E+02 0.  0.
        -12    1    1    2    0    0  0.55122094437E+01  0.79289015896E+01  0.16044506381E+02  0.18726401640E+02  0.00000000000E+00 0.  1.
         11    1    3    3    0    0 -0.84655112257E+01 -0.84798196998E+01 -0.15905447598E+02  0.19913700962E+02  0.51100000000E-03 0. -1.
        -11    1    3    3    0    0 -0.18203330248E+01 -0.25366687044E+02  0.43898993720E+01  0.25808015047E+02  0.51100000000E-03 0.  1.
         12    1    3    3    0    0  0.47736348068E+01  0.25917605154E+02 -0.45289581550E+01  0.26739882351E+02  0.00000000000E+00 0. -1.
</event>
<event>
 7    1  0.2851651E-013  0.7246160E+02  0.7816164E-02  0.1226708E+00
        -11   -1    0    0    0    0  0.00000000000E+00  0.00000000000E+00  0.45593999997E+02  0.45594000000E+02  0.51100000000E-03 0.  1.
         11   -1    0    0    0    0 -0.00000000000E+00 -0.00000000000E+00 -0.45593999997E+02  0.45594000000E+02  0.51100000000E-03 0. -1.
    9900012    2    1    2    0    0  0.18420275315E+02 -0.33586808108E+01 -0.30118222670E+00  0.72461601782E+02  0.70000041019E+02 0.  0.
        -12    1    1    2    0    0 -0.18420275315E+02  0.33586808108E+01  0.30118222670E+00  0.18726398218E+02  0.00000000000E+00 0.  1.
         11    1    3    3    0    0  0.20364446595E+02 -0.61183674331E+01 -0.28160585869E+02  0.35286877191E+02  0.51100000000E-03 0. -1.
        -11    1    3    3    0    0 -0.45326101821E+01 -0.10966914114E+01 -0.32732720678E+01  0.56975079996E+01  0.51100000000E-03 0.  1.
        -12    1    3    3    0    0  0.25884389023E+01  0.38563780337E+01  0.31132675710E+02  0.31477216592E+02  0.00000000000E+00 0.  1.
</event>
<event>
 7    1  0.2851651E-013  0.7246144E+02  0.7816164E-02  0.1226708E+00
        -11   -1    0    0    0    0  0.00000000000E+00  0.00000000000E+00  0.45593999997E+02  0.45594000000E+02  0.51100000000E-03 0.  1.
         11   -1    0    0    0    0 -0.00000000000E+00 -0.00000000000E+00 -0.45593999997E+02  0.45594000000E+02  0.51100000000E-03 0. -1.
    9900012    2    1    2    0    0  0.16386502843E+02 -0.81756536736E+01  0.39147626639E+01  0.72461437178E+02  0.69999826591E+02 0.  0.
        -12    1    1    2    0    0 -0.16386502843E+02  0.81756536736E+01 -0.39147626639E+01  0.18726562822E+02  0.00000000000E+00 0.  1.
         11    1    3    3    0    0  0.18328238121E+02 -0.32847303900E+01 -0.91398507028E+01  0.20742483880E+02  0.51100000000E-03 0. -1.
        -11    1    3    3    0    0  0.10090079867E+02 -0.21585805782E+02  0.18802285401E+02  0.30352638428E+02  0.51100000000E-03 0.  1.
         12    1    3    3    0    0 -0.12031815146E+02  0.16694882498E+02 -0.57476720339E+01  0.21366314871E+02  0.00000000000E+00 0. -1.
</event>
<event>
 7    1  0.3954979E-013  0.7246153E+02  0.7816164E-02  0.1226708E+00
        -11   -1    0    0    0    0  0.00000000000E+00  0.00000000000E+00  0.45593999997E+02  0.45594000000E+02  0.51100000000E-03 0. -1.
         11   -1    0    0    0    0 -0.00000000000E+00 -0.00000000000E+00 -0.45593999997E+02  0.45594000000E+02  0.51100000000E-03 0.  1.
    9900012    2    1    2    0    0  0.59336428719E+01  0.12877717243E+02  0.12232616326E+02  0.72461531532E+02  0.69999949504E+02 0.  0.
        -12    1    1    2    0    0 -0.59336428719E+01 -0.12877717243E+02 -0.12232616326E+02  0.18726468468E+02  0.00000000000E+00 0.  1.
         11    1    3    3    0    0 -0.15455791000E+01  0.22181789431E+01  0.11651309672E+02  0.11960859079E+02  0.51100000000E-03 0. -1.
        -11    1    3    3    0    0  0.18737469612E+02 -0.20026724695E+02 -0.31332198345E+01  0.27603976820E+02  0.51100000000E-03 0.  1.
         12    1    3    3    0    0 -0.11258247640E+02  0.30686262995E+02  0.37145264882E+01  0.32896695633E+02  0.00000000000E+00 0. -1.
</event>
<event>
 7    1  0.2851651E-013  0.7246163E+02  0.7816164E-02  0.1226708E+00
        -11   -1    0    0    0    0  0.00000000000E+00  0.00000000000E+00  0.45593999997E+02  0.45594000000E+02  0.51100000000E-03 0. -1.
         11   -1    0    0    0    0 -0.00000000000E+00 -0.00000000000E+00 -0.45593999997E+02  0.45594000000E+02  0.51100000000E-03 0.  1.
    9900012    2    1    2    0    0 -0.28232639154E+01  0.18457521726E+02 -0.14234373585E+01  0.72461625516E+02  0.70000071936E+02 0.  0.
        -12    1    1    2    0    0  0.28232639154E+01 -0.18457521726E+02  0.14234373585E+01  0.18726374484E+02  0.00000000000E+00 0.  1.
         11    1    3    3    0    0  0.11536914611E+02  0.38622168855E+01  0.12539817181E+02  0.17471809671E+02  0.51100000000E-03 0. -1.
        -11    1    3    3    0    0  0.11334459581E+02  0.42205040322E+01 -0.22880276362E+02  0.25880295109E+02  0.51100000000E-03 0.  1.
        -12    1    3    3    0    0 -0.25694638107E+02  0.10374800809E+02  0.89170218226E+01  0.29109520736E+02  0.00000000000E+00 0.  1.
</event>
<event>
 7    1  0.2851651E-013  0.7246157E+02  0.7816164E-02  0.1226708E+00
        -11   -1    0    0    0    0  0.00000000000E+00  0.00000000000E+00  0.45593999997E+02  0.45594000000E+02  0.51100000000E-03 0.  1.
         11   -1    0    0    0    0 -0.00000000000E+00 -0.00000000000E+00 -0.45593999997E+02  0.45594000000E+02  0.51100000000E-03 0. -1.
    9900012    2    1    2    0    0  0.92728581554E+01  0.59508009350E+00 -0.16258509573E+02  0.72461570757E+02  0.70000000602E+02 0.  0.
        -12    1    1    2    0    0 -0.92728581554E+01 -0.59508009350E+00  0.16258509573E+02  0.18726429243E+02  0.00000000000E+00 0.  1.
         11    1    3    3    0    0  0.19136830649E+01  0.97993202954E+01 -0.92506496427E+01  0.13611149114E+02  0.51100000000E-03 0. -1.
        -11    1    3    3    0    0  0.31312378562E+02 -0.18092145370E+01  0.37165749801E+01  0.31584034547E+02  0.51100000000E-03 0.  1.
        -12    1    3    3    0    0 -0.23953203471E+02 -0.73950256649E+01 -0.10724434910E+02  0.27266387096E+02  0.00000000000E+00 0.  1.
</event>
<event>
 7    1  0.2851651E-013  0.7246156E+02  0.7816164E-02  0.1226708E+00
        -11   -1    0    0    0    0  0.00000000000E+00  0.00000000000E+00  0.45593999997E+02  0.45594000000E+02  0.51100000000E-03 0. -1.
         11   -1    0    0    0    0 -0.00000000000E+00 -0.00000000000E+00 -0.45593999997E+02  0.45594000000E+02  0.51100000000E-03 0.  1.
    9900012    2    1    2    0    0 -0.94003234156E+01  0.77946408671E+01  0.14197076418E+02  0.72461561860E+02  0.69999989013E+02 0.  0.
        -12    1    1    2    0    0  0.94003234156E+01 -0.77946408671E+01 -0.14197076418E+02  0.18726438140E+02  0.00000000000E+00 0.  1.
         11    1    3    3    0    0  0.13875680533E+02  0.19450228244E+00 -0.34498313481E+01  0.14299429288E+02  0.51100000000E-03 0. -1.
        -11    1    3    3    0    0 -0.14119340384E+02  0.15868027955E+02 -0.13153170279E+02  0.24983113752E+02  0.51100000000E-03 0.  1.
         12    1    3    3    0    0 -0.91566635639E+01 -0.82678893705E+01  0.30800078046E+02  0.33179018820E+02  0.00000000000E+00 0. -1.
</event>
<event>
 7    1  0.2851651E-013  0.7246149E+02  0.7816164E-02  0.1226708E+00
        -11   -1    0    0    0    0  0.00000000000E+00  0.00000000000E+00  0.45593999997E+02  0.45594000000E+02  0.51100000000E-03 0.  1.
         11   -1    0    0    0    0 -0.00000000000E+00 -0.00000000000E+00 -0.45593999997E+02  0.45594000000E+02  0.51100000000E-03 0. -1.
    9900012    2    1    2    0    0  0.55883818963E+01  0.10821694839E+02 -0.14224731365E+02  0.72461492749E+02  0.69999898983E+02 0.  0.
        -12    1    1    2    0    0 -0.55883818963E+01 -0.10821694839E+02  0.14224731365E+02  0.18726507251E+02  0.00000000000E+00 0.  1.
         11    1    3    3    0    0  0.20224439156E+01  0.11508155042E+02 -0.20170713091E+02  0.23310632311E+02  0.51100000000E-03 0. -1.
        -11    1    3    3    0    0  0.28496878378E+01  0.91903127367E+01 -0.19555313473E+02  0.21794330783E+02  0.51100000000E-03 0.  1.
        -12    1    3    3    0    0  0.71625014295E+00 -0.98767729402E+01  0.25501295199E+02  0.27356529656E+02  0.00000000000E+00 0.  1.
</event>
<event>
 7    1  0.2851651E-013  0.7246139E+02  0.7816164E-02  0.1226708E+00
        -11   -1    0    0    0    0  0.00000000000E+00  0.00000000000E+00  0.45593999997E+02  0.45594000000E+02  0.51100000000E-03 0. -1.
         11   -1    0    0    0    0 -0.00000000000E+00 -0.00000000000E+00 -0.45593999997E+02  0.45594000000E+02  0.51100000000E-03 0.  1.
    9900012    2    1    2    0    0 -0.11768095422E+01 -0.11206284119E+02  0.14957283348E+02  0.72461387664E+02  0.69999762089E+02 0.  0.
        -12    1    1    2    0    0  0.11768095422E+01  0.11206284119E+02 -0.14957283348E+02  0.18726612336E+02  0.00000000000E+00 0.  1.
         11    1    3    3    0    0 -0.13864564599E+02 -0.54591438841E+01  0.18552434519E+02  0.23795403554E+02  0.51100000000E-03 0. -1.
        -11    1    3    3    0    0 -0.14207716404E+02 -0.35187543424E+01 -0.13505934961E+02  0.19916101952E+02  0.51100000000E-03 0.  1.
         12    1    3    3    0    0  0.26895471460E+02 -0.22283858926E+01  0.99107837900E+01  0.28749882158E+02  0.00000000000E+00 0. -1.
</event>
<event>
 7    1  0.2851651E-013  0.7246165E+02  0.7816164E-02  0.1226708E+00
        -11   -1    0    0    0    0  0.00000000000E+00  0.00000000000E+00  0.45593999997E+02  0.45594000000E+02  0.51100000000E-03 0.  1.
         11   -1    0    0    0    0 -0.00000000000E+00 -0.00000000000E+00 -0.45593999997E+02  0.45594000000E+02  0.51100000000E-03 0. -1.
    9900012    2    1    2    0    0  0.40131676778E+01  0.58421104397E+01 -0.17333212862E+02  0.72461653925E+02  0.70000108944E+02 0.  0.
        -12    1    1    2    0    0 -0.40131676778E+01 -0.58421104397E+01  0.17333212862E+02  0.18726346075E+02  0.00000000000E+00 0.  1.
         11    1    3    3    0    0  0.29980564292E+00  0.11710007707E+01  0.15716556597E+00  0.12189452427E+01  0.51100000000E-03 0. -1.
        -11    1    3    3    0    0 -0.19084829826E+02  0.14714394811E+02  0.16422917849E+02  0.29162585192E+02  0.51100000000E-03 0.  1.
         12    1    3    3    0    0  0.22798191861E+02 -0.10043285142E+02 -0.33913296277E+02  0.42080123490E+02  0.00000000000E+00 0. -1.
</event>
<event>
 7    1  0.2851651E-013  0.7246161E+02  0.7816164E-02  0.1226708E+00
        -11   -1    0    0    0    0  0.00000000000E+00  0.00000000000E+00  0.45593999997E+02  0.45594000000E+02  0.51100000000E-03 0. -1.
         11   -1    0    0    0    0 -0.00000000000E+00 -0.00000000000E+00 -0.45593999997E+02  0.45594000000E+02  0.51100000000E-03 0.  1.
    9900012    2    1    2    0    0  0.59119906543E-01 -0.17236668291E+02  0.73192532368E+01  0.72461609614E+02  0.70000051221E+02 0.  0.
        -12    1    1    2    0    0 -0.59119906543E-01  0.17236668291E+02 -0.73192532368E+01  0.18726390386E+02  0.00000000000E+00 0.  1.
         11    1    3    3    0    0  0.13252506462E+02 -0.74665356087E+01 -0.19701718813E+02  0.24890476210E+02  0.51100000000E-03 0. -1.
        -11    1    3    3    0    0 -0.33672580926E+01  0.10169406163E+02 -0.21194540504E+01  0.10920042789E+02  0.51100000000E-03 0.  1.
         12    1    3    3    0    0 -0.98261284632E+01 -0.19939538846E+02  0.29140426100E+02  0.36651090615E+02  0.00000000000E+00 0. -1.
</event>
<event>
 7    1  0.2851651E-013  0.7246155E+02  0.7816164E-02  0.1226708E+00
        -11   -1    0    0    0    0  0.00000000000E+00  0.00000000000E+00  0.45593999997E+02  0.45594000000E+02  0.51100000000E-03 0.  1.
         11   -1    0    0    0    0 -0.00000000000E+00 -0.00000000000E+00 -0.45593999997E+02  0.45594000000E+02  0.51100000000E-03 0. -1.
    9900012    2    1    2    0    0 -0.10275693572E+02 -0.13065699946E+02 -0.86242322820E+01  0.72461554104E+02  0.69999978909E+02 0.  0.
        -12    1    1    2    0    0  0.10275693572E+02  0.13065699946E+02  0.86242322820E+01  0.18726445896E+02  0.00000000000E+00 0.  1.
         11    1    3    3    0    0 -0.25753752417E+02  0.93620656067E+01 -0.19353465187E+02  0.33547885939E+02  0.51100000000E-03 0. -1.
        -11    1    3    3    0    0 -0.40722374161E+01  0.17744612239E+01 -0.25096591329E+01  0.51019819122E+01  0.51100000000E-03 0.  1.
        -12    1    3    3    0    0  0.19550296261E+02 -0.24202226776E+02  0.13238892038E+02  0.33811686252E+02  0.00000000000E+00 0.  1.
</event>
<event>
 7    1  0.2851651E-013  0.7246157E+02  0.7816164E-02  0.1226708E+00
        -11   -1    0    0    0    0  0.00000000000E+00  0.00000000000E+00  0.45593999997E+02  0.45594000000E+02  0.51100000000E-03 0.  1.
         11   -1    0    0    0    0 -0.00000000000E+00 -0.00000000000E+00 -0.45593999997E+02  0.45594000000E+02  0.51100000000E-03 0. -1.
    9900012    2    1    2    0    0  0.42178686342E+01  0.14114492340E-01 -0.18245237701E+02  0.72461566442E+02  0.69999994981E+02 0.  0.
        -12    1    1    2    0    0 -0.42178686342E+01 -0.14114492340E-01  0.18245237701E+02  0.18726433558E+02  0.00000000000E+00 0.  1.
         11    1    3    3    0    0 -0.22044663087E+02 -0.17411482697E+02 -0.21797911399E+02  0.35556656788E+02  0.51100000000E-03 0. -1.
        -11    1    3    3    0    0 -0.17917383085E+01 -0.61044496738E-01  0.34033573982E+01  0.38466731649E+01  0.51100000000E-03 0.  1.
        -12    1    3    3    0    0  0.28054270030E+02  0.17486641686E+02  0.14931629987E+00  0.33058236488E+02  0.00000000000E+00 0.  1.
</event>
<event>
 7    1  0.2851651E-013  0.7246156E+02  0.7816164E-02  0.1226708E+00
        -11   -1    0    0    0    0  0.00000000000E+00  0.00000000000E+00  0.45593999997E+02  0.45594000000E+02  0.51100000000E-03 0.  1.
         11   -1    0    0    0    0 -0.00000000000E+00 -0.00000000000E+00 -0.45593999997E+02  0.45594000000E+02  0.51100000000E-03 0. -1.
    9900012    2    1    2    0    0  0.16312520811E+02  0.91204562208E+01 -0.11825120206E+01  0.72461564366E+02  0.69999992277E+02 0.  0.
        -12    1    1    2    0    0 -0.16312520811E+02 -0.91204562208E+01  0.11825120206E+01  0.18726435634E+02  0.00000000000E+00 0.  1.
         11    1    3    3    0    0  0.33450690924E+02  0.70544121377E+01  0.13828622137E+02  0.36877421878E+02  0.51100000000E-03 0. -1.
        -11    1    3    3    0    0  0.12388135041E+01  0.12526853729E+01  0.68156831462E+01  0.70397028738E+01  0.51100000000E-03 0.  1.
        -12    1    3    3    0    0 -0.18376983617E+02  0.81335871027E+00 -0.21826817304E+02  0.28544439614E+02  0.00000000000E+00 0.  1.
</event>
<event>
 7    1  0.2851651E-013  0.7246156E+02  0.7816164E-02  0.1226708E+00
        -11   -1    0    0    0    0  0.00000000000E+00  0.00000000000E+00  0.45593999997E+02  0.45594000000E+02  0.51100000000E-03 0. -1.
         11   -1    0    0    0    0 -0.00000000000E+00 -0.00000000000E+00 -0.45593999997E+02  0.45594000000E+02  0.51100000000E-03 0.  1.
    9900012    2    1    2    0    0 -0.16941427697E+02 -0.12081077717E+01  0.78872039927E+01  0.72461561908E+02  0.69999989075E+02 0.  0.
        -12    1    1    2    0    0  0.16941427697E+02  0.12081077717E+01 -0.78872039927E+01  0.18726438092E+02  0.00000000000E+00 0.  1.
         11    1    3    3    0    0 -0.19581916390E+02 -0.35197873197E+01  0.35544648599E+01  0.20210753895E+02  0.51100000000E-03 0. -1.
        -11    1    3    3    0    0 -0.23629026708E+02  0.60925086314E+01  0.74851449506E+01  0.25524046697E+02  0.51100000000E-03 0.  1.
         12    1    3    3    0    0  0.26269515402E+02 -0.37808290833E+01 -0.31524058178E+01  0.26726761316E+02  0.00000000000E+00 0. -1.
</event>
<event>
 7    1  0.2851651E-013  0.7246157E+02  0.7816164E-02  0.1226708E+00
        -11   -1    0    0    0    0  0.00000000000E+00  0.00000000000E+00  0.45593999997E+02  0.45594000000E+02  0.51100000000E-03 0.  1.
         11   -1    0    0    0    0 -0.00000000000E+00 -0.00000000000E+00 -0.45593999997E+02  0.45594000000E+02  0.51100000000E-03 0. -1.
    9900012    2    1    2    0    0 -0.64490488025E+01  0.17542175345E+02  0.11666655206E+01  0.72461568020E+02  0.69999997037E+02 0.  0.
        -12    1    1    2    0    0  0.64490488025E+01 -0.17542175345E+02 -0.11666655206E+01  0.18726431980E+02  0.00000000000E+00 0.  1.
         11    1    3    3    0    0  0.18587402948E+01  0.40078500759E+01 -0.14870974798E+01  0.46614629559E+01  0.51100000000E-03 0. -1.
        -11    1    3    3    0    0  0.19023867511E+02  0.12487406307E+02  0.24023347508E+02  0.33090241418E+02  0.51100000000E-03 0.  1.
         12    1    3    3    0    0 -0.27331656608E+02  0.10469189622E+01 -0.21369584508E+02  0.34709863646E+02  0.00000000000E+00 0. -1.
</event>
<event>
 7    1  0.2851651E-013  0.7246159E+02  0.7816164E-02  0.1226708E+00
        -11   -1    0    0    0    0  0.00000000000E+00  0.00000000000E+00  0.45593999997E+02  0.45594000000E+02  0.51100000000E-03 0.  1.
         11   -1    0    0    0    0 -0.00000000000E+00 -0.00000000000E+00 -0.45593999997E+02  0.45594000000E+02  0.51100000000E-03 0. -1.
    9900012    2    1    2    0    0  0.88764215058E+01  0.16314693212E+02  0.23912928899E+01  0.72461592041E+02  0.70000028330E+02 0.  0.
        -12    1    1    2    0    0 -0.88764215058E+01 -0.16314693212E+02 -0.23912928899E+01  0.18726407959E+02  0.00000000000E+00 0.  1.
         11    1    3    3    0    0  0.24428389879E+01  0.10571992093E+01 -0.50071669415E+00  0.27084774243E+01  0.51100000000E-03 0. -1.
        -11    1    3    3    0    0  0.31692259814E+01  0.39738763431E+02 -0.11081174209E+02  0.41376391027E+02  0.51100000000E-03 0.  1.
        -12    1    3    3    0    0  0.32643565365E+01 -0.24481269428E+02  0.13973183793E+02  0.28376723590E+02  0.00000000000E+00 0.  1.
</event>
<event>
 7    1  0.2851651E-013  0.7246160E+02  0.7816164E-02  0.1226708E+00
        -11   -1    0    0    0    0  0.00000000000E+00  0.00000000000E+00  0.45593999997E+02  0.45594000000E+02  0.51100000000E-03 0.  1.
         11   -1    0    0    0    0 -0.00000000000E+00 -0.00000000000E+00 -0.45593999997E+02  0.45594000000E+02  0.51100000000E-03 0. -1.
    9900012    2    1    2    0    0 -0.13472748674E+02 -0.65561832071E+01 -0.11232974098E+02  0.72461596123E+02  0.70000033647E+02 0.  0.
        -12    1    1    2    0    0  0.13472748674E+02  0.65561832071E+01  0.11232974098E+02  0.18726403877E+02  0.00000000000E+00 0.  1.
         11    1    3    3    0    0 -0.93214442623E+01 -0.21164683632E+02 -0.39977504802E+01  0.23469451752E+02  0.51100000000E-03 0. -1.
        -11    1    3    3    0    0 -0.14948288968E+02 -0.12161286083E+02 -0.15359219026E+00  0.19271009654E+02  0.51100000000E-03 0.  1.
        -12    1    3    3    0    0  0.10796984556E+02  0.26769786508E+02 -0.70816314278E+01  0.29721134717E+02  0.00000000000E+00 0.  1.
</event>
<event>
 7    1  0.2851651E-013  0.7246159E+02  0.7816164E-02  0.1226708E+00
        -11   -1    0    0    0    0  0.00000000000E+00  0.00000000000E+00  0.45593999997E+02  0.45594000000E+02  0.51100000000E-03 0.  1.
         11   -1    0    0    0    0 -0.00000000000E+00 -0.00000000000E+00 -0.45593999997E+02  0.45594000000E+02  0.51100000000E-03 0. -1.
    9900012    2    1    2    0    0  0.14421869158E+02 -0.11859626927E+02  0.14273946156E+01  0.72461587737E+02  0.70000022723E+02 0.  0.
        -12    1    1    2    0    0 -0.14421869158E+02  0.11859626927E+02 -0.14273946156E+01  0.18726412263E+02  0.00000000000E+00 0.  1.
         11    1    3    3    0    0 -0.65427440588E+01 -0.23067898583E+02  0.16787628234E+02  0.29270461337E+02  0.51100000000E-03 0. -1.
        -11    1    3    3    0    0 -0.69160929912E+01  0.84530995792E+01 -0.97024118942E+01  0.14609039379E+02  0.51100000000E-03 0.  1.
         12    1    3    3    0    0  0.27880706208E+02  0.27551720771E+01 -0.56578217246E+01  0.28582087021E+02  0.00000000000E+00 0. -1.
</event>
<event>
 7    1  0.2851651E-013  0.7246138E+02  0.7816164E-02  0.1226709E+00
        -11   -1    0    0    0    0  0.00000000000E+00  0.00000000000E+00  0.45593999997E+02  0.45594000000E+02  0.51100000000E-03 0. -1.
         11   -1    0    0    0    0 -0.00000000000E+00 -0.00000000000E+00 -0.45593999997E+02  0.45594000000E+02  0.51100000000E-03 0.  1.
    9900012    2    1    2    0    0  0.14672444872E+01 -0.23453731947E+01  0.18521141557E+02  0.72461380808E+02  0.69999753158E+02 0.  0.
        -12    1    1    2    0    0 -0.14672444872E+01  0.23453731947E+01 -0.18521141557E+02  0.18726619192E+02  0.00000000000E+00 0.  1.
         11    1    3    3    0    0  0.26476293305E+02 -0.17842580604E+02  0.11618885579E+02  0.33975730929E+02  0.51100000000E-03 0. -1.
        -11    1    3    3    0    0 -0.15420996234E+02 -0.35425817318E+01  0.66583476862E+01  0.17166554819E+02  0.51100000000E-03 0.  1.
        -12    1    3    3    0    0 -0.95880525844E+01  0.19039789141E+02  0.24390829155E+00  0.21319095060E+02  0.00000000000E+00 0.  1.
</event>
<event>
 7    1  0.4093089E-013  0.7246143E+02  0.7816164E-02  0.1226708E+00
        -11   -1    0    0    0    0  0.00000000000E+00  0.00000000000E+00  0.45593999997E+02  0.45594000000E+02  0.51100000000E-03 0. -1.
         11   -1    0    0    0    0 -0.00000000000E+00 -0.00000000000E+00 -0.45593999997E+02  0.45594000000E+02  0.51100000000E-03 0.  1.
    9900012    2    1    2    0    0  0.14783894618E+02 -0.46244047166E+01  0.10523101654E+02  0.72461432576E+02  0.69999820597E+02 0.  0.
        -12    1    1    2    0    0 -0.14783894618E+02  0.46244047166E+01 -0.10523101654E+02  0.18726567424E+02  0.00000000000E+00 0.  1.
         11    1    3    3    0    0 -0.39545253404E+01 -0.93153978583E+00 -0.10951256752E+02  0.11680584821E+02  0.51100000000E-03 0. -1.
        -11    1    3    3    0    0  0.14629222984E+02  0.24009728663E+02  0.58715780727E+01  0.28722058856E+02  0.51100000000E-03 0.  1.
         12    1    3    3    0    0  0.41091969737E+01 -0.27702593594E+02  0.15602780334E+02  0.32058788900E+02  0.00000000000E+00 0. -1.
</event>
<event>
 7    1  0.2851651E-013  0.7246163E+02  0.7816164E-02  0.1226708E+00
        -11   -1    0    0    0    0  0.00000000000E+00  0.00000000000E+00  0.45593999997E+02  0.45594000000E+02  0.51100000000E-03 0. -1.
         11   -1    0    0    0    0 -0.00000000000E+00 -0.00000000000E+00 -0.45593999997E+02  0.45594000000E+02  0.51100000000E-03 0.  1.
    9900012    2    1    2    0    0  0.90533204058E+01 -0.61332800781E+01  0.15201881993E+02  0.72461629529E+02  0.70000077164E+02 0.  0.
        -12    1    1    2    0    0 -0.90533204058E+01  0.61332800781E+01 -0.15201881993E+02  0.18726370471E+02  0.00000000000E+00 0.  1.
         11    1    3    3    0    0  0.18769079778E+02  0.22159967426E+02  0.18941165819E+02  0.34671461966E+02  0.51100000000E-03 0. -1.
        -11    1    3    3    0    0 -0.46286188888E+01  0.29975304888E+01 -0.25256799941E+01  0.60653410080E+01  0.51100000000E-03 0.  1.
        -12    1    3    3    0    0 -0.50871404834E+01 -0.31290777992E+02 -0.12136038321E+01  0.31724826555E+02  0.00000000000E+00 0.  1.
</event>
<event>
 7    1  0.2851651E-013  0.7246156E+02  0.7816164E-02  0.1226708E+00
        -11   -1    0    0    0    0  0.00000000000E+00  0.00000000000E+00  0.45593999997E+02  0.45594000000E+02  0.51100000000E-03 0.  1.
         11   -1    0    0    0    0 -0.00000000000E+00 -0.00000000000E+00 -0.45593999997E+02  0.45594000000E+02  0.51100000000E-03 0. -1.
    9900012    2    1    2    0    0 -0.72469296978E+01  0.17243275539E+02 -0.91159759559E+00  0.72461560094E+02  0.69999986713E+02 0.  0.
        -12    1    1    2    0    0  0.72469296978E+01 -0.17243275539E+02  0.91159759559E+00  0.18726439906E+02  0.00000000000E+00 0.  1.
         11    1    3    3    0    0 -0.18607505775E+02 -0.17651856245E+01  0.62862758213E+01  0.19719848261E+02  0.51100000000E-03 0.  1.
        -11    1    3    3    0    0 -0.62030796357E+01 -0.94028321053E+01  0.10097397262E+02  0.15127751991E+02  0.51100000000E-03 0. -1.
         12    1    3    3    0    0  0.17563655713E+02  0.28411293269E+02 -0.17295270679E+02  0.37613959843E+02  0.00000000000E+00 0. -1.
</event>
<event>
 7    1  0.2851651E-013  0.7246160E+02  0.7816164E-02  0.1226708E+00
        -11   -1    0    0    0    0  0.00000000000E+00  0.00000000000E+00  0.45593999997E+02  0.45594000000E+02  0.51100000000E-03 0. -1.
         11   -1    0    0    0    0 -0.00000000000E+00 -0.00000000000E+00 -0.45593999997E+02  0.45594000000E+02  0.51100000000E-03 0.  1.
    9900012    2    1    2    0    0 -0.83121937708E+01 -0.13283678998E+02  0.10253257262E+02  0.72461602122E+02  0.70000041462E+02 0.  0.
        -12    1    1    2    0    0  0.83121937708E+01  0.13283678998E+02 -0.10253257262E+02  0.18726397878E+02  0.00000000000E+00 0.  1.
         11    1    3    3    0    0 -0.11767207063E+02  0.17076704789E+02  0.23470037157E+02  0.31319700715E+02  0.51100000000E-03 0. -1.
        -11    1    3    3    0    0  0.93144989979E+00  0.39085780012E+01  0.68229527304E+00  0.40755500252E+01  0.51100000000E-03 0.  1.
        -12    1    3    3    0    0  0.25235633928E+01 -0.34268961788E+02 -0.13899075168E+02  0.37066351382E+02  0.00000000000E+00 0.  1.
</event>
<event>
 7    1  0.2851651E-013  0.7246146E+02  0.7816164E-02  0.1226708E+00
        -11   -1    0    0    0    0  0.00000000000E+00  0.00000000000E+00  0.45593999997E+02  0.45594000000E+02  0.51100000000E-03 0.  1.
         11   -1    0    0    0    0 -0.00000000000E+00 -0.00000000000E+00 -0.45593999997E+02  0.45594000000E+02  0.51100000000E-03 0. -1.
    9900012    2    1    2    0    0 -0.49744816692E+01  0.64482007896E+01 -0.16862929171E+02  0.72461464241E+02  0.69999861846E+02 0.  0.
        -12    1    1    2    0    0  0.49744816692E+01 -0.64482007896E+01  0.16862929171E+02  0.18726535759E+02  0.00000000000E+00 0.  1.
         11    1    3    3    0    0 -0.22802591623E+02 -0.58895899205E+01  0.16407236621E+01  0.23607995014E+02  0.51100000000E-03 0. -1.
        -11    1    3    3    0    0 -0.93925457728E+01 -0.60487760404E+01 -0.40778301989E-01  0.11171806963E+02  0.51100000000E-03 0.  1.
        -12    1    3    3    0    0  0.27220655727E+02  0.18386566750E+02 -0.18462874531E+02  0.37681662265E+02  0.00000000000E+00 0.  1.
</event>
<event>
 7    1  0.2851651E-013  0.7246162E+02  0.7816164E-02  0.1226708E+00
        -11   -1    0    0    0    0  0.00000000000E+00  0.00000000000E+00  0.45593999997E+02  0.45594000000E+02  0.51100000000E-03 0. -1.
         11   -1    0    0    0    0 -0.00000000000E+00 -0.00000000000E+00 -0.45593999997E+02  0.45594000000E+02  0.51100000000E-03 0.  1.
    9900012    2    1    2    0    0  0.15334783137E+02 -0.10621576387E+02  0.16443905301E+01  0.72461615431E+02  0.70000058798E+02 0.  0.
        -12    1    1    2    0    0 -0.15334783137E+02  0.10621576387E+02 -0.16443905301E+01  0.18726384569E+02  0.00000000000E+00 0.  1.
         11    1    3    3    0    0  0.18451896804E+02 -0.12875216149E+02 -0.21660498693E+01  0.22603881500E+02  0.51100000000E-03 0. -1.
        -11    1    3    3    0    0 -0.16452542797E+02 -0.18044997936E+02  0.68981527227E+01  0.25375039434E+02  0.51100000000E-03 0.  1.
        -12    1    3    3    0    0  0.13335429130E+02  0.20298637698E+02 -0.30877123233E+01  0.24482694497E+02  0.00000000000E+00 0.  1.
</event>
<event>
 7    1  0.2851651E-013  0.7246160E+02  0.7816164E-02  0.1226708E+00
        -11   -1    0    0    0    0  0.00000000000E+00  0.00000000000E+00  0.45593999997E+02  0.45594000000E+02  0.51100000000E-03 0. -1.
         11   -1    0    0    0    0 -0.00000000000E+00 -0.00000000000E+00 -0.45593999997E+02  0.45594000000E+02  0.51100000000E-03 0.  1.
    9900012    2    1    2    0    0  0.27050833428E+00  0.14662623643E+02  0.11645273658E+02  0.72461598706E+02  0.70000037011E+02 0.  0.
        -12    1    1    2    0    0 -0.27050833428E+00 -0.14662623643E+02 -0.11645273658E+02  0.18726401294E+02  0.00000000000E+00 0.  1.
         11    1    3    3    0    0  0.12012634428E+01  0.16159015814E+02  0.16648823638E+02  0.23232308424E+02  0.51100000000E-03 0. -1.
        -11    1    3    3    0    0 -0.99493964260E+01  0.38334514857E+01  0.19697757028E+02  0.22398381007E+02  0.51100000000E-03 0.  1.
        -12    1    3    3    0    0  0.90186413175E+01 -0.53298436568E+01 -0.24701307008E+02  0.26830909275E+02  0.00000000000E+00 0.  1.
</event>
<event>
 7    1  0.2851651E-013  0.7246154E+02  0.7816164E-02  0.1226708E+00
        -11   -1    0    0    0    0  0.00000000000E+00  0.00000000000E+00  0.45593999997E+02  0.45594000000E+02  0.51100000000E-03 0. -1.
         11   -1    0    0    0    0 -0.00000000000E+00 -0.00000000000E+00 -0.45593999997E+02  0.45594000000E+02  0.51100000000E-03 0.  1.
    9900012    2    1    2    0    0 -0.78770088433E+00 -0.18450875415E+02 -0.31024174874E+01  0.72461540897E+02  0.69999961705E+02 0.  0.
        -12    1    1    2    0    0  0.78770088433E+00  0.18450875415E+02  0.31024174874E+01  0.18726459103E+02  0.00000000000E+00 0.  1.
         11    1    3    3    0    0 -0.13628207814E+01 -0.85267207090E+01  0.24626002538E+02  0.26096019769E+02  0.51100000000E-03 0. -1.
        -11    1    3    3    0    0 -0.61697244409E+01 -0.13548630770E+02  0.25761957812E+01  0.15108530053E+02  0.51100000000E-03 0.  1.
        -12    1    3    3    0    0  0.67448443380E+01  0.36244760638E+01 -0.30304615806E+02  0.31256991075E+02  0.00000000000E+00 0.  1.
</event>
<event>
 7    1  0.2851651E-013  0.7246161E+02  0.7816164E-02  0.1226708E+00
        -11   -1    0    0    0    0  0.00000000000E+00  0.00000000000E+00  0.45593999997E+02  0.45594000000E+02  0.51100000000E-03 0.  1.
         11   -1    0    0    0    0 -0.00000000000E+00 -0.00000000000E+00 -0.45593999997E+02  0.45594000000E+02  0.51100000000E-03 0. -1.
    9900012    2    1    2    0    0 -0.71772076886E+00 -0.16011274201E+02 -0.96851349022E+01  0.72461605187E+02  0.70000045454E+02 0.  0.
        -12    1    1    2    0    0  0.71772076886E+00  0.16011274201E+02  0.96851349022E+01  0.18726394813E+02  0.00000000000E+00 0.  1.
         11    1    3    3    0    0 -0.19343775003E+02 -0.11782598531E+02  0.54625110122E+01  0.23299147760E+02  0.51100000000E-03 0. -1.
        -11    1    3    3    0    0  0.11609882758E+02  0.11018257030E+02  0.10040615454E+02  0.18894584531E+02  0.51100000000E-03 0.  1.
         12    1    3    3    0    0  0.70161714759E+01 -0.15246932700E+02 -0.25188261368E+02  0.30267872897E+02  0.00000000000E+00 0. -1.
</event>
<event>
 7    1  0.2851651E-013  0.7246154E+02  0.7816164E-02  0.1226708E+00
        -11   -1    0    0    0    0  0.00000000000E+00  0.00000000000E+00  0.45593999997E+02  0.45594000000E+02  0.51100000000E-03 0.  1.
         11   -1    0    0    0    0 -0.00000000000E+00 -0.00000000000E+00 -0.45593999997E+02  0.45594000000E+02  0.51100000000E-03 0. -1.
    9900012    2    1    2    0    0 -0.44337737073E+01  0.17614235221E+02 -0.45563911768E+01  0.72461539249E+02  0.69999959557E+02 0.  0.
        -12    1    1    2    0    0  0.44337737073E+01 -0.17614235221E+02  0.45563911768E+01  0.18726460751E+02  0.00000000000E+00 0.  1.
         11    1    3    3    0    0 -0.17032133632E+01 -0.26222771259E+01  0.35561845872E+01  0.47353692744E+01  0.51100000000E-03 0. -1.
        -11    1    3    3    0    0  0.60947872494E+01 -0.45482560560E+01  0.24598818422E+02  0.25747522848E+02  0.51100000000E-03 0.  1.
         12    1    3    3    0    0 -0.88253475936E+01  0.24784768403E+02 -0.32711394186E+02  0.41978647126E+02  0.00000000000E+00 0. -1.
</event>
<event>
 7    1  0.2851651E-013  0.7246185E+02  0.7816164E-02  0.1226707E+00
        -11   -1    0    0    0    0  0.00000000000E+00  0.00000000000E+00  0.45593999997E+02  0.45594000000E+02  0.51100000000E-03 0.  1.
         11   -1    0    0    0    0 -0.00000000000E+00 -0.00000000000E+00 -0.45593999997E+02  0.45594000000E+02  0.51100000000E-03 0. -1.
    9900012    2    1    2    0    0 -0.65411202613E+01 -0.17536782057E+02  0.58611680245E+00  0.72461854852E+02  0.70000370689E+02 0.  0.
        -12    1    1    2    0    0  0.65411202613E+01  0.17536782057E+02 -0.58611680245E+00  0.18726145148E+02  0.00000000000E+00 0.  1.
         11    1    3    3    0    0  0.12613816070E+01  0.44515300904E+01 -0.25830741476E+02  0.26241844622E+02  0.51100000000E-03 0. -1.
        -11    1    3    3    0    0  0.21002853634E+01  0.30585018266E+01 -0.40919978075E+01  0.55235928840E+01  0.51100000000E-03 0.  1.
        -12    1    3    3    0    0 -0.99027872318E+01 -0.25046813974E+02  0.30508856086E+02  0.40696417347E+02  0.00000000000E+00 0.  1.
</event>
<event>
 7    1  0.3569232E-013  0.7246157E+02  0.7816164E-02  0.1226708E+00
        -11   -1    0    0    0    0  0.00000000000E+00  0.00000000000E+00  0.45593999997E+02  0.45594000000E+02  0.51100000000E-03 0.  1.
         11   -1    0    0    0    0 -0.00000000000E+00 -0.00000000000E+00 -0.45593999997E+02  0.45594000000E+02  0.51100000000E-03 0. -1.
    9900012    2    1    2    0    0 -0.13287321431E+02 -0.39188829527E+01 -0.12600338222E+02  0.72461572745E+02  0.70000003193E+02 0.  0.
        -12    1    1    2    0    0  0.13287321431E+02  0.39188829527E+01  0.12600338222E+02  0.18726427255E+02  0.00000000000E+00 0.  1.
         11    1    3    3    0    0 -0.24803633431E+01 -0.32841069524E+01 -0.95116286067E+01  0.10363813960E+02  0.51100000000E-03 0. -1.
        -11    1    3    3    0    0  0.25181873446E+02 -0.49804969716E+01  0.46363571571E+00  0.25673859443E+02  0.51100000000E-03 0.  1.
         12    1    3    3    0    0 -0.35988831534E+02  0.43457209713E+01 -0.35523453314E+01  0.36423899342E+02  0.00000000000E+00 0. -1.
</event>
<event>
 7    1  0.2851651E-013  0.7246156E+02  0.7816164E-02  0.1226708E+00
        -11   -1    0    0    0    0  0.00000000000E+00  0.00000000000E+00  0.45593999997E+02  0.45594000000E+02  0.51100000000E-03 0.  1.
         11   -1    0    0    0    0 -0.00000000000E+00 -0.00000000000E+00 -0.45593999997E+02  0.45594000000E+02  0.51100000000E-03 0. -1.
    9900012    2    1    2    0    0  0.10729978967E+02  0.13627880697E+02 -0.70588999314E+01  0.72461557488E+02  0.69999983317E+02 0.  0.
        -12    1    1    2    0    0 -0.10729978967E+02 -0.13627880697E+02  0.70588999314E+01  0.18726442512E+02  0.00000000000E+00 0.  1.
         11    1    3    3    0    0  0.19071836238E+01 -0.94908410854E+01 -0.48846311400E+01  0.10843110048E+02  0.51100000000E-03 0. -1.
        -11    1    3    3    0    0  0.24437172476E+02  0.87406871084E+01  0.18590641845E+02  0.31924707896E+02  0.51100000000E-03 0.  1.
         12    1    3    3    0    0 -0.15614377133E+02  0.14378034674E+02 -0.20764910637E+02  0.29693739544E+02  0.00000000000E+00 0. -1.
</event>
<event>
 7    1  0.2851651E-013  0.7246159E+02  0.7816164E-02  0.1226708E+00
        -11   -1    0    0    0    0  0.00000000000E+00  0.00000000000E+00  0.45593999997E+02  0.45594000000E+02  0.51100000000E-03 0.  1.
         11   -1    0    0    0    0 -0.00000000000E+00 -0.00000000000E+00 -0.45593999997E+02  0.45594000000E+02  0.51100000000E-03 0. -1.
    9900012    2    1    2    0    0 -0.15384493251E+02 -0.47895907272E+01 -0.95422993021E+01  0.72461593834E+02  0.70000030665E+02 0.  0.
        -12    1    1    2    0    0  0.15384493251E+02  0.47895907272E+01  0.95422993021E+01  0.18726406166E+02  0.00000000000E+00 0.  1.
         11    1    3    3    0    0  0.43452123553E+00  0.80432529314E+01 -0.27481004953E+02  0.28637184916E+02  0.51100000000E-03 0. -1.
        -11    1    3    3    0    0 -0.48481994700E+00  0.39448495114E+01 -0.82440727402E+01  0.91521376549E+01  0.51100000000E-03 0.  1.
        -12    1    3    3    0    0 -0.15334194540E+02 -0.16777693170E+02  0.26182778391E+02  0.34672271263E+02  0.00000000000E+00 0.  1.
</event>
<event>
 7    1  0.2851651E-013  0.7246160E+02  0.7816164E-02  0.1226708E+00
        -11   -1    0    0    0    0  0.00000000000E+00  0.00000000000E+00  0.45593999997E+02  0.45594000000E+02  0.51100000000E-03 0. -1.
         11   -1    0    0    0    0 -0.00000000000E+00 -0.00000000000E+00 -0.45593999997E+02  0.45594000000E+02  0.51100000000E-03 0.  1.
    9900012    2    1    2    0    0  0.13149756655E+02 -0.11589789713E+02  0.65907967915E+01  0.72461603443E+02  0.70000043182E+02 0.  0.
        -12    1    1    2    0    0 -0.13149756655E+02  0.11589789713E+02 -0.65907967915E+01  0.18726396557E+02  0.00000000000E+00 0.  1.
         11    1    3    3    0    0  0.18266335641E+02  0.10204508070E+02  0.91333148330E+01  0.22829989987E+02  0.51100000000E-03 0. -1.
        -11    1    3    3    0    0 -0.98135974690E+01  0.48555954611E+01  0.14108292110E+02  0.17858538829E+02  0.51100000000E-03 0.  1.
        -12    1    3    3    0    0  0.46970184823E+01 -0.26649893244E+02 -0.16650810152E+02  0.31773074627E+02  0.00000000000E+00 0.  1.
</event>
<event>
 7    1  0.2851651E-013  0.7246160E+02  0.7816164E-02  0.1226708E+00
        -11   -1    0    0    0    0  0.00000000000E+00  0.00000000000E+00  0.45593999997E+02  0.45594000000E+02  0.51100000000E-03 0. -1.
         11   -1    0    0    0    0 -0.00000000000E+00 -0.00000000000E+00 -0.45593999997E+02  0.45594000000E+02  0.51100000000E-03 0.  1.
    9900012    2    1    2    0    0 -0.49652464128E+01 -0.17588637702E+02  0.40821965408E+01  0.72461596802E+02  0.70000034531E+02 0.  0.
        -12    1    1    2    0    0  0.49652464128E+01  0.17588637702E+02 -0.40821965408E+01  0.18726403198E+02  0.00000000000E+00 0.  1.
         11    1    3    3    0    0  0.51674467590E+00  0.69074009521E+01  0.25903389704E+02  0.26813519191E+02  0.51100000000E-03 0. -1.
        -11    1    3    3    0    0  0.39974057648E+01  0.65044017627E+01 -0.33457107448E+01  0.83354829366E+01  0.51100000000E-03 0.  1.
        -12    1    3    3    0    0 -0.94793968535E+01 -0.31000440417E+02 -0.18475482419E+02  0.37312594674E+02  0.00000000000E+00 0.  1.
</event>
<event>
 7    1  0.2851651E-013  0.7246158E+02  0.7816164E-02  0.1226708E+00
        -11   -1    0    0    0    0  0.00000000000E+00  0.00000000000E+00  0.45593999997E+02  0.45594000000E+02  0.51100000000E-03 0. -1.
         11   -1    0    0    0    0 -0.00000000000E+00 -0.00000000000E+00 -0.45593999997E+02  0.45594000000E+02  0.51100000000E-03 0.  1.
    9900012    2    1    2    0    0 -0.86057925966E+01 -0.87773893657E-01  0.16631634981E+02  0.72461584096E+02  0.70000017979E+02 0.  0.
        -12    1    1    2    0    0  0.86057925966E+01  0.87773893657E-01 -0.16631634981E+02  0.18726415904E+02  0.00000000000E+00 0.  1.
         11    1    3    3    0    0  0.12599112835E+02 -0.12650079452E+02 -0.13976243874E+02  0.22673719313E+02  0.51100000000E-03 0. -1.
        -11    1    3    3    0    0 -0.11956554305E+01 -0.93371437211E+01  0.95496014858E+01  0.13409203316E+02  0.51100000000E-03 0.  1.
        -12    1    3    3    0    0 -0.20009250002E+02  0.21899449280E+02  0.21058277369E+02  0.36378661467E+02  0.00000000000E+00 0.  1.
</event>
<event>
 7    1  0.2851651E-013  0.7246158E+02  0.7816164E-02  0.1226708E+00
        -11   -1    0    0    0    0  0.00000000000E+00  0.00000000000E+00  0.45593999997E+02  0.45594000000E+02  0.51100000000E-03 0. -1.
         11   -1    0    0    0    0 -0.00000000000E+00 -0.00000000000E+00 -0.45593999997E+02  0.45594000000E+02  0.51100000000E-03 0.  1.
    9900012    2    1    2    0    0  0.64393704462E+01 -0.14570906616E+02  0.98438739166E+01  0.72461583764E+02  0.70000017547E+02 0.  0.
        -12    1    1    2    0    0 -0.64393704462E+01  0.14570906616E+02 -0.98438739166E+01  0.18726416236E+02  0.00000000000E+00 0.  1.
         11    1    3    3    0    0 -0.16617522286E+02 -0.16409715333E+01 -0.36919500617E+00  0.16702429156E+02  0.51100000000E-03 0. -1.
        -11    1    3    3    0    0 -0.14141331761E+02  0.28210643538E+01  0.26055176356E+01  0.14653477078E+02  0.51100000000E-03 0.  1.
         12    1    3    3    0    0  0.37198224493E+02 -0.15750999436E+02  0.76075512872E+01  0.41105677531E+02  0.00000000000E+00 0. -1.
</event>
<event>
 7    1  0.2851651E-013  0.7246158E+02  0.7816164E-02  0.1226708E+00
        -11   -1    0    0    0    0  0.00000000000E+00  0.00000000000E+00  0.45593999997E+02  0.45594000000E+02  0.51100000000E-03 0.  1.
         11   -1    0    0    0    0 -0.00000000000E+00 -0.00000000000E+00 -0.45593999997E+02  0.45594000000E+02  0.51100000000E-03 0. -1.
    9900012    2    1    2    0    0  0.20084146715E+01  0.16255303442E+02 -0.90780121179E+01  0.72461576863E+02  0.70000008557E+02 0.  0.
        -12    1    1    2    0    0 -0.20084146715E+01 -0.16255303442E+02  0.90780121179E+01  0.18726423137E+02  0.00000000000E+00 0.  1.
         11    1    3    3    0    0 -0.10601271682E+02 -0.33614733634E+00 -0.11812695108E+01  0.10672176640E+02  0.51100000000E-03 0. -1.
        -11    1    3    3    0    0 -0.15832387765E+02 -0.10179713531E+02  0.68621858481E+01  0.20034486886E+02  0.51100000000E-03 0.  1.
        -12    1    3    3    0    0  0.28442074119E+02  0.26771164309E+02 -0.14758928455E+02  0.41754913337E+02  0.00000000000E+00 0.  1.
</event>
<event>
 7    1  0.2851651E-013  0.7246151E+02  0.7816164E-02  0.1226708E+00
        -11   -1    0    0    0    0  0.00000000000E+00  0.00000000000E+00  0.45593999997E+02  0.45594000000E+02  0.51100000000E-03 0. -1.
         11   -1    0    0    0    0 -0.00000000000E+00 -0.00000000000E+00 -0.45593999997E+02  0.45594000000E+02  0.51100000000E-03 0.  1.
    9900012    2    1    2    0    0  0.24287739186E+01 -0.18541315045E+02  0.10010881540E+01  0.72461508502E+02  0.69999919504E+02 0.  0.
        -12    1    1    2    0    0 -0.24287739186E+01  0.18541315045E+02 -0.10010881540E+01  0.18726491498E+02  0.00000000000E+00 0.  1.
         11    1    3    3    0    0 -0.84401928472E+01 -0.16502487768E+01 -0.10075258985E+02  0.13246547482E+02  0.51100000000E-03 0.  1.
        -11    1    3    3    0    0 -0.24760705439E+01 -0.35308210814E+02  0.57977140766E+01  0.35866616302E+02  0.51100000000E-03 0. -1.
         12    1    3    3    0    0  0.13345037310E+02  0.18417144546E+02  0.52786330625E+01  0.23348344717E+02  0.00000000000E+00 0. -1.
</event>
<event>
 7    1  0.2851651E-013  0.7246159E+02  0.7816164E-02  0.1226708E+00
        -11   -1    0    0    0    0  0.00000000000E+00  0.00000000000E+00  0.45593999997E+02  0.45594000000E+02  0.51100000000E-03 0.  1.
         11   -1    0    0    0    0 -0.00000000000E+00 -0.00000000000E+00 -0.45593999997E+02  0.45594000000E+02  0.51100000000E-03 0. -1.
    9900012    2    1    2    0    0 -0.64652339422E+01  0.83247085872E+01 -0.15478315986E+02  0.72461593811E+02  0.70000030635E+02 0.  0.
        -12    1    1    2    0    0  0.64652339422E+01 -0.83247085872E+01  0.15478315986E+02  0.18726406189E+02  0.00000000000E+00 0.  1.
         11    1    3    3    0    0 -0.22604912419E+02  0.15046568422E+02  0.64597704743E+01  0.27912540580E+02  0.51100000000E-03 0. -1.
        -11    1    3    3    0    0 -0.18410265501E+00 -0.49694986071E+01  0.85675259043E+01  0.99061753758E+01  0.51100000000E-03 0.  1.
         12    1    3    3    0    0  0.16323781132E+02 -0.17523612280E+01 -0.30505612365E+02  0.34642877855E+02  0.00000000000E+00 0. -1.
</event>
<event>
 7    1  0.2851651E-013  0.7246160E+02  0.7816164E-02  0.1226708E+00
        -11   -1    0    0    0    0  0.00000000000E+00  0.00000000000E+00  0.45593999997E+02  0.45594000000E+02  0.51100000000E-03 0.  1.
         11   -1    0    0    0    0 -0.00000000000E+00 -0.00000000000E+00 -0.45593999997E+02  0.45594000000E+02  0.51100000000E-03 0. -1.
    9900012    2    1    2    0    0  0.49627231540E+01 -0.58420031697E+01 -0.17085675396E+02  0.72461603500E+02  0.70000043257E+02 0.  0.
        -12    1    1    2    0    0 -0.49627231540E+01  0.58420031697E+01  0.17085675396E+02  0.18726396500E+02  0.00000000000E+00 0.  1.
         11    1    3    3    0    0 -0.15199727148E+02 -0.14234680296E+02 -0.15453630758E+02  0.25932075358E+02  0.51100000000E-03 0.  1.
        -11    1    3    3    0    0  0.21630085950E+01  0.17026518572E+02 -0.14759678334E+02  0.22636895672E+02  0.51100000000E-03 0. -1.
        -12    1    3    3    0    0  0.17999441707E+02 -0.86338414463E+01  0.13127633696E+02  0.23892632470E+02  0.00000000000E+00 0.  1.
</event>
<event>
 7    1  0.2851651E-013  0.7246157E+02  0.7816164E-02  0.1226708E+00
        -11   -1    0    0    0    0  0.00000000000E+00  0.00000000000E+00  0.45593999997E+02  0.45594000000E+02  0.51100000000E-03 0.  1.
         11   -1    0    0    0    0 -0.00000000000E+00 -0.00000000000E+00 -0.45593999997E+02  0.45594000000E+02  0.51100000000E-03 0. -1.
    9900012    2    1    2    0    0  0.61787997063E+01 -0.14119775866E+02 -0.10636430220E+02  0.72461567233E+02  0.69999996013E+02 0.  0.
        -12    1    1    2    0    0 -0.61787997063E+01  0.14119775866E+02  0.10636430220E+02  0.18726432767E+02  0.00000000000E+00 0.  1.
         11    1    3    3    0    0  0.17618998736E+02 -0.47819223142E-02  0.63192673286E+01  0.18717966747E+02  0.51100000000E-03 0. -1.
        -11    1    3    3    0    0  0.81647692996E+01 -0.48394408098E+01 -0.27885684605E+02  0.29456663953E+02  0.51100000000E-03 0.  1.
        -12    1    3    3    0    0 -0.19604968329E+02 -0.92755531343E+01  0.10929987056E+02  0.24286936533E+02  0.00000000000E+00 0.  1.
</event>
<event>
 7    1  0.2851651E-013  0.7246155E+02  0.7816164E-02  0.1226708E+00
        -11   -1    0    0    0    0  0.00000000000E+00  0.00000000000E+00  0.45593999997E+02  0.45594000000E+02  0.51100000000E-03 0.  1.
         11   -1    0    0    0    0 -0.00000000000E+00 -0.00000000000E+00 -0.45593999997E+02  0.45594000000E+02  0.51100000000E-03 0. -1.
    9900012    2    1    2    0    0 -0.16258939932E+00 -0.12758350779E+02  0.13706854027E+02  0.72461553535E+02  0.69999978168E+02 0.  0.
        -12    1    1    2    0    0  0.16258939932E+00  0.12758350779E+02 -0.13706854027E+02  0.18726446465E+02  0.00000000000E+00 0.  1.
         11    1    3    3    0    0 -0.18761998641E+02 -0.17507725221E+02 -0.31008835245E+01  0.25848568903E+02  0.51100000000E-03 0. -1.
        -11    1    3    3    0    0 -0.78850706560E+00 -0.77034601721E+01 -0.90945213272E+01  0.11944679169E+02  0.51100000000E-03 0.  1.
        -12    1    3    3    0    0  0.19387916307E+02  0.12452834615E+02  0.25902258878E+02  0.34668305463E+02  0.00000000000E+00 0.  1.
</event>
<event>
 7    1  0.2851651E-013  0.7246207E+02  0.7816164E-02  0.1226707E+00
        -11   -1    0    0    0    0  0.00000000000E+00  0.00000000000E+00  0.45593999997E+02  0.45594000000E+02  0.51100000000E-03 0. -1.
         11   -1    0    0    0    0 -0.00000000000E+00 -0.00000000000E+00 -0.45593999997E+02  0.45594000000E+02  0.51100000000E-03 0.  1.
    9900012    2    1    2    0    0  0.11683777805E+02  0.38169143070E+01  0.14127316909E+02  0.72462066601E+02  0.70000646529E+02 0.  0.
        -12    1    1    2    0    0 -0.11683777805E+02 -0.38169143070E+01 -0.14127316909E+02  0.18725933399E+02  0.00000000000E+00 0.  1.
         11    1    3    3    0    0  0.10466748806E+02 -0.54526027598E+01  0.45425228619E+01  0.12645877654E+02  0.51100000000E-03 0. -1.
        -11    1    3    3    0    0  0.20270959205E+02  0.24760836091E+02  0.13890375714E+02  0.34884858159E+02  0.51100000000E-03 0.  1.
        -12    1    3    3    0    0 -0.19053930206E+02 -0.15491319024E+02 -0.43055816667E+01  0.24931330789E+02  0.00000000000E+00 0.  1.
</event>
<event>
 7    1  0.3644563E-013  0.7246164E+02  0.7816164E-02  0.1226708E+00
        -11   -1    0    0    0    0  0.00000000000E+00  0.00000000000E+00  0.45593999997E+02  0.45594000000E+02  0.51100000000E-03 0. -1.
         11   -1    0    0    0    0 -0.00000000000E+00 -0.00000000000E+00 -0.45593999997E+02  0.45594000000E+02  0.51100000000E-03 0.  1.
    9900012    2    1    2    0    0 -0.81088444322E+01 -0.78534768779E+01  0.14941419291E+02  0.72461642438E+02  0.70000093981E+02 0.  0.
        -12    1    1    2    0    0  0.81088444322E+01  0.78534768779E+01 -0.14941419291E+02  0.18726357562E+02  0.00000000000E+00 0.  1.
         11    1    3    3    0    0 -0.14665365373E+02  0.19037559267E+01 -0.78864106199E+00  0.14809428859E+02  0.51100000000E-03 0. -1.
        -11    1    3    3    0    0 -0.73759513155E+01  0.45058269618E+01 -0.17146622585E+02  0.19201921798E+02  0.51100000000E-03 0.  1.
         12    1    3    3    0    0  0.13932472256E+02 -0.14263059766E+02  0.32876682938E+02  0.38450291781E+02  0.00000000000E+00 0. -1.
</event>
<event>
 7    1  0.2851651E-013  0.7246155E+02  0.7816164E-02  0.1226708E+00
        -11   -1    0    0    0    0  0.00000000000E+00  0.00000000000E+00  0.45593999997E+02  0.45594000000E+02  0.51100000000E-03 0.  1.
         11   -1    0    0    0    0 -0.00000000000E+00 -0.00000000000E+00 -0.45593999997E+02  0.45594000000E+02  0.51100000000E-03 0. -1.
    9900012    2    1    2    0    0  0.23940412902E+01  0.35781554610E+01 -0.18224855099E+02  0.72461548826E+02  0.69999972033E+02 0.  0.
        -12    1    1    2    0    0 -0.23940412902E+01 -0.35781554610E+01  0.18224855099E+02  0.18726451174E+02  0.00000000000E+00 0.  1.
         11    1    3    3    0    0 -0.99119500365E+01  0.88299521252E+01 -0.11622282469E+02  0.17643476362E+02  0.51100000000E-03 0. -1.
        -11    1    3    3    0    0  0.13271953161E+02 -0.25123975372E+02 -0.16222318305E+02  0.32718839995E+02  0.51100000000E-03 0.  1.
         12    1    3    3    0    0 -0.96596183424E+00  0.19872178707E+02  0.96197456759E+01  0.22099232469E+02  0.00000000000E+00 0. -1.
</event>
<event>
 7    1  0.2851651E-013  0.7246161E+02  0.7816164E-02  0.1226708E+00
        -11   -1    0    0    0    0  0.00000000000E+00  0.00000000000E+00  0.45593999997E+02  0.45594000000E+02  0.51100000000E-03 0.  1.
         11   -1    0    0    0    0 -0.00000000000E+00 -0.00000000000E+00 -0.45593999997E+02  0.45594000000E+02  0.51100000000E-03 0. -1.
    9900012    2    1    2    0    0 -0.12716722412E+02 -0.64034520580E+01 -0.12163820770E+02  0.72461607851E+02  0.70000048925E+02 0.  0.
        -12    1    1    2    0    0  0.12716722412E+02  0.64034520580E+01  0.12163820770E+02  0.18726392149E+02  0.00000000000E+00 0.  1.
         11    1    3    3    0    0  0.14643873612E+02  0.25669365274E+01 -0.31767678418E+02  0.35074457798E+02  0.51100000000E-03 0. -1.
        -11    1    3    3    0    0 -0.16738556257E+01 -0.43103077999E+01  0.70212143171E+01  0.84070206812E+01  0.51100000000E-03 0.  1.
        -12    1    3    3    0    0 -0.25686740399E+02 -0.46600807856E+01  0.12582643330E+02  0.28980129372E+02  0.00000000000E+00 0.  1.
</event>
<event>
 7    1  0.2851651E-013  0.7246177E+02  0.7816164E-02  0.1226707E+00
        -11   -1    0    0    0    0  0.00000000000E+00  0.00000000000E+00  0.45593999997E+02  0.45594000000E+02  0.51100000000E-03 0. -1.
         11   -1    0    0    0    0 -0.00000000000E+00 -0.00000000000E+00 -0.45593999997E+02  0.45594000000E+02  0.51100000000E-03 0.  1.
    9900012    2    1    2    0    0 -0.80459766928E+01  0.11603244086E+02  0.12300349158E+02  0.72461772306E+02  0.70000263157E+02 0.  0.
        -12    1    1    2    0    0  0.80459766928E+01 -0.11603244086E+02 -0.12300349158E+02  0.18726227694E+02  0.00000000000E+00 0.  1.
         11    1    3    3    0    0 -0.51773019897E+01  0.90794849961E+01 -0.53135580012E+01  0.11724990515E+02  0.51100000000E-03 0.  1.
        -11    1    3    3    0    0 -0.97339711325E+01  0.29013626258E+02  0.11534940396E+02  0.32704671728E+02  0.51100000000E-03 0. -1.
         12    1    3    3    0    0  0.68652964293E+01 -0.26489867168E+02  0.60789667625E+01  0.28032110062E+02  0.00000000000E+00 0. -1.
</event>
<event>
 7    1  0.2851651E-013  0.7246157E+02  0.7816164E-02  0.1226708E+00
        -11   -1    0    0    0    0  0.00000000000E+00  0.00000000000E+00  0.45593999997E+02  0.45594000000E+02  0.51100000000E-03 0.  1.
         11   -1    0    0    0    0 -0.00000000000E+00 -0.00000000000E+00 -0.45593999997E+02  0.45594000000E+02  0.51100000000E-03 0. -1.
    9900012    2    1    2    0    0  0.26547999831E+01 -0.18489537372E+02  0.13298011842E+01  0.72461566107E+02  0.69999994545E+02 0.  0.
        -12    1    1    2    0    0 -0.26547999831E+01  0.18489537372E+02 -0.13298011842E+01  0.18726433893E+02  0.00000000000E+00 0.  1.
         11    1    3    3    0    0 -0.13777101990E+02 -0.32492561593E+02  0.99903454583E+01  0.36679450661E+02  0.51100000000E-03 0. -1.
        -11    1    3    3    0    0 -0.97544530242E+00 -0.72089320856E+01 -0.16108033614E+01  0.74508310330E+01  0.51100000000E-03 0.  1.
        -12    1    3    3    0    0  0.17407347276E+02  0.21211956307E+02 -0.70497409127E+01  0.28331284413E+02  0.00000000000E+00 0.  1.
</event>
<event>
 7    1  0.2851651E-013  0.7246156E+02  0.7816164E-02  0.1226708E+00
        -11   -1    0    0    0    0  0.00000000000E+00  0.00000000000E+00  0.45593999997E+02  0.45594000000E+02  0.51100000000E-03 0.  1.
         11   -1    0    0    0    0 -0.00000000000E+00 -0.00000000000E+00 -0.45593999997E+02  0.45594000000E+02  0.51100000000E-03 0. -1.
    9900012    2    1    2    0    0 -0.18244865036E+02  0.15470713606E+01 -0.39256942703E+01  0.72461558654E+02  0.69999984836E+02 0.  0.
        -12    1    1    2    0    0  0.18244865036E+02 -0.15470713606E+01  0.39256942703E+01  0.18726441346E+02  0.00000000000E+00 0.  1.
         11    1    3    3    0    0 -0.19370173253E+02 -0.67631463627E+01  0.12533808106E+02  0.24042464651E+02  0.51100000000E-03 0. -1.
        -11    1    3    3    0    0 -0.18303683531E+02 -0.74852781381E+01 -0.30313179183E+01  0.20006076781E+02  0.51100000000E-03 0.  1.
         12    1    3    3    0    0  0.19428991747E+02  0.15795495861E+02 -0.13428184458E+02  0.28413017222E+02  0.00000000000E+00 0. -1.
</event>
<event>
 7    1  0.2851651E-013  0.7246157E+02  0.7816164E-02  0.1226708E+00
        -11   -1    0    0    0    0  0.00000000000E+00  0.00000000000E+00  0.45593999997E+02  0.45594000000E+02  0.51100000000E-03 0. -1.
         11   -1    0    0    0    0 -0.00000000000E+00 -0.00000000000E+00 -0.45593999997E+02  0.45594000000E+02  0.51100000000E-03 0.  1.
    9900012    2    1    2    0    0 -0.15570467874E+02 -0.66071512826E+01  0.80364999724E+01  0.72461568154E+02  0.69999997211E+02 0.  0.
        -12    1    1    2    0    0  0.15570467874E+02  0.66071512826E+01 -0.80364999724E+01  0.18726431846E+02  0.00000000000E+00 0.  1.
         11    1    3    3    0    0 -0.99803059460E+00 -0.14145961171E+02  0.27285077565E+02  0.30750280332E+02  0.51100000000E-03 0. -1.
        -11    1    3    3    0    0 -0.50449592360E+01 -0.20877121480E+01  0.89185058890E+01  0.10457050409E+02  0.51100000000E-03 0.  1.
        -12    1    3    3    0    0 -0.95274780435E+01  0.96265220360E+01 -0.28167083482E+02  0.31254237412E+02  0.00000000000E+00 0.  1.
</event>
<event>
 7    1  0.2851651E-013  0.7246156E+02  0.7816164E-02  0.1226708E+00
        -11   -1    0    0    0    0  0.00000000000E+00  0.00000000000E+00  0.45593999997E+02  0.45594000000E+02  0.51100000000E-03 0.  1.
         11   -1    0    0    0    0 -0.00000000000E+00 -0.00000000000E+00 -0.45593999997E+02  0.45594000000E+02  0.51100000000E-03 0. -1.
    9900012    2    1    2    0    0 -0.15254116049E+02  0.11367123625E+01 -0.10802755115E+02  0.72461556411E+02  0.69999981914E+02 0.  0.
        -12    1    1    2    0    0  0.15254116049E+02 -0.11367123625E+01  0.10802755115E+02  0.18726443589E+02  0.00000000000E+00 0.  1.
         11    1    3    3    0    0 -0.15384689761E+02 -0.44650220128E+01  0.14014282018E+02  0.21284388678E+02  0.51100000000E-03 0. -1.
        -11    1    3    3    0    0 -0.95246190199E+01  0.21758269692E+02 -0.21556226828E+02  0.32075092872E+02  0.51100000000E-03 0.  1.
         12    1    3    3    0    0  0.96551927323E+01 -0.16156535317E+02 -0.32608103055E+01  0.19102074861E+02  0.00000000000E+00 0. -1.
</event>
<event>
 7    1  0.2851651E-013  0.7246156E+02  0.7816164E-02  0.1226708E+00
        -11   -1    0    0    0    0  0.00000000000E+00  0.00000000000E+00  0.45593999997E+02  0.45594000000E+02  0.51100000000E-03 0.  1.
         11   -1    0    0    0    0 -0.00000000000E+00 -0.00000000000E+00 -0.45593999997E+02  0.45594000000E+02  0.51100000000E-03 0. -1.
    9900012    2    1    2    0    0  0.15337005722E+02 -0.48698746984E+01 -0.95781080604E+01  0.72461559385E+02  0.69999985788E+02 0.  0.
        -12    1    1    2    0    0 -0.15337005722E+02  0.48698746984E+01  0.95781080604E+01  0.18726440615E+02  0.00000000000E+00 0.  1.
         11    1    3    3    0    0  0.24287817764E+01 -0.49064117672E+01  0.78718994548E+01  0.95884648737E+01  0.51100000000E-03 0. -1.
        -11    1    3    3    0    0 -0.16779634886E+02 -0.12483556356E+01  0.12286236306E+02  0.20834254043E+02  0.51100000000E-03 0.  1.
         12    1    3    3    0    0  0.29687858832E+02  0.12848927045E+01 -0.29736243821E+02  0.42038840468E+02  0.00000000000E+00 0. -1.
</event>
<event>
 7    1  0.2851651E-013  0.7246160E+02  0.7816164E-02  0.1226708E+00
        -11   -1    0    0    0    0  0.00000000000E+00  0.00000000000E+00  0.45593999997E+02  0.45594000000E+02  0.51100000000E-03 0.  1.
         11   -1    0    0    0    0 -0.00000000000E+00 -0.00000000000E+00 -0.45593999997E+02  0.45594000000E+02  0.51100000000E-03 0. -1.
    9900012    2    1    2    0    0  0.76953869947E+00 -0.16098223739E+02 -0.95358807960E+01  0.72461600989E+02  0.70000039986E+02 0.  0.
        -12    1    1    2    0    0 -0.76953869947E+00  0.16098223739E+02  0.95358807960E+01  0.18726399011E+02  0.00000000000E+00 0.  1.
         11    1    3    3    0    0  0.74165383636E+00  0.10008751734E+02  0.60053288187E+01  0.11695688786E+02  0.51100000000E-03 0. -1.
        -11    1    3    3    0    0  0.13709472206E+02 -0.22849864166E+02  0.12471347876E+02  0.29421088333E+02  0.51100000000E-03 0.  1.
         12    1    3    3    0    0 -0.13681587342E+02 -0.32571113069E+01 -0.28012557491E+02  0.31344823870E+02  0.00000000000E+00 0. -1.
</event>
<event>
 7    1  0.2851651E-013  0.7246141E+02  0.7816164E-02  0.1226708E+00
        -11   -1    0    0    0    0  0.00000000000E+00  0.00000000000E+00  0.45593999997E+02  0.45594000000E+02  0.51100000000E-03 0.  1.
         11   -1    0    0    0    0 -0.00000000000E+00 -0.00000000000E+00 -0.45593999997E+02  0.45594000000E+02  0.51100000000E-03 0. -1.
    9900012    2    1    2    0    0  0.29845334827E+01 -0.12714146124E+02 -0.13421191475E+02  0.72461405745E+02  0.69999785644E+02 0.  0.
        -12    1    1    2    0    0 -0.29845334827E+01  0.12714146124E+02  0.13421191475E+02  0.18726594255E+02  0.00000000000E+00 0.  1.
         11    1    3    3    0    0 -0.14471806520E+01 -0.27167459021E+02 -0.16856233125E+02  0.32004652113E+02  0.51100000000E-03 0. -1.
        -11    1    3    3    0    0  0.45682293531E+01 -0.99953807034E+01  0.10300090174E+02  0.15062145023E+02  0.51100000000E-03 0.  1.
        -12    1    3    3    0    0 -0.13651521845E+00  0.24448693600E+02 -0.68650485245E+01  0.25394608609E+02  0.00000000000E+00 0.  1.
</event>
<event>
 7    1  0.2851651E-013  0.7246148E+02  0.7816164E-02  0.1226708E+00
        -11   -1    0    0    0    0  0.00000000000E+00  0.00000000000E+00  0.45593999997E+02  0.45594000000E+02  0.51100000000E-03 0.  1.
         11   -1    0    0    0    0 -0.00000000000E+00 -0.00000000000E+00 -0.45593999997E+02  0.45594000000E+02  0.51100000000E-03 0. -1.
    9900012    2    1    2    0    0 -0.18236175344E+02 -0.40624194951E+01 -0.12731943337E+01  0.72461484917E+02  0.69999888781E+02 0.  0.
        -12    1    1    2    0    0  0.18236175344E+02  0.40624194951E+01  0.12731943337E+01  0.18726515083E+02  0.00000000000E+00 0.  1.
         11    1    3    3    0    0 -0.31376319020E+02  0.67298099199E+01  0.12142486546E+02  0.34310402454E+02  0.51100000000E-03 0. -1.
        -11    1    3    3    0    0  0.12870319019E+01  0.74394464802E+01 -0.14532192265E+02  0.16376398485E+02  0.51100000000E-03 0.  1.
        -12    1    3    3    0    0  0.11853111774E+02 -0.18231675895E+02  0.11165113854E+01  0.21774683978E+02  0.00000000000E+00 0.  1.
</event>
<event>
 7    1  0.2851651E-013  0.7246154E+02  0.7816164E-02  0.1226708E+00
        -11   -1    0    0    0    0  0.00000000000E+00  0.00000000000E+00  0.45593999997E+02  0.45594000000E+02  0.51100000000E-03 0. -1.
         11   -1    0    0    0    0 -0.00000000000E+00 -0.00000000000E+00 -0.45593999997E+02  0.45594000000E+02  0.51100000000E-03 0.  1.
    9900012    2    1    2    0    0 -0.17202166422E+02  0.61037948774E+01  0.41844452295E+01  0.72461536815E+02  0.69999956387E+02 0.  0.
        -12    1    1    2    0    0  0.17202166422E+02 -0.61037948774E+01 -0.41844452295E+01  0.18726463185E+02  0.00000000000E+00 0.  1.
         11    1    3    3    0    0 -0.96802924225E+01  0.93690466025E+00  0.74099395803E+01  0.12226735319E+02  0.51100000000E-03 0. -1.
        -11    1    3    3    0    0  0.25749273295E+01  0.12755047158E+02  0.25625649138E+02  0.28740135225E+02  0.51100000000E-03 0.  1.
        -12    1    3    3    0    0 -0.10096801329E+02 -0.75881569409E+01 -0.28851143489E+02  0.31494666270E+02  0.00000000000E+00 0.  1.
</event>
<event>
 7    1  0.2851651E-013  0.7246154E+02  0.7816164E-02  0.1226708E+00
        -11   -1    0    0    0    0  0.00000000000E+00  0.00000000000E+00  0.45593999997E+02  0.45594000000E+02  0.51100000000E-03 0.  1.
         11   -1    0    0    0    0 -0.00000000000E+00 -0.00000000000E+00 -0.45593999997E+02  0.45594000000E+02  0.51100000000E-03 0. -1.
    9900012    2    1    2    0    0  0.74991583477E+01  0.99108743635E+01 -0.14007759644E+02  0.72461544467E+02  0.69999966356E+02 0.  0.
        -12    1    1    2    0    0 -0.74991583477E+01 -0.99108743635E+01  0.14007759644E+02  0.18726455533E+02  0.00000000000E+00 0.  1.
         11    1    3    3    0    0 -0.54637362818E+01  0.26377091970E+02 -0.12283790967E+02  0.29605656820E+02  0.51100000000E-03 0. -1.
        -11    1    3    3    0    0  0.14326075833E+01  0.86310471032E+01 -0.10693624730E+02  0.13816690947E+02  0.51100000000E-03 0.  1.
        -12    1    3    3    0    0  0.11530287046E+02 -0.25097264710E+02  0.89696560534E+01  0.29039196701E+02  0.00000000000E+00 0.  1.
</event>
<event>
 7    1  0.2851651E-013  0.7246158E+02  0.7816164E-02  0.1226708E+00
        -11   -1    0    0    0    0  0.00000000000E+00  0.00000000000E+00  0.45593999997E+02  0.45594000000E+02  0.51100000000E-03 0.  1.
         11   -1    0    0    0    0 -0.00000000000E+00 -0.00000000000E+00 -0.45593999997E+02  0.45594000000E+02  0.51100000000E-03 0. -1.
    9900012    2    1    2    0    0  0.12212050983E+01  0.12317433452E+02 -0.14052341417E+02  0.72461579945E+02  0.70000012572E+02 0.  0.
        -12    1    1    2    0    0 -0.12212050983E+01 -0.12317433452E+02  0.14052341417E+02  0.18726420055E+02  0.00000000000E+00 0.  1.
         11    1    3    3    0    0  0.78220449076E+01 -0.16959450058E+02 -0.15955848445E+02  0.24564128982E+02  0.51100000000E-03 0. -1.
        -11    1    3    3    0    0  0.11969938149E+02  0.76957057213E+00  0.63728186406E+01  0.13582506243E+02  0.51100000000E-03 0.  1.
        -12    1    3    3    0    0 -0.18570777958E+02  0.28507312938E+02 -0.44693116132E+01  0.34314944721E+02  0.00000000000E+00 0.  1.
</event>
<event>
 7    1  0.2851651E-013  0.7246156E+02  0.7816164E-02  0.1226708E+00
        -11   -1    0    0    0    0  0.00000000000E+00  0.00000000000E+00  0.45593999997E+02  0.45594000000E+02  0.51100000000E-03 0.  1.
         11   -1    0    0    0    0 -0.00000000000E+00 -0.00000000000E+00 -0.45593999997E+02  0.45594000000E+02  0.51100000000E-03 0. -1.
    9900012    2    1    2    0    0 -0.17062787073E+02  0.25898588898E+01 -0.72686741747E+01  0.72461556237E+02  0.69999981687E+02 0.  0.
        -12    1    1    2    0    0  0.17062787073E+02 -0.25898588898E+01  0.72686741747E+01  0.18726443763E+02  0.00000000000E+00 0.  1.
         11    1    3    3    0    0  0.35583979753E+01 -0.10540727889E+01 -0.22744132944E+02  0.23044931097E+02  0.51100000000E-03 0. -1.
        -11    1    3    3    0    0 -0.71767774996E+01 -0.74878778673E+01 -0.12623321427E+02  0.16337768953E+02  0.51100000000E-03 0.  1.
        -12    1    3    3    0    0 -0.13444407549E+02  0.11131809546E+02  0.28098780197E+02  0.33078856187E+02  0.00000000000E+00 0.  1.
</event>
<event>
 7    1  0.2851651E-013  0.7246156E+02  0.7816164E-02  0.1226708E+00
        -11   -1    0    0    0    0  0.00000000000E+00  0.00000000000E+00  0.45593999997E+02  0.45594000000E+02  0.51100000000E-03 0. -1.
         11   -1    0    0    0    0 -0.00000000000E+00 -0.00000000000E+00 -0.45593999997E+02  0.45594000000E+02  0.51100000000E-03 0.  1.
    9900012    2    1    2    0    0 -0.30783929381E+01  0.18414442852E+02  0.14531054767E+01  0.72461555485E+02  0.69999980708E+02 0.  0.
        -12    1    1    2    0    0  0.30783929381E+01 -0.18414442852E+02 -0.14531054767E+01  0.18726444515E+02  0.00000000000E+00 0.  1.
         11    1    3    3    0    0 -0.15625384850E+01 -0.14844125642E+02 -0.12304081652E+02  0.19343733304E+02  0.51100000000E-03 0. -1.
        -11    1    3    3    0    0  0.29491634699E+01 -0.69027885271E+01  0.10043605972E+02  0.12538742991E+02  0.51100000000E-03 0.  1.
        -12    1    3    3    0    0 -0.44650179231E+01  0.40161357021E+02  0.37135811571E+01  0.40579079189E+02  0.00000000000E+00 0.  1.
</event>
<event>
 7    1  0.2851651E-013  0.7246140E+02  0.7816164E-02  0.1226708E+00
        -11   -1    0    0    0    0  0.00000000000E+00  0.00000000000E+00  0.45593999997E+02  0.45594000000E+02  0.51100000000E-03 0. -1.
         11   -1    0    0    0    0 -0.00000000000E+00 -0.00000000000E+00 -0.45593999997E+02  0.45594000000E+02  0.51100000000E-03 0.  1.
    9900012    2    1    2    0    0 -0.46392014591E+01  0.11011628570E+02  0.14418999918E+02  0.72461395594E+02  0.69999772421E+02 0.  0.
        -12    1    1    2    0    0  0.46392014591E+01 -0.11011628570E+02 -0.14418999918E+02  0.18726604406E+02  0.00000000000E+00 0.  1.
         11    1    3    3    0    0 -0.50992766485E+01 -0.42280300939E+01 -0.43433213587E+01  0.79210669419E+01  0.51100000000E-03 0. -1.
        -11    1    3    3    0    0 -0.26655559010E+02 -0.56071970587E+01  0.51146739809E+01  0.27714966628E+02  0.51100000000E-03 0.  1.
         12    1    3    3    0    0  0.27115634199E+02  0.20846855722E+02  0.13647647295E+02  0.36825362025E+02  0.00000000000E+00 0. -1.
</event>
<event>
 7    1  0.2851651E-013  0.7246123E+02  0.7816164E-02  0.1226709E+00
        -11   -1    0    0    0    0  0.00000000000E+00  0.00000000000E+00  0.45593999997E+02  0.45594000000E+02  0.51100000000E-03 0. -1.
         11   -1    0    0    0    0 -0.00000000000E+00 -0.00000000000E+00 -0.45593999997E+02  0.45594000000E+02  0.51100000000E-03 0.  1.
    9900012    2    1    2    0    0  0.91773438281E+01 -0.33917892755E+01  0.15967596929E+02  0.72461227029E+02  0.69999552832E+02 0.  0.
        -12    1    1    2    0    0 -0.91773438281E+01  0.33917892755E+01 -0.15967596929E+02  0.18726772971E+02  0.00000000000E+00 0.  1.
         11    1    3    3    0    0 -0.88740207561E+01  0.75221476301E+01  0.24764194836E+01  0.11893847278E+02  0.51100000000E-03 0. -1.
        -11    1    3    3    0    0 -0.15376578840E+02 -0.79550089225E+01  0.19927090422E+02  0.26397164179E+02  0.51100000000E-03 0.  1.
         12    1    3    3    0    0  0.33427943424E+02 -0.29589279831E+01 -0.64359129764E+01  0.34170215572E+02  0.00000000000E+00 0. -1.
</event>
<event>
 7    1  0.2851651E-013  0.7246183E+02  0.7816164E-02  0.1226707E+00
        -11   -1    0    0    0    0  0.00000000000E+00  0.00000000000E+00  0.45593999997E+02  0.45594000000E+02  0.51100000000E-03 0. -1.
         11   -1    0    0    0    0 -0.00000000000E+00 -0.00000000000E+00 -0.45593999997E+02  0.45594000000E+02  0.51100000000E-03 0.  1.
    9900012    2    1    2    0    0 -0.63050149344E+01  0.48456572327E+01  0.16953932714E+02  0.72461830028E+02  0.70000338351E+02 0.  0.
        -12    1    1    2    0    0  0.63050149344E+01 -0.48456572327E+01 -0.16953932714E+02  0.18726169972E+02  0.00000000000E+00 0.  1.
         11    1    3    3    0    0  0.10513733839E+02  0.17105860011E+01  0.41059336501E+01  0.11415927255E+02  0.51100000000E-03 0. -1.
        -11    1    3    3    0    0  0.21189433627E+02  0.41988750240E+01  0.59065361549E+01  0.22394414895E+02  0.51100000000E-03 0.  1.
         12    1    3    3    0    0 -0.38008182400E+02 -0.10638037924E+01  0.69414629089E+01  0.38651487878E+02  0.00000000000E+00 0. -1.
</event>
<event>
 7    1  0.2851651E-013  0.7246157E+02  0.7816164E-02  0.1226708E+00
        -11   -1    0    0    0    0  0.00000000000E+00  0.00000000000E+00  0.45593999997E+02  0.45594000000E+02  0.51100000000E-03 0.  1.
         11   -1    0    0    0    0 -0.00000000000E+00 -0.00000000000E+00 -0.45593999997E+02  0.45594000000E+02  0.51100000000E-03 0. -1.
    9900012    2    1    2    0    0  0.14295844416E+02 -0.37517499177E+01  0.11499237844E+02  0.72461567719E+02  0.69999996645E+02 0.  0.
        -12    1    1    2    0    0 -0.14295844416E+02  0.37517499177E+01 -0.11499237844E+02  0.18726432281E+02  0.00000000000E+00 0.  1.
         11    1    3    3    0    0  0.18098144627E+02  0.23189029004E+01  0.97399741690E+01  0.20683018317E+02  0.51100000000E-03 0. -1.
        -11    1    3    3    0    0 -0.59481276769E+01  0.22221819389E+02  0.38660163865E+01  0.23326713502E+02  0.51100000000E-03 0.  1.
         12    1    3    3    0    0  0.21458274653E+01 -0.28292472207E+02 -0.21067527120E+01  0.28451835901E+02  0.00000000000E+00 0. -1.
</event>
<event>
 7    1  0.2851651E-013  0.7246157E+02  0.7816164E-02  0.1226708E+00
        -11   -1    0    0    0    0  0.00000000000E+00  0.00000000000E+00  0.45593999997E+02  0.45594000000E+02  0.51100000000E-03 0.  1.
         11   -1    0    0    0    0 -0.00000000000E+00 -0.00000000000E+00 -0.45593999997E+02  0.45594000000E+02  0.51100000000E-03 0. -1.
    9900012    2    1    2    0    0  0.12749072929E+01 -0.15494317451E+02 -0.10439339695E+02  0.72461572814E+02  0.70000003283E+02 0.  0.
        -12    1    1    2    0    0 -0.12749072929E+01  0.15494317451E+02  0.10439339695E+02  0.18726427186E+02  0.00000000000E+00 0.  1.
         11    1    3    3    0    0 -0.90966657417E+00  0.91261689957E+00  0.35425496362E+01  0.37696181594E+01  0.51100000000E-03 0. -1.
        -11    1    3    3    0    0  0.24696243149E+01  0.23700274185E+02  0.49544502580E+01  0.24338213129E+02  0.51100000000E-03 0.  1.
         12    1    3    3    0    0 -0.28505044786E+00 -0.40107208536E+02 -0.18936339589E+02  0.44353741526E+02  0.00000000000E+00 0. -1.
</event>
<event>
 7    1  0.2851651E-013  0.7246156E+02  0.7816164E-02  0.1226708E+00
        -11   -1    0    0    0    0  0.00000000000E+00  0.00000000000E+00  0.45593999997E+02  0.45594000000E+02  0.51100000000E-03 0. -1.
         11   -1    0    0    0    0 -0.00000000000E+00 -0.00000000000E+00 -0.45593999997E+02  0.45594000000E+02  0.51100000000E-03 0.  1.
    9900012    2    1    2    0    0 -0.38830371540E+01 -0.26059489000E+01  0.18133132784E+02  0.72461562758E+02  0.69999990183E+02 0.  0.
        -12    1    1    2    0    0  0.38830371540E+01  0.26059489000E+01 -0.18133132784E+02  0.18726437242E+02  0.00000000000E+00 0.  1.
         11    1    3    3    0    0 -0.11558012167E+02 -0.28675671317E+02  0.24035789331E+01  0.31010626609E+02  0.51100000000E-03 0. -1.
        -11    1    3    3    0    0 -0.73542131596E+01  0.45110448942E+01 -0.30496009327E+01  0.91506307621E+01  0.51100000000E-03 0.  1.
        -12    1    3    3    0    0  0.15029188173E+02  0.21558677523E+02  0.18779154784E+02  0.32300305387E+02  0.00000000000E+00 0.  1.
</event>
<event>
 7    1  0.2851651E-013  0.7246159E+02  0.7816164E-02  0.1226708E+00
        -11   -1    0    0    0    0  0.00000000000E+00  0.00000000000E+00  0.45593999997E+02  0.45594000000E+02  0.51100000000E-03 0.  1.
         11   -1    0    0    0    0 -0.00000000000E+00 -0.00000000000E+00 -0.45593999997E+02  0.45594000000E+02  0.51100000000E-03 0. -1.
    9900012    2    1    2    0    0  0.13334956205E+02  0.74733370463E+01  0.10816962482E+02  0.72461588146E+02  0.70000023255E+02 0.  0.
        -12    1    1    2    0    0 -0.13334956205E+02 -0.74733370463E+01 -0.10816962482E+02  0.18726411854E+02  0.00000000000E+00 0.  1.
         11    1    3    3    0    0 -0.27184859746E+01  0.32512843088E+02  0.12635986765E+02  0.34987759195E+02  0.51100000000E-03 0. -1.
        -11    1    3    3    0    0 -0.35402799717E+01 -0.10845094612E+01  0.45616869556E+01  0.58752643508E+01  0.51100000000E-03 0.  1.
        -12    1    3    3    0    0  0.19593722151E+02 -0.23954996581E+02 -0.63807112385E+01  0.31598564600E+02  0.00000000000E+00 0.  1.
</event>
<event>
 7    1  0.2851651E-013  0.7246149E+02  0.7816164E-02  0.1226708E+00
        -11   -1    0    0    0    0  0.00000000000E+00  0.00000000000E+00  0.45593999997E+02  0.45594000000E+02  0.51100000000E-03 0. -1.
         11   -1    0    0    0    0 -0.00000000000E+00 -0.00000000000E+00 -0.45593999997E+02  0.45594000000E+02  0.51100000000E-03 0.  1.
    9900012    2    1    2    0    0  0.14155865205E+02  0.63619753341E+01 -0.10479449223E+02  0.72461491894E+02  0.69999897868E+02 0.  0.
        -12    1    1    2    0    0 -0.14155865205E+02 -0.63619753341E+01  0.10479449223E+02  0.18726508106E+02  0.00000000000E+00 0.  1.
         11    1    3    3    0    0 -0.10453096436E+02 -0.78464343076E+01  0.73292612485E+01  0.14985053458E+02  0.51100000000E-03 0. -1.
        -11    1    3    3    0    0  0.17328715286E+02 -0.14607784692E+02 -0.15916018906E+02  0.27694609677E+02  0.51100000000E-03 0.  1.
         12    1    3    3    0    0  0.72802463549E+01  0.28816194333E+02 -0.18926915651E+01  0.29781828759E+02  0.00000000000E+00 0. -1.
</event>
<event>
 7    1  0.2851651E-013  0.7246159E+02  0.7816164E-02  0.1226708E+00
        -11   -1    0    0    0    0  0.00000000000E+00  0.00000000000E+00  0.45593999997E+02  0.45594000000E+02  0.51100000000E-03 0. -1.
         11   -1    0    0    0    0 -0.00000000000E+00 -0.00000000000E+00 -0.45593999997E+02  0.45594000000E+02  0.51100000000E-03 0.  1.
    9900012    2    1    2    0    0 -0.17725523131E+02  0.30669014696E+01  0.52036911972E+01  0.72461589320E+02  0.70000024784E+02 0.  0.
        -12    1    1    2    0    0  0.17725523131E+02 -0.30669014696E+01 -0.52036911972E+01  0.18726410680E+02  0.00000000000E+00 0.  1.
         11    1    3    3    0    0 -0.69907609856E+01 -0.69761644815E+01 -0.43294427570E+01  0.10783398577E+02  0.51100000000E-03 0. -1.
        -11    1    3    3    0    0 -0.30085826460E+02  0.18254029911E+02 -0.57919981328E+01  0.35663900578E+02  0.51100000000E-03 0.  1.
         12    1    3    3    0    0  0.19351064315E+02 -0.82109639598E+01  0.15325132087E+02  0.26014290164E+02  0.00000000000E+00 0. -1.
</event>
<event>
 7    1  0.2851651E-013  0.7246156E+02  0.7816164E-02  0.1226708E+00
        -11   -1    0    0    0    0  0.00000000000E+00  0.00000000000E+00  0.45593999997E+02  0.45594000000E+02  0.51100000000E-03 0.  1.
         11   -1    0    0    0    0 -0.00000000000E+00 -0.00000000000E+00 -0.45593999997E+02  0.45594000000E+02  0.51100000000E-03 0. -1.
    9900012    2    1    2    0    0 -0.14456568849E+02  0.59881115199E+00 -0.11888170660E+02  0.72461559887E+02  0.69999986442E+02 0.  0.
        -12    1    1    2    0    0  0.14456568849E+02 -0.59881115199E+00  0.11888170660E+02  0.18726440113E+02  0.00000000000E+00 0.  1.
         11    1    3    3    0    0  0.20370464634E+01 -0.14001778369E+02 -0.17492561688E+02  0.22498645969E+02  0.51100000000E-03 0. -1.
        -11    1    3    3    0    0  0.61174907998E+01 -0.10030589083E+02 -0.76235166668E+01  0.14005513831E+02  0.51100000000E-03 0.  1.
         12    1    3    3    0    0 -0.22611106113E+02  0.24631178603E+02  0.13227907695E+02  0.35957400087E+02  0.00000000000E+00 0. -1.
</event>
<event>
 7    1  0.2851651E-013  0.7246162E+02  0.7816164E-02  0.1226708E+00
        -11   -1    0    0    0    0  0.00000000000E+00  0.00000000000E+00  0.45593999997E+02  0.45594000000E+02  0.51100000000E-03 0.  1.
         11   -1    0    0    0    0 -0.00000000000E+00 -0.00000000000E+00 -0.45593999997E+02  0.45594000000E+02  0.51100000000E-03 0. -1.
    9900012    2    1    2    0    0  0.90469592430E+00 -0.89782035687E+01 -0.16408864856E+02  0.72461615942E+02  0.70000059464E+02 0.  0.
        -12    1    1    2    0    0 -0.90469592430E+00  0.89782035687E+01  0.16408864856E+02  0.18726384058E+02  0.00000000000E+00 0.  1.
         11    1    3    3    0    0 -0.99917953480E+01 -0.22943562209E+02 -0.24402987246E+01  0.25143549456E+02  0.51100000000E-03 0. -1.
        -11    1    3    3    0    0 -0.52951947483E+01 -0.10830738323E+02  0.39718430391E+01  0.12693286313E+02  0.51100000000E-03 0.  1.
         12    1    3    3    0    0  0.16191686021E+02  0.24796096963E+02 -0.17940409170E+02  0.34624780173E+02  0.00000000000E+00 0. -1.
</event>
<event>
 7    1  0.2851651E-013  0.7246157E+02  0.7816164E-02  0.1226708E+00
        -11   -1    0    0    0    0  0.00000000000E+00  0.00000000000E+00  0.45593999997E+02  0.45594000000E+02  0.51100000000E-03 0.  1.
         11   -1    0    0    0    0 -0.00000000000E+00 -0.00000000000E+00 -0.45593999997E+02  0.45594000000E+02  0.51100000000E-03 0. -1.
    9900012    2    1    2    0    0  0.70983627294E+01  0.24602155635E+00 -0.17327206039E+02  0.72461565498E+02  0.69999993751E+02 0.  0.
        -12    1    1    2    0    0 -0.70983627294E+01 -0.24602155635E+00  0.17327206039E+02  0.18726434502E+02  0.00000000000E+00 0.  1.
         11    1    3    3    0    0  0.27570962198E+02  0.12199683107E+02 -0.42395655484E+01  0.30446085803E+02  0.51100000000E-03 0. -1.
        -11    1    3    3    0    0 -0.10318697736E+02  0.68458508419E+01 -0.16234973421E+02  0.20418510204E+02  0.51100000000E-03 0.  1.
        -12    1    3    3    0    0 -0.10153901733E+02 -0.18799512392E+02  0.31473329302E+01  0.21596969490E+02  0.00000000000E+00 0.  1.
</event>
<event>
 7    1  0.2851651E-013  0.7246159E+02  0.7816164E-02  0.1226708E+00
        -11   -1    0    0    0    0  0.00000000000E+00  0.00000000000E+00  0.45593999997E+02  0.45594000000E+02  0.51100000000E-03 0. -1.
         11   -1    0    0    0    0 -0.00000000000E+00 -0.00000000000E+00 -0.45593999997E+02  0.45594000000E+02  0.51100000000E-03 0.  1.
    9900012    2    1    2    0    0 -0.11034287159E+02  0.57252694597E+01  0.14005151341E+02  0.72461589036E+02  0.70000024415E+02 0.  0.
        -12    1    1    2    0    0  0.11034287159E+02 -0.57252694597E+01 -0.14005151341E+02  0.18726410964E+02  0.00000000000E+00 0.  1.
         11    1    3    3    0    0 -0.21468600044E+02  0.14095953144E+02  0.32747821963E+02  0.41617502646E+02  0.51100000000E-03 0. -1.
        -11    1    3    3    0    0  0.35663942115E+01  0.64787917980E+01 -0.25441833438E+01  0.78209193821E+01  0.51100000000E-03 0.  1.
        -12    1    3    3    0    0  0.68679186735E+01 -0.14849475482E+02 -0.16198487278E+02  0.23023167008E+02  0.00000000000E+00 0.  1.
</event>
<event>
 7    1  0.2851651E-013  0.7246164E+02  0.7816164E-02  0.1226708E+00
        -11   -1    0    0    0    0  0.00000000000E+00  0.00000000000E+00  0.45593999997E+02  0.45594000000E+02  0.51100000000E-03 0.  1.
         11   -1    0    0    0    0 -0.00000000000E+00 -0.00000000000E+00 -0.45593999997E+02  0.45594000000E+02  0.51100000000E-03 0. -1.
    9900012    2    1    2    0    0  0.72750273587E+01 -0.62172684173E+01 -0.16096465894E+02  0.72461637195E+02  0.70000087150E+02 0.  0.
        -12    1    1    2    0    0 -0.72750273587E+01  0.62172684173E+01  0.16096465894E+02  0.18726362805E+02  0.00000000000E+00 0.  1.
         11    1    3    3    0    0 -0.15739380626E+00 -0.13040156396E+01 -0.59268648583E+00  0.14410090666E+01  0.51100000000E-03 0. -1.
        -11    1    3    3    0    0  0.21352199289E+02 -0.29230403732E+02 -0.21863166443E+02  0.42288662358E+02  0.51100000000E-03 0.  1.
         12    1    3    3    0    0 -0.13919778124E+02  0.24317150954E+02  0.63593870349E+01  0.28731965770E+02  0.00000000000E+00 0. -1.
</event>
<event>
 7    1  0.2851651E-013  0.7246155E+02  0.7816164E-02  0.1226708E+00
        -11   -1    0    0    0    0  0.00000000000E+00  0.00000000000E+00  0.45593999997E+02  0.45594000000E+02  0.51100000000E-03 0.  1.
         11   -1    0    0    0    0 -0.00000000000E+00 -0.00000000000E+00 -0.45593999997E+02  0.45594000000E+02  0.51100000000E-03 0. -1.
    9900012    2    1    2    0    0 -0.16881529786E+02  0.80701197199E+01 -0.75299283198E+00  0.72461551367E+02  0.69999975344E+02 0.  0.
        -12    1    1    2    0    0  0.16881529786E+02 -0.80701197199E+01  0.75299283198E+00  0.18726448633E+02  0.00000000000E+00 0.  1.
         11    1    3    3    0    0  0.10646480537E+02  0.10677019348E+02  0.16911498773E+02  0.22657119874E+02  0.51100000000E-03 0. -1.
        -11    1    3    3    0    0  0.51794549688E+01  0.74513729950E+01  0.33206404458E+01  0.96631447529E+01  0.51100000000E-03 0.  1.
        -12    1    3    3    0    0 -0.32707465291E+02 -0.10058272623E+02 -0.20985132051E+02  0.40141286740E+02  0.00000000000E+00 0.  1.
</event>
<event>
 7    1  0.2851651E-013  0.7246158E+02  0.7816164E-02  0.1226708E+00
        -11   -1    0    0    0    0  0.00000000000E+00  0.00000000000E+00  0.45593999997E+02  0.45594000000E+02  0.51100000000E-03 0. -1.
         11   -1    0    0    0    0 -0.00000000000E+00 -0.00000000000E+00 -0.45593999997E+02  0.45594000000E+02  0.51100000000E-03 0.  1.
    9900012    2    1    2    0    0 -0.11246755141E+02 -0.14334260307E+02 -0.43264665519E+01  0.72461579291E+02  0.70000011720E+02 0.  0.
        -12    1    1    2    0    0  0.11246755141E+02  0.14334260307E+02  0.43264665519E+01  0.18726420709E+02  0.00000000000E+00 0.  1.
         11    1    3    3    0    0  0.48806525185E+01  0.20606924798E+02  0.13319440933E+02  0.25017466412E+02  0.51100000000E-03 0. -1.
        -11    1    3    3    0    0 -0.16495109385E+02 -0.12741245629E+02 -0.35460550838E+01  0.21142433179E+02  0.51100000000E-03 0.  1.
        -12    1    3    3    0    0  0.36770172551E+00 -0.22199939476E+02 -0.14099852401E+02  0.26301679700E+02  0.00000000000E+00 0.  1.
</event>
<event>
 7    1  0.2851651E-013  0.7246169E+02  0.7816164E-02  0.1226708E+00
        -11   -1    0    0    0    0  0.00000000000E+00  0.00000000000E+00  0.45593999997E+02  0.45594000000E+02  0.51100000000E-03 0.  1.
         11   -1    0    0    0    0 -0.00000000000E+00 -0.00000000000E+00 -0.45593999997E+02  0.45594000000E+02  0.51100000000E-03 0. -1.
    9900012    2    1    2    0    0  0.60681565171E+00 -0.74473090589E+00 -0.18701653422E+02  0.72461689897E+02  0.70000155805E+02 0.  0.
        -12    1    1    2    0    0 -0.60681565171E+00  0.74473090589E+00  0.18701653422E+02  0.18726310103E+02  0.00000000000E+00 0.  1.
         11    1    3    3    0    0 -0.14014473049E+02 -0.49018123148E+01 -0.29251739763E+02  0.32803925043E+02  0.51100000000E-03 0. -1.
        -11    1    3    3    0    0  0.33821502308E+01 -0.15342633808E+02  0.48032532174E+01  0.16428834228E+02  0.51100000000E-03 0.  1.
         12    1    3    3    0    0  0.11239138470E+02  0.19499715217E+02  0.57468331235E+01  0.23228930626E+02  0.00000000000E+00 0. -1.
</event>
<event>
 7    1  0.2851651E-013  0.7246156E+02  0.7816164E-02  0.1226708E+00
        -11   -1    0    0    0    0  0.00000000000E+00  0.00000000000E+00  0.45593999997E+02  0.45594000000E+02  0.51100000000E-03 0.  1.
         11   -1    0    0    0    0 -0.00000000000E+00 -0.00000000000E+00 -0.45593999997E+02  0.45594000000E+02  0.51100000000E-03 0. -1.
    9900012    2    1    2    0    0  0.14491386946E+02  0.25918566981E+01 -0.11574174130E+02  0.72461560842E+02  0.69999987686E+02 0.  0.
        -12    1    1    2    0    0 -0.14491386946E+02 -0.25918566981E+01  0.11574174130E+02  0.18726439158E+02  0.00000000000E+00 0.  1.
         11    1    3    3    0    0  0.17280164730E+02 -0.10526956270E+02 -0.50050052572E+01  0.20843967455E+02  0.51100000000E-03 0. -1.
        -11    1    3    3    0    0  0.11515284521E+02  0.14536188890E+02 -0.23157647909E+02  0.29667814580E+02  0.51100000000E-03 0.  1.
        -12    1    3    3    0    0 -0.14304062304E+02 -0.14173759219E+01  0.16588479036E+02  0.21949778806E+02  0.00000000000E+00 0.  1.
</event>
<event>
 7    1  0.2851651E-013  0.7246154E+02  0.7816164E-02  0.1226708E+00
        -11   -1    0    0    0    0  0.00000000000E+00  0.00000000000E+00  0.45593999997E+02  0.45594000000E+02  0.51100000000E-03 0. -1.
         11   -1    0    0    0    0 -0.00000000000E+00 -0.00000000000E+00 -0.45593999997E+02  0.45594000000E+02  0.51100000000E-03 0.  1.
    9900012    2    1    2    0    0  0.11248427442E+02  0.98026547513E+01  0.11316405113E+02  0.72461543187E+02  0.69999964688E+02 0.  0.
        -12    1    1    2    0    0 -0.11248427442E+02 -0.98026547513E+01 -0.11316405113E+02  0.18726456813E+02  0.00000000000E+00 0.  1.
         11    1    3    3    0    0  0.59977662602E+01  0.24789260610E+00  0.21965890846E+01  0.63921557180E+01  0.51100000000E-03 0. -1.
        -11    1    3    3    0    0 -0.58650786689E+01  0.27986735323E+02  0.26052368110E+02  0.38683102076E+02  0.51100000000E-03 0.  1.
         12    1    3    3    0    0  0.11115739850E+02 -0.18431973177E+02 -0.16932552082E+02  0.27386285393E+02  0.00000000000E+00 0. -1.
</event>
<event>
 7    1  0.2851651E-013  0.7246157E+02  0.7816164E-02  0.1226708E+00
        -11   -1    0    0    0    0  0.00000000000E+00  0.00000000000E+00  0.45593999997E+02  0.45594000000E+02  0.51100000000E-03 0. -1.
         11   -1    0    0    0    0 -0.00000000000E+00 -0.00000000000E+00 -0.45593999997E+02  0.45594000000E+02  0.51100000000E-03 0.  1.
    9900012    2    1    2    0    0 -0.32882662580E+01 -0.13660241033E+02  0.12379998107E+02  0.72461568594E+02  0.69999997785E+02 0.  0.
        -12    1    1    2    0    0  0.32882662580E+01  0.13660241033E+02 -0.12379998107E+02  0.18726431406E+02  0.00000000000E+00 0.  1.
         11    1    3    3    0    0  0.62272585253E+00  0.97627309192E+01  0.12766058748E+02  0.16083250875E+02  0.51100000000E-03 0. -1.
        -11    1    3    3    0    0  0.49419067109E+01  0.13953747142E+02  0.83372293278E+01  0.16989375926E+02  0.51100000000E-03 0.  1.
        -12    1    3    3    0    0 -0.88528988214E+01 -0.37376719093E+02 -0.87232899683E+01  0.39388941793E+02  0.00000000000E+00 0.  1.
</event>
<event>
 7    1  0.2851651E-013  0.7246150E+02  0.7816164E-02  0.1226708E+00
        -11   -1    0    0    0    0  0.00000000000E+00  0.00000000000E+00  0.45593999997E+02  0.45594000000E+02  0.51100000000E-03 0.  1.
         11   -1    0    0    0    0 -0.00000000000E+00 -0.00000000000E+00 -0.45593999997E+02  0.45594000000E+02  0.51100000000E-03 0. -1.
    9900012    2    1    2    0    0 -0.36727350213E+01 -0.14337110187E+02 -0.11473452305E+02  0.72461499557E+02  0.69999907851E+02 0.  0.
        -12    1    1    2    0    0  0.36727350213E+01  0.14337110187E+02  0.11473452305E+02  0.18726500443E+02  0.00000000000E+00 0.  1.
         11    1    3    3    0    0 -0.48008792139E+01 -0.33992469734E+01  0.10497847688E+01  0.59753970190E+01  0.51100000000E-03 0. -1.
        -11    1    3    3    0    0 -0.25718820367E+02  0.23231897006E+01 -0.23181628309E+02  0.34702201988E+02  0.51100000000E-03 0.  1.
         12    1    3    3    0    0  0.26846964560E+02 -0.13261052914E+02  0.10658391235E+02  0.31783900550E+02  0.00000000000E+00 0. -1.
</event>
<event>
 7    1  0.2851651E-013  0.7246155E+02  0.7816164E-02  0.1226708E+00
        -11   -1    0    0    0    0  0.00000000000E+00  0.00000000000E+00  0.45593999997E+02  0.45594000000E+02  0.51100000000E-03 0.  1.
         11   -1    0    0    0    0 -0.00000000000E+00 -0.00000000000E+00 -0.45593999997E+02  0.45594000000E+02  0.51100000000E-03 0. -1.
    9900012    2    1    2    0    0 -0.90960230707E+01  0.16313116994E+02  0.13506747212E+01  0.72461554957E+02  0.69999980020E+02 0.  0.
        -12    1    1    2    0    0  0.90960230707E+01 -0.16313116994E+02 -0.13506747212E+01  0.18726445043E+02  0.00000000000E+00 0.  1.
         11    1    3    3    0    0 -0.10428429529E+02 -0.23482711916E+01  0.70297987770E+01  0.12793927901E+02  0.51100000000E-03 0. -1.
        -11    1    3    3    0    0  0.78880479053E+01 -0.18740444957E+02  0.34253830927E+01  0.20619379878E+02  0.51100000000E-03 0.  1.
         12    1    3    3    0    0 -0.65556414474E+01  0.37401833143E+02 -0.91045071486E+01  0.39048247178E+02  0.00000000000E+00 0. -1.
</event>
<event>
 7    1  0.2851651E-013  0.7246159E+02  0.7816164E-02  0.1226708E+00
        -11   -1    0    0    0    0  0.00000000000E+00  0.00000000000E+00  0.45593999997E+02  0.45594000000E+02  0.51100000000E-03 0.  1.
         11   -1    0    0    0    0 -0.00000000000E+00 -0.00000000000E+00 -0.45593999997E+02  0.45594000000E+02  0.51100000000E-03 0. -1.
    9900012    2    1    2    0    0 -0.57653246233E+01  0.17542744041E+02 -0.31131611343E+01  0.72461585267E+02  0.70000019505E+02 0.  0.
        -12    1    1    2    0    0  0.57653246233E+01 -0.17542744041E+02  0.31131611343E+01  0.18726414733E+02  0.00000000000E+00 0.  1.
         11    1    3    3    0    0 -0.12001805289E+02  0.27209708681E+02 -0.94450269706E+01  0.31202886268E+02  0.51100000000E-03 0. -1.
        -11    1    3    3    0    0 -0.76099113462E+01  0.12210753608E+02 -0.77802336272E+00  0.14408975501E+02  0.51100000000E-03 0.  1.
        -12    1    3    3    0    0  0.13846392011E+02 -0.21877718249E+02  0.71098891990E+01  0.26849723498E+02  0.00000000000E+00 0.  1.
</event>
<event>
 7    1  0.2851651E-013  0.7246146E+02  0.7816164E-02  0.1226708E+00
        -11   -1    0    0    0    0  0.00000000000E+00  0.00000000000E+00  0.45593999997E+02  0.45594000000E+02  0.51100000000E-03 0.  1.
         11   -1    0    0    0    0 -0.00000000000E+00 -0.00000000000E+00 -0.45593999997E+02  0.45594000000E+02  0.51100000000E-03 0. -1.
    9900012    2    1    2    0    0 -0.80939956311E+01  0.11973060253E+02 -0.11908674276E+02  0.72461455735E+02  0.69999850765E+02 0.  0.
        -12    1    1    2    0    0  0.80939956311E+01 -0.11973060253E+02  0.11908674276E+02  0.18726544265E+02  0.00000000000E+00 0.  1.
         11    1    3    3    0    0 -0.21308832812E+02  0.12334915810E+02  0.54449851416E+01  0.25216351189E+02  0.51100000000E-03 0. -1.
        -11    1    3    3    0    0  0.57928035061E+01  0.19279716896E+02 -0.20042874410E+00  0.20132168984E+02  0.51100000000E-03 0.  1.
        -12    1    3    3    0    0  0.74220336746E+01 -0.19641572453E+02 -0.17153230673E+02  0.27112935562E+02  0.00000000000E+00 0.  1.
</event>
<event>
 7    1  0.2851651E-013  0.7246156E+02  0.7816164E-02  0.1226708E+00
        -11   -1    0    0    0    0  0.00000000000E+00  0.00000000000E+00  0.45593999997E+02  0.45594000000E+02  0.51100000000E-03 0.  1.
         11   -1    0    0    0    0 -0.00000000000E+00 -0.00000000000E+00 -0.45593999997E+02  0.45594000000E+02  0.51100000000E-03 0. -1.
    9900012    2    1    2    0    0 -0.18108906649E+02 -0.33384391676E+01 -0.34061785184E+01  0.72461555378E+02  0.69999980569E+02 0.  0.
        -12    1    1    2    0    0  0.18108906649E+02  0.33384391676E+01  0.34061785184E+01  0.18726444622E+02  0.00000000000E+00 0.  1.
         11    1    3    3    0    0  0.45618419416E+01 -0.12943861911E+01  0.17931183947E+01  0.50696263521E+01  0.51100000000E-03 0. -1.
        -11    1    3    3    0    0 -0.28226886148E+02 -0.45516613051E+01  0.24144079163E+02  0.37422069439E+02  0.51100000000E-03 0.  1.
         12    1    3    3    0    0  0.55561375574E+01  0.25076083285E+01 -0.29343376076E+02  0.29969859587E+02  0.00000000000E+00 0. -1.
</event>
<event>
 7    1  0.2851651E-013  0.7246158E+02  0.7816164E-02  0.1226708E+00
        -11   -1    0    0    0    0  0.00000000000E+00  0.00000000000E+00  0.45593999997E+02  0.45594000000E+02  0.51100000000E-03 0. -1.
         11   -1    0    0    0    0 -0.00000000000E+00 -0.00000000000E+00 -0.45593999997E+02  0.45594000000E+02  0.51100000000E-03 0.  1.
    9900012    2    1    2    0    0  0.17746609191E+02  0.58343547165E+01  0.13027170679E+01  0.72461577371E+02  0.70000009218E+02 0.  0.
        -12    1    1    2    0    0 -0.17746609191E+02 -0.58343547165E+01 -0.13027170679E+01  0.18726422629E+02  0.00000000000E+00 0.  1.
         11    1    3    3    0    0  0.32978110750E+01 -0.10833376259E+02 -0.60264958722E+01  0.12827948075E+02  0.51100000000E-03 0. -1.
        -11    1    3    3    0    0 -0.18130259453E+02  0.11771950974E+02  0.14353600564E+02  0.25948236684E+02  0.51100000000E-03 0.  1.
         12    1    3    3    0    0  0.32579057569E+02  0.48957800016E+01 -0.70243876244E+01  0.33685392612E+02  0.00000000000E+00 0. -1.
</event>
<event>
 7    1  0.2851651E-013  0.7246150E+02  0.7816164E-02  0.1226708E+00
        -11   -1    0    0    0    0  0.00000000000E+00  0.00000000000E+00  0.45593999997E+02  0.45594000000E+02  0.51100000000E-03 0. -1.
         11   -1    0    0    0    0 -0.00000000000E+00 -0.00000000000E+00 -0.45593999997E+02  0.45594000000E+02  0.51100000000E-03 0.  1.
    9900012    2    1    2    0    0  0.37104265114E+01  0.98754405754E+01  0.15472235779E+02  0.72461503492E+02  0.69999912978E+02 0.  0.
        -12    1    1    2    0    0 -0.37104265114E+01 -0.98754405754E+01 -0.15472235779E+02  0.18726496508E+02  0.00000000000E+00 0.  1.
         11    1    3    3    0    0  0.42402714381E+01  0.28122840185E+00  0.11188595550E+02  0.11968444423E+02  0.51100000000E-03 0. -1.
        -11    1    3    3    0    0  0.17488673826E+02 -0.10995986402E+02  0.20155376526E+02  0.28861819629E+02  0.51100000000E-03 0.  1.
        -12    1    3    3    0    0 -0.18018518753E+02  0.20590198575E+02 -0.15871736296E+02  0.31631239440E+02  0.00000000000E+00 0.  1.
</event>
<event>
 7    1  0.2851651E-013  0.7246201E+02  0.7816164E-02  0.1226707E+00
        -11   -1    0    0    0    0  0.00000000000E+00  0.00000000000E+00  0.45593999997E+02  0.45594000000E+02  0.51100000000E-03 0.  1.
         11   -1    0    0    0    0 -0.00000000000E+00 -0.00000000000E+00 -0.45593999997E+02  0.45594000000E+02  0.51100000000E-03 0. -1.
    9900012    2    1    2    0    0  0.12505537592E+02  0.13920055768E+02 -0.71163442820E+00  0.72462006125E+02  0.70000567748E+02 0.  0.
        -12    1    1    2    0    0 -0.12505537592E+02 -0.13920055768E+02  0.71163442820E+00  0.18725993875E+02  0.00000000000E+00 0.  1.
         11    1    3    3    0    0  0.10226364359E+02 -0.21069260678E+02 -0.16795352642E+02  0.28819717975E+02  0.51100000000E-03 0. -1.
        -11    1    3    3    0    0  0.24890704869E+01  0.21777491919E+01 -0.39855632493E+01  0.51790711625E+01  0.51100000000E-03 0.  1.
        -12    1    3    3    0    0 -0.20989725355E+00  0.32811567255E+02  0.20069281463E+02  0.38463216987E+02  0.00000000000E+00 0.  1.
</event>
<event>
 7    1  0.2851651E-013  0.7246163E+02  0.7816164E-02  0.1226708E+00
        -11   -1    0    0    0    0  0.00000000000E+00  0.00000000000E+00  0.45593999997E+02  0.45594000000E+02  0.51100000000E-03 0.  1.
         11   -1    0    0    0    0 -0.00000000000E+00 -0.00000000000E+00 -0.45593999997E+02  0.45594000000E+02  0.51100000000E-03 0. -1.
    9900012    2    1    2    0    0 -0.22735105516E+01  0.53178788884E+01 -0.17810907729E+02  0.72461625011E+02  0.70000071279E+02 0.  0.
        -12    1    1    2    0    0  0.22735105516E+01 -0.53178788884E+01  0.17810907729E+02  0.18726374989E+02  0.00000000000E+00 0.  1.
         11    1    3    3    0    0 -0.56929255529E+01  0.23793033043E+02 -0.20210422892E+02  0.31732932680E+02  0.51100000000E-03 0. -1.
        -11    1    3    3    0    0 -0.53414181917E+00  0.10126866316E+02  0.57554390608E+01  0.11660351963E+02  0.51100000000E-03 0.  1.
        -12    1    3    3    0    0  0.39535568205E+01 -0.28602020471E+02 -0.33559238979E+01  0.29068340368E+02  0.00000000000E+00 0.  1.
</event>
<event>
 7    1  0.2851651E-013  0.7246198E+02  0.7816164E-02  0.1226707E+00
        -11   -1    0    0    0    0  0.00000000000E+00  0.00000000000E+00  0.45593999997E+02  0.45594000000E+02  0.51100000000E-03 0.  1.
         11   -1    0    0    0    0 -0.00000000000E+00 -0.00000000000E+00 -0.45593999997E+02  0.45594000000E+02  0.51100000000E-03 0. -1.
    9900012    2    1    2    0    0  0.12785958295E+02  0.13023867020E+02  0.41907010444E+01  0.72461980217E+02  0.70000533998E+02 0.  0.
        -12    1    1    2    0    0 -0.12785958295E+02 -0.13023867020E+02 -0.41907010444E+01  0.18726019783E+02  0.00000000000E+00 0.  1.
         11    1    3    3    0    0 -0.74697866846E+01 -0.43699164791E+01 -0.16360802479E+02  0.18508639636E+02  0.51100000000E-03 0. -1.
        -11    1    3    3    0    0 -0.12253357354E+02 -0.86204183527E+00  0.77902346614E+01  0.14545639859E+02  0.51100000000E-03 0.  1.
        -12    1    3    3    0    0  0.32509102334E+02  0.18255825334E+02  0.12761268862E+02  0.39407700722E+02  0.00000000000E+00 0.  1.
</event>
<event>
 7    1  0.2851651E-013  0.7246181E+02  0.7816164E-02  0.1226707E+00
        -11   -1    0    0    0    0  0.00000000000E+00  0.00000000000E+00  0.45593999997E+02  0.45594000000E+02  0.51100000000E-03 0. -1.
         11   -1    0    0    0    0 -0.00000000000E+00 -0.00000000000E+00 -0.45593999997E+02  0.45594000000E+02  0.51100000000E-03 0.  1.
    9900012    2    1    2    0    0  0.63234321356E+01 -0.34741413855E+01  0.17280468546E+02  0.72461813909E+02  0.70000317352E+02 0.  0.
        -12    1    1    2    0    0 -0.63234321356E+01  0.34741413855E+01 -0.17280468546E+02  0.18726186091E+02  0.00000000000E+00 0.  1.
         11    1    3    3    0    0  0.20012788539E+02  0.15603790695E+02  0.17745347461E+01  0.25438926136E+02  0.51100000000E-03 0. -1.
        -11    1    3    3    0    0 -0.17117096459E+02 -0.16413344925E+02 -0.65026291859E+01  0.24590182378E+02  0.51100000000E-03 0.  1.
         12    1    3    3    0    0  0.34277400557E+01 -0.26645871548E+01  0.22008562986E+02  0.22432705394E+02  0.00000000000E+00 0. -1.
</event>
<event>
 7    1  0.3847973E-013  0.7246171E+02  0.7816164E-02  0.1226708E+00
        -11   -1    0    0    0    0  0.00000000000E+00  0.00000000000E+00  0.45593999997E+02  0.45594000000E+02  0.51100000000E-03 0. -1.
         11   -1    0    0    0    0 -0.00000000000E+00 -0.00000000000E+00 -0.45593999997E+02  0.45594000000E+02  0.51100000000E-03 0.  1.
    9900012    2    1    2    0    0 -0.83133774470E+01  0.11328363219E+02  0.12378612404E+02  0.72461705576E+02  0.70000176229E+02 0.  0.
        -12    1    1    2    0    0  0.83133774470E+01 -0.11328363219E+02 -0.12378612404E+02  0.18726294424E+02  0.00000000000E+00 0.  1.
         11    1    3    3    0    0  0.77870301218E+01 -0.23844842613E+01  0.10477528645E+02  0.13270350790E+02  0.51100000000E-03 0.  1.
        -11    1    3    3    0    0  0.60156098840E+01  0.99099644428E+01 -0.22947469916E+02  0.25709557238E+02  0.51100000000E-03 0. -1.
         12    1    3    3    0    0 -0.22116017453E+02  0.38028830380E+01  0.24848553675E+02  0.33481797549E+02  0.00000000000E+00 0. -1.
</event>
<event>
 7    1  0.2851651E-013  0.7246151E+02  0.7816164E-02  0.1226708E+00
        -11   -1    0    0    0    0  0.00000000000E+00  0.00000000000E+00  0.45593999997E+02  0.45594000000E+02  0.51100000000E-03 0.  1.
         11   -1    0    0    0    0 -0.00000000000E+00 -0.00000000000E+00 -0.45593999997E+02  0.45594000000E+02  0.51100000000E-03 0. -1.
    9900012    2    1    2    0    0 -0.17132968666E+02 -0.34416381236E+01 -0.67303763261E+01  0.72461509304E+02  0.69999920549E+02 0.  0.
        -12    1    1    2    0    0  0.17132968666E+02  0.34416381236E+01  0.67303763261E+01  0.18726490696E+02  0.00000000000E+00 0.  1.
         11    1    3    3    0    0 -0.67584606589E+01  0.18706973204E+02 -0.22871567371E+02  0.30310662005E+02  0.51100000000E-03 0. -1.
        -11    1    3    3    0    0 -0.50814539109E+00  0.33873464372E+01 -0.60221286110E+01  0.69280849369E+01  0.51100000000E-03 0.  1.
        -12    1    3    3    0    0 -0.98663626161E+01 -0.25535957765E+02  0.22163319656E+02  0.35222762362E+02  0.00000000000E+00 0.  1.
</event>
<event>
 7    1  0.2851651E-013  0.7246215E+02  0.7816164E-02  0.1226706E+00
        -11   -1    0    0    0    0  0.00000000000E+00  0.00000000000E+00  0.45593999997E+02  0.45594000000E+02  0.51100000000E-03 0. -1.
         11   -1    0    0    0    0 -0.00000000000E+00 -0.00000000000E+00 -0.45593999997E+02  0.45594000000E+02  0.51100000000E-03 0.  1.
    9900012    2    1    2    0    0  0.11289633200E+02 -0.67468702479E+01  0.13329724581E+02  0.72462145325E+02  0.70000749080E+02 0.  0.
        -12    1    1    2    0    0 -0.11289633200E+02  0.67468702479E+01 -0.13329724581E+02  0.18725854675E+02  0.00000000000E+00 0.  1.
         11    1    3    3    0    0  0.31993099961E+00  0.15469524284E+01  0.21410141525E+02  0.21468338968E+02  0.51100000000E-03 0. -1.
        -11    1    3    3    0    0  0.26365993996E+01  0.10169136301E+02  0.16240520254E+02  0.19342116944E+02  0.51100000000E-03 0.  1.
        -12    1    3    3    0    0  0.83331028005E+01 -0.18462958977E+02 -0.24320937198E+02  0.31651689413E+02  0.00000000000E+00 0.  1.
</event>
<event>
 7    1  0.2851651E-013  0.7246156E+02  0.7816164E-02  0.1226708E+00
        -11   -1    0    0    0    0  0.00000000000E+00  0.00000000000E+00  0.45593999997E+02  0.45594000000E+02  0.51100000000E-03 0.  1.
         11   -1    0    0    0    0 -0.00000000000E+00 -0.00000000000E+00 -0.45593999997E+02  0.45594000000E+02  0.51100000000E-03 0. -1.
    9900012    2    1    2    0    0  0.16843975220E+02  0.40506097574E+00  0.81728785097E+01  0.72461560970E+02  0.69999987853E+02 0.  0.
        -12    1    1    2    0    0 -0.16843975220E+02 -0.40506097574E+00 -0.81728785097E+01  0.18726439030E+02  0.00000000000E+00 0.  1.
         11    1    3    3    0    0 -0.13662683196E+02 -0.73236452437E+01 -0.11350629802E+02  0.19213055169E+02  0.51100000000E-03 0.  1.
        -11    1    3    3    0    0  0.18874590667E+02 -0.65684408598E+01 -0.68032615079E+01  0.21111109767E+02  0.51100000000E-03 0. -1.
         12    1    3    3    0    0  0.11632067749E+02  0.14297147079E+02  0.26326769819E+02  0.32137396034E+02  0.00000000000E+00 0. -1.
</event>
<event>
 7    1  0.2851651E-013  0.7246154E+02  0.7816164E-02  0.1226708E+00
        -11   -1    0    0    0    0  0.00000000000E+00  0.00000000000E+00  0.45593999997E+02  0.45594000000E+02  0.51100000000E-03 0. -1.
         11   -1    0    0    0    0 -0.00000000000E+00 -0.00000000000E+00 -0.45593999997E+02  0.45594000000E+02  0.51100000000E-03 0.  1.
    9900012    2    1    2    0    0  0.47663884572E+01  0.10992933552E+02  0.14391569109E+02  0.72461539885E+02  0.69999960386E+02 0.  0.
        -12    1    1    2    0    0 -0.47663884572E+01 -0.10992933552E+02 -0.14391569109E+02  0.18726460115E+02  0.00000000000E+00 0.  1.
         11    1    3    3    0    0  0.20018051620E+01 -0.20344696216E+02  0.25947958927E+02  0.33033474851E+02  0.51100000000E-03 0. -1.
        -11    1    3    3    0    0  0.40254333078E+01  0.26288057641E+01  0.44356765701E+01  0.65414035158E+01  0.51100000000E-03 0.  1.
        -12    1    3    3    0    0 -0.12608500127E+01  0.28708824004E+02 -0.15992066388E+02  0.32886661518E+02  0.00000000000E+00 0.  1.
</event>
<event>
 7    1  0.2851651E-013  0.7246157E+02  0.7816164E-02  0.1226708E+00
        -11   -1    0    0    0    0  0.00000000000E+00  0.00000000000E+00  0.45593999997E+02  0.45594000000E+02  0.51100000000E-03 0. -1.
         11   -1    0    0    0    0 -0.00000000000E+00 -0.00000000000E+00 -0.45593999997E+02  0.45594000000E+02  0.51100000000E-03 0.  1.
    9900012    2    1    2    0    0  0.18389630689E+02  0.35316078879E+01  0.16859491554E+00  0.72461569603E+02  0.69999999100E+02 0.  0.
        -12    1    1    2    0    0 -0.18389630689E+02 -0.35316078879E+01 -0.16859491554E+00  0.18726430397E+02  0.00000000000E+00 0.  1.
         11    1    3    3    0    0  0.17565765745E+01 -0.16403752343E+02  0.14783200124E+01  0.16563637358E+02  0.51100000000E-03 0. -1.
        -11    1    3    3    0    0  0.27145483807E+02 -0.50094879003E+01 -0.64435583164E+01  0.28345929235E+02  0.51100000000E-03 0.  1.
         12    1    3    3    0    0 -0.10512429693E+02  0.24944848132E+02  0.51338332195E+01  0.27552003010E+02  0.00000000000E+00 0. -1.
</event>
<event>
 7    1  0.2851651E-013  0.7246149E+02  0.7816164E-02  0.1226708E+00
        -11   -1    0    0    0    0  0.00000000000E+00  0.00000000000E+00  0.45593999997E+02  0.45594000000E+02  0.51100000000E-03 0.  1.
         11   -1    0    0    0    0 -0.00000000000E+00 -0.00000000000E+00 -0.45593999997E+02  0.45594000000E+02  0.51100000000E-03 0. -1.
    9900012    2    1    2    0    0  0.26506935769E+01 -0.70214260824E+01 -0.17156788886E+02  0.72461494572E+02  0.69999901357E+02 0.  0.
        -12    1    1    2    0    0 -0.26506935769E+01  0.70214260824E+01  0.17156788886E+02  0.18726505428E+02  0.00000000000E+00 0.  1.
         11    1    3    3    0    0 -0.47470368818E+00 -0.80515669351E+00 -0.29296908769E+02  0.29311814761E+02  0.51100000000E-03 0. -1.
        -11    1    3    3    0    0  0.69880670104E+01  0.87319522617E+01 -0.10767570122E+02  0.15524839369E+02  0.51100000000E-03 0.  1.
        -12    1    3    3    0    0 -0.38626697453E+01 -0.14948221651E+02  0.22907690005E+02  0.27624840442E+02  0.00000000000E+00 0.  1.
</event>
<event>
 7    1  0.2851651E-013  0.7246179E+02  0.7816164E-02  0.1226707E+00
        -11   -1    0    0    0    0  0.00000000000E+00  0.00000000000E+00  0.45593999997E+02  0.45594000000E+02  0.51100000000E-03 0.  1.
         11   -1    0    0    0    0 -0.00000000000E+00 -0.00000000000E+00 -0.45593999997E+02  0.45594000000E+02  0.51100000000E-03 0. -1.
    9900012    2    1    2    0    0 -0.20698013871E+01  0.16287260664E+02 -0.90062216109E+01  0.72461789347E+02  0.70000285356E+02 0.  0.
        -12    1    1    2    0    0  0.20698013871E+01 -0.16287260664E+02  0.90062216109E+01  0.18726210653E+02  0.00000000000E+00 0.  1.
         11    1    3    3    0    0 -0.13334361376E+02  0.10444330325E+02 -0.41879954203E+01  0.17447880535E+02  0.51100000000E-03 0. -1.
        -11    1    3    3    0    0  0.59900897342E+01  0.26774521421E+02  0.95865591514E+01  0.29063005505E+02  0.51100000000E-03 0.  1.
         12    1    3    3    0    0  0.52744702551E+01 -0.20931591082E+02 -0.14404785342E+02  0.25950903307E+02  0.00000000000E+00 0. -1.
</event>
<event>
 7    1  0.2851651E-013  0.7246161E+02  0.7816164E-02  0.1226708E+00
        -11   -1    0    0    0    0  0.00000000000E+00  0.00000000000E+00  0.45593999997E+02  0.45594000000E+02  0.51100000000E-03 0.  1.
         11   -1    0    0    0    0 -0.00000000000E+00 -0.00000000000E+00 -0.45593999997E+02  0.45594000000E+02  0.51100000000E-03 0. -1.
    9900012    2    1    2    0    0  0.13743494449E+02 -0.12485575220E+02  0.24299445764E+01  0.72461605289E+02  0.70000045586E+02 0.  0.
        -12    1    1    2    0    0 -0.13743494449E+02  0.12485575220E+02 -0.24299445764E+01  0.18726394711E+02  0.00000000000E+00 0.  1.
         11    1    3    3    0    0  0.91266504583E+01 -0.11110803091E+02  0.10395627772E+02  0.17743020345E+02  0.51100000000E-03 0. -1.
        -11    1    3    3    0    0  0.44510748456E+01  0.18714513053E+02  0.14862447785E+02  0.24309204440E+02  0.51100000000E-03 0.  1.
         12    1    3    3    0    0  0.16576914516E+00 -0.20089285183E+02 -0.22828130981E+02  0.30409380504E+02  0.00000000000E+00 0. -1.
</event>
<event>
 7    1  0.2851651E-013  0.7246160E+02  0.7816164E-02  0.1226708E+00
        -11   -1    0    0    0    0  0.00000000000E+00  0.00000000000E+00  0.45593999997E+02  0.45594000000E+02  0.51100000000E-03 0.  1.
         11   -1    0    0    0    0 -0.00000000000E+00 -0.00000000000E+00 -0.45593999997E+02  0.45594000000E+02  0.51100000000E-03 0. -1.
    9900012    2    1    2    0    0 -0.96004237938E+01 -0.98071951721E+00 -0.16048300808E+02  0.72461604014E+02  0.70000043926E+02 0.  0.
        -12    1    1    2    0    0  0.96004237938E+01  0.98071951721E+00  0.16048300808E+02  0.18726395986E+02  0.00000000000E+00 0.  1.
         11    1    3    3    0    0 -0.10864671274E+02  0.41239484406E+01  0.96769801537E+01  0.15122565186E+02  0.51100000000E-03 0.  1.
        -11    1    3    3    0    0 -0.18458542074E+02  0.13150241011E+02 -0.19152442059E+02  0.29672590908E+02  0.51100000000E-03 0. -1.
        -12    1    3    3    0    0  0.19722789555E+02 -0.18254908968E+02 -0.65728389034E+01  0.27666447920E+02  0.00000000000E+00 0.  1.
</event>
<event>
 7    1  0.3447568E-013  0.7246143E+02  0.7816164E-02  0.1226708E+00
        -11   -1    0    0    0    0  0.00000000000E+00  0.00000000000E+00  0.45593999997E+02  0.45594000000E+02  0.51100000000E-03 0.  1.
         11   -1    0    0    0    0 -0.00000000000E+00 -0.00000000000E+00 -0.45593999997E+02  0.45594000000E+02  0.51100000000E-03 0. -1.
    9900012    2    1    2    0    0 -0.14471375819E+02  0.10380473488E+02 -0.57887244044E+01  0.72461433892E+02  0.69999822311E+02 0.  0.
        -12    1    1    2    0    0  0.14471375819E+02 -0.10380473488E+02  0.57887244044E+01  0.18726566108E+02  0.00000000000E+00 0.  1.
         11    1    3    3    0    0 -0.78031873590E+01 -0.93709738099E+01 -0.76869303525E+01  0.14415053993E+02  0.51100000000E-03 0. -1.
        -11    1    3    3    0    0 -0.55738759827E+00 -0.10280811299E+02  0.19969595927E+02  0.22467543783E+02  0.51100000000E-03 0.  1.
         12    1    3    3    0    0 -0.61108008622E+01  0.30032258598E+02 -0.18071389979E+02  0.35578836117E+02  0.00000000000E+00 0. -1.
</event>
<event>
 7    1  0.2851651E-013  0.7246156E+02  0.7816164E-02  0.1226708E+00
        -11   -1    0    0    0    0  0.00000000000E+00  0.00000000000E+00  0.45593999997E+02  0.45594000000E+02  0.51100000000E-03 0. -1.
         11   -1    0    0    0    0 -0.00000000000E+00 -0.00000000000E+00 -0.45593999997E+02  0.45594000000E+02  0.51100000000E-03 0.  1.
    9900012    2    1    2    0    0 -0.15112130122E+02 -0.81949645369E+01  0.74260207689E+01  0.72461555996E+02  0.69999981373E+02 0.  0.
        -12    1    1    2    0    0  0.15112130122E+02  0.81949645369E+01 -0.74260207689E+01  0.18726444004E+02  0.00000000000E+00 0.  1.
         11    1    3    3    0    0  0.70108510357E+01 -0.35963375300E+01 -0.89869016392E+01  0.11951990512E+02  0.51100000000E-03 0. -1.
        -11    1    3    3    0    0  0.16489180640E+02  0.68121636189E+01  0.69700490522E+01  0.19154117975E+02  0.51100000000E-03 0.  1.
         12    1    3    3    0    0 -0.38612161798E+02 -0.11410790626E+02  0.94428733559E+01  0.41355447508E+02  0.00000000000E+00 0. -1.
</event>
<event>
 7    1  0.2851651E-013  0.7246157E+02  0.7816164E-02  0.1226708E+00
        -11   -1    0    0    0    0  0.00000000000E+00  0.00000000000E+00  0.45593999997E+02  0.45594000000E+02  0.51100000000E-03 0. -1.
         11   -1    0    0    0    0 -0.00000000000E+00 -0.00000000000E+00 -0.45593999997E+02  0.45594000000E+02  0.51100000000E-03 0.  1.
    9900012    2    1    2    0    0 -0.14405124522E+02 -0.88336912610E+01  0.80707712007E+01  0.72461573177E+02  0.70000003755E+02 0.  0.
        -12    1    1    2    0    0  0.14405124522E+02  0.88336912610E+01 -0.80707712007E+01  0.18726426823E+02  0.00000000000E+00 0.  1.
         11    1    3    3    0    0 -0.82168427710E+01 -0.38631622313E+01 -0.45569000690E+01  0.10159028795E+02  0.51100000000E-03 0. -1.
        -11    1    3    3    0    0  0.14104378271E+02 -0.23154302047E+02 -0.78411454547E+01  0.28223018123E+02  0.51100000000E-03 0.  1.
         12    1    3    3    0    0 -0.20292660022E+02  0.18183773017E+02  0.20468816724E+02  0.34079526259E+02  0.00000000000E+00 0. -1.
</event>
<event>
 7    1  0.2851651E-013  0.7246156E+02  0.7816164E-02  0.1226708E+00
        -11   -1    0    0    0    0  0.00000000000E+00  0.00000000000E+00  0.45593999997E+02  0.45594000000E+02  0.51100000000E-03 0.  1.
         11   -1    0    0    0    0 -0.00000000000E+00 -0.00000000000E+00 -0.45593999997E+02  0.45594000000E+02  0.51100000000E-03 0. -1.
    9900012    2    1    2    0    0 -0.21528144588E+01 -0.38401547793E+01 -0.18201594066E+02  0.72461563463E+02  0.69999991101E+02 0.  0.
        -12    1    1    2    0    0  0.21528144588E+01  0.38401547793E+01  0.18201594066E+02  0.18726436537E+02  0.00000000000E+00 0.  1.
         11    1    3    3    0    0 -0.15263050643E+01  0.15604766891E+02 -0.69203986867E+01  0.17138561058E+02  0.51100000000E-03 0. -1.
        -11    1    3    3    0    0 -0.21562146400E+02 -0.17938165148E+01 -0.16794651858E+02  0.27389856998E+02  0.51100000000E-03 0.  1.
        -12    1    3    3    0    0  0.20935637005E+02 -0.17651105156E+02  0.55134564787E+01  0.27933145408E+02  0.00000000000E+00 0.  1.
</event>
<event>
 7    1  0.2851651E-013  0.7246095E+02  0.7816164E-02  0.1226710E+00
        -11   -1    0    0    0    0  0.00000000000E+00  0.00000000000E+00  0.45593999997E+02  0.45594000000E+02  0.51100000000E-03 0.  1.
         11   -1    0    0    0    0 -0.00000000000E+00 -0.00000000000E+00 -0.45593999997E+02  0.45594000000E+02  0.51100000000E-03 0. -1.
    9900012    2    1    2    0    0 -0.13582229311E+02 -0.12797042934E+02  0.15688272694E+01  0.72460947912E+02  0.69999189226E+02 0.  0.
        -12    1    1    2    0    0  0.13582229311E+02  0.12797042934E+02 -0.15688272694E+01  0.18727052088E+02  0.00000000000E+00 0.  1.
         11    1    3    3    0    0 -0.25376489443E+02 -0.30756280755E+02  0.95879666885E+01  0.41010292950E+02  0.51100000000E-03 0. -1.
        -11    1    3    3    0    0 -0.57215300858E+01  0.62255510713E+00 -0.18527668545E+01  0.60461745478E+01  0.51100000000E-03 0.  1.
        -12    1    3    3    0    0  0.17515790218E+02  0.17336682714E+02 -0.61663725646E+01  0.25404480414E+02  0.00000000000E+00 0.  1.
</event>
<event>
 7    1  0.2851651E-013  0.7246158E+02  0.7816164E-02  0.1226708E+00
        -11   -1    0    0    0    0  0.00000000000E+00  0.00000000000E+00  0.45593999997E+02  0.45594000000E+02  0.51100000000E-03 0. -1.
         11   -1    0    0    0    0 -0.00000000000E+00 -0.00000000000E+00 -0.45593999997E+02  0.45594000000E+02  0.51100000000E-03 0.  1.
    9900012    2    1    2    0    0  0.63067670848E+01  0.18662464301E+01  0.17533417477E+02  0.72461577084E+02  0.70000008845E+02 0.  0.
        -12    1    1    2    0    0 -0.63067670848E+01 -0.18662464301E+01 -0.17533417477E+02  0.18726422916E+02  0.00000000000E+00 0.  1.
         11    1    3    3    0    0 -0.24179203648E+01 -0.12072133203E+02  0.90255224132E+01  0.15265739224E+02  0.51100000000E-03 0. -1.
        -11    1    3    3    0    0 -0.15656061648E+01 -0.17525660235E+02  0.15398934973E+02  0.23382195960E+02  0.51100000000E-03 0.  1.
         12    1    3    3    0    0  0.10290293614E+02  0.31464039869E+02 -0.68910399095E+01  0.33813641900E+02  0.00000000000E+00 0. -1.
</event>
<event>
 7    1  0.2851651E-013  0.7246158E+02  0.7816164E-02  0.1226708E+00
        -11   -1    0    0    0    0  0.00000000000E+00  0.00000000000E+00  0.45593999997E+02  0.45594000000E+02  0.51100000000E-03 0. -1.
         11   -1    0    0    0    0 -0.00000000000E+00 -0.00000000000E+00 -0.45593999997E+02  0.45594000000E+02  0.51100000000E-03 0.  1.
    9900012    2    1    2    0    0  0.69199452703E+01 -0.89658032327E+01  0.14913327951E+02  0.72461584947E+02  0.70000019088E+02 0.  0.
        -12    1    1    2    0    0 -0.69199452703E+01  0.89658032327E+01 -0.14913327951E+02  0.18726415053E+02  0.00000000000E+00 0.  1.
         11    1    3    3    0    0  0.21854458246E+02  0.53602738897E+01  0.19810047421E+02  0.29979790868E+02  0.51100000000E-03 0. -1.
        -11    1    3    3    0    0  0.42241375318E+01 -0.91582617464E+01  0.12521511615E+02  0.16078101551E+02  0.51100000000E-03 0.  1.
        -12    1    3    3    0    0 -0.19158650507E+02 -0.51678153759E+01 -0.17418231085E+02  0.26403692529E+02  0.00000000000E+00 0.  1.
</event>
<event>
 7    1  0.2851651E-013  0.7246157E+02  0.7816164E-02  0.1226708E+00
        -11   -1    0    0    0    0  0.00000000000E+00  0.00000000000E+00  0.45593999997E+02  0.45594000000E+02  0.51100000000E-03 0.  1.
         11   -1    0    0    0    0 -0.00000000000E+00 -0.00000000000E+00 -0.45593999997E+02  0.45594000000E+02  0.51100000000E-03 0. -1.
    9900012    2    1    2    0    0 -0.17918088620E+02  0.23148640407E+01  0.49257062604E+01  0.72461572752E+02  0.70000003202E+02 0.  0.
        -12    1    1    2    0    0  0.17918088620E+02 -0.23148640407E+01 -0.49257062604E+01  0.18726427248E+02  0.00000000000E+00 0.  1.
         11    1    3    3    0    0 -0.22193645058E+02 -0.73691582302E+01 -0.13684997102E+02  0.27095046040E+02  0.51100000000E-03 0. -1.
        -11    1    3    3    0    0 -0.12549159039E+02 -0.90821634886E+01  0.31794593116E+01  0.15813792967E+02  0.51100000000E-03 0.  1.
        -12    1    3    3    0    0  0.16824715477E+02  0.18766185760E+02  0.15431244051E+02  0.29552733745E+02  0.00000000000E+00 0.  1.
</event>
<event>
 7    1  0.2851651E-013  0.7246150E+02  0.7816164E-02  0.1226708E+00
        -11   -1    0    0    0    0  0.00000000000E+00  0.00000000000E+00  0.45593999997E+02  0.45594000000E+02  0.51100000000E-03 0. -1.
         11   -1    0    0    0    0 -0.00000000000E+00 -0.00000000000E+00 -0.45593999997E+02  0.45594000000E+02  0.51100000000E-03 0.  1.
    9900012    2    1    2    0    0 -0.14115669932E+02  0.11659506522E+02 -0.39351727458E+01  0.72461499672E+02  0.69999908002E+02 0.  0.
        -12    1    1    2    0    0  0.14115669932E+02 -0.11659506522E+02  0.39351727458E+01  0.18726500328E+02  0.00000000000E+00 0.  1.
         11    1    3    3    0    0  0.96824705656E+01 -0.60074672099E+01  0.20982307216E+01  0.11586305319E+02  0.51100000000E-03 0. -1.
        -11    1    3    3    0    0  0.98704017531E+01  0.14832674692E+02  0.13037133368E+02  0.22077135593E+02  0.51100000000E-03 0.  1.
        -12    1    3    3    0    0 -0.33668542251E+02  0.28342990402E+01 -0.19070536835E+02  0.38798058760E+02  0.00000000000E+00 0.  1.
</event>
<event>
 7    1  0.2851651E-013  0.7246162E+02  0.7816164E-02  0.1226708E+00
        -11   -1    0    0    0    0  0.00000000000E+00  0.00000000000E+00  0.45593999997E+02  0.45594000000E+02  0.51100000000E-03 0.  1.
         11   -1    0    0    0    0 -0.00000000000E+00 -0.00000000000E+00 -0.45593999997E+02  0.45594000000E+02  0.51100000000E-03 0. -1.
    9900012    2    1    2    0    0  0.75790075511E+01  0.87914068110E+01 -0.14695140356E+02  0.72461619163E+02  0.70000063660E+02 0.  0.
        -12    1    1    2    0    0 -0.75790075511E+01 -0.87914068110E+01  0.14695140356E+02  0.18726380837E+02  0.00000000000E+00 0.  1.
         11    1    3    3    0    0  0.78099913996E+01  0.38221817426E+00 -0.38190903815E+02  0.38983165481E+02  0.51100000000E-03 0. -1.
        -11    1    3    3    0    0  0.34494434999E+01  0.62532614794E+01 -0.21674176363E+01  0.74632190816E+01  0.51100000000E-03 0.  1.
        -12    1    3    3    0    0 -0.36804273484E+01  0.21559271573E+01  0.25663181096E+02  0.26015234600E+02  0.00000000000E+00 0.  1.
</event>
<event>
 7    1  0.2851651E-013  0.7246179E+02  0.7816164E-02  0.1226707E+00
        -11   -1    0    0    0    0  0.00000000000E+00  0.00000000000E+00  0.45593999997E+02  0.45594000000E+02  0.51100000000E-03 0.  1.
         11   -1    0    0    0    0 -0.00000000000E+00 -0.00000000000E+00 -0.45593999997E+02  0.45594000000E+02  0.51100000000E-03 0. -1.
    9900012    2    1    2    0    0 -0.12027790681E+02  0.31278243770E+01 -0.14007850822E+02  0.72461790596E+02  0.70000286983E+02 0.  0.
        -12    1    1    2    0    0  0.12027790681E+02 -0.31278243770E+01  0.14007850822E+02  0.18726209404E+02  0.00000000000E+00 0.  1.
         11    1    3    3    0    0 -0.56042447497E+01 -0.17949882417E+02 -0.96774292705E+01  0.21148486365E+02  0.51100000000E-03 0. -1.
        -11    1    3    3    0    0 -0.37286510849E+01  0.75928662362E+01 -0.25053303587E+02  0.26442815233E+02  0.51100000000E-03 0.  1.
        -12    1    3    3    0    0 -0.26948948464E+01  0.13484840558E+02  0.20722882035E+02  0.24870488997E+02  0.00000000000E+00 0.  1.
</event>
<event>
 7    1  0.2851651E-013  0.7246162E+02  0.7816164E-02  0.1226708E+00
        -11   -1    0    0    0    0  0.00000000000E+00  0.00000000000E+00  0.45593999997E+02  0.45594000000E+02  0.51100000000E-03 0.  1.
         11   -1    0    0    0    0 -0.00000000000E+00 -0.00000000000E+00 -0.45593999997E+02  0.45594000000E+02  0.51100000000E-03 0. -1.
    9900012    2    1    2    0    0 -0.17493532641E+02  0.48311351723E+01  0.46166934365E+01  0.72461617284E+02  0.70000061213E+02 0.  0.
        -12    1    1    2    0    0  0.17493532641E+02 -0.48311351723E+01 -0.46166934365E+01  0.18726382716E+02  0.00000000000E+00 0.  1.
         11    1    3    3    0    0 -0.30118349813E+01 -0.16158975647E+02 -0.16575692284E+02  0.23343890397E+02  0.51100000000E-03 0. -1.
        -11    1    3    3    0    0  0.10952743548E+02  0.12059662076E+02  0.29172122166E+01  0.16550171238E+02  0.51100000000E-03 0.  1.
         12    1    3    3    0    0 -0.25434441208E+02  0.89304487432E+01  0.18275173504E+02  0.32567555649E+02  0.00000000000E+00 0. -1.
</event>
<event>
 7    1  0.2851651E-013  0.7246162E+02  0.7816164E-02  0.1226708E+00
        -11   -1    0    0    0    0  0.00000000000E+00  0.00000000000E+00  0.45593999997E+02  0.45594000000E+02  0.51100000000E-03 0. -1.
         11   -1    0    0    0    0 -0.00000000000E+00 -0.00000000000E+00 -0.45593999997E+02  0.45594000000E+02  0.51100000000E-03 0.  1.
    9900012    2    1    2    0    0  0.25867457163E+01 -0.22736822230E+01  0.18406963751E+02  0.72461622914E+02  0.70000068547E+02 0.  0.
        -12    1    1    2    0    0 -0.25867457163E+01  0.22736822230E+01 -0.18406963751E+02  0.18726377086E+02  0.00000000000E+00 0.  1.
         11    1    3    3    0    0 -0.39527272852E+01 -0.27158787013E+02  0.22492006234E+02  0.35483997938E+02  0.51100000000E-03 0. -1.
        -11    1    3    3    0    0  0.33627620460E+01 -0.48123863527E+01  0.25203483757E+01  0.63890051794E+01  0.51100000000E-03 0.  1.
        -12    1    3    3    0    0  0.31767109554E+01  0.29697491142E+02 -0.66053908588E+01  0.30588619796E+02  0.00000000000E+00 0.  1.
</event>
<event>
 7    1  0.2851651E-013  0.7246156E+02  0.7816164E-02  0.1226708E+00
        -11   -1    0    0    0    0  0.00000000000E+00  0.00000000000E+00  0.45593999997E+02  0.45594000000E+02  0.51100000000E-03 0. -1.
         11   -1    0    0    0    0 -0.00000000000E+00 -0.00000000000E+00 -0.45593999997E+02  0.45594000000E+02  0.51100000000E-03 0.  1.
    9900012    2    1    2    0    0 -0.12600405099E+02 -0.29687053629E+01  0.13531305246E+02  0.72461557683E+02  0.69999983572E+02 0.  0.
        -12    1    1    2    0    0  0.12600405099E+02  0.29687053629E+01 -0.13531305246E+02  0.18726442317E+02  0.00000000000E+00 0.  1.
         11    1    3    3    0    0  0.11369449989E+02  0.69063458358E+01  0.21143371131E+02  0.24980075038E+02  0.51100000000E-03 0. -1.
        -11    1    3    3    0    0  0.72292880720E+01  0.37830921788E+01  0.66814592077E+01  0.10545913420E+02  0.51100000000E-03 0.  1.
        -12    1    3    3    0    0 -0.31199143159E+02 -0.13658143378E+02 -0.14293525093E+02  0.36935569225E+02  0.00000000000E+00 0.  1.
</event>
<event>
 7    1  0.2851651E-013  0.7246161E+02  0.7816164E-02  0.1226708E+00
        -11   -1    0    0    0    0  0.00000000000E+00  0.00000000000E+00  0.45593999997E+02  0.45594000000E+02  0.51100000000E-03 0.  1.
         11   -1    0    0    0    0 -0.00000000000E+00 -0.00000000000E+00 -0.45593999997E+02  0.45594000000E+02  0.51100000000E-03 0. -1.
    9900012    2    1    2    0    0 -0.59513019892E+01 -0.45946120506E+01 -0.17150776078E+02  0.72461612859E+02  0.70000055449E+02 0.  0.
        -12    1    1    2    0    0  0.59513019892E+01  0.45946120506E+01  0.17150776078E+02  0.18726387141E+02  0.00000000000E+00 0.  1.
         11    1    3    3    0    0 -0.15041811646E+02 -0.17104041775E+02 -0.54823953517E+00  0.22783873891E+02  0.51100000000E-03 0. -1.
        -11    1    3    3    0    0  0.45587041410E+00  0.15809597027E+01  0.15027315941E+02  0.15117125258E+02  0.51100000000E-03 0.  1.
        -12    1    3    3    0    0  0.86346392427E+01  0.10928470021E+02 -0.31629852484E+02  0.34560613710E+02  0.00000000000E+00 0.  1.
</event>
<event>
 7    1  0.2851651E-013  0.7246142E+02  0.7816164E-02  0.1226708E+00
        -11   -1    0    0    0    0  0.00000000000E+00  0.00000000000E+00  0.45593999997E+02  0.45594000000E+02  0.51100000000E-03 0. -1.
         11   -1    0    0    0    0 -0.00000000000E+00 -0.00000000000E+00 -0.45593999997E+02  0.45594000000E+02  0.51100000000E-03 0.  1.
    9900012    2    1    2    0    0  0.50133700390E+01 -0.81997536882E+01  0.16072174227E+02  0.72461424657E+02  0.69999810280E+02 0.  0.
        -12    1    1    2    0    0 -0.50133700390E+01  0.81997536882E+01 -0.16072174227E+02  0.18726575343E+02  0.00000000000E+00 0.  1.
         11    1    3    3    0    0 -0.10855811163E+02  0.15094539239E+02  0.18872322488E+02  0.26492608539E+02  0.51100000000E-03 0. -1.
        -11    1    3    3    0    0  0.20745168081E+02  0.12290642805E+01  0.22734379935E+00  0.20782788147E+02  0.51100000000E-03 0.  1.
        -12    1    3    3    0    0 -0.48759868792E+01 -0.24523357207E+02 -0.30274920604E+01  0.25186027971E+02  0.00000000000E+00 0.  1.
</event>
<event>
 7    1  0.2851651E-013  0.7246156E+02  0.7816164E-02  0.1226708E+00
        -11   -1    0    0    0    0  0.00000000000E+00  0.00000000000E+00  0.45593999997E+02  0.45594000000E+02  0.51100000000E-03 0. -1.
         11   -1    0    0    0    0 -0.00000000000E+00 -0.00000000000E+00 -0.45593999997E+02  0.45594000000E+02  0.51100000000E-03 0.  1.
    9900012    2    1    2    0    0 -0.14719586310E+02 -0.31761515911E+01 -0.11132177334E+02  0.72461560609E+02  0.69999987383E+02 0.  0.
        -12    1    1    2    0    0  0.14719586310E+02  0.31761515911E+01  0.11132177334E+02  0.18726439391E+02  0.00000000000E+00 0.  1.
         11    1    3    3    0    0 -0.21552812295E+02  0.97511994503E+01  0.17312501643E+02  0.29314370570E+02  0.51100000000E-03 0. -1.
        -11    1    3    3    0    0  0.12936122347E+02 -0.10374754836E+02 -0.29937036348E+01  0.16850550762E+02  0.51100000000E-03 0.  1.
        -12    1    3    3    0    0 -0.61028963617E+01 -0.25525962057E+01 -0.25450975342E+02  0.26296639276E+02  0.00000000000E+00 0.  1.
</event>
<event>
 7    1  0.2851651E-013  0.7246161E+02  0.7816164E-02  0.1226708E+00
        -11   -1    0    0    0    0  0.00000000000E+00  0.00000000000E+00  0.45593999997E+02  0.45594000000E+02  0.51100000000E-03 0. -1.
         11   -1    0    0    0    0 -0.00000000000E+00 -0.00000000000E+00 -0.45593999997E+02  0.45594000000E+02  0.51100000000E-03 0.  1.
    9900012    2    1    2    0    0  0.13748188399E+02 -0.54063062217E+01  0.11508117487E+02  0.72461612219E+02  0.70000054614E+02 0.  0.
        -12    1    1    2    0    0 -0.13748188399E+02  0.54063062217E+01 -0.11508117487E+02  0.18726387781E+02  0.00000000000E+00 0.  1.
         11    1    3    3    0    0  0.36334743691E+02 -0.18127624181E+02 -0.17871453657E+01  0.40645027326E+02  0.51100000000E-03 0.  1.
        -11    1    3    3    0    0 -0.78351294093E+01  0.92263882933E+01  0.11239723077E+02  0.16518077034E+02  0.51100000000E-03 0. -1.
        -12    1    3    3    0    0 -0.14751425882E+02  0.34949296656E+01  0.20555397762E+01  0.15298507859E+02  0.00000000000E+00 0.  1.
</event>
<event>
 7    1  0.2851651E-013  0.7246155E+02  0.7816164E-02  0.1226708E+00
        -11   -1    0    0    0    0  0.00000000000E+00  0.00000000000E+00  0.45593999997E+02  0.45594000000E+02  0.51100000000E-03 0.  1.
         11   -1    0    0    0    0 -0.00000000000E+00 -0.00000000000E+00 -0.45593999997E+02  0.45594000000E+02  0.51100000000E-03 0. -1.
    9900012    2    1    2    0    0 -0.17389118845E+02 -0.69483064570E+01  0.13974669585E+00  0.72461549563E+02  0.69999972994E+02 0.  0.
        -12    1    1    2    0    0  0.17389118845E+02  0.69483064570E+01 -0.13974669585E+00  0.18726450437E+02  0.00000000000E+00 0.  1.
         11    1    3    3    0    0  0.14732021643E+02  0.78767406622E+01  0.54108711440E+00  0.16714313647E+02  0.51100000000E-03 0. -1.
        -11    1    3    3    0    0 -0.32820906246E+01 -0.16075387039E+02 -0.16016223811E+02  0.22928358265E+02  0.51100000000E-03 0.  1.
        -12    1    3    3    0    0 -0.28839049863E+02  0.12503399198E+01  0.15614883393E+02  0.32818877651E+02  0.00000000000E+00 0.  1.
</event>
<event>
 7    1  0.2851651E-013  0.7246152E+02  0.7816164E-02  0.1226708E+00
        -11   -1    0    0    0    0  0.00000000000E+00  0.00000000000E+00  0.45593999997E+02  0.45594000000E+02  0.51100000000E-03 0. -1.
         11   -1    0    0    0    0 -0.00000000000E+00 -0.00000000000E+00 -0.45593999997E+02  0.45594000000E+02  0.51100000000E-03 0.  1.
    9900012    2    1    2    0    0  0.11075663391E+02 -0.67712181515E+01  0.13496718650E+02  0.72461517972E+02  0.69999931840E+02 0.  0.
        -12    1    1    2    0    0 -0.11075663391E+02  0.67712181515E+01 -0.13496718650E+02  0.18726482028E+02  0.00000000000E+00 0.  1.
         11    1    3    3    0    0  0.29140314737E+02  0.16714164898E+00  0.86554628842E+01  0.30399061126E+02  0.51100000000E-03 0. -1.
        -11    1    3    3    0    0 -0.50247107991E+01  0.14629811087E+02 -0.28125122411E+01  0.15722255450E+02  0.51100000000E-03 0.  1.
        -12    1    3    3    0    0 -0.13039940547E+02 -0.21568170888E+02  0.76537680073E+01  0.26340201396E+02  0.00000000000E+00 0.  1.
</event>
<event>
 7    1  0.2851651E-013  0.7246157E+02  0.7816164E-02  0.1226708E+00
        -11   -1    0    0    0    0  0.00000000000E+00  0.00000000000E+00  0.45593999997E+02  0.45594000000E+02  0.51100000000E-03 0.  1.
         11   -1    0    0    0    0 -0.00000000000E+00 -0.00000000000E+00 -0.45593999997E+02  0.45594000000E+02  0.51100000000E-03 0. -1.
    9900012    2    1    2    0    0  0.86425333380E+01 -0.15317845582E+02 -0.64303442127E+01  0.72461572085E+02  0.70000002333E+02 0.  0.
        -12    1    1    2    0    0 -0.86425333380E+01  0.15317845582E+02  0.64303442127E+01  0.18726427915E+02  0.00000000000E+00 0.  1.
         11    1    3    3    0    0 -0.75931195606E+01  0.12699625745E+02 -0.16055014395E+02  0.21833447878E+02  0.51100000000E-03 0. -1.
        -11    1    3    3    0    0 -0.82648792207E+01 -0.12179299473E+02  0.14941466682E+02  0.20973578404E+02  0.51100000000E-03 0.  1.
        -12    1    3    3    0    0  0.24500532119E+02 -0.15838171854E+02 -0.53167964989E+01  0.29654545803E+02  0.00000000000E+00 0.  1.
</event>
<event>
 7    1  0.2851651E-013  0.7246168E+02  0.7816164E-02  0.1226708E+00
        -11   -1    0    0    0    0  0.00000000000E+00  0.00000000000E+00  0.45593999997E+02  0.45594000000E+02  0.51100000000E-03 0. -1.
         11   -1    0    0    0    0 -0.00000000000E+00 -0.00000000000E+00 -0.45593999997E+02  0.45594000000E+02  0.51100000000E-03 0.  1.
    9900012    2    1    2    0    0 -0.36348818621E+01  0.35717243119E+01  0.18019586920E+02  0.72461679125E+02  0.70000141773E+02 0.  0.
        -12    1    1    2    0    0  0.36348818621E+01 -0.35717243119E+01 -0.18019586920E+02  0.18726320875E+02  0.00000000000E+00 0.  1.
         11    1    3    3    0    0  0.46072210751E+01 -0.12439695165E+02  0.53330935414E+01  0.14297356007E+02  0.51100000000E-03 0. -1.
        -11    1    3    3    0    0  0.86105207063E+00 -0.19789669089E+02  0.37872539748E+01  0.20167193812E+02  0.51100000000E-03 0.  1.
        -12    1    3    3    0    0 -0.91031550078E+01  0.35801088565E+02  0.88992394042E+01  0.37997129306E+02  0.00000000000E+00 0.  1.
</event>
<event>
 7    1  0.2851651E-013  0.7246162E+02  0.7816164E-02  0.1226708E+00
        -11   -1    0    0    0    0  0.00000000000E+00  0.00000000000E+00  0.45593999997E+02  0.45594000000E+02  0.51100000000E-03 0. -1.
         11   -1    0    0    0    0 -0.00000000000E+00 -0.00000000000E+00 -0.45593999997E+02  0.45594000000E+02  0.51100000000E-03 0.  1.
    9900012    2    1    2    0    0  0.42997923712E+01 -0.17756961245E+02  0.41084356897E+01  0.72461624726E+02  0.70000070907E+02 0.  0.
        -12    1    1    2    0    0 -0.42997923712E+01  0.17756961245E+02 -0.41084356897E+01  0.18726375274E+02  0.00000000000E+00 0.  1.
         11    1    3    3    0    0 -0.15979983715E+02  0.55149133750E+01  0.58130363012E+01  0.17876396179E+02  0.51100000000E-03 0. -1.
        -11    1    3    3    0    0 -0.11743547576E+02  0.99405749344E-01 -0.83197375106E+01  0.14392318218E+02  0.51100000000E-03 0.  1.
        -12    1    3    3    0    0  0.32023323662E+02 -0.23371280369E+02  0.66151368991E+01  0.40192910329E+02  0.00000000000E+00 0.  1.
</event>
<event>
 7    1  0.2851651E-013  0.7246155E+02  0.7816164E-02  0.1226708E+00
        -11   -1    0    0    0    0  0.00000000000E+00  0.00000000000E+00  0.45593999997E+02  0.45594000000E+02  0.51100000000E-03 0.  1.
         11   -1    0    0    0    0 -0.00000000000E+00 -0.00000000000E+00 -0.45593999997E+02  0.45594000000E+02  0.51100000000E-03 0. -1.
    9900012    2    1    2    0    0 -0.72845525327E+01 -0.37803589809E+01 -0.16832235082E+02  0.72461549255E+02  0.69999972593E+02 0.  0.
        -12    1    1    2    0    0  0.72845525327E+01  0.37803589809E+01  0.16832235082E+02  0.18726450745E+02  0.00000000000E+00 0.  1.
         11    1    3    3    0    0  0.27088197489E+01  0.68796659783E+01 -0.33505221341E+01  0.81174815822E+01  0.51100000000E-03 0. -1.
        -11    1    3    3    0    0 -0.18417274613E+02  0.17222255900E+02  0.98031683575E+01  0.27053728256E+02  0.51100000000E-03 0.  1.
         12    1    3    3    0    0  0.84239023318E+01 -0.27882280859E+02 -0.23284881306E+02  0.37290339417E+02  0.00000000000E+00 0. -1.
</event>
<event>
 7    1  0.2851651E-013  0.7246157E+02  0.7816164E-02  0.1226708E+00
        -11   -1    0    0    0    0  0.00000000000E+00  0.00000000000E+00  0.45593999997E+02  0.45594000000E+02  0.51100000000E-03 0.  1.
         11   -1    0    0    0    0 -0.00000000000E+00 -0.00000000000E+00 -0.45593999997E+02  0.45594000000E+02  0.51100000000E-03 0. -1.
    9900012    2    1    2    0    0 -0.10637877193E+02 -0.13171912129E+02 -0.80009683516E+01  0.72461569617E+02  0.69999999118E+02 0.  0.
        -12    1    1    2    0    0  0.10637877193E+02  0.13171912129E+02  0.80009683516E+01  0.18726430383E+02  0.00000000000E+00 0.  1.
         11    1    3    3    0    0  0.25687799386E+02  0.37751406687E+01 -0.39389072980E+01  0.26260801879E+02  0.51100000000E-03 0. -1.
        -11    1    3    3    0    0  0.28759292952E+01 -0.89597144705E+00  0.16862533885E+01  0.34521275898E+01  0.51100000000E-03 0.  1.
        -12    1    3    3    0    0 -0.39201605874E+02 -0.16051081351E+02 -0.57483144421E+01  0.42748640149E+02  0.00000000000E+00 0.  1.
</event>
<event>
 7    1  0.2851651E-013  0.7246161E+02  0.7816164E-02  0.1226708E+00
        -11   -1    0    0    0    0  0.00000000000E+00  0.00000000000E+00  0.45593999997E+02  0.45594000000E+02  0.51100000000E-03 0.  1.
         11   -1    0    0    0    0 -0.00000000000E+00 -0.00000000000E+00 -0.45593999997E+02  0.45594000000E+02  0.51100000000E-03 0. -1.
    9900012    2    1    2    0    0 -0.14651567911E+02 -0.34523442049E+00 -0.11657180889E+02  0.72461614996E+02  0.70000058232E+02 0.  0.
        -12    1    1    2    0    0  0.14651567911E+02  0.34523442049E+00  0.11657180889E+02  0.18726385004E+02  0.00000000000E+00 0.  1.
         11    1    3    3    0    0  0.14969787218E+02 -0.57892588090E+01 -0.27923458870E+02  0.32207601625E+02  0.51100000000E-03 0. -1.
        -11    1    3    3    0    0 -0.92668718504E+01 -0.79458442387E+01  0.32547014045E+01  0.12633464927E+02  0.51100000000E-03 0.  1.
        -12    1    3    3    0    0 -0.20354483278E+02  0.13389868627E+02  0.13011576576E+02  0.27620548445E+02  0.00000000000E+00 0.  1.
</event>
<event>
 7    1  0.2851651E-013  0.7246157E+02  0.7816164E-02  0.1226708E+00
        -11   -1    0    0    0    0  0.00000000000E+00  0.00000000000E+00  0.45593999997E+02  0.45594000000E+02  0.51100000000E-03 0. -1.
         11   -1    0    0    0    0 -0.00000000000E+00 -0.00000000000E+00 -0.45593999997E+02  0.45594000000E+02  0.51100000000E-03 0.  1.
    9900012    2    1    2    0    0  0.15305439529E+02  0.72755664808E+01  0.79679803384E+01  0.72461573286E+02  0.70000003897E+02 0.  0.
        -12    1    1    2    0    0 -0.15305439529E+02 -0.72755664808E+01 -0.79679803384E+01  0.18726426714E+02  0.00000000000E+00 0.  1.
         11    1    3    3    0    0  0.55443095488E+01  0.11440332815E+02  0.24568910206E+02  0.27663187312E+02  0.51100000000E-03 0. -1.
        -11    1    3    3    0    0  0.12821669079E+02 -0.95019224117E+01  0.91002519992E+01  0.18371072756E+02  0.51100000000E-03 0.  1.
        -12    1    3    3    0    0 -0.30605390987E+01  0.53371560775E+01 -0.25701181867E+02  0.26427313218E+02  0.00000000000E+00 0.  1.
</event>
<event>
 7    1  0.2851651E-013  0.7246158E+02  0.7816164E-02  0.1226708E+00
        -11   -1    0    0    0    0  0.00000000000E+00  0.00000000000E+00  0.45593999997E+02  0.45594000000E+02  0.51100000000E-03 0. -1.
         11   -1    0    0    0    0 -0.00000000000E+00 -0.00000000000E+00 -0.45593999997E+02  0.45594000000E+02  0.51100000000E-03 0.  1.
    9900012    2    1    2    0    0 -0.16788134476E+02  0.28062023078E+01 -0.78078616781E+01  0.72461576568E+02  0.70000008173E+02 0.  0.
        -12    1    1    2    0    0  0.16788134476E+02 -0.28062023078E+01  0.78078616781E+01  0.18726423432E+02  0.00000000000E+00 0.  1.
         11    1    3    3    0    0  0.17170731979E+02  0.14152383586E+02  0.12678532431E+02  0.25609943044E+02  0.51100000000E-03 0. -1.
        -11    1    3    3    0    0 -0.96847442909E+01  0.13343686627E+01 -0.16496651680E+02  0.19175878823E+02  0.51100000000E-03 0.  1.
        -12    1    3    3    0    0 -0.24274122164E+02 -0.12680549941E+02 -0.39897424290E+01  0.27675754701E+02  0.00000000000E+00 0.  1.
</event>
<event>
 7    1  0.2851651E-013  0.7246157E+02  0.7816164E-02  0.1226708E+00
        -11   -1    0    0    0    0  0.00000000000E+00  0.00000000000E+00  0.45593999997E+02  0.45594000000E+02  0.51100000000E-03 0.  1.
         11   -1    0    0    0    0 -0.00000000000E+00 -0.00000000000E+00 -0.45593999997E+02  0.45594000000E+02  0.51100000000E-03 0. -1.
    9900012    2    1    2    0    0  0.12204879609E+02  0.10121906643E+02 -0.99632882622E+01  0.72461569658E+02  0.69999999171E+02 0.  0.
        -12    1    1    2    0    0 -0.12204879609E+02 -0.10121906643E+02  0.99632882622E+01  0.18726430342E+02  0.00000000000E+00 0.  1.
         11    1    3    3    0    0 -0.13481558226E+01  0.38021523568E+02 -0.88540071868E+01  0.39062094440E+02  0.51100000000E-03 0. -1.
        -11    1    3    3    0    0 -0.14972555126E+01 -0.25937885466E+01  0.22770993886E+01  0.37622725820E+01  0.51100000000E-03 0.  1.
        -12    1    3    3    0    0  0.15050290944E+02 -0.25305828379E+02 -0.33863804640E+01  0.29637202636E+02  0.00000000000E+00 0.  1.
</event>
<event>
 7    1  0.2851651E-013  0.7246158E+02  0.7816164E-02  0.1226708E+00
        -11   -1    0    0    0    0  0.00000000000E+00  0.00000000000E+00  0.45593999997E+02  0.45594000000E+02  0.51100000000E-03 0. -1.
         11   -1    0    0    0    0 -0.00000000000E+00 -0.00000000000E+00 -0.45593999997E+02  0.45594000000E+02  0.51100000000E-03 0.  1.
    9900012    2    1    2    0    0 -0.10406701447E+02  0.10365798746E+02  0.11615927340E+02  0.72461575178E+02  0.70000006362E+02 0.  0.
        -12    1    1    2    0    0  0.10406701447E+02 -0.10365798746E+02 -0.11615927340E+02  0.18726424822E+02  0.00000000000E+00 0.  1.
         11    1    3    3    0    0 -0.16789012370E+02  0.70424715463E+01 -0.17145119669E+01  0.18286795602E+02  0.51100000000E-03 0.  1.
        -11    1    3    3    0    0 -0.24820979712E+01 -0.18895073851E+02 -0.93350074604E+01  0.21220909281E+02  0.51100000000E-03 0. -1.
         12    1    3    3    0    0  0.88644088935E+01  0.22218401050E+02  0.22665446767E+02  0.32953870295E+02  0.00000000000E+00 0. -1.
</event>
<event>
 7    1  0.2851651E-013  0.7246158E+02  0.7816164E-02  0.1226708E+00
        -11   -1    0    0    0    0  0.00000000000E+00  0.00000000000E+00  0.45593999997E+02  0.45594000000E+02  0.51100000000E-03 0.  1.
         11   -1    0    0    0    0 -0.00000000000E+00 -0.00000000000E+00 -0.45593999997E+02  0.45594000000E+02  0.51100000000E-03 0. -1.
    9900012    2    1    2    0    0 -0.81158096417E+01 -0.13603984862E+02 -0.99872025333E+01  0.72461575229E+02  0.70000006428E+02 0.  0.
        -12    1    1    2    0    0  0.81158096417E+01  0.13603984862E+02  0.99872025333E+01  0.18726424771E+02  0.00000000000E+00 0.  1.
         11    1    3    3    0    0  0.50071136098E+01 -0.23043102203E+02 -0.26255006920E+02  0.35289957983E+02  0.51100000000E-03 0. -1.
        -11    1    3    3    0    0  0.21519757671E+01 -0.52246970073E+01 -0.47168038768E+01  0.73604821577E+01  0.51100000000E-03 0.  1.
        -12    1    3    3    0    0 -0.15274899019E+02  0.14663814348E+02  0.20984608263E+02  0.29811135088E+02  0.00000000000E+00 0.  1.
</event>
<event>
 7    1  0.2851651E-013  0.7246154E+02  0.7816164E-02  0.1226708E+00
        -11   -1    0    0    0    0  0.00000000000E+00  0.00000000000E+00  0.45593999997E+02  0.45594000000E+02  0.51100000000E-03 0.  1.
         11   -1    0    0    0    0 -0.00000000000E+00 -0.00000000000E+00 -0.45593999997E+02  0.45594000000E+02  0.51100000000E-03 0. -1.
    9900012    2    1    2    0    0 -0.14851432287E+02 -0.53092692410E+01 -0.10095887313E+02  0.72461539537E+02  0.69999959932E+02 0.  0.
        -12    1    1    2    0    0  0.14851432287E+02  0.53092692410E+01  0.10095887313E+02  0.18726460463E+02  0.00000000000E+00 0.  1.
         11    1    3    3    0    0  0.12654381678E+02  0.14682541717E+02  0.10684929363E+01  0.19412678443E+02  0.51100000000E-03 0. -1.
        -11    1    3    3    0    0  0.36762762339E+00  0.20676811336E+01  0.10973351342E+02  0.11172506222E+02  0.51100000000E-03 0.  1.
        -12    1    3    3    0    0 -0.27873441588E+02 -0.22059492091E+02 -0.22137731592E+02  0.41876354872E+02  0.00000000000E+00 0.  1.
</event>
<event>
 7    1  0.2851651E-013  0.7246172E+02  0.7816164E-02  0.1226708E+00
        -11   -1    0    0    0    0  0.00000000000E+00  0.00000000000E+00  0.45593999997E+02  0.45594000000E+02  0.51100000000E-03 0.  1.
         11   -1    0    0    0    0 -0.00000000000E+00 -0.00000000000E+00 -0.45593999997E+02  0.45594000000E+02  0.51100000000E-03 0. -1.
    9900012    2    1    2    0    0  0.14262301239E+02  0.78399977421E+01 -0.92625460494E+01  0.72461720056E+02  0.70000195092E+02 0.  0.
        -12    1    1    2    0    0 -0.14262301239E+02 -0.78399977421E+01  0.92625460494E+01  0.18726279944E+02  0.00000000000E+00 0.  1.
         11    1    3    3    0    0  0.65503969122E+01  0.79892176330E+01  0.94995995696E+01  0.14034874076E+02  0.51100000000E-03 0. -1.
        -11    1    3    3    0    0  0.96707016814E+01 -0.14321067720E+02  0.14282038559E+02  0.22418565460E+02  0.51100000000E-03 0.  1.
         12    1    3    3    0    0 -0.19587973546E+01  0.14171847829E+02 -0.33044184178E+02  0.36008280519E+02  0.00000000000E+00 0. -1.
</event>
<event>
 7    1  0.2851651E-013  0.7246166E+02  0.7816164E-02  0.1226708E+00
        -11   -1    0    0    0    0  0.00000000000E+00  0.00000000000E+00  0.45593999997E+02  0.45594000000E+02  0.51100000000E-03 0.  1.
         11   -1    0    0    0    0 -0.00000000000E+00 -0.00000000000E+00 -0.45593999997E+02  0.45594000000E+02  0.51100000000E-03 0. -1.
    9900012    2    1    2    0    0  0.10438391624E+01  0.19961294148E+00 -0.18696156928E+02  0.72461662147E+02  0.70000119655E+02 0.  0.
        -12    1    1    2    0    0 -0.10438391624E+01 -0.19961294148E+00  0.18696156928E+02  0.18726337853E+02  0.00000000000E+00 0.  1.
         11    1    3    3    0    0  0.60593500420E+01  0.11829229734E+02  0.74757170023E+01  0.15249024362E+02  0.51100000000E-03 0. -1.
        -11    1    3    3    0    0  0.99625075061E+01 -0.18565147161E+02  0.52550942132E+01  0.21714793584E+02  0.51100000000E-03 0.  1.
         12    1    3    3    0    0 -0.14978018386E+02  0.69355303687E+01 -0.31426968143E+02  0.35497844201E+02  0.00000000000E+00 0. -1.
</event>
<event>
 7    1  0.2851651E-013  0.7246156E+02  0.7816164E-02  0.1226708E+00
        -11   -1    0    0    0    0  0.00000000000E+00  0.00000000000E+00  0.45593999997E+02  0.45594000000E+02  0.51100000000E-03 0.  1.
         11   -1    0    0    0    0 -0.00000000000E+00 -0.00000000000E+00 -0.45593999997E+02  0.45594000000E+02  0.51100000000E-03 0. -1.
    9900012    2    1    2    0    0 -0.14680492851E+02  0.68097989918E+01 -0.94228113720E+01  0.72461558619E+02  0.69999984791E+02 0.  0.
        -12    1    1    2    0    0  0.14680492851E+02 -0.68097989918E+01  0.94228113720E+01  0.18726441381E+02  0.00000000000E+00 0.  1.
         11    1    3    3    0    0  0.16110232942E+02  0.27003135578E+02  0.42457108766E+01  0.31729087564E+02  0.51100000000E-03 0. -1.
        -11    1    3    3    0    0 -0.54682122627E+01 -0.40099119511E+01  0.16825425581E+01  0.69865362610E+01  0.51100000000E-03 0.  1.
        -12    1    3    3    0    0 -0.25322513530E+02 -0.16183424635E+02 -0.15351064807E+02  0.33745934794E+02  0.00000000000E+00 0.  1.
</event>
<event>
 7    1  0.2851651E-013  0.7246159E+02  0.7816164E-02  0.1226708E+00
        -11   -1    0    0    0    0  0.00000000000E+00  0.00000000000E+00  0.45593999997E+02  0.45594000000E+02  0.51100000000E-03 0.  1.
         11   -1    0    0    0    0 -0.00000000000E+00 -0.00000000000E+00 -0.45593999997E+02  0.45594000000E+02  0.51100000000E-03 0. -1.
    9900012    2    1    2    0    0  0.69862817323E+01  0.26401129514E+01 -0.17172660466E+02  0.72461585599E+02  0.70000019937E+02 0.  0.
        -12    1    1    2    0    0 -0.69862817323E+01 -0.26401129514E+01  0.17172660466E+02  0.18726414401E+02  0.00000000000E+00 0.  1.
         11    1    3    3    0    0  0.14761838625E+02  0.15760937733E+01  0.45426586707E+01  0.15525195627E+02  0.51100000000E-03 0. -1.
        -11    1    3    3    0    0 -0.12574255538E+02 -0.78652073129E+01  0.13643986145E+02  0.20152710651E+02  0.51100000000E-03 0.  1.
        -12    1    3    3    0    0  0.47986986448E+01  0.89292264911E+01 -0.35359305282E+02  0.36783679321E+02  0.00000000000E+00 0.  1.
</event>
<event>
 7    1  0.2851651E-013  0.7246157E+02  0.7816164E-02  0.1226708E+00
        -11   -1    0    0    0    0  0.00000000000E+00  0.00000000000E+00  0.45593999997E+02  0.45594000000E+02  0.51100000000E-03 0.  1.
         11   -1    0    0    0    0 -0.00000000000E+00 -0.00000000000E+00 -0.45593999997E+02  0.45594000000E+02  0.51100000000E-03 0. -1.
    9900012    2    1    2    0    0  0.67117363111E+01 -0.16418985771E+02 -0.60040625721E+01  0.72461567734E+02  0.69999996664E+02 0.  0.
        -12    1    1    2    0    0 -0.67117363111E+01  0.16418985771E+02  0.60040625721E+01  0.18726432266E+02  0.00000000000E+00 0.  1.
         11    1    3    3    0    0 -0.46177818366E+01 -0.19863726238E+02 -0.15387061538E+02  0.25547077958E+02  0.51100000000E-03 0. -1.
        -11    1    3    3    0    0 -0.66788678453E+01 -0.16945603960E+02  0.24299470784E+00  0.18215922046E+02  0.51100000000E-03 0.  1.
        -12    1    3    3    0    0  0.18008385993E+02  0.20390344427E+02  0.91400042584E+01  0.28698567730E+02  0.00000000000E+00 0.  1.
</event>
<event>
 7    1  0.2851651E-013  0.7246197E+02  0.7816164E-02  0.1226707E+00
        -11   -1    0    0    0    0  0.00000000000E+00  0.00000000000E+00  0.45593999997E+02  0.45594000000E+02  0.51100000000E-03 0. -1.
         11   -1    0    0    0    0 -0.00000000000E+00 -0.00000000000E+00 -0.45593999997E+02  0.45594000000E+02  0.51100000000E-03 0.  1.
    9900012    2    1    2    0    0 -0.14596357576E+02  0.52974314711E+01  0.10466512653E+02  0.72461966737E+02  0.70000516438E+02 0.  0.
        -12    1    1    2    0    0  0.14596357576E+02 -0.52974314711E+01 -0.10466512653E+02  0.18726033263E+02  0.00000000000E+00 0.  1.
         11    1    3    3    0    0  0.15184554329E+02  0.98015647971E+01  0.11984959459E+02  0.21685954352E+02  0.51100000000E-03 0. -1.
        -11    1    3    3    0    0  0.48533750974E+01 -0.12287231171E+02  0.59690291820E+01  0.14496917235E+02  0.51100000000E-03 0.  1.
        -12    1    3    3    0    0 -0.34634287002E+02  0.77830978449E+01 -0.74874759880E+01  0.36279095150E+02  0.00000000000E+00 0.  1.
</event>
<event>
 7    1  0.2851651E-013  0.7246151E+02  0.7816164E-02  0.1226708E+00
        -11   -1    0    0    0    0  0.00000000000E+00  0.00000000000E+00  0.45593999997E+02  0.45594000000E+02  0.51100000000E-03 0.  1.
         11   -1    0    0    0    0 -0.00000000000E+00 -0.00000000000E+00 -0.45593999997E+02  0.45594000000E+02  0.51100000000E-03 0. -1.
    9900012    2    1    2    0    0  0.57604360042E+01  0.17019015593E+02 -0.52774954338E+01  0.72461508797E+02  0.69999919888E+02 0.  0.
        -12    1    1    2    0    0 -0.57604360042E+01 -0.17019015593E+02  0.52774954338E+01  0.18726491203E+02  0.00000000000E+00 0.  1.
         11    1    3    3    0    0 -0.28973759285E+01  0.10375202133E+02 -0.63813239007E+01  0.12520419384E+02  0.51100000000E-03 0. -1.
        -11    1    3    3    0    0 -0.23410514903E+02  0.24621146755E+01  0.11191308318E+02  0.26064527596E+02  0.51100000000E-03 0.  1.
        -12    1    3    3    0    0  0.32068326836E+02  0.41816987846E+01 -0.10087479851E+02  0.33876561816E+02  0.00000000000E+00 0.  1.
</event>
<event>
 7    1  0.2851651E-013  0.7246156E+02  0.7816164E-02  0.1226708E+00
        -11   -1    0    0    0    0  0.00000000000E+00  0.00000000000E+00  0.45593999997E+02  0.45594000000E+02  0.51100000000E-03 0.  1.
         11   -1    0    0    0    0 -0.00000000000E+00 -0.00000000000E+00 -0.45593999997E+02  0.45594000000E+02  0.51100000000E-03 0. -1.
    9900012    2    1    2    0    0 -0.10159874940E+02 -0.48099265847E+01 -0.14977348511E+02  0.72461563581E+02  0.69999991254E+02 0.  0.
        -12    1    1    2    0    0  0.10159874940E+02  0.48099265847E+01  0.14977348511E+02  0.18726436419E+02  0.00000000000E+00 0.  1.
         11    1    3    3    0    0  0.43065941263E+01  0.13201287114E+02 -0.22361647480E+02  0.26322310171E+02  0.51100000000E-03 0. -1.
        -11    1    3    3    0    0 -0.13562380988E+02  0.78770458185E+01 -0.62293914458E+01  0.16875762114E+02  0.51100000000E-03 0.  1.
         12    1    3    3    0    0 -0.90408807872E+00 -0.25888259517E+02  0.13613690415E+02  0.29263491296E+02  0.00000000000E+00 0. -1.
</event>
<event>
 7    1  0.2851651E-013  0.7246157E+02  0.7816164E-02  0.1226708E+00
        -11   -1    0    0    0    0  0.00000000000E+00  0.00000000000E+00  0.45593999997E+02  0.45594000000E+02  0.51100000000E-03 0. -1.
         11   -1    0    0    0    0 -0.00000000000E+00 -0.00000000000E+00 -0.45593999997E+02  0.45594000000E+02  0.51100000000E-03 0.  1.
    9900012    2    1    2    0    0 -0.72183095525E+01 -0.10127464308E+02  0.14000345992E+02  0.72461569107E+02  0.69999998453E+02 0.  0.
        -12    1    1    2    0    0  0.72183095525E+01  0.10127464308E+02 -0.14000345992E+02  0.18726430893E+02  0.00000000000E+00 0.  1.
         11    1    3    3    0    0 -0.26554464940E+02  0.96156497935E+01  0.99259103054E+01  0.29935330712E+02  0.51100000000E-03 0. -1.
        -11    1    3    3    0    0 -0.74538474486E+01  0.87861918161E-01  0.53420778553E+01  0.91708973158E+01  0.51100000000E-03 0.  1.
        -12    1    3    3    0    0  0.26790002836E+02 -0.19830976019E+02 -0.12676421683E+01  0.33355341079E+02  0.00000000000E+00 0.  1.
</event>
<event>
 7    1  0.2851651E-013  0.7246160E+02  0.7816164E-02  0.1226708E+00
        -11   -1    0    0    0    0  0.00000000000E+00  0.00000000000E+00  0.45593999997E+02  0.45594000000E+02  0.51100000000E-03 0.  1.
         11   -1    0    0    0    0 -0.00000000000E+00 -0.00000000000E+00 -0.45593999997E+02  0.45594000000E+02  0.51100000000E-03 0. -1.
    9900012    2    1    2    0    0  0.17119001361E+02  0.15816498371E+01 -0.74240291607E+01  0.72461600646E+02  0.70000039538E+02 0.  0.
        -12    1    1    2    0    0 -0.17119001361E+02 -0.15816498371E+01  0.74240291607E+01  0.18726399354E+02  0.00000000000E+00 0.  1.
         11    1    3    3    0    0  0.92976737320E+01 -0.21679107019E+02 -0.12330462758E+02  0.26617113481E+02  0.51100000000E-03 0. -1.
        -11    1    3    3    0    0 -0.42924337252E+01 -0.90274791730E+01 -0.30533485009E+01  0.10451952202E+02  0.51100000000E-03 0.  1.
        -12    1    3    3    0    0  0.12113761354E+02  0.32288236029E+02  0.79597820984E+01  0.35392534963E+02  0.00000000000E+00 0.  1.
</event>
<event>
 7    1  0.2851651E-013  0.7246162E+02  0.7816164E-02  0.1226708E+00
        -11   -1    0    0    0    0  0.00000000000E+00  0.00000000000E+00  0.45593999997E+02  0.45594000000E+02  0.51100000000E-03 0. -1.
         11   -1    0    0    0    0 -0.00000000000E+00 -0.00000000000E+00 -0.45593999997E+02  0.45594000000E+02  0.51100000000E-03 0.  1.
    9900012    2    1    2    0    0  0.16030478283E+02 -0.73696361517E+01 -0.62760975678E+01  0.72461623638E+02  0.70000069490E+02 0.  0.
        -12    1    1    2    0    0 -0.16030478283E+02  0.73696361517E+01  0.62760975678E+01  0.18726376362E+02  0.00000000000E+00 0.  1.
         11    1    3    3    0    0  0.13633577650E+02 -0.20758586399E+02  0.12799752455E+02  0.27939703148E+02  0.51100000000E-03 0. -1.
        -11    1    3    3    0    0  0.11289307862E+02  0.93988467219E+01  0.72994970305E+01  0.16403336516E+02  0.51100000000E-03 0.  1.
        -12    1    3    3    0    0 -0.88924072290E+01  0.39901035253E+01 -0.26375347054E+02  0.28118583973E+02  0.00000000000E+00 0.  1.
</event>
<event>
 7    1  0.2851651E-013  0.7246156E+02  0.7816164E-02  0.1226708E+00
        -11   -1    0    0    0    0  0.00000000000E+00  0.00000000000E+00  0.45593999997E+02  0.45594000000E+02  0.51100000000E-03 0. -1.
         11   -1    0    0    0    0 -0.00000000000E+00 -0.00000000000E+00 -0.45593999997E+02  0.45594000000E+02  0.51100000000E-03 0.  1.
    9900012    2    1    2    0    0 -0.17527283421E+02 -0.16229236849E+01  0.63906069580E+01  0.72461564068E+02  0.69999991889E+02 0.  0.
        -12    1    1    2    0    0  0.17527283421E+02  0.16229236849E+01 -0.63906069580E+01  0.18726435932E+02  0.00000000000E+00 0.  1.
         11    1    3    3    0    0 -0.34129699047E+01 -0.48613192636E+01 -0.10586074069E+02  0.12138605892E+02  0.51100000000E-03 0. -1.
        -11    1    3    3    0    0 -0.18272581836E+02 -0.36059442874E+01 -0.17120292728E+02  0.25298112667E+02  0.51100000000E-03 0.  1.
         12    1    3    3    0    0  0.41582683194E+01  0.68443398661E+01  0.34096973755E+02  0.35024845508E+02  0.00000000000E+00 0. -1.
</event>
<event>
 7    1  0.2851651E-013  0.7246162E+02  0.7816164E-02  0.1226708E+00
        -11   -1    0    0    0    0  0.00000000000E+00  0.00000000000E+00  0.45593999997E+02  0.45594000000E+02  0.51100000000E-03 0.  1.
         11   -1    0    0    0    0 -0.00000000000E+00 -0.00000000000E+00 -0.45593999997E+02  0.45594000000E+02  0.51100000000E-03 0. -1.
    9900012    2    1    2    0    0 -0.36288674433E+01 -0.14491602856E+02 -0.11291681253E+02  0.72461620271E+02  0.70000065103E+02 0.  0.
        -12    1    1    2    0    0  0.36288674433E+01  0.14491602856E+02  0.11291681253E+02  0.18726379729E+02  0.00000000000E+00 0.  1.
         11    1    3    3    0    0  0.49346729527E+01 -0.17863225084E+02 -0.29756545180E+02  0.35055638474E+02  0.51100000000E-03 0. -1.
        -11    1    3    3    0    0 -0.83273217531E+01 -0.79171727906E+01 -0.40787820119E+01  0.12192718136E+02  0.51100000000E-03 0.  1.
        -12    1    3    3    0    0 -0.23621864289E+00  0.11288795019E+02  0.22543645938E+02  0.25213263661E+02  0.00000000000E+00 0.  1.
</event>
<event>
 7    1  0.2851651E-013  0.7246152E+02  0.7816164E-02  0.1226708E+00
        -11   -1    0    0    0    0  0.00000000000E+00  0.00000000000E+00  0.45593999997E+02  0.45594000000E+02  0.51100000000E-03 0.  1.
         11   -1    0    0    0    0 -0.00000000000E+00 -0.00000000000E+00 -0.45593999997E+02  0.45594000000E+02  0.51100000000E-03 0. -1.
    9900012    2    1    2    0    0  0.26800168559E+01 -0.99040434333E+01 -0.15665524512E+02  0.72461515415E+02  0.69999928510E+02 0.  0.
        -12    1    1    2    0    0 -0.26800168559E+01  0.99040434333E+01  0.15665524512E+02  0.18726484585E+02  0.00000000000E+00 0.  1.
         11    1    3    3    0    0 -0.89312024527E+00  0.50540105566E+01 -0.16082508600E+02  0.16881580780E+02  0.51100000000E-03 0. -1.
        -11    1    3    3    0    0 -0.17661691617E+02 -0.26119204661E+02 -0.10304652949E+01  0.31546950120E+02  0.51100000000E-03 0.  1.
        -12    1    3    3    0    0  0.21234828718E+02  0.11161150672E+02  0.14474493834E+01  0.24032984515E+02  0.00000000000E+00 0.  1.
</event>
<event>
 7    1  0.2851651E-013  0.7246155E+02  0.7816164E-02  0.1226708E+00
        -11   -1    0    0    0    0  0.00000000000E+00  0.00000000000E+00  0.45593999997E+02  0.45594000000E+02  0.51100000000E-03 0.  1.
         11   -1    0    0    0    0 -0.00000000000E+00 -0.00000000000E+00 -0.45593999997E+02  0.45594000000E+02  0.51100000000E-03 0. -1.
    9900012    2    1    2    0    0  0.86528530960E+01 -0.16208696058E+02 -0.36174793240E+01  0.72461552092E+02  0.69999976288E+02 0.  0.
        -12    1    1    2    0    0 -0.86528530960E+01  0.16208696058E+02  0.36174793240E+01  0.18726447908E+02  0.00000000000E+00 0.  1.
         11    1    3    3    0    0  0.93654044927E+01 -0.18479395552E+02 -0.10422553897E+02  0.23191129582E+02  0.51100000000E-03 0. -1.
        -11    1    3    3    0    0  0.13668232536E+02 -0.17859799255E+02 -0.29391134054E+01  0.22681080176E+02  0.51100000000E-03 0.  1.
        -12    1    3    3    0    0 -0.14380783933E+02  0.20130498749E+02  0.97441879780E+01  0.26589342334E+02  0.00000000000E+00 0.  1.
</event>
<event>
 7    1  0.2851651E-013  0.7246157E+02  0.7816164E-02  0.1226708E+00
        -11   -1    0    0    0    0  0.00000000000E+00  0.00000000000E+00  0.45593999997E+02  0.45594000000E+02  0.51100000000E-03 0.  1.
         11   -1    0    0    0    0 -0.00000000000E+00 -0.00000000000E+00 -0.45593999997E+02  0.45594000000E+02  0.51100000000E-03 0. -1.
    9900012    2    1    2    0    0 -0.12785745812E+02  0.34137008938E+01 -0.13249548780E+02  0.72461569677E+02  0.69999999196E+02 0.  0.
        -12    1    1    2    0    0  0.12785745812E+02 -0.34137008938E+01  0.13249548780E+02  0.18726430323E+02  0.00000000000E+00 0.  1.
         11    1    3    3    0    0  0.71107820717E+01 -0.41734883138E+01  0.17683384101E+02  0.19511107091E+02  0.51100000000E-03 0. -1.
        -11    1    3    3    0    0 -0.31654796562E+01 -0.22652688991E+01  0.83046423649E+01  0.91716296104E+01  0.51100000000E-03 0.  1.
         12    1    3    3    0    0 -0.16731048227E+02  0.98524581067E+01 -0.39237575246E+02  0.43778832976E+02  0.00000000000E+00 0. -1.
</event>
<event>
 7    1  0.2851651E-013  0.7246155E+02  0.7816164E-02  0.1226708E+00
        -11   -1    0    0    0    0  0.00000000000E+00  0.00000000000E+00  0.45593999997E+02  0.45594000000E+02  0.51100000000E-03 0.  1.
         11   -1    0    0    0    0 -0.00000000000E+00 -0.00000000000E+00 -0.45593999997E+02  0.45594000000E+02  0.51100000000E-03 0. -1.
    9900012    2    1    2    0    0 -0.92037770270E+01  0.37048530308E+01 -0.15882204965E+02  0.72461551268E+02  0.69999975215E+02 0.  0.
        -12    1    1    2    0    0  0.92037770270E+01 -0.37048530308E+01  0.15882204965E+02  0.18726448732E+02  0.00000000000E+00 0.  1.
         11    1    3    3    0    0  0.88574635685E-01  0.12417003551E+01 -0.25547281722E+02  0.25577593101E+02  0.51100000000E-03 0. -1.
        -11    1    3    3    0    0  0.68311494141E+01 -0.18057106844E+02  0.74485115119E+01  0.20693091453E+02  0.51100000000E-03 0.  1.
        -12    1    3    3    0    0 -0.16123501077E+02  0.20520259520E+02  0.22165652441E+01  0.26190866714E+02  0.00000000000E+00 0.  1.
</event>
<event>
 7    1  0.2851651E-013  0.7246156E+02  0.7816164E-02  0.1226708E+00
        -11   -1    0    0    0    0  0.00000000000E+00  0.00000000000E+00  0.45593999997E+02  0.45594000000E+02  0.51100000000E-03 0. -1.
         11   -1    0    0    0    0 -0.00000000000E+00 -0.00000000000E+00 -0.45593999997E+02  0.45594000000E+02  0.51100000000E-03 0.  1.
    9900012    2    1    2    0    0  0.51643777314E+01  0.78404214162E+01  0.16202973923E+02  0.72461564960E+02  0.69999993052E+02 0.  0.
        -12    1    1    2    0    0 -0.51643777314E+01 -0.78404214162E+01 -0.16202973923E+02  0.18726435040E+02  0.00000000000E+00 0.  1.
         11    1    3    3    0    0  0.19766991645E+02  0.13331668940E+02  0.30570640408E+02  0.38768949052E+02  0.51100000000E-03 0. -1.
        -11    1    3    3    0    0  0.11720823124E+00  0.38299871319E+01  0.58564085143E+01  0.69985755798E+01  0.51100000000E-03 0.  1.
        -12    1    3    3    0    0 -0.14719822145E+02 -0.93212346559E+01 -0.20224074999E+02  0.26694040328E+02  0.00000000000E+00 0.  1.
</event>
<event>
 7    1  0.2851651E-013  0.7246169E+02  0.7816164E-02  0.1226708E+00
        -11   -1    0    0    0    0  0.00000000000E+00  0.00000000000E+00  0.45593999997E+02  0.45594000000E+02  0.51100000000E-03 0. -1.
         11   -1    0    0    0    0 -0.00000000000E+00 -0.00000000000E+00 -0.45593999997E+02  0.45594000000E+02  0.51100000000E-03 0.  1.
    9900012    2    1    2    0    0  0.10056871340E+02 -0.13693127952E+02  0.78760479155E+01  0.72461693770E+02  0.70000160849E+02 0.  0.
        -12    1    1    2    0    0 -0.10056871340E+02  0.13693127952E+02 -0.78760479155E+01  0.18726306230E+02  0.00000000000E+00 0.  1.
         11    1    3    3    0    0 -0.84389123727E+01 -0.24367668164E+01  0.13698166652E+01  0.88898522208E+01  0.51100000000E-03 0. -1.
        -11    1    3    3    0    0  0.24597513637E+02 -0.26399223765E+02 -0.12802156906E+02  0.38286445568E+02  0.51100000000E-03 0.  1.
         12    1    3    3    0    0 -0.61017299245E+01  0.15142862630E+02  0.19308388156E+02  0.25285395981E+02  0.00000000000E+00 0. -1.
</event>
<event>
 7    1  0.2851651E-013  0.7246154E+02  0.7816164E-02  0.1226708E+00
        -11   -1    0    0    0    0  0.00000000000E+00  0.00000000000E+00  0.45593999997E+02  0.45594000000E+02  0.51100000000E-03 0. -1.
         11   -1    0    0    0    0 -0.00000000000E+00 -0.00000000000E+00 -0.45593999997E+02  0.45594000000E+02  0.51100000000E-03 0.  1.
    9900012    2    1    2    0    0  0.18565536847E+01  0.66164518554E+01  0.17419994754E+02  0.72461536266E+02  0.69999955672E+02 0.  0.
        -12    1    1    2    0    0 -0.18565536847E+01 -0.66164518554E+01 -0.17419994754E+02  0.18726463734E+02  0.00000000000E+00 0.  1.
         11    1    3    3    0    0 -0.70634629105E+01  0.34830490878E+02  0.41676410643E+01  0.35783024402E+02  0.51100000000E-03 0. -1.
        -11    1    3    3    0    0  0.28927567747E+01 -0.11350231231E+02 -0.34286981114E+01  0.12204579541E+02  0.51100000000E-03 0.  1.
        -12    1    3    3    0    0  0.60272598204E+01 -0.16863807791E+02  0.16681051802E+02  0.24473932323E+02  0.00000000000E+00 0.  1.
</event>
<event>
 7    1  0.2851651E-013  0.7246158E+02  0.7816164E-02  0.1226708E+00
        -11   -1    0    0    0    0  0.00000000000E+00  0.00000000000E+00  0.45593999997E+02  0.45594000000E+02  0.51100000000E-03 0.  1.
         11   -1    0    0    0    0 -0.00000000000E+00 -0.00000000000E+00 -0.45593999997E+02  0.45594000000E+02  0.51100000000E-03 0. -1.
    9900012    2    1    2    0    0  0.17342877971E+02  0.44708200437E+01 -0.54694638317E+01  0.72461583290E+02  0.70000016930E+02 0.  0.
        -12    1    1    2    0    0 -0.17342877971E+02 -0.44708200437E+01  0.54694638317E+01  0.18726416710E+02  0.00000000000E+00 0.  1.
         11    1    3    3    0    0 -0.35288829577E+01 -0.12339719856E+02 -0.95015282189E+01  0.15968742587E+02  0.51100000000E-03 0. -1.
        -11    1    3    3    0    0 -0.71300766722E+01 -0.13156448332E+02 -0.17784052454E+01  0.15069600245E+02  0.51100000000E-03 0.  1.
         12    1    3    3    0    0  0.28001837601E+02  0.29966988232E+02  0.58104696325E+01  0.41423240458E+02  0.00000000000E+00 0. -1.
</event>
<event>
 7    1  0.2851651E-013  0.7246165E+02  0.7816164E-02  0.1226708E+00
        -11   -1    0    0    0    0  0.00000000000E+00  0.00000000000E+00  0.45593999997E+02  0.45594000000E+02  0.51100000000E-03 0. -1.
         11   -1    0    0    0    0 -0.00000000000E+00 -0.00000000000E+00 -0.45593999997E+02  0.45594000000E+02  0.51100000000E-03 0.  1.
    9900012    2    1    2    0    0  0.11615683525E+02 -0.64371325880E+01  0.13202849042E+02  0.72461654854E+02  0.70000110154E+02 0.  0.
        -12    1    1    2    0    0 -0.11615683525E+02  0.64371325880E+01 -0.13202849042E+02  0.18726345146E+02  0.00000000000E+00 0.  1.
         11    1    3    3    0    0 -0.71009761148E+01 -0.13532641102E+02 -0.15924224342E+02  0.22071183886E+02  0.51100000000E-03 0. -1.
        -11    1    3    3    0    0 -0.35749220977E+01  0.12837479020E+02  0.77509109732E-01  0.13326175127E+02  0.51100000000E-03 0.  1.
         12    1    3    3    0    0  0.22291581738E+02 -0.57419705056E+01  0.29049564274E+02  0.37064295841E+02  0.00000000000E+00 0. -1.
</event>
<event>
 7    1  0.2851651E-013  0.7246175E+02  0.7816164E-02  0.1226708E+00
        -11   -1    0    0    0    0  0.00000000000E+00  0.00000000000E+00  0.45593999997E+02  0.45594000000E+02  0.51100000000E-03 0.  1.
         11   -1    0    0    0    0 -0.00000000000E+00 -0.00000000000E+00 -0.45593999997E+02  0.45594000000E+02  0.51100000000E-03 0. -1.
    9900012    2    1    2    0    0 -0.10509184427E+02 -0.84204512767E+01  0.13012517153E+02  0.72461746779E+02  0.70000229904E+02 0.  0.
        -12    1    1    2    0    0  0.10509184427E+02  0.84204512767E+01 -0.13012517153E+02  0.18726253221E+02  0.00000000000E+00 0.  1.
         11    1    3    3    0    0 -0.20346059702E+02 -0.90104433974E+00  0.18670108758E+01  0.20451399858E+02  0.51100000000E-03 0. -1.
        -11    1    3    3    0    0  0.18781079265E+00 -0.24810322649E+02  0.18435047852E+02  0.30910166166E+02  0.51100000000E-03 0.  1.
         12    1    3    3    0    0  0.96490644819E+01  0.17290915712E+02 -0.72895415746E+01  0.21100180755E+02  0.00000000000E+00 0. -1.
</event>
<event>
 7    1  0.2851651E-013  0.7246156E+02  0.7816164E-02  0.1226708E+00
        -11   -1    0    0    0    0  0.00000000000E+00  0.00000000000E+00  0.45593999997E+02  0.45594000000E+02  0.51100000000E-03 0. -1.
         11   -1    0    0    0    0 -0.00000000000E+00 -0.00000000000E+00 -0.45593999997E+02  0.45594000000E+02  0.51100000000E-03 0.  1.
    9900012    2    1    2    0    0  0.53209913440E+01  0.17601020303E+02 -0.35455174684E+01  0.72461559903E+02  0.69999986463E+02 0.  0.
        -12    1    1    2    0    0 -0.53209913440E+01 -0.17601020303E+02  0.35455174684E+01  0.18726440097E+02  0.00000000000E+00 0.  1.
         11    1    3    3    0    0  0.78313439745E+00  0.26958515310E+02  0.10208287540E+02  0.28837197887E+02  0.51100000000E-03 0. -1.
        -11    1    3    3    0    0  0.14562031463E+01  0.14333601663E+02 -0.13482759850E+02  0.19732143261E+02  0.51100000000E-03 0.  1.
        -12    1    3    3    0    0  0.30816538003E+01 -0.23691096669E+02 -0.27104515780E+00  0.23892218755E+02  0.00000000000E+00 0.  1.
</event>
<event>
 7    1  0.2851651E-013  0.7246138E+02  0.7816164E-02  0.1226709E+00
        -11   -1    0    0    0    0  0.00000000000E+00  0.00000000000E+00  0.45593999997E+02  0.45594000000E+02  0.51100000000E-03 0.  1.
         11   -1    0    0    0    0 -0.00000000000E+00 -0.00000000000E+00 -0.45593999997E+02  0.45594000000E+02  0.51100000000E-03 0. -1.
    9900012    2    1    2    0    0 -0.81721334599E+01  0.10029474278E+02 -0.13539283950E+02  0.72461379123E+02  0.69999750964E+02 0.  0.
        -12    1    1    2    0    0  0.81721334599E+01 -0.10029474278E+02  0.13539283950E+02  0.18726620877E+02  0.00000000000E+00 0.  1.
         11    1    3    3    0    0 -0.48963417508E+01  0.17980217737E+01  0.85237775500E+00  0.52852240197E+01  0.51100000000E-03 0. -1.
        -11    1    3    3    0    0 -0.26623302175E+01 -0.21277530130E+02 -0.27507252744E+02  0.34877933489E+02  0.51100000000E-03 0.  1.
         12    1    3    3    0    0 -0.61346149161E+00  0.29508982635E+02  0.13115591039E+02  0.32298221615E+02  0.00000000000E+00 0. -1.
</event>
<event>
 7    1  0.2851651E-013  0.7246158E+02  0.7816164E-02  0.1226708E+00
        -11   -1    0    0    0    0  0.00000000000E+00  0.00000000000E+00  0.45593999997E+02  0.45594000000E+02  0.51100000000E-03 0.  1.
         11   -1    0    0    0    0 -0.00000000000E+00 -0.00000000000E+00 -0.45593999997E+02  0.45594000000E+02  0.51100000000E-03 0. -1.
    9900012    2    1    2    0    0  0.13169117955E+02  0.12115637059E+02 -0.55194706773E+01  0.72461577875E+02  0.70000009875E+02 0.  0.
        -12    1    1    2    0    0 -0.13169117955E+02 -0.12115637059E+02  0.55194706773E+01  0.18726422125E+02  0.00000000000E+00 0.  1.
         11    1    3    3    0    0 -0.82304678712E+01  0.29513912157E+02 -0.60991291146E+01  0.31241174569E+02  0.51100000000E-03 0. -1.
        -11    1    3    3    0    0 -0.16175439828E+01  0.68220382470E+01 -0.29807389138E+01  0.76184945438E+01  0.51100000000E-03 0.  1.
        -12    1    3    3    0    0  0.23017129809E+02 -0.24220313345E+02  0.35603973511E+01  0.33601908762E+02  0.00000000000E+00 0.  1.
</event>
<event>
 7    1  0.2851651E-013  0.7246160E+02  0.7816164E-02  0.1226708E+00
        -11   -1    0    0    0    0  0.00000000000E+00  0.00000000000E+00  0.45593999997E+02  0.45594000000E+02  0.51100000000E-03 0.  1.
         11   -1    0    0    0    0 -0.00000000000E+00 -0.00000000000E+00 -0.45593999997E+02  0.45594000000E+02  0.51100000000E-03 0. -1.
    9900012    2    1    2    0    0  0.57644468748E+01  0.53035039971E+01 -0.17009464319E+02  0.72461604756E+02  0.70000044893E+02 0.  0.
        -12    1    1    2    0    0 -0.57644468748E+01 -0.53035039971E+01  0.17009464319E+02  0.18726395244E+02  0.00000000000E+00 0.  1.
         11    1    3    3    0    0 -0.75718374028E+00  0.44049381444E+00  0.49962819304E+01  0.50724940026E+01  0.51100000000E-03 0. -1.
        -11    1    3    3    0    0  0.20567130815E+02 -0.19658208840E+02  0.43088762693E+01  0.28775309898E+02  0.51100000000E-03 0.  1.
         12    1    3    3    0    0 -0.14045500200E+02  0.24521219023E+02 -0.26314622518E+02  0.38613800856E+02  0.00000000000E+00 0. -1.
</event>
<event>
 7    1  0.2851651E-013  0.7246162E+02  0.7816164E-02  0.1226708E+00
        -11   -1    0    0    0    0  0.00000000000E+00  0.00000000000E+00  0.45593999997E+02  0.45594000000E+02  0.51100000000E-03 0.  1.
         11   -1    0    0    0    0 -0.00000000000E+00 -0.00000000000E+00 -0.45593999997E+02  0.45594000000E+02  0.51100000000E-03 0. -1.
    9900012    2    1    2    0    0  0.59572536276E+01 -0.17287541059E+02 -0.40409781107E+01  0.72461616187E+02  0.70000059783E+02 0.  0.
        -12    1    1    2    0    0 -0.59572536276E+01  0.17287541059E+02  0.40409781107E+01  0.18726383813E+02  0.00000000000E+00 0.  1.
         11    1    3    3    0    0 -0.36376444084E+01  0.12546306227E+02 -0.94794721088E+01  0.16140094439E+02  0.51100000000E-03 0. -1.
        -11    1    3    3    0    0  0.15805357045E+01 -0.17591412205E+02  0.25788478468E+02  0.31257023186E+02  0.51100000000E-03 0.  1.
         12    1    3    3    0    0  0.80143623315E+01 -0.12242435080E+02 -0.20349984470E+02  0.25064498562E+02  0.00000000000E+00 0. -1.
</event>
<event>
 7    1  0.2851651E-013  0.7246166E+02  0.7816164E-02  0.1226708E+00
        -11   -1    0    0    0    0  0.00000000000E+00  0.00000000000E+00  0.45593999997E+02  0.45594000000E+02  0.51100000000E-03 0. -1.
         11   -1    0    0    0    0 -0.00000000000E+00 -0.00000000000E+00 -0.45593999997E+02  0.45594000000E+02  0.51100000000E-03 0.  1.
    9900012    2    1    2    0    0  0.13827746688E+01  0.12325448751E+02  0.14030213403E+02  0.72461664511E+02  0.70000122735E+02 0.  0.
        -12    1    1    2    0    0 -0.13827746688E+01 -0.12325448751E+02 -0.14030213403E+02  0.18726335489E+02  0.00000000000E+00 0.  1.
         11    1    3    3    0    0  0.10169993820E+02  0.29648652173E+01 -0.76325148408E+00  0.10620816971E+02  0.51100000000E-03 0. -1.
        -11    1    3    3    0    0  0.14846102072E+02  0.23719711573E+02  0.19063960200E+02  0.33859504465E+02  0.51100000000E-03 0.  1.
         12    1    3    3    0    0 -0.23633321222E+02 -0.14359128040E+02 -0.42704953123E+01  0.27981343075E+02  0.00000000000E+00 0. -1.
</event>
<event>
 7    1  0.2851651E-013  0.7246157E+02  0.7816164E-02  0.1226708E+00
        -11   -1    0    0    0    0  0.00000000000E+00  0.00000000000E+00  0.45593999997E+02  0.45594000000E+02  0.51100000000E-03 0.  1.
         11   -1    0    0    0    0 -0.00000000000E+00 -0.00000000000E+00 -0.45593999997E+02  0.45594000000E+02  0.51100000000E-03 0. -1.
    9900012    2    1    2    0    0  0.14335742030E+02  0.29473971254E+01  0.11682410326E+02  0.72461565198E+02  0.69999993361E+02 0.  0.
        -12    1    1    2    0    0 -0.14335742030E+02 -0.29473971254E+01 -0.11682410326E+02  0.18726434802E+02  0.00000000000E+00 0.  1.
         11    1    3    3    0    0  0.60961024066E+01 -0.25551128016E+01  0.15413824483E+01  0.67872620469E+01  0.51100000000E-03 0. -1.
        -11    1    3    3    0    0  0.33252135513E+02  0.17014040691E+02  0.59045532730E+01  0.37815946986E+02  0.51100000000E-03 0.  1.
        -12    1    3    3    0    0 -0.25012495890E+02 -0.11511530764E+02  0.42364746046E+01  0.27858356166E+02  0.00000000000E+00 0.  1.
</event>
<event>
 7    1  0.2851651E-013  0.7246150E+02  0.7816164E-02  0.1226708E+00
        -11   -1    0    0    0    0  0.00000000000E+00  0.00000000000E+00  0.45593999997E+02  0.45594000000E+02  0.51100000000E-03 0.  1.
         11   -1    0    0    0    0 -0.00000000000E+00 -0.00000000000E+00 -0.45593999997E+02  0.45594000000E+02  0.51100000000E-03 0. -1.
    9900012    2    1    2    0    0  0.73758146964E+01 -0.16507038947E+02 -0.48782124161E+01  0.72461496493E+02  0.69999903859E+02 0.  0.
        -12    1    1    2    0    0 -0.73758146964E+01  0.16507038947E+02  0.48782124161E+01  0.18726503507E+02  0.00000000000E+00 0.  1.
         11    1    3    3    0    0  0.34782782692E+01  0.22087368460E+00  0.19162594523E+02  0.19476966756E+02  0.51100000000E-03 0. -1.
        -11    1    3    3    0    0  0.17025881986E+02  0.79462437614E+01 -0.60224093074E+01  0.19730505859E+02  0.51100000000E-03 0.  1.
         12    1    3    3    0    0 -0.13128345559E+02 -0.24674156393E+02 -0.18018397632E+02  0.33254023877E+02  0.00000000000E+00 0. -1.
</event>
<event>
 7    1  0.2851651E-013  0.7246140E+02  0.7816164E-02  0.1226708E+00
        -11   -1    0    0    0    0  0.00000000000E+00  0.00000000000E+00  0.45593999997E+02  0.45594000000E+02  0.51100000000E-03 0.  1.
         11   -1    0    0    0    0 -0.00000000000E+00 -0.00000000000E+00 -0.45593999997E+02  0.45594000000E+02  0.51100000000E-03 0. -1.
    9900012    2    1    2    0    0  0.14888704056E+02  0.11115049516E+02  0.23383429364E+01  0.72461396413E+02  0.69999773487E+02 0.  0.
        -12    1    1    2    0    0 -0.14888704056E+02 -0.11115049516E+02 -0.23383429364E+01  0.18726603587E+02  0.00000000000E+00 0.  1.
         11    1    3    3    0    0  0.21039916172E+02 -0.67121624218E+01  0.99862173265E+01  0.24237486125E+02  0.51100000000E-03 0. -1.
        -11    1    3    3    0    0  0.16469938920E+02 -0.13527791870E+01 -0.84390591405E+01  0.18555501044E+02  0.51100000000E-03 0.  1.
        -12    1    3    3    0    0 -0.22621151036E+02  0.19179991125E+02  0.79118475045E+00  0.29668409244E+02  0.00000000000E+00 0.  1.
</event>
<event>
 7    1  0.2851651E-013  0.7246158E+02  0.7816164E-02  0.1226708E+00
        -11   -1    0    0    0    0  0.00000000000E+00  0.00000000000E+00  0.45593999997E+02  0.45594000000E+02  0.51100000000E-03 0.  1.
         11   -1    0    0    0    0 -0.00000000000E+00 -0.00000000000E+00 -0.45593999997E+02  0.45594000000E+02  0.51100000000E-03 0. -1.
    9900012    2    1    2    0    0 -0.12526386386E+01  0.14467222795E+02 -0.11824098575E+02  0.72461576260E+02  0.70000007772E+02 0.  0.
        -12    1    1    2    0    0  0.12526386386E+01 -0.14467222795E+02  0.11824098575E+02  0.18726423740E+02  0.00000000000E+00 0.  1.
         11    1    3    3    0    0  0.24818550546E+01  0.25554927329E+01  0.40262207689E+00  0.35850038239E+01  0.51100000000E-03 0. -1.
        -11    1    3    3    0    0  0.23529597065E+02  0.26629309660E+02  0.89564557281E-01  0.35535476542E+02  0.51100000000E-03 0.  1.
         12    1    3    3    0    0 -0.27264090758E+02 -0.14717579597E+02 -0.12316285209E+02  0.33341095894E+02  0.00000000000E+00 0. -1.
</event>
<event>
 7    1  0.2851651E-013  0.7246159E+02  0.7816164E-02  0.1226708E+00
        -11   -1    0    0    0    0  0.00000000000E+00  0.00000000000E+00  0.45593999997E+02  0.45594000000E+02  0.51100000000E-03 0.  1.
         11   -1    0    0    0    0 -0.00000000000E+00 -0.00000000000E+00 -0.45593999997E+02  0.45594000000E+02  0.51100000000E-03 0. -1.
    9900012    2    1    2    0    0 -0.16499330928E+02  0.49246609793E+01 -0.73619329469E+01  0.72461594484E+02  0.70000031512E+02 0.  0.
        -12    1    1    2    0    0  0.16499330928E+02 -0.49246609793E+01  0.73619329469E+01  0.18726405516E+02  0.00000000000E+00 0.  1.
         11    1    3    3    0    0 -0.26040776196E+01 -0.42235666763E+01 -0.27014602599E+02  0.27466497585E+02  0.51100000000E-03 0. -1.
        -11    1    3    3    0    0 -0.21289814252E+01  0.10352407188E+02 -0.90732762718E+01  0.13929437859E+02  0.51100000000E-03 0.  1.
        -12    1    3    3    0    0 -0.11766271883E+02 -0.12041795322E+01  0.28725945924E+02  0.31065659041E+02  0.00000000000E+00 0.  1.
</event>
<event>
 7    1  0.2851651E-013  0.7246154E+02  0.7816164E-02  0.1226708E+00
        -11   -1    0    0    0    0  0.00000000000E+00  0.00000000000E+00  0.45593999997E+02  0.45594000000E+02  0.51100000000E-03 0. -1.
         11   -1    0    0    0    0 -0.00000000000E+00 -0.00000000000E+00 -0.45593999997E+02  0.45594000000E+02  0.51100000000E-03 0.  1.
    9900012    2    1    2    0    0 -0.12062361931E+02  0.88418766005E+01  0.11269464724E+02  0.72461542985E+02  0.69999964424E+02 0.  0.
        -12    1    1    2    0    0  0.12062361931E+02 -0.88418766005E+01 -0.11269464724E+02  0.18726457015E+02  0.00000000000E+00 0.  1.
         11    1    3    3    0    0 -0.51300495970E+01 -0.17170940560E+02  0.25262270597E+02  0.30973229159E+02  0.51100000000E-03 0. -1.
        -11    1    3    3    0    0  0.27396179492E+01  0.38708815009E+01  0.76827297646E+01  0.90284864179E+01  0.51100000000E-03 0.  1.
        -12    1    3    3    0    0 -0.96719302834E+01  0.22141935660E+02 -0.21675535637E+02  0.32459827407E+02  0.00000000000E+00 0.  1.
</event>
<event>
 7    1  0.2851651E-013  0.7246158E+02  0.7816164E-02  0.1226708E+00
        -11   -1    0    0    0    0  0.00000000000E+00  0.00000000000E+00  0.45593999997E+02  0.45594000000E+02  0.51100000000E-03 0.  1.
         11   -1    0    0    0    0 -0.00000000000E+00 -0.00000000000E+00 -0.45593999997E+02  0.45594000000E+02  0.51100000000E-03 0. -1.
    9900012    2    1    2    0    0  0.35451095870E+01  0.14170731598E+02  0.11717568674E+02  0.72461578782E+02  0.70000011056E+02 0.  0.
        -12    1    1    2    0    0 -0.35451095870E+01 -0.14170731598E+02 -0.11717568674E+02  0.18726421218E+02  0.00000000000E+00 0.  1.
         11    1    3    3    0    0 -0.13288233718E+02  0.19339894100E+02 -0.87815229438E+00  0.23481478038E+02  0.51100000000E-03 0. -1.
        -11    1    3    3    0    0 -0.49972747541E+01  0.12890433213E+02 -0.60202219501E+01  0.15079094667E+02  0.51100000000E-03 0.  1.
        -12    1    3    3    0    0  0.21830618060E+02 -0.18059595715E+02  0.18615942919E+02  0.33901006077E+02  0.00000000000E+00 0.  1.
</event>
<event>
 7    1  0.2851651E-013  0.7246163E+02  0.7816164E-02  0.1226708E+00
        -11   -1    0    0    0    0  0.00000000000E+00  0.00000000000E+00  0.45593999997E+02  0.45594000000E+02  0.51100000000E-03 0.  1.
         11   -1    0    0    0    0 -0.00000000000E+00 -0.00000000000E+00 -0.45593999997E+02  0.45594000000E+02  0.51100000000E-03 0. -1.
    9900012    2    1    2    0    0  0.17033708214E+02  0.48888117281E+01  0.60522218973E+01  0.72461625937E+02  0.70000072485E+02 0.  0.
        -12    1    1    2    0    0 -0.17033708214E+02 -0.48888117281E+01 -0.60522218973E+01  0.18726374063E+02  0.00000000000E+00 0.  1.
         11    1    3    3    0    0  0.16588151518E+01 -0.21747117013E+02 -0.12496849699E+02  0.25136825948E+02  0.51100000000E-03 0. -1.
        -11    1    3    3    0    0  0.10931763227E+02 -0.22085334490E+01  0.13821158345E+02  0.17759658936E+02  0.51100000000E-03 0.  1.
         12    1    3    3    0    0  0.44431298351E+01  0.28844462190E+02  0.47279132510E+01  0.29565141053E+02  0.00000000000E+00 0. -1.
</event>
<event>
 7    1  0.2851651E-013  0.7246157E+02  0.7816164E-02  0.1226708E+00
        -11   -1    0    0    0    0  0.00000000000E+00  0.00000000000E+00  0.45593999997E+02  0.45594000000E+02  0.51100000000E-03 0.  1.
         11   -1    0    0    0    0 -0.00000000000E+00 -0.00000000000E+00 -0.45593999997E+02  0.45594000000E+02  0.51100000000E-03 0. -1.
    9900012    2    1    2    0    0 -0.14526856533E+00  0.16094238490E+02 -0.95725352531E+01  0.72461573574E+02  0.70000004272E+02 0.  0.
        -12    1    1    2    0    0  0.14526856533E+00 -0.16094238490E+02  0.95725352531E+01  0.18726426426E+02  0.00000000000E+00 0.  1.
         11    1    3    3    0    0 -0.15735070245E+02  0.10284135872E+02 -0.22771754956E+02  0.29528100350E+02  0.51100000000E-03 0. -1.
        -11    1    3    3    0    0 -0.54167632819E+01 -0.11789090416E+02  0.12398745460E+01  0.13033083535E+02  0.51100000000E-03 0.  1.
         12    1    3    3    0    0  0.21006564961E+02  0.17599193034E+02  0.11959345157E+02  0.29900389688E+02  0.00000000000E+00 0. -1.
</event>
<event>
 7    1  0.2851651E-013  0.7246160E+02  0.7816164E-02  0.1226708E+00
        -11   -1    0    0    0    0  0.00000000000E+00  0.00000000000E+00  0.45593999997E+02  0.45594000000E+02  0.51100000000E-03 0.  1.
         11   -1    0    0    0    0 -0.00000000000E+00 -0.00000000000E+00 -0.45593999997E+02  0.45594000000E+02  0.51100000000E-03 0. -1.
    9900012    2    1    2    0    0  0.10422785695E+02 -0.59502500602E+01 -0.14374919168E+02  0.72461595153E+02  0.70000032383E+02 0.  0.
        -12    1    1    2    0    0 -0.10422785695E+02  0.59502500602E+01  0.14374919168E+02  0.18726404847E+02  0.00000000000E+00 0.  1.
         11    1    3    3    0    0  0.18720625039E+01  0.10539295655E+02  0.94593440988E+01  0.14284976793E+02  0.51100000000E-03 0. -1.
        -11    1    3    3    0    0  0.25962297485E+02 -0.20594274990E+01 -0.10350830257E+01  0.26064411167E+02  0.51100000000E-03 0.  1.
         12    1    3    3    0    0 -0.17411574294E+02 -0.14430118217E+02 -0.22799180241E+02  0.32112207193E+02  0.00000000000E+00 0. -1.
</event>
<event>
 7    1  0.2851651E-013  0.7246157E+02  0.7816164E-02  0.1226708E+00
        -11   -1    0    0    0    0  0.00000000000E+00  0.00000000000E+00  0.45593999997E+02  0.45594000000E+02  0.51100000000E-03 0.  1.
         11   -1    0    0    0    0 -0.00000000000E+00 -0.00000000000E+00 -0.45593999997E+02  0.45594000000E+02  0.51100000000E-03 0. -1.
    9900012    2    1    2    0    0  0.12848600995E+02  0.77073015819E+01 -0.11233441066E+02  0.72461568322E+02  0.69999997431E+02 0.  0.
        -12    1    1    2    0    0 -0.12848600995E+02 -0.77073015819E+01  0.11233441066E+02  0.18726431678E+02  0.00000000000E+00 0.  1.
         11    1    3    3    0    0 -0.10202360094E+01  0.33058947962E+02  0.42576443432E+01  0.33347600476E+02  0.51100000000E-03 0. -1.
        -11    1    3    3    0    0  0.11062964859E+01 -0.13771579206E+02  0.26768948209E+01  0.14072883567E+02  0.51100000000E-03 0.  1.
        -12    1    3    3    0    0  0.12762540518E+02 -0.11580067174E+02 -0.18167980230E+02  0.25041084279E+02  0.00000000000E+00 0.  1.
</event>
<event>
 7    1  0.2851651E-013  0.7246152E+02  0.7816164E-02  0.1226708E+00
        -11   -1    0    0    0    0  0.00000000000E+00  0.00000000000E+00  0.45593999997E+02  0.45594000000E+02  0.51100000000E-03 0.  1.
         11   -1    0    0    0    0 -0.00000000000E+00 -0.00000000000E+00 -0.45593999997E+02  0.45594000000E+02  0.51100000000E-03 0. -1.
    9900012    2    1    2    0    0  0.16927610670E+02 -0.47275041173E+01  0.64643328855E+01  0.72461524148E+02  0.69999939886E+02 0.  0.
        -12    1    1    2    0    0 -0.16927610670E+02  0.47275041173E+01 -0.64643328855E+01  0.18726475852E+02  0.00000000000E+00 0.  1.
         11    1    3    3    0    0  0.18973219815E+02 -0.65682957020E+01 -0.65100870282E+01  0.21107032286E+02  0.51100000000E-03 0. -1.
        -11    1    3    3    0    0 -0.31864337808E+01  0.10551031899E+02  0.30128884290E+02  0.32081572642E+02  0.51100000000E-03 0.  1.
         12    1    3    3    0    0  0.11408246362E+01 -0.87102403140E+01 -0.17154464377E+02  0.19272919219E+02  0.00000000000E+00 0. -1.
</event>
<event>
 7    1  0.2851651E-013  0.7246159E+02  0.7816164E-02  0.1226708E+00
        -11   -1    0    0    0    0  0.00000000000E+00  0.00000000000E+00  0.45593999997E+02  0.45594000000E+02  0.51100000000E-03 0. -1.
         11   -1    0    0    0    0 -0.00000000000E+00 -0.00000000000E+00 -0.45593999997E+02  0.45594000000E+02  0.51100000000E-03 0.  1.
    9900012    2    1    2    0    0 -0.18005538377E+01  0.75687403040E+01  0.17033808223E+02  0.72461589600E+02  0.70000025149E+02 0.  0.
        -12    1    1    2    0    0  0.18005538377E+01 -0.75687403040E+01 -0.17033808223E+02  0.18726410400E+02  0.00000000000E+00 0.  1.
         11    1    3    3    0    0  0.17526089767E+02  0.11546401119E+02 -0.15501263823E+02  0.26091615161E+02  0.51100000000E-03 0.  1.
        -11    1    3    3    0    0 -0.15223901761E+02 -0.59857587857E+01  0.31837145423E+01  0.16665309227E+02  0.51100000000E-03 0. -1.
        -12    1    3    3    0    0 -0.41027418437E+01  0.20080979705E+01  0.29351357503E+02  0.29704665212E+02  0.00000000000E+00 0.  1.
</event>
<event>
 7    1  0.2851651E-013  0.7246157E+02  0.7816164E-02  0.1226708E+00
        -11   -1    0    0    0    0  0.00000000000E+00  0.00000000000E+00  0.45593999997E+02  0.45594000000E+02  0.51100000000E-03 0. -1.
         11   -1    0    0    0    0 -0.00000000000E+00 -0.00000000000E+00 -0.45593999997E+02  0.45594000000E+02  0.51100000000E-03 0.  1.
    9900012    2    1    2    0    0 -0.67761166557E+01 -0.17295189610E+02 -0.23748659824E+01  0.72461566036E+02  0.69999994453E+02 0.  0.
        -12    1    1    2    0    0  0.67761166557E+01  0.17295189610E+02  0.23748659824E+01  0.18726433964E+02  0.00000000000E+00 0.  1.
         11    1    3    3    0    0 -0.17655290054E+02 -0.95637857223E+01 -0.23828613255E+02  0.31160521082E+02  0.51100000000E-03 0. -1.
        -11    1    3    3    0    0  0.36535278071E+01 -0.13989161079E+02 -0.32441944652E+01  0.14817884165E+02  0.51100000000E-03 0.  1.
         12    1    3    3    0    0  0.72256455907E+01  0.62577571914E+01  0.24697941738E+02  0.26483160789E+02  0.00000000000E+00 0. -1.
</event>
<event>
 7    1  0.2851651E-013  0.7246176E+02  0.7816164E-02  0.1226708E+00
        -11   -1    0    0    0    0  0.00000000000E+00  0.00000000000E+00  0.45593999997E+02  0.45594000000E+02  0.51100000000E-03 0.  1.
         11   -1    0    0    0    0 -0.00000000000E+00 -0.00000000000E+00 -0.45593999997E+02  0.45594000000E+02  0.51100000000E-03 0. -1.
    9900012    2    1    2    0    0  0.14205590693E+02  0.98261174374E+00 -0.12161736405E+02  0.72461757314E+02  0.70000243627E+02 0.  0.
        -12    1    1    2    0    0 -0.14205590693E+02 -0.98261174374E+00  0.12161736405E+02  0.18726242686E+02  0.00000000000E+00 0.  1.
         11    1    3    3    0    0  0.14958196915E+02  0.63593214311E+01 -0.13378750061E+02  0.21051830739E+02  0.51100000000E-03 0. -1.
        -11    1    3    3    0    0  0.85729189662E+00 -0.15344705821E+02 -0.21570544316E+02  0.26485530549E+02  0.51100000000E-03 0.  1.
        -12    1    3    3    0    0 -0.16098981191E+01  0.99679961335E+01  0.22787557972E+02  0.24924396025E+02  0.00000000000E+00 0.  1.
</event>
<event>
 7    1  0.2851651E-013  0.7246155E+02  0.7816164E-02  0.1226708E+00
        -11   -1    0    0    0    0  0.00000000000E+00  0.00000000000E+00  0.45593999997E+02  0.45594000000E+02  0.51100000000E-03 0.  1.
         11   -1    0    0    0    0 -0.00000000000E+00 -0.00000000000E+00 -0.45593999997E+02  0.45594000000E+02  0.51100000000E-03 0. -1.
    9900012    2    1    2    0    0 -0.18339840866E+02 -0.24250934859E+01  0.29067177438E+01  0.72461552140E+02  0.69999976350E+02 0.  0.
        -12    1    1    2    0    0  0.18339840866E+02  0.24250934859E+01 -0.29067177438E+01  0.18726447860E+02  0.00000000000E+00 0.  1.
         11    1    3    3    0    0  0.12225130232E+01  0.18060845307E+02 -0.18961032454E+01  0.18201205430E+02  0.51100000000E-03 0. -1.
        -11    1    3    3    0    0 -0.32824230906E+02 -0.16080829327E+02  0.12091111618E+02  0.38499586840E+02  0.51100000000E-03 0.  1.
         12    1    3    3    0    0  0.13261877016E+02 -0.44051094666E+01 -0.72882906285E+01  0.15760759871E+02  0.00000000000E+00 0. -1.
</event>
<event>
 7    1  0.2851651E-013  0.7246165E+02  0.7816164E-02  0.1226708E+00
        -11   -1    0    0    0    0  0.00000000000E+00  0.00000000000E+00  0.45593999997E+02  0.45594000000E+02  0.51100000000E-03 0. -1.
         11   -1    0    0    0    0 -0.00000000000E+00 -0.00000000000E+00 -0.45593999997E+02  0.45594000000E+02  0.51100000000E-03 0.  1.
    9900012    2    1    2    0    0  0.47420552131E+01 -0.18115989257E+02  0.14191403222E-01  0.72461645422E+02  0.70000097867E+02 0.  0.
        -12    1    1    2    0    0 -0.47420552131E+01  0.18115989257E+02 -0.14191403222E-01  0.18726354578E+02  0.00000000000E+00 0.  1.
         11    1    3    3    0    0  0.18867114793E+01 -0.34207960886E+01  0.70692232312E+01  0.80768461320E+01  0.51100000000E-03 0. -1.
        -11    1    3    3    0    0 -0.78912613742E+01 -0.28158593453E+02 -0.25749034775E+02  0.38963972891E+02  0.51100000000E-03 0.  1.
         12    1    3    3    0    0  0.10746605108E+02  0.13463400285E+02  0.18694002947E+02  0.25420826399E+02  0.00000000000E+00 0. -1.
</event>
<event>
 7    1  0.2851651E-013  0.7246155E+02  0.7816164E-02  0.1226708E+00
        -11   -1    0    0    0    0  0.00000000000E+00  0.00000000000E+00  0.45593999997E+02  0.45594000000E+02  0.51100000000E-03 0. -1.
         11   -1    0    0    0    0 -0.00000000000E+00 -0.00000000000E+00 -0.45593999997E+02  0.45594000000E+02  0.51100000000E-03 0.  1.
    9900012    2    1    2    0    0  0.65757015542E+01 -0.14021385437E+02  0.10528091554E+02  0.72461553133E+02  0.69999977644E+02 0.  0.
        -12    1    1    2    0    0 -0.65757015542E+01  0.14021385437E+02 -0.10528091554E+02  0.18726446867E+02  0.00000000000E+00 0.  1.
         11    1    3    3    0    0  0.14986351156E+01  0.16095869247E+02  0.17977997891E+02  0.24177082588E+02  0.51100000000E-03 0. -1.
        -11    1    3    3    0    0  0.18021047812E+02 -0.13580862196E+02  0.59963506338E+01  0.23348537500E+02  0.51100000000E-03 0.  1.
        -12    1    3    3    0    0 -0.12943981373E+02 -0.16536392488E+02 -0.13446256971E+02  0.24935933045E+02  0.00000000000E+00 0.  1.
</event>
<event>
 7    1  0.2851651E-013  0.7246155E+02  0.7816164E-02  0.1226708E+00
        -11   -1    0    0    0    0  0.00000000000E+00  0.00000000000E+00  0.45593999997E+02  0.45594000000E+02  0.51100000000E-03 0.  1.
         11   -1    0    0    0    0 -0.00000000000E+00 -0.00000000000E+00 -0.45593999997E+02  0.45594000000E+02  0.51100000000E-03 0. -1.
    9900012    2    1    2    0    0  0.46402416406E+00 -0.19897620969E+01 -0.18614656900E+02  0.72461550173E+02  0.69999973788E+02 0.  0.
        -12    1    1    2    0    0 -0.46402416406E+00  0.19897620969E+01  0.18614656900E+02  0.18726449827E+02  0.00000000000E+00 0.  1.
         11    1    3    3    0    0  0.90801323793E+01  0.53118960306E+01 -0.10178517890E+02  0.14637871094E+02  0.51100000000E-03 0. -1.
        -11    1    3    3    0    0  0.37456399431E+00  0.23740222450E+02 -0.92869755436E+01  0.25494830362E+02  0.51100000000E-03 0.  1.
         12    1    3    3    0    0 -0.89906722096E+01 -0.31041880578E+02  0.85083653402E+00  0.32328848717E+02  0.00000000000E+00 0. -1.
</event>
<event>
 7    1  0.2851651E-013  0.7246155E+02  0.7816164E-02  0.1226708E+00
        -11   -1    0    0    0    0  0.00000000000E+00  0.00000000000E+00  0.45593999997E+02  0.45594000000E+02  0.51100000000E-03 0.  1.
         11   -1    0    0    0    0 -0.00000000000E+00 -0.00000000000E+00 -0.45593999997E+02  0.45594000000E+02  0.51100000000E-03 0. -1.
    9900012    2    1    2    0    0  0.74213356432E+01 -0.17014191632E+02 -0.24740271760E+01  0.72461554793E+02  0.69999979807E+02 0.  0.
        -12    1    1    2    0    0 -0.74213356432E+01  0.17014191632E+02  0.24740271760E+01  0.18726445207E+02  0.00000000000E+00 0.  1.
         11    1    3    3    0    0  0.82648230778E+01 -0.27617787658E+01  0.30169672397E+01  0.92215407631E+01  0.51100000000E-03 0. -1.
        -11    1    3    3    0    0  0.26955058863E+02  0.40553955799E+01  0.62113633444E+01  0.27957154119E+02  0.51100000000E-03 0.  1.
        -12    1    3    3    0    0 -0.27798546297E+02 -0.18307808446E+02 -0.11702357760E+02  0.35282859911E+02  0.00000000000E+00 0.  1.
</event>
