<event>
 7    1  0.6184948E-012  0.5930202E+02  0.7816164E-02  0.1266605E+00
        -11   -1    0    0    0    0  0.00000000000E+00  0.00000000000E+00  0.45593999997E+02  0.45594000000E+02  0.51100000000E-03 0.  1.
         11   -1    0    0    0    0 -0.00000000000E+00 -0.00000000000E+00 -0.45593999997E+02  0.45594000000E+02  0.51100000000E-03 0. -1.
    9900012    2    1    2    0    0 -0.26796026813E+02 -0.13347608850E+02  0.10978630255E+02  0.59302015035E+02  0.50000129499E+02 0.  0.
         12    1    1    2    0    0  0.26796026813E+02  0.13347608850E+02 -0.10978630255E+02  0.31885984965E+02  0.00000000000E+00 0. -1.
         11    1    3    3    0    0 -0.15605583875E+01  0.21984721303E+01  0.39808033894E+01  0.48078496311E+01  0.51100000000E-03 0. -1.
        -11    1    3    3    0    0 -0.28271327204E+02  0.47683646753E+01 -0.71554572410E+01  0.29550056043E+02  0.51100000000E-03 0.  1.
         12    1    3    3    0    0  0.30358587787E+01 -0.20314445655E+02  0.14153284106E+02  0.24944109361E+02  0.00000000000E+00 0. -1.
</event>
<event>
 7    1  0.6184948E-012  0.5930194E+02  0.7816164E-02  0.1266605E+00
        -11   -1    0    0    0    0  0.00000000000E+00  0.00000000000E+00  0.45593999997E+02  0.45594000000E+02  0.51100000000E-03 0.  1.
         11   -1    0    0    0    0 -0.00000000000E+00 -0.00000000000E+00 -0.45593999997E+02  0.45594000000E+02  0.51100000000E-03 0. -1.
    9900012    2    1    2    0    0  0.15550980054E+02  0.36690453056E+01  0.27593946840E+02  0.59301940722E+02  0.49999993971E+02 0.  0.
         12    1    1    2    0    0 -0.15550980054E+02 -0.36690453056E+01 -0.27593946840E+02  0.31886059278E+02  0.00000000000E+00 0. -1.
         11    1    3    3    0    0  0.53212196067E+01  0.16947359741E+02 -0.59722407032E+00  0.17773155520E+02  0.51100000000E-03 0. -1.
        -11    1    3    3    0    0 -0.77844048933E+01 -0.27070958717E+01  0.29210117035E+01  0.87440057888E+01  0.51100000000E-03 0.  1.
        -12    1    3    3    0    0  0.18014165341E+02 -0.10571218563E+02  0.25270159207E+02  0.32784779413E+02  0.00000000000E+00 0.  1.
</event>
<event>
 7    1  0.6184948E-012  0.5930194E+02  0.7816164E-02  0.1266605E+00
        -11   -1    0    0    0    0  0.00000000000E+00  0.00000000000E+00  0.45593999997E+02  0.45594000000E+02  0.51100000000E-03 0.  1.
         11   -1    0    0    0    0 -0.00000000000E+00 -0.00000000000E+00 -0.45593999997E+02  0.45594000000E+02  0.51100000000E-03 0. -1.
    9900012    2    1    2    0    0  0.25902019780E+02 -0.15418004931E+02 -0.10396711673E+02  0.59301935358E+02  0.49999984188E+02 0.  0.
         12    1    1    2    0    0 -0.25902019780E+02  0.15418004931E+02  0.10396711673E+02  0.31886064642E+02  0.00000000000E+00 0. -1.
         11    1    3    3    0    0 -0.50429088344E+01  0.28310088168E+00  0.57447223343E+00  0.50834136394E+01  0.51100000000E-03 0. -1.
        -11    1    3    3    0    0  0.36922066371E+02 -0.44174389292E+01  0.29998557086E+00  0.37186593598E+02  0.51100000000E-03 0.  1.
         12    1    3    3    0    0 -0.59771377566E+01 -0.11283666884E+02 -0.11271169478E+02  0.17031928120E+02  0.00000000000E+00 0. -1.
</event>
<event>
 7    1  0.6184948E-012  0.5930195E+02  0.7816164E-02  0.1266605E+00
        -11   -1    0    0    0    0  0.00000000000E+00  0.00000000000E+00  0.45593999997E+02  0.45594000000E+02  0.51100000000E-03 0. -1.
         11   -1    0    0    0    0 -0.00000000000E+00 -0.00000000000E+00 -0.45593999997E+02  0.45594000000E+02  0.51100000000E-03 0.  1.
    9900012    2    1    2    0    0 -0.26009646237E+02 -0.16311947410E+02 -0.86103946230E+01  0.59301949425E+02  0.50000009844E+02 0.  0.
         12    1    1    2    0    0  0.26009646237E+02  0.16311947410E+02  0.86103946230E+01  0.31886050575E+02  0.00000000000E+00 0. -1.
         11    1    3    3    0    0 -0.20936916887E+02 -0.58418557817E+01  0.19647487809E+01  0.21825260726E+02  0.51100000000E-03 0. -1.
        -11    1    3    3    0    0 -0.21682963049E+01 -0.11860330493E+02  0.10602534178E+02  0.16055612088E+02  0.51100000000E-03 0.  1.
        -12    1    3    3    0    0 -0.29044330456E+01  0.13902388647E+01 -0.21177677582E+02  0.21421076612E+02  0.00000000000E+00 0.  1.
</event>
<event>
 7    1  0.6184948E-012  0.5930194E+02  0.7816164E-02  0.1266605E+00
        -11   -1    0    0    0    0  0.00000000000E+00  0.00000000000E+00  0.45593999997E+02  0.45594000000E+02  0.51100000000E-03 0. -1.
         11   -1    0    0    0    0 -0.00000000000E+00 -0.00000000000E+00 -0.45593999997E+02  0.45594000000E+02  0.51100000000E-03 0.  1.
    9900012    2    1    2    0    0  0.85959191925E+00 -0.69569570860E+01 -0.31105987455E+02  0.59301943397E+02  0.49999998849E+02 0.  0.
         12    1    1    2    0    0 -0.85959191925E+00  0.69569570860E+01  0.31105987455E+02  0.31886056603E+02  0.00000000000E+00 0. -1.
         11    1    3    3    0    0 -0.21635314478E+01  0.65318232886E+01  0.38515293714E+01  0.78854208866E+01  0.51100000000E-03 0. -1.
        -11    1    3    3    0    0  0.17721256971E+02 -0.68239527776E+01 -0.93972129597E+01  0.21187658951E+02  0.51100000000E-03 0.  1.
        -12    1    3    3    0    0 -0.14698133604E+02 -0.66648275970E+01 -0.25560303867E+02  0.30228863559E+02  0.00000000000E+00 0.  1.
</event>
<event>
 7    1  0.6184948E-012  0.5930196E+02  0.7816164E-02  0.1266605E+00
        -11   -1    0    0    0    0  0.00000000000E+00  0.00000000000E+00  0.45593999997E+02  0.45594000000E+02  0.51100000000E-03 0.  1.
         11   -1    0    0    0    0 -0.00000000000E+00 -0.00000000000E+00 -0.45593999997E+02  0.45594000000E+02  0.51100000000E-03 0. -1.
    9900012    2    1    2    0    0  0.21199224459E+02 -0.94453200870E+01  0.21865461791E+02  0.59301959034E+02  0.50000027367E+02 0.  0.
         12    1    1    2    0    0 -0.21199224459E+02  0.94453200870E+01 -0.21865461791E+02  0.31886040966E+02  0.00000000000E+00 0. -1.
         11    1    3    3    0    0 -0.38825980383E+01 -0.24594647483E+02  0.54288950891E+01  0.25484194209E+02  0.51100000000E-03 0.  1.
        -11    1    3    3    0    0  0.49790847873E+01  0.15911402147E+01  0.19920265413E+01  0.55938522062E+01  0.51100000000E-03 0. -1.
        -12    1    3    3    0    0  0.20102737710E+02  0.13558187181E+02  0.14444540160E+02  0.28223912619E+02  0.00000000000E+00 0.  1.
</event>
<event>
 7    1  0.6184948E-012  0.5930193E+02  0.7816164E-02  0.1266605E+00
        -11   -1    0    0    0    0  0.00000000000E+00  0.00000000000E+00  0.45593999997E+02  0.45594000000E+02  0.51100000000E-03 0. -1.
         11   -1    0    0    0    0 -0.00000000000E+00 -0.00000000000E+00 -0.45593999997E+02  0.45594000000E+02  0.51100000000E-03 0.  1.
    9900012    2    1    2    0    0 -0.22024400977E+02 -0.21995535846E+02  0.69168956676E+01  0.59301932804E+02  0.49999979530E+02 0.  0.
         12    1    1    2    0    0  0.22024400977E+02  0.21995535846E+02 -0.69168956676E+01  0.31886067196E+02  0.00000000000E+00 0. -1.
         11    1    3    3    0    0  0.22569945124E+01 -0.16574023209E+02 -0.33119023575E+01  0.17051714490E+02  0.51100000000E-03 0. -1.
        -11    1    3    3    0    0  0.64925639786E+01  0.22464996863E+01 -0.34775994908E+01  0.77002497580E+01  0.51100000000E-03 0.  1.
         12    1    3    3    0    0 -0.30773959468E+02 -0.76680123239E+01  0.13706397516E+02  0.34549968556E+02  0.00000000000E+00 0. -1.
</event>
<event>
 7    1  0.6184948E-012  0.5930195E+02  0.7816164E-02  0.1266605E+00
        -11   -1    0    0    0    0  0.00000000000E+00  0.00000000000E+00  0.45593999997E+02  0.45594000000E+02  0.51100000000E-03 0. -1.
         11   -1    0    0    0    0 -0.00000000000E+00 -0.00000000000E+00 -0.45593999997E+02  0.45594000000E+02  0.51100000000E-03 0.  1.
    9900012    2    1    2    0    0  0.21989858136E+01 -0.31318967556E+02 -0.55684111028E+01  0.59301945531E+02  0.50000002741E+02 0.  0.
         12    1    1    2    0    0 -0.21989858136E+01  0.31318967556E+02  0.55684111028E+01  0.31886054469E+02  0.00000000000E+00 0. -1.
         11    1    3    3    0    0  0.66223112410E+01 -0.84520789165E+01  0.58511953584E+01  0.12228210481E+02  0.51100000000E-03 0. -1.
        -11    1    3    3    0    0  0.10782395846E+02 -0.15790965358E+02 -0.20473967718E+02  0.28014246403E+02  0.51100000000E-03 0.  1.
         12    1    3    3    0    0 -0.15205721273E+02 -0.70759232817E+01  0.90543612573E+01  0.19059488647E+02  0.00000000000E+00 0. -1.
</event>
<event>
 7    1  0.6184948E-012  0.5930195E+02  0.7816164E-02  0.1266605E+00
        -11   -1    0    0    0    0  0.00000000000E+00  0.00000000000E+00  0.45593999997E+02  0.45594000000E+02  0.51100000000E-03 0.  1.
         11   -1    0    0    0    0 -0.00000000000E+00 -0.00000000000E+00 -0.45593999997E+02  0.45594000000E+02  0.51100000000E-03 0. -1.
    9900012    2    1    2    0    0  0.20009254612E+01 -0.26933278029E+02  0.16950371004E+02  0.59301949049E+02  0.50000009158E+02 0.  0.
         12    1    1    2    0    0 -0.20009254612E+01  0.26933278029E+02 -0.16950371004E+02  0.31886050951E+02  0.00000000000E+00 0. -1.
         11    1    3    3    0    0 -0.19818020374E+02 -0.18524607430E+02  0.22558627190E+01  0.27221387342E+02  0.51100000000E-03 0. -1.
        -11    1    3    3    0    0 -0.76845971385E-02 -0.23729042978E+01  0.81787500789E+01  0.85160253038E+01  0.51100000000E-03 0.  1.
        -12    1    3    3    0    0  0.21826630432E+02 -0.60357663009E+01  0.65157582064E+01  0.23564536403E+02  0.00000000000E+00 0.  1.
</event>
<event>
 7    1  0.6184948E-012  0.5930195E+02  0.7816164E-02  0.1266605E+00
        -11   -1    0    0    0    0  0.00000000000E+00  0.00000000000E+00  0.45593999997E+02  0.45594000000E+02  0.51100000000E-03 0.  1.
         11   -1    0    0    0    0 -0.00000000000E+00 -0.00000000000E+00 -0.45593999997E+02  0.45594000000E+02  0.51100000000E-03 0. -1.
    9900012    2    1    2    0    0 -0.53600752528E+01  0.16418190616E+02  0.26803600925E+02  0.59301946428E+02  0.50000004378E+02 0.  0.
         12    1    1    2    0    0  0.53600752528E+01 -0.16418190616E+02 -0.26803600925E+02  0.31886053572E+02  0.00000000000E+00 0. -1.
         11    1    3    3    0    0 -0.33589105539E+01  0.18581277493E+02  0.26187930532E+01  0.19063164237E+02  0.51100000000E-03 0. -1.
        -11    1    3    3    0    0  0.13981291148E+02  0.28870121046E+01  0.16443428852E+02  0.21776080771E+02  0.51100000000E-03 0.  1.
         12    1    3    3    0    0 -0.15982455847E+02 -0.50500989815E+01  0.77413790196E+01  0.18462701421E+02  0.00000000000E+00 0. -1.
</event>
<event>
 7    1  0.6184948E-012  0.5930193E+02  0.7816164E-02  0.1266605E+00
        -11   -1    0    0    0    0  0.00000000000E+00  0.00000000000E+00  0.45593999997E+02  0.45594000000E+02  0.51100000000E-03 0. -1.
         11   -1    0    0    0    0 -0.00000000000E+00 -0.00000000000E+00 -0.45593999997E+02  0.45594000000E+02  0.51100000000E-03 0.  1.
    9900012    2    1    2    0    0  0.28405155363E+02 -0.41535785458E+01  0.13878626666E+02  0.59301931819E+02  0.49999977734E+02 0.  0.
         12    1    1    2    0    0 -0.28405155363E+02  0.41535785458E+01 -0.13878626666E+02  0.31886068181E+02  0.00000000000E+00 0. -1.
         11    1    3    3    0    0 -0.40052974431E+00 -0.10741541359E+02  0.16059185542E+02  0.19324558866E+02  0.51100000000E-03 0. -1.
        -11    1    3    3    0    0  0.69587960868E+01  0.92688156410E+01  0.95661892576E+01  0.15028232216E+02  0.51100000000E-03 0.  1.
        -12    1    3    3    0    0  0.21846889021E+02 -0.26808528282E+01 -0.11746748134E+02  0.24949140736E+02  0.00000000000E+00 0.  1.
</event>
<event>
 7    1  0.6184948E-012  0.5930196E+02  0.7816164E-02  0.1266605E+00
        -11   -1    0    0    0    0  0.00000000000E+00  0.00000000000E+00  0.45593999997E+02  0.45594000000E+02  0.51100000000E-03 0. -1.
         11   -1    0    0    0    0 -0.00000000000E+00 -0.00000000000E+00 -0.45593999997E+02  0.45594000000E+02  0.51100000000E-03 0.  1.
    9900012    2    1    2    0    0  0.22426128194E+02 -0.15998980940E+02 -0.16056808520E+02  0.59301957336E+02  0.50000024271E+02 0.  0.
         12    1    1    2    0    0 -0.22426128194E+02  0.15998980940E+02  0.16056808520E+02  0.31886042664E+02  0.00000000000E+00 0. -1.
         11    1    3    3    0    0  0.33868329277E+02 -0.15803297306E+02 -0.11464771557E+02  0.39092824417E+02  0.51100000000E-03 0. -1.
        -11    1    3    3    0    0 -0.28144143910E+00 -0.58988515731E+01 -0.48972068679E+01  0.76719159623E+01  0.51100000000E-03 0.  1.
         12    1    3    3    0    0 -0.11160759644E+02  0.57031679390E+01  0.30516990470E+00  0.12537216957E+02  0.00000000000E+00 0. -1.
</event>
<event>
 7    1  0.6184948E-012  0.5930193E+02  0.7816164E-02  0.1266605E+00
        -11   -1    0    0    0    0  0.00000000000E+00  0.00000000000E+00  0.45593999997E+02  0.45594000000E+02  0.51100000000E-03 0.  1.
         11   -1    0    0    0    0 -0.00000000000E+00 -0.00000000000E+00 -0.45593999997E+02  0.45594000000E+02  0.51100000000E-03 0. -1.
    9900012    2    1    2    0    0  0.11704910249E+02 -0.28086763553E+02  0.95315384201E+01  0.59301930386E+02  0.49999975120E+02 0.  0.
         12    1    1    2    0    0 -0.11704910249E+02  0.28086763553E+02 -0.95315384201E+01  0.31886069614E+02  0.00000000000E+00 0. -1.
         11    1    3    3    0    0  0.24836282122E+01 -0.14074681527E+02 -0.72975226371E+01  0.16047395616E+02  0.51100000000E-03 0. -1.
        -11    1    3    3    0    0  0.19160441306E+02 -0.29231445390E+01 -0.17306802676E+01  0.19459253312E+02  0.51100000000E-03 0.  1.
        -12    1    3    3    0    0 -0.99391592694E+01 -0.11088937487E+02  0.18559741325E+02  0.23795281457E+02  0.00000000000E+00 0.  1.
</event>
<event>
 7    1  0.6184948E-012  0.5930193E+02  0.7816164E-02  0.1266605E+00
        -11   -1    0    0    0    0  0.00000000000E+00  0.00000000000E+00  0.45593999997E+02  0.45594000000E+02  0.51100000000E-03 0.  1.
         11   -1    0    0    0    0 -0.00000000000E+00 -0.00000000000E+00 -0.45593999997E+02  0.45594000000E+02  0.51100000000E-03 0. -1.
    9900012    2    1    2    0    0  0.30539984516E+02  0.45016674103E+01  0.79853446169E+01  0.59301931061E+02  0.49999976353E+02 0.  0.
         12    1    1    2    0    0 -0.30539984516E+02 -0.45016674103E+01 -0.79853446169E+01  0.31886068939E+02  0.00000000000E+00 0. -1.
         11    1    3    3    0    0  0.17023604093E+02 -0.23737173654E+01  0.89813621340E+01  0.19393362176E+02  0.51100000000E-03 0. -1.
        -11    1    3    3    0    0  0.13586221662E+02  0.16129182424E+02  0.11762500322E+02  0.24147305415E+02  0.51100000000E-03 0.  1.
         12    1    3    3    0    0 -0.69841239085E-01 -0.92537976487E+01 -0.12758517839E+02  0.15761263470E+02  0.00000000000E+00 0. -1.
</event>
<event>
 7    1  0.6184948E-012  0.5930215E+02  0.7816164E-02  0.1266604E+00
        -11   -1    0    0    0    0  0.00000000000E+00  0.00000000000E+00  0.45593999997E+02  0.45594000000E+02  0.51100000000E-03 0.  1.
         11   -1    0    0    0    0 -0.00000000000E+00 -0.00000000000E+00 -0.45593999997E+02  0.45594000000E+02  0.51100000000E-03 0. -1.
    9900012    2    1    2    0    0  0.25450859070E+02 -0.99001765678E+01  0.16460484592E+02  0.59302152411E+02  0.50000380040E+02 0.  0.
         12    1    1    2    0    0 -0.25450859070E+02  0.99001765678E+01 -0.16460484592E+02  0.31885847589E+02  0.00000000000E+00 0. -1.
         11    1    3    3    0    0  0.37749171842E+01  0.18424602778E+02 -0.43115832475E+00  0.18812280166E+02  0.51100000000E-03 0. -1.
        -11    1    3    3    0    0  0.35188528965E+01 -0.73765301529E+01  0.78460282108E+01  0.11329416655E+02  0.51100000000E-03 0.  1.
        -12    1    3    3    0    0  0.18157088989E+02 -0.20948249193E+02  0.90456147057E+01  0.29160455590E+02  0.00000000000E+00 0.  1.
</event>
<event>
 7    1  0.6184948E-012  0.5930195E+02  0.7816164E-02  0.1266605E+00
        -11   -1    0    0    0    0  0.00000000000E+00  0.00000000000E+00  0.45593999997E+02  0.45594000000E+02  0.51100000000E-03 0.  1.
         11   -1    0    0    0    0 -0.00000000000E+00 -0.00000000000E+00 -0.45593999997E+02  0.45594000000E+02  0.51100000000E-03 0. -1.
    9900012    2    1    2    0    0 -0.23890836904E+02  0.14600487819E+02  0.15256936795E+02  0.59301945793E+02  0.50000003219E+02 0.  0.
         12    1    1    2    0    0  0.23890836904E+02 -0.14600487819E+02 -0.15256936795E+02  0.31886054207E+02  0.00000000000E+00 0. -1.
         11    1    3    3    0    0 -0.33927430705E+01  0.28010170824E+01 -0.52114430475E+01  0.68202302847E+01  0.51100000000E-03 0. -1.
        -11    1    3    3    0    0 -0.60572494395E+01  0.26732815665E+02  0.13624260092E+02  0.30609707079E+02  0.51100000000E-03 0.  1.
         12    1    3    3    0    0 -0.14440844394E+02 -0.14933344928E+02  0.68441197506E+01  0.21872008429E+02  0.00000000000E+00 0. -1.
</event>
<event>
 7    1  0.6184948E-012  0.5930199E+02  0.7816164E-02  0.1266605E+00
        -11   -1    0    0    0    0  0.00000000000E+00  0.00000000000E+00  0.45593999997E+02  0.45594000000E+02  0.51100000000E-03 0. -1.
         11   -1    0    0    0    0 -0.00000000000E+00 -0.00000000000E+00 -0.45593999997E+02  0.45594000000E+02  0.51100000000E-03 0.  1.
    9900012    2    1    2    0    0 -0.21633243296E+02 -0.21886949031E+02 -0.83475640391E+01  0.59301990861E+02  0.50000085413E+02 0.  0.
         12    1    1    2    0    0  0.21633243296E+02  0.21886949031E+02  0.83475640391E+01  0.31886009139E+02  0.00000000000E+00 0. -1.
         11    1    3    3    0    0  0.93603894065E+01  0.52510773934E+01  0.59433581339E+01  0.12268423281E+02  0.51100000000E-03 0. -1.
        -11    1    3    3    0    0 -0.12602407126E+02 -0.15863831298E+01 -0.63628719191E+00  0.12717788269E+02  0.51100000000E-03 0.  1.
        -12    1    3    3    0    0 -0.18391225576E+02 -0.25551643295E+02 -0.13654634981E+02  0.34315779311E+02  0.00000000000E+00 0.  1.
</event>
<event>
 7    1  0.6184948E-012  0.5930192E+02  0.7816164E-02  0.1266605E+00
        -11   -1    0    0    0    0  0.00000000000E+00  0.00000000000E+00  0.45593999997E+02  0.45594000000E+02  0.51100000000E-03 0.  1.
         11   -1    0    0    0    0 -0.00000000000E+00 -0.00000000000E+00 -0.45593999997E+02  0.45594000000E+02  0.51100000000E-03 0. -1.
    9900012    2    1    2    0    0 -0.21419895128E+02 -0.18402407345E+02  0.14807477469E+02  0.59301923221E+02  0.49999962053E+02 0.  0.
         12    1    1    2    0    0  0.21419895128E+02  0.18402407345E+02 -0.14807477469E+02  0.31886076779E+02  0.00000000000E+00 0. -1.
         11    1    3    3    0    0 -0.51852010869E+01 -0.76687979615E+01 -0.18313289308E+02  0.20520071589E+02  0.51100000000E-03 0. -1.
        -11    1    3    3    0    0 -0.72559288847E+01 -0.63694576797E+01  0.11853692246E+02  0.15288182209E+02  0.51100000000E-03 0.  1.
        -12    1    3    3    0    0 -0.89787651565E+01 -0.43641517034E+01  0.21267074531E+02  0.23493669422E+02  0.00000000000E+00 0.  1.
</event>
<event>
 7    1  0.6184948E-012  0.5930194E+02  0.7816164E-02  0.1266605E+00
        -11   -1    0    0    0    0  0.00000000000E+00  0.00000000000E+00  0.45593999997E+02  0.45594000000E+02  0.51100000000E-03 0.  1.
         11   -1    0    0    0    0 -0.00000000000E+00 -0.00000000000E+00 -0.45593999997E+02  0.45594000000E+02  0.51100000000E-03 0. -1.
    9900012    2    1    2    0    0 -0.10691222004E+02 -0.28245202567E+02  0.10228736292E+02  0.59301941257E+02  0.49999994948E+02 0.  0.
         12    1    1    2    0    0  0.10691222004E+02  0.28245202567E+02 -0.10228736292E+02  0.31886058743E+02  0.00000000000E+00 0. -1.
         11    1    3    3    0    0  0.62101044395E+01 -0.15150671566E+02 -0.33612982653E+01  0.16715459083E+02  0.51100000000E-03 0. -1.
        -11    1    3    3    0    0 -0.16230044061E+02 -0.22304039368E+02  0.18443758306E+01  0.27645727063E+02  0.51100000000E-03 0.  1.
         12    1    3    3    0    0 -0.67128238243E+00  0.92095083670E+01  0.11745658726E+02  0.14940755112E+02  0.00000000000E+00 0. -1.
</event>
<event>
 7    1  0.6184948E-012  0.5930193E+02  0.7816164E-02  0.1266605E+00
        -11   -1    0    0    0    0  0.00000000000E+00  0.00000000000E+00  0.45593999997E+02  0.45594000000E+02  0.51100000000E-03 0.  1.
         11   -1    0    0    0    0 -0.00000000000E+00 -0.00000000000E+00 -0.45593999997E+02  0.45594000000E+02  0.51100000000E-03 0. -1.
    9900012    2    1    2    0    0  0.10234732600E+02 -0.77601116890E+01  0.29184797117E+02  0.59301929882E+02  0.49999974202E+02 0.  0.
         12    1    1    2    0    0 -0.10234732600E+02  0.77601116890E+01 -0.29184797117E+02  0.31886070118E+02  0.00000000000E+00 0. -1.
         11    1    3    3    0    0 -0.47619680717E+01  0.40016851044E+01  0.14511489875E+01  0.63871478169E+01  0.51100000000E-03 0. -1.
        -11    1    3    3    0    0 -0.36048788011E+01 -0.20457080926E+02  0.24512349307E+02  0.32130088391E+02  0.51100000000E-03 0.  1.
        -12    1    3    3    0    0  0.18601579472E+02  0.86952841329E+01  0.32212988219E+01  0.20784693674E+02  0.00000000000E+00 0.  1.
</event>
<event>
 7    1  0.6184948E-012  0.5930188E+02  0.7816164E-02  0.1266605E+00
        -11   -1    0    0    0    0  0.00000000000E+00  0.00000000000E+00  0.45593999997E+02  0.45594000000E+02  0.51100000000E-03 0.  1.
         11   -1    0    0    0    0 -0.00000000000E+00 -0.00000000000E+00 -0.45593999997E+02  0.45594000000E+02  0.51100000000E-03 0. -1.
    9900012    2    1    2    0    0 -0.56097419409E+01  0.99322995856E+01  0.29775907783E+02  0.59301882895E+02  0.49999888509E+02 0.  0.
         12    1    1    2    0    0  0.56097419409E+01 -0.99322995856E+01 -0.29775907783E+02  0.31886117105E+02  0.00000000000E+00 0. -1.
         11    1    3    3    0    0 -0.17896641215E+02  0.24333185521E+01 -0.27822657946E+01  0.18274348392E+02  0.51100000000E-03 0. -1.
        -11    1    3    3    0    0 -0.41095662066E+01  0.71423117339E+01  0.79141832699E+01  0.11425211088E+02  0.51100000000E-03 0.  1.
        -12    1    3    3    0    0  0.16396465481E+02  0.35666929960E+00  0.24643990308E+02  0.29602323415E+02  0.00000000000E+00 0.  1.
</event>
<event>
 7    1  0.6184948E-012  0.5930203E+02  0.7816164E-02  0.1266604E+00
        -11   -1    0    0    0    0  0.00000000000E+00  0.00000000000E+00  0.45593999997E+02  0.45594000000E+02  0.51100000000E-03 0.  1.
         11   -1    0    0    0    0 -0.00000000000E+00 -0.00000000000E+00 -0.45593999997E+02  0.45594000000E+02  0.51100000000E-03 0. -1.
    9900012    2    1    2    0    0  0.24788931270E+01  0.13448865453E+02  0.28804479821E+02  0.59302032069E+02  0.50000160567E+02 0.  0.
         12    1    1    2    0    0 -0.24788931270E+01 -0.13448865453E+02 -0.28804479821E+02  0.31885967931E+02  0.00000000000E+00 0. -1.
         11    1    3    3    0    0 -0.17615261087E+02  0.60337191923E+00  0.48655733640E+00  0.17632306120E+02  0.51100000000E-03 0. -1.
        -11    1    3    3    0    0  0.11804475565E+02  0.18863758223E+01  0.21963415091E+01  0.12154339694E+02  0.51100000000E-03 0.  1.
        -12    1    3    3    0    0  0.82896786482E+01  0.10959117711E+02  0.26121580976E+02  0.29515386255E+02  0.00000000000E+00 0.  1.
</event>
<event>
 7    1  0.6184948E-012  0.5930195E+02  0.7816164E-02  0.1266605E+00
        -11   -1    0    0    0    0  0.00000000000E+00  0.00000000000E+00  0.45593999997E+02  0.45594000000E+02  0.51100000000E-03 0.  1.
         11   -1    0    0    0    0 -0.00000000000E+00 -0.00000000000E+00 -0.45593999997E+02  0.45594000000E+02  0.51100000000E-03 0. -1.
    9900012    2    1    2    0    0  0.24297371258E+02 -0.11634604426E+02  0.17058547205E+02  0.59301948144E+02  0.50000007508E+02 0.  0.
         12    1    1    2    0    0 -0.24297371258E+02  0.11634604426E+02 -0.17058547205E+02  0.31886051856E+02  0.00000000000E+00 0. -1.
         11    1    3    3    0    0 -0.91705213664E+01 -0.68229739947E+01  0.56242197930E+01  0.12739045679E+02  0.51100000000E-03 0. -1.
        -11    1    3    3    0    0  0.77337278699E+00 -0.10546907330E+02  0.78619634551E+01  0.13177474315E+02  0.51100000000E-03 0.  1.
        -12    1    3    3    0    0  0.32694519838E+02  0.57352768995E+01  0.35723639567E+01  0.33385428150E+02  0.00000000000E+00 0.  1.
</event>
<event>
 7    1  0.6184948E-012  0.5930189E+02  0.7816164E-02  0.1266605E+00
        -11   -1    0    0    0    0  0.00000000000E+00  0.00000000000E+00  0.45593999997E+02  0.45594000000E+02  0.51100000000E-03 0.  1.
         11   -1    0    0    0    0 -0.00000000000E+00 -0.00000000000E+00 -0.45593999997E+02  0.45594000000E+02  0.51100000000E-03 0. -1.
    9900012    2    1    2    0    0  0.30968742105E+02  0.71493663285E+01  0.25588545487E+01  0.59301887614E+02  0.49999897116E+02 0.  0.
         12    1    1    2    0    0 -0.30968742105E+02 -0.71493663285E+01 -0.25588545487E+01  0.31886112386E+02  0.00000000000E+00 0. -1.
         11    1    3    3    0    0  0.91458704943E+01 -0.15709140985E+02 -0.75569194296E+01  0.19685809333E+02  0.51100000000E-03 0. -1.
        -11    1    3    3    0    0  0.10665304719E+01 -0.41163111248E+01  0.78589613037E+00  0.43242499364E+01  0.51100000000E-03 0.  1.
        -12    1    3    3    0    0  0.20756341139E+02  0.26974818438E+02  0.93298778479E+01  0.35291828345E+02  0.00000000000E+00 0.  1.
</event>
<event>
 7    1  0.6184948E-012  0.5930194E+02  0.7816164E-02  0.1266605E+00
        -11   -1    0    0    0    0  0.00000000000E+00  0.00000000000E+00  0.45593999997E+02  0.45594000000E+02  0.51100000000E-03 0.  1.
         11   -1    0    0    0    0 -0.00000000000E+00 -0.00000000000E+00 -0.45593999997E+02  0.45594000000E+02  0.51100000000E-03 0. -1.
    9900012    2    1    2    0    0  0.36756152508E+01  0.30345272976E+02  0.90760679518E+01  0.59301941151E+02  0.49999994753E+02 0.  0.
         12    1    1    2    0    0 -0.36756152508E+01 -0.30345272976E+02 -0.90760679518E+01  0.31886058849E+02  0.00000000000E+00 0. -1.
         11    1    3    3    0    0  0.20461632138E+01 -0.31281166506E+01 -0.13577038331E+02  0.14082182636E+02  0.51100000000E-03 0. -1.
        -11    1    3    3    0    0  0.91396887353E+01  0.70002662709E+01  0.51883117567E+01  0.12627597443E+02  0.51100000000E-03 0.  1.
        -12    1    3    3    0    0 -0.75102366982E+01  0.26473123356E+02  0.17464794526E+02  0.32592161072E+02  0.00000000000E+00 0.  1.
</event>
<event>
 7    1  0.6184948E-012  0.5930195E+02  0.7816164E-02  0.1266605E+00
        -11   -1    0    0    0    0  0.00000000000E+00  0.00000000000E+00  0.45593999997E+02  0.45594000000E+02  0.51100000000E-03 0. -1.
         11   -1    0    0    0    0 -0.00000000000E+00 -0.00000000000E+00 -0.45593999997E+02  0.45594000000E+02  0.51100000000E-03 0.  1.
    9900012    2    1    2    0    0  0.35896135285E+01 -0.22591633763E+02 -0.22213804518E+02  0.59301947367E+02  0.50000006089E+02 0.  0.
         12    1    1    2    0    0 -0.35896135285E+01  0.22591633763E+02  0.22213804518E+02  0.31886052633E+02  0.00000000000E+00 0. -1.
         11    1    3    3    0    0  0.38993653395E+01  0.98369620850E+01 -0.85490278794E+01  0.13603556559E+02  0.51100000000E-03 0. -1.
        -11    1    3    3    0    0 -0.29229834555E+01 -0.15662194948E+02 -0.21701852435E+02  0.26922454982E+02  0.51100000000E-03 0.  1.
         12    1    3    3    0    0  0.26132316445E+01 -0.16766400900E+02  0.80370757964E+01  0.18775935826E+02  0.00000000000E+00 0. -1.
</event>
<event>
 7    1  0.6184948E-012  0.5930194E+02  0.7816164E-02  0.1266605E+00
        -11   -1    0    0    0    0  0.00000000000E+00  0.00000000000E+00  0.45593999997E+02  0.45594000000E+02  0.51100000000E-03 0. -1.
         11   -1    0    0    0    0 -0.00000000000E+00 -0.00000000000E+00 -0.45593999997E+02  0.45594000000E+02  0.51100000000E-03 0.  1.
    9900012    2    1    2    0    0  0.75082997382E+01  0.84755089846E+01 -0.29807919559E+02  0.59301939002E+02  0.49999990835E+02 0.  0.
         12    1    1    2    0    0 -0.75082997382E+01 -0.84755089846E+01  0.29807919559E+02  0.31886060998E+02  0.00000000000E+00 0. -1.
         11    1    3    3    0    0 -0.13689137956E+02 -0.10339406928E+02 -0.13189196257E+02  0.21639101917E+02  0.51100000000E-03 0. -1.
        -11    1    3    3    0    0 -0.21797868669E+01 -0.13406699623E+01 -0.29497909107E+01  0.39051419194E+01  0.51100000000E-03 0.  1.
         12    1    3    3    0    0  0.23377224561E+02  0.20155585875E+02 -0.13668932391E+02  0.33757695165E+02  0.00000000000E+00 0. -1.
</event>
<event>
 7    1  0.6184948E-012  0.5930210E+02  0.7816164E-02  0.1266604E+00
        -11   -1    0    0    0    0  0.00000000000E+00  0.00000000000E+00  0.45593999997E+02  0.45594000000E+02  0.51100000000E-03 0. -1.
         11   -1    0    0    0    0 -0.00000000000E+00 -0.00000000000E+00 -0.45593999997E+02  0.45594000000E+02  0.51100000000E-03 0.  1.
    9900012    2    1    2    0    0 -0.51656134411E+01 -0.12972492252E+02 -0.28666029677E+02  0.59302103825E+02  0.50000291431E+02 0.  0.
         12    1    1    2    0    0  0.51656134411E+01  0.12972492252E+02  0.28666029677E+02  0.31885896175E+02  0.00000000000E+00 0. -1.
         11    1    3    3    0    0 -0.10680782364E+02 -0.18016654405E+01  0.44910550762E+01  0.11725812818E+02  0.51100000000E-03 0. -1.
        -11    1    3    3    0    0  0.55049572529E+00 -0.18118293544E+02 -0.34461650257E+02  0.38938168230E+02  0.51100000000E-03 0.  1.
         12    1    3    3    0    0  0.49646731980E+01  0.69474667321E+01  0.13045655035E+01  0.86381227769E+01  0.00000000000E+00 0. -1.
</event>
<event>
 7    1  0.6184948E-012  0.5930174E+02  0.7816164E-02  0.1266605E+00
        -11   -1    0    0    0    0  0.00000000000E+00  0.00000000000E+00  0.45593999997E+02  0.45594000000E+02  0.51100000000E-03 0.  1.
         11   -1    0    0    0    0 -0.00000000000E+00 -0.00000000000E+00 -0.45593999997E+02  0.45594000000E+02  0.51100000000E-03 0. -1.
    9900012    2    1    2    0    0 -0.92217036417E+01 -0.19446573127E+02  0.23527101446E+02  0.59301740783E+02  0.49999629328E+02 0.  0.
         12    1    1    2    0    0  0.92217036417E+01  0.19446573127E+02 -0.23527101446E+02  0.31886259217E+02  0.00000000000E+00 0. -1.
         11    1    3    3    0    0  0.51173742069E+01 -0.38612627854E+01 -0.10351638986E+02  0.12175931136E+02  0.51100000000E-03 0. -1.
        -11    1    3    3    0    0  0.39897500408E+01 -0.13546921009E+02  0.17255438920E+02  0.22297698240E+02  0.51100000000E-03 0.  1.
         12    1    3    3    0    0 -0.18328827889E+02 -0.20383893320E+01  0.16623301512E+02  0.24828111407E+02  0.00000000000E+00 0. -1.
</event>
<event>
 7    1  0.6184948E-012  0.5930195E+02  0.7816164E-02  0.1266605E+00
        -11   -1    0    0    0    0  0.00000000000E+00  0.00000000000E+00  0.45593999997E+02  0.45594000000E+02  0.51100000000E-03 0.  1.
         11   -1    0    0    0    0 -0.00000000000E+00 -0.00000000000E+00 -0.45593999997E+02  0.45594000000E+02  0.51100000000E-03 0. -1.
    9900012    2    1    2    0    0  0.24093522411E+02  0.85978923012E+01  0.19034148104E+02  0.59301947120E+02  0.50000005640E+02 0.  0.
         12    1    1    2    0    0 -0.24093522411E+02 -0.85978923012E+01 -0.19034148104E+02  0.31886052880E+02  0.00000000000E+00 0. -1.
         11    1    3    3    0    0 -0.32547521459E+01  0.19969997841E+02  0.98255450739E+01  0.22493011394E+02  0.51100000000E-03 0. -1.
        -11    1    3    3    0    0 -0.19050952543E+01 -0.20217388168E+01 -0.26959139657E+01  0.38710164224E+01  0.51100000000E-03 0.  1.
        -12    1    3    3    0    0  0.29253369811E+02 -0.93503667233E+01  0.11904516996E+02  0.32937919304E+02  0.00000000000E+00 0.  1.
</event>
<event>
 7    1  0.6184948E-012  0.5930193E+02  0.7816164E-02  0.1266605E+00
        -11   -1    0    0    0    0  0.00000000000E+00  0.00000000000E+00  0.45593999997E+02  0.45594000000E+02  0.51100000000E-03 0.  1.
         11   -1    0    0    0    0 -0.00000000000E+00 -0.00000000000E+00 -0.45593999997E+02  0.45594000000E+02  0.51100000000E-03 0. -1.
    9900012    2    1    2    0    0 -0.25045056655E+02 -0.19200189913E+02  0.45627927060E+01  0.59301933563E+02  0.49999980915E+02 0.  0.
         12    1    1    2    0    0  0.25045056655E+02  0.19200189913E+02 -0.45627927060E+01  0.31886066437E+02  0.00000000000E+00 0. -1.
         11    1    3    3    0    0  0.58631033482E+00 -0.13059314611E+02  0.68998405590E+01  0.14781652746E+02  0.51100000000E-03 0. -1.
        -11    1    3    3    0    0 -0.26516948583E+02 -0.18144757666E+02  0.57774453421E+00  0.32135876865E+02  0.51100000000E-03 0.  1.
         12    1    3    3    0    0  0.88558159258E+00  0.12003882364E+02 -0.29147923872E+01  0.12384403951E+02  0.00000000000E+00 0. -1.
</event>
<event>
 7    1  0.6184948E-012  0.5930193E+02  0.7816164E-02  0.1266605E+00
        -11   -1    0    0    0    0  0.00000000000E+00  0.00000000000E+00  0.45593999997E+02  0.45594000000E+02  0.51100000000E-03 0.  1.
         11   -1    0    0    0    0 -0.00000000000E+00 -0.00000000000E+00 -0.45593999997E+02  0.45594000000E+02  0.51100000000E-03 0. -1.
    9900012    2    1    2    0    0  0.25590625917E+02  0.42228271807E+01  0.18547473747E+02  0.59301934288E+02  0.49999982237E+02 0.  0.
         12    1    1    2    0    0 -0.25590625917E+02 -0.42228271807E+01 -0.18547473747E+02  0.31886065712E+02  0.00000000000E+00 0. -1.
         11    1    3    3    0    0 -0.36328959234E+01  0.49310455279E+01  0.72888469055E+01  0.95205268899E+01  0.51100000000E-03 0. -1.
        -11    1    3    3    0    0  0.86012016607E+01 -0.13478376565E+02  0.18514907548E+02  0.24463219465E+02  0.51100000000E-03 0.  1.
        -12    1    3    3    0    0  0.20622320179E+02  0.12770158218E+02 -0.72562807066E+01  0.25318187932E+02  0.00000000000E+00 0.  1.
</event>
<event>
 7    1  0.6184948E-012  0.5930218E+02  0.7816164E-02  0.1266604E+00
        -11   -1    0    0    0    0  0.00000000000E+00  0.00000000000E+00  0.45593999997E+02  0.45594000000E+02  0.51100000000E-03 0.  1.
         11   -1    0    0    0    0 -0.00000000000E+00 -0.00000000000E+00 -0.45593999997E+02  0.45594000000E+02  0.51100000000E-03 0. -1.
    9900012    2    1    2    0    0 -0.14280401793E+02 -0.12076713211E+02  0.25824960605E+02  0.59302180776E+02  0.50000431769E+02 0.  0.
         12    1    1    2    0    0  0.14280401793E+02  0.12076713211E+02 -0.25824960605E+02  0.31885819224E+02  0.00000000000E+00 0. -1.
         11    1    3    3    0    0 -0.14300324637E+02 -0.51437176824E+01  0.12467662534E+02  0.19657052822E+02  0.51100000000E-03 0. -1.
        -11    1    3    3    0    0  0.15280632915E+01 -0.12774016773E+02  0.24103216269E+02  0.27321704132E+02  0.51100000000E-03 0.  1.
         12    1    3    3    0    0 -0.15081404468E+01  0.58410212439E+01 -0.10745918197E+02  0.12323423821E+02  0.00000000000E+00 0. -1.
</event>
<event>
 7    1  0.6184948E-012  0.5930197E+02  0.7816164E-02  0.1266605E+00
        -11   -1    0    0    0    0  0.00000000000E+00  0.00000000000E+00  0.45593999997E+02  0.45594000000E+02  0.51100000000E-03 0.  1.
         11   -1    0    0    0    0 -0.00000000000E+00 -0.00000000000E+00 -0.45593999997E+02  0.45594000000E+02  0.51100000000E-03 0. -1.
    9900012    2    1    2    0    0 -0.10133027136E+02  0.14718150853E+02  0.26408652307E+02  0.59301966692E+02  0.50000041334E+02 0.  0.
         12    1    1    2    0    0  0.10133027136E+02 -0.14718150853E+02 -0.26408652307E+02  0.31886033308E+02  0.00000000000E+00 0. -1.
         11    1    3    3    0    0 -0.48005318476E+01  0.79993105271E+01  0.58198645957E+01  0.10995676382E+02  0.51100000000E-03 0.  1.
        -11    1    3    3    0    0  0.18201871603E+02  0.61282237023E+01  0.43074471704E+01  0.19682920438E+02  0.51100000000E-03 0. -1.
         12    1    3    3    0    0 -0.23534366891E+02  0.59061662340E+00  0.16281340541E+02  0.28623369871E+02  0.00000000000E+00 0. -1.
</event>
<event>
 7    1  0.6184948E-012  0.5930195E+02  0.7816164E-02  0.1266605E+00
        -11   -1    0    0    0    0  0.00000000000E+00  0.00000000000E+00  0.45593999997E+02  0.45594000000E+02  0.51100000000E-03 0. -1.
         11   -1    0    0    0    0 -0.00000000000E+00 -0.00000000000E+00 -0.45593999997E+02  0.45594000000E+02  0.51100000000E-03 0.  1.
    9900012    2    1    2    0    0  0.11179664240E+02 -0.26832856911E+02  0.13104687495E+02  0.59301953885E+02  0.50000017977E+02 0.  0.
         12    1    1    2    0    0 -0.11179664240E+02  0.26832856911E+02 -0.13104687495E+02  0.31886046115E+02  0.00000000000E+00 0. -1.
         11    1    3    3    0    0  0.88533035843E+01  0.61434954059E+01  0.14636148140E+02  0.18175267612E+02  0.51100000000E-03 0. -1.
        -11    1    3    3    0    0  0.11250042211E+02 -0.62511317003E+01  0.48199261183E+00  0.12879146494E+02  0.51100000000E-03 0.  1.
        -12    1    3    3    0    0 -0.89236815550E+01 -0.26725220616E+02 -0.20134532561E+01  0.28247539778E+02  0.00000000000E+00 0.  1.
</event>
<event>
 7    1  0.6184948E-012  0.5930195E+02  0.7816164E-02  0.1266605E+00
        -11   -1    0    0    0    0  0.00000000000E+00  0.00000000000E+00  0.45593999997E+02  0.45594000000E+02  0.51100000000E-03 0. -1.
         11   -1    0    0    0    0 -0.00000000000E+00 -0.00000000000E+00 -0.45593999997E+02  0.45594000000E+02  0.51100000000E-03 0.  1.
    9900012    2    1    2    0    0  0.60795034072E+01  0.30169122042E+02  0.83416891681E+01  0.59301951881E+02  0.50000014322E+02 0.  0.
         12    1    1    2    0    0 -0.60795034072E+01 -0.30169122042E+02 -0.83416891681E+01  0.31886048119E+02  0.00000000000E+00 0. -1.
         11    1    3    3    0    0  0.44619243439E+00  0.97150433018E+01  0.71031319231E+01  0.12043074251E+02  0.51100000000E-03 0. -1.
        -11    1    3    3    0    0  0.18036122966E+02  0.22471760352E+02  0.11510765944E+02  0.31028687982E+02  0.51100000000E-03 0.  1.
         12    1    3    3    0    0 -0.12402811994E+02 -0.20176816117E+01 -0.10272208699E+02  0.16230189648E+02  0.00000000000E+00 0. -1.
</event>
<event>
 7    1  0.6184948E-012  0.5930196E+02  0.7816164E-02  0.1266605E+00
        -11   -1    0    0    0    0  0.00000000000E+00  0.00000000000E+00  0.45593999997E+02  0.45594000000E+02  0.51100000000E-03 0.  1.
         11   -1    0    0    0    0 -0.00000000000E+00 -0.00000000000E+00 -0.45593999997E+02  0.45594000000E+02  0.51100000000E-03 0. -1.
    9900012    2    1    2    0    0 -0.11423754297E+02  0.27679633809E+02 -0.10956987367E+02  0.59301955056E+02  0.50000020112E+02 0.  0.
         12    1    1    2    0    0  0.11423754297E+02 -0.27679633809E+02  0.10956987367E+02  0.31886044944E+02  0.00000000000E+00 0. -1.
         11    1    3    3    0    0 -0.13220067613E+02  0.10474070318E+02 -0.12713514691E+02  0.21121311341E+02  0.51100000000E-03 0. -1.
        -11    1    3    3    0    0 -0.15773767886E+02  0.11968670487E+02  0.58032682229E+00  0.19809028397E+02  0.51100000000E-03 0.  1.
        -12    1    3    3    0    0  0.17570081201E+02  0.52368930047E+01  0.11762005022E+01  0.18371615318E+02  0.00000000000E+00 0.  1.
</event>
<event>
 7    1  0.6184948E-012  0.5930196E+02  0.7816164E-02  0.1266605E+00
        -11   -1    0    0    0    0  0.00000000000E+00  0.00000000000E+00  0.45593999997E+02  0.45594000000E+02  0.51100000000E-03 0. -1.
         11   -1    0    0    0    0 -0.00000000000E+00 -0.00000000000E+00 -0.45593999997E+02  0.45594000000E+02  0.51100000000E-03 0.  1.
    9900012    2    1    2    0    0 -0.22181477606E+02  0.21659398798E+02 -0.74546736596E+01  0.59301958156E+02  0.50000025767E+02 0.  0.
         12    1    1    2    0    0  0.22181477606E+02 -0.21659398798E+02  0.74546736596E+01  0.31886041844E+02  0.00000000000E+00 0. -1.
         11    1    3    3    0    0  0.99811122421E+00 -0.26942020788E+01  0.43455043404E+01  0.52094490199E+01  0.51100000000E-03 0.  1.
        -11    1    3    3    0    0 -0.14948653928E+02 -0.37390370976E+01  0.93080754632E+01  0.18002303235E+02  0.51100000000E-03 0. -1.
        -12    1    3    3    0    0 -0.82309349019E+01  0.28092637975E+02 -0.21108253463E+02  0.36090205901E+02  0.00000000000E+00 0.  1.
</event>
<event>
 7    1  0.6184948E-012  0.5930195E+02  0.7816164E-02  0.1266605E+00
        -11   -1    0    0    0    0  0.00000000000E+00  0.00000000000E+00  0.45593999997E+02  0.45594000000E+02  0.51100000000E-03 0.  1.
         11   -1    0    0    0    0 -0.00000000000E+00 -0.00000000000E+00 -0.45593999997E+02  0.45594000000E+02  0.51100000000E-03 0. -1.
    9900012    2    1    2    0    0  0.18873420749E+02 -0.20559306905E+02  0.15421709377E+02  0.59301949268E+02  0.50000009557E+02 0.  0.
         12    1    1    2    0    0 -0.18873420749E+02  0.20559306905E+02 -0.15421709377E+02  0.31886050732E+02  0.00000000000E+00 0. -1.
         11    1    3    3    0    0  0.67185955243E+01 -0.30332655108E+02  0.58564573708E+01  0.31614989877E+02  0.51100000000E-03 0. -1.
        -11    1    3    3    0    0 -0.22309677995E+01 -0.42357707952E+01  0.53315312822E+01  0.71654865589E+01  0.51100000000E-03 0.  1.
         12    1    3    3    0    0  0.14385793024E+02  0.14009118998E+02  0.42337207240E+01  0.20521472832E+02  0.00000000000E+00 0. -1.
</event>
<event>
 7    1  0.6184948E-012  0.5930195E+02  0.7816164E-02  0.1266605E+00
        -11   -1    0    0    0    0  0.00000000000E+00  0.00000000000E+00  0.45593999997E+02  0.45594000000E+02  0.51100000000E-03 0.  1.
         11   -1    0    0    0    0 -0.00000000000E+00 -0.00000000000E+00 -0.45593999997E+02  0.45594000000E+02  0.51100000000E-03 0. -1.
    9900012    2    1    2    0    0 -0.22991530286E+02  0.54080461428E+01  0.21421079507E+02  0.59301951715E+02  0.50000014019E+02 0.  0.
         12    1    1    2    0    0  0.22991530286E+02 -0.54080461428E+01 -0.21421079507E+02  0.31886048285E+02  0.00000000000E+00 0. -1.
         11    1    3    3    0    0 -0.61151396110E+01 -0.46162948126E+01  0.18726745492E+01  0.78874596980E+01  0.51100000000E-03 0. -1.
        -11    1    3    3    0    0  0.79624860178E+01 -0.10564748994E+02  0.12892383411E+02  0.18472375461E+02  0.51100000000E-03 0.  1.
        -12    1    3    3    0    0 -0.24838876693E+02  0.20589089949E+02  0.66560215472E+01  0.32942116556E+02  0.00000000000E+00 0.  1.
</event>
<event>
 7    1  0.6184948E-012  0.5930194E+02  0.7816164E-02  0.1266605E+00
        -11   -1    0    0    0    0  0.00000000000E+00  0.00000000000E+00  0.45593999997E+02  0.45594000000E+02  0.51100000000E-03 0.  1.
         11   -1    0    0    0    0 -0.00000000000E+00 -0.00000000000E+00 -0.45593999997E+02  0.45594000000E+02  0.51100000000E-03 0. -1.
    9900012    2    1    2    0    0  0.17539106642E+02 -0.89255646084E+01  0.25088542820E+02  0.59301938058E+02  0.49999989112E+02 0.  0.
         12    1    1    2    0    0 -0.17539106642E+02  0.89255646084E+01 -0.25088542820E+02  0.31886061942E+02  0.00000000000E+00 0. -1.
         11    1    3    3    0    0 -0.37817437240E+01  0.11259118118E+02  0.19263837489E+02  0.22631057454E+02  0.51100000000E-03 0. -1.
        -11    1    3    3    0    0  0.93727787383E+01 -0.29918355639E+01  0.11346558867E+02  0.15018137691E+02  0.51100000000E-03 0.  1.
         12    1    3    3    0    0  0.11948071628E+02 -0.17192847163E+02 -0.55218535366E+01  0.21652742913E+02  0.00000000000E+00 0. -1.
</event>
<event>
 7    1  0.6184948E-012  0.5930197E+02  0.7816164E-02  0.1266605E+00
        -11   -1    0    0    0    0  0.00000000000E+00  0.00000000000E+00  0.45593999997E+02  0.45594000000E+02  0.51100000000E-03 0. -1.
         11   -1    0    0    0    0 -0.00000000000E+00 -0.00000000000E+00 -0.45593999997E+02  0.45594000000E+02  0.51100000000E-03 0.  1.
    9900012    2    1    2    0    0  0.15460416131E+01 -0.14160300217E+01 -0.31817035264E+02  0.59301966715E+02  0.50000041375E+02 0.  0.
         12    1    1    2    0    0 -0.15460416131E+01  0.14160300217E+01  0.31817035264E+02  0.31886033285E+02  0.00000000000E+00 0. -1.
         11    1    3    3    0    0 -0.21333039664E+01  0.11691625191E+02 -0.21054542746E+02  0.24177238385E+02  0.51100000000E-03 0.  1.
        -11    1    3    3    0    0 -0.12539098704E+02 -0.90069584069E+01 -0.99680271950E+01  0.18377047164E+02  0.51100000000E-03 0. -1.
         12    1    3    3    0    0  0.16218444283E+02 -0.41006968059E+01 -0.79446532263E+00  0.16747681165E+02  0.00000000000E+00 0. -1.
</event>
<event>
 7    1  0.6184948E-012  0.5930196E+02  0.7816164E-02  0.1266605E+00
        -11   -1    0    0    0    0  0.00000000000E+00  0.00000000000E+00  0.45593999997E+02  0.45594000000E+02  0.51100000000E-03 0. -1.
         11   -1    0    0    0    0 -0.00000000000E+00 -0.00000000000E+00 -0.45593999997E+02  0.45594000000E+02  0.51100000000E-03 0.  1.
    9900012    2    1    2    0    0 -0.28243106845E+02 -0.43611207620E+01 -0.14143090162E+02  0.59301961396E+02  0.50000031676E+02 0.  0.
         12    1    1    2    0    0  0.28243106845E+02  0.43611207620E+01  0.14143090162E+02  0.31886038604E+02  0.00000000000E+00 0. -1.
         11    1    3    3    0    0  0.18732843504E+01 -0.28766003314E+01 -0.14117037388E+02  0.14528412460E+02  0.51100000000E-03 0. -1.
        -11    1    3    3    0    0  0.68385462461E+01  0.86214378723E+00 -0.32179727714E+01  0.76068624076E+01  0.51100000000E-03 0.  1.
        -12    1    3    3    0    0 -0.36954937441E+02 -0.23466642178E+01  0.31919199981E+01  0.37166686528E+02  0.00000000000E+00 0.  1.
</event>
<event>
 7    1  0.6184948E-012  0.5930195E+02  0.7816164E-02  0.1266605E+00
        -11   -1    0    0    0    0  0.00000000000E+00  0.00000000000E+00  0.45593999997E+02  0.45594000000E+02  0.51100000000E-03 0. -1.
         11   -1    0    0    0    0 -0.00000000000E+00 -0.00000000000E+00 -0.45593999997E+02  0.45594000000E+02  0.51100000000E-03 0.  1.
    9900012    2    1    2    0    0  0.19104347276E+02  0.19962063243E+02 -0.15914145042E+02  0.59301951857E+02  0.50000014279E+02 0.  0.
         12    1    1    2    0    0 -0.19104347276E+02 -0.19962063243E+02  0.15914145042E+02  0.31886048143E+02  0.00000000000E+00 0. -1.
         11    1    3    3    0    0 -0.28422438568E+01 -0.88083252538E+01 -0.10288785635E+02  0.13839221583E+02  0.51100000000E-03 0. -1.
        -11    1    3    3    0    0  0.77196305187E+01  0.61651782483E+01 -0.14299113012E+02  0.17380067645E+02  0.51100000000E-03 0.  1.
         12    1    3    3    0    0  0.14226960614E+02  0.22605210248E+02  0.86737536053E+01  0.28082662628E+02  0.00000000000E+00 0. -1.
</event>
<event>
 7    1  0.6184948E-012  0.5930194E+02  0.7816164E-02  0.1266605E+00
        -11   -1    0    0    0    0  0.00000000000E+00  0.00000000000E+00  0.45593999997E+02  0.45594000000E+02  0.51100000000E-03 0.  1.
         11   -1    0    0    0    0 -0.00000000000E+00 -0.00000000000E+00 -0.45593999997E+02  0.45594000000E+02  0.51100000000E-03 0. -1.
    9900012    2    1    2    0    0 -0.15859993124E+02  0.20497225745E+01  0.27585861907E+02  0.59301944715E+02  0.50000001253E+02 0.  0.
         12    1    1    2    0    0  0.15859993124E+02 -0.20497225745E+01 -0.27585861907E+02  0.31886055285E+02  0.00000000000E+00 0. -1.
         11    1    3    3    0    0 -0.23302273159E+01 -0.60434760224E+01 -0.50055173841E+00  0.64964693550E+01  0.51100000000E-03 0. -1.
        -11    1    3    3    0    0 -0.19902852360E+02  0.21810193024E+02  0.19906133638E+02  0.35609861113E+02  0.51100000000E-03 0.  1.
         12    1    3    3    0    0  0.63730865523E+01 -0.13716994427E+02  0.81802800075E+01  0.17195614247E+02  0.00000000000E+00 0. -1.
</event>
<event>
 7    1  0.6184948E-012  0.5930190E+02  0.7816164E-02  0.1266605E+00
        -11   -1    0    0    0    0  0.00000000000E+00  0.00000000000E+00  0.45593999997E+02  0.45594000000E+02  0.51100000000E-03 0.  1.
         11   -1    0    0    0    0 -0.00000000000E+00 -0.00000000000E+00 -0.45593999997E+02  0.45594000000E+02  0.51100000000E-03 0. -1.
    9900012    2    1    2    0    0  0.20131755570E+02  0.24443414124E+02 -0.37356913686E+01  0.59301898540E+02  0.49999917041E+02 0.  0.
         12    1    1    2    0    0 -0.20131755570E+02 -0.24443414124E+02  0.37356913686E+01  0.31886101460E+02  0.00000000000E+00 0. -1.
         11    1    3    3    0    0 -0.24603648314E+01  0.17105618112E+02 -0.69699158571E+00  0.17295703618E+02  0.51100000000E-03 0.  1.
        -11    1    3    3    0    0 -0.86996294572E+01  0.53534332815E+01 -0.30188435043E+01  0.10651582838E+02  0.51100000000E-03 0. -1.
         12    1    3    3    0    0  0.31291749858E+02  0.19843627297E+01 -0.19856278547E-01  0.31354612083E+02  0.00000000000E+00 0. -1.
</event>
<event>
 7    1  0.6184948E-012  0.5930196E+02  0.7816164E-02  0.1266605E+00
        -11   -1    0    0    0    0  0.00000000000E+00  0.00000000000E+00  0.45593999997E+02  0.45594000000E+02  0.51100000000E-03 0. -1.
         11   -1    0    0    0    0 -0.00000000000E+00 -0.00000000000E+00 -0.45593999997E+02  0.45594000000E+02  0.51100000000E-03 0.  1.
    9900012    2    1    2    0    0 -0.29153501428E+01 -0.22723158787E+02 -0.22178326250E+02  0.59301962821E+02  0.50000034274E+02 0.  0.
         12    1    1    2    0    0  0.29153501428E+01  0.22723158787E+02  0.22178326250E+02  0.31886037179E+02  0.00000000000E+00 0. -1.
         11    1    3    3    0    0  0.56454408669E+01  0.58433743881E+01  0.26734752229E+01  0.85535663234E+01  0.51100000000E-03 0. -1.
        -11    1    3    3    0    0  0.10971430901E+02 -0.20121945777E+02 -0.14075022009E+02  0.26895561766E+02  0.51100000000E-03 0.  1.
        -12    1    3    3    0    0 -0.19532221911E+02 -0.84445873978E+01 -0.10776779464E+02  0.23852834732E+02  0.00000000000E+00 0.  1.
</event>
<event>
 7    1  0.6184948E-012  0.5930195E+02  0.7816164E-02  0.1266605E+00
        -11   -1    0    0    0    0  0.00000000000E+00  0.00000000000E+00  0.45593999997E+02  0.45594000000E+02  0.51100000000E-03 0.  1.
         11   -1    0    0    0    0 -0.00000000000E+00 -0.00000000000E+00 -0.45593999997E+02  0.45594000000E+02  0.51100000000E-03 0. -1.
    9900012    2    1    2    0    0  0.17696568324E+02  0.21127805201E+02  0.16036443090E+02  0.59301949915E+02  0.50000010736E+02 0.  0.
         12    1    1    2    0    0 -0.17696568324E+02 -0.21127805201E+02 -0.16036443090E+02  0.31886050085E+02  0.00000000000E+00 0. -1.
         11    1    3    3    0    0  0.70474303261E+01  0.81393099592E+00  0.58080639731E+01  0.91685530617E+01  0.51100000000E-03 0. -1.
        -11    1    3    3    0    0 -0.79241663281E+01  0.26446160091E+02  0.12754178276E+02  0.30411525107E+02  0.51100000000E-03 0.  1.
         12    1    3    3    0    0  0.18573304326E+02 -0.61322858865E+01 -0.25257991586E+01  0.19721871746E+02  0.00000000000E+00 0. -1.
</event>
<event>
 7    1  0.6184948E-012  0.5930195E+02  0.7816164E-02  0.1266605E+00
        -11   -1    0    0    0    0  0.00000000000E+00  0.00000000000E+00  0.45593999997E+02  0.45594000000E+02  0.51100000000E-03 0. -1.
         11   -1    0    0    0    0 -0.00000000000E+00 -0.00000000000E+00 -0.45593999997E+02  0.45594000000E+02  0.51100000000E-03 0.  1.
    9900012    2    1    2    0    0 -0.20422296657E+02  0.11352563251E+02 -0.21697215515E+02  0.59301952044E+02  0.50000014620E+02 0.  0.
         12    1    1    2    0    0  0.20422296657E+02 -0.11352563251E+02  0.21697215515E+02  0.31886047956E+02  0.00000000000E+00 0. -1.
         11    1    3    3    0    0 -0.39296465573E+01  0.16337654128E+02 -0.99445248027E+01  0.19525742964E+02  0.51100000000E-03 0. -1.
        -11    1    3    3    0    0 -0.52332895944E+01  0.15433180280E+01 -0.22341301887E+02  0.22997889486E+02  0.51100000000E-03 0.  1.
         12    1    3    3    0    0 -0.11259360506E+02 -0.65284089042E+01  0.10588611175E+02  0.16778319595E+02  0.00000000000E+00 0. -1.
</event>
<event>
 7    1  0.6184948E-012  0.5930179E+02  0.7816164E-02  0.1266605E+00
        -11   -1    0    0    0    0  0.00000000000E+00  0.00000000000E+00  0.45593999997E+02  0.45594000000E+02  0.51100000000E-03 0.  1.
         11   -1    0    0    0    0 -0.00000000000E+00 -0.00000000000E+00 -0.45593999997E+02  0.45594000000E+02  0.51100000000E-03 0. -1.
    9900012    2    1    2    0    0 -0.26041653302E+02 -0.12909141429E+02  0.13111692215E+02  0.59301794332E+02  0.49999726990E+02 0.  0.
         12    1    1    2    0    0  0.26041653302E+02  0.12909141429E+02 -0.13111692215E+02  0.31886205668E+02  0.00000000000E+00 0. -1.
         11    1    3    3    0    0  0.33099652362E+01  0.71126098776E+00  0.17756631078E+02  0.18076496053E+02  0.51100000000E-03 0. -1.
        -11    1    3    3    0    0 -0.33988985559E+01 -0.14575052932E+02 -0.98630850831E+00  0.14998582736E+02  0.51100000000E-03 0.  1.
         12    1    3    3    0    0 -0.25952719983E+02  0.95465051511E+00 -0.36586303544E+01  0.26226715543E+02  0.00000000000E+00 0. -1.
</event>
<event>
 7    1  0.6184948E-012  0.5930195E+02  0.7816164E-02  0.1266605E+00
        -11   -1    0    0    0    0  0.00000000000E+00  0.00000000000E+00  0.45593999997E+02  0.45594000000E+02  0.51100000000E-03 0. -1.
         11   -1    0    0    0    0 -0.00000000000E+00 -0.00000000000E+00 -0.45593999997E+02  0.45594000000E+02  0.51100000000E-03 0.  1.
    9900012    2    1    2    0    0  0.12792352982E+02 -0.29137023549E+02 -0.20271927439E+01  0.59301953733E+02  0.50000017700E+02 0.  0.
         12    1    1    2    0    0 -0.12792352982E+02  0.29137023549E+02  0.20271927439E+01  0.31886046267E+02  0.00000000000E+00 0. -1.
         11    1    3    3    0    0  0.13811311150E+02 -0.11926257053E+02  0.11982351980E+02  0.21830361477E+02  0.51100000000E-03 0. -1.
        -11    1    3    3    0    0 -0.81126461630E+01 -0.20960450735E+02 -0.13917809594E+01  0.22518716155E+02  0.51100000000E-03 0.  1.
        -12    1    3    3    0    0  0.70936879944E+01  0.37496842388E+01 -0.12617763765E+02  0.14952876100E+02  0.00000000000E+00 0.  1.
</event>
<event>
 7    1  0.6184948E-012  0.5930193E+02  0.7816164E-02  0.1266605E+00
        -11   -1    0    0    0    0  0.00000000000E+00  0.00000000000E+00  0.45593999997E+02  0.45594000000E+02  0.51100000000E-03 0.  1.
         11   -1    0    0    0    0 -0.00000000000E+00 -0.00000000000E+00 -0.45593999997E+02  0.45594000000E+02  0.51100000000E-03 0. -1.
    9900012    2    1    2    0    0 -0.42154296962E+01 -0.20834939205E+02  0.23766718859E+02  0.59301929930E+02  0.49999974289E+02 0.  0.
         12    1    1    2    0    0  0.42154296962E+01  0.20834939205E+02 -0.23766718859E+02  0.31886070070E+02  0.00000000000E+00 0. -1.
         11    1    3    3    0    0 -0.24955281168E+02 -0.64470355988E+01  0.81570041937E+01  0.27034552777E+02  0.51100000000E-03 0. -1.
        -11    1    3    3    0    0  0.76092922816E+01 -0.10084009342E+00  0.41429322267E+00  0.76212293553E+01  0.51100000000E-03 0.  1.
        -12    1    3    3    0    0  0.13130559190E+02 -0.14287063513E+02  0.15195421442E+02  0.24646147798E+02  0.00000000000E+00 0.  1.
</event>
<event>
 7    1  0.6184948E-012  0.5930201E+02  0.7816164E-02  0.1266605E+00
        -11   -1    0    0    0    0  0.00000000000E+00  0.00000000000E+00  0.45593999997E+02  0.45594000000E+02  0.51100000000E-03 0.  1.
         11   -1    0    0    0    0 -0.00000000000E+00 -0.00000000000E+00 -0.45593999997E+02  0.45594000000E+02  0.51100000000E-03 0. -1.
    9900012    2    1    2    0    0  0.18469934528E+02 -0.13764549601E+02  0.22048020522E+02  0.59302007524E+02  0.50000115802E+02 0.  0.
         12    1    1    2    0    0 -0.18469934528E+02  0.13764549601E+02 -0.22048020522E+02  0.31885992476E+02  0.00000000000E+00 0. -1.
         11    1    3    3    0    0  0.83865567253E+01 -0.12547068621E+02  0.68560624020E+01  0.16576153251E+02  0.51100000000E-03 0. -1.
        -11    1    3    3    0    0  0.16841399485E+02 -0.16085026967E+02  0.62774346008E+01  0.24119846902E+02  0.51100000000E-03 0.  1.
         12    1    3    3    0    0 -0.67580216823E+01  0.14867545986E+02  0.89145235196E+01  0.18606007371E+02  0.00000000000E+00 0. -1.
</event>
<event>
 7    1  0.6184948E-012  0.5930191E+02  0.7816164E-02  0.1266605E+00
        -11   -1    0    0    0    0  0.00000000000E+00  0.00000000000E+00  0.45593999997E+02  0.45594000000E+02  0.51100000000E-03 0. -1.
         11   -1    0    0    0    0 -0.00000000000E+00 -0.00000000000E+00 -0.45593999997E+02  0.45594000000E+02  0.51100000000E-03 0.  1.
    9900012    2    1    2    0    0  0.20994631546E+02  0.12043322942E+02 -0.20758287358E+02  0.59301910944E+02  0.49999939664E+02 0.  0.
         12    1    1    2    0    0 -0.20994631546E+02 -0.12043322942E+02  0.20758287358E+02  0.31886089056E+02  0.00000000000E+00 0. -1.
         11    1    3    3    0    0  0.18088097355E+02  0.10224294239E+02  0.67454917067E+01  0.21845299660E+02  0.51100000000E-03 0. -1.
        -11    1    3    3    0    0 -0.77710208357E+01  0.68556741184E+01 -0.22229250801E+02  0.24526080483E+02  0.51100000000E-03 0.  1.
         12    1    3    3    0    0  0.10677555027E+02 -0.50366454157E+01 -0.52745282641E+01  0.12930530801E+02  0.00000000000E+00 0. -1.
</event>
<event>
 7    1  0.6184948E-012  0.5930195E+02  0.7816164E-02  0.1266605E+00
        -11   -1    0    0    0    0  0.00000000000E+00  0.00000000000E+00  0.45593999997E+02  0.45594000000E+02  0.51100000000E-03 0.  1.
         11   -1    0    0    0    0 -0.00000000000E+00 -0.00000000000E+00 -0.45593999997E+02  0.45594000000E+02  0.51100000000E-03 0. -1.
    9900012    2    1    2    0    0 -0.12000744082E+02 -0.16767186423E+02  0.24322088971E+02  0.59301946450E+02  0.50000004417E+02 0.  0.
         12    1    1    2    0    0  0.12000744082E+02  0.16767186423E+02 -0.24322088971E+02  0.31886053550E+02  0.00000000000E+00 0. -1.
         11    1    3    3    0    0  0.44860980368E+00 -0.74029191311E+01  0.90875173425E+01  0.11729767011E+02  0.51100000000E-03 0.  1.
        -11    1    3    3    0    0 -0.11396221431E+02 -0.25999291188E+02  0.90844935253E+01  0.29805452992E+02  0.51100000000E-03 0. -1.
         12    1    3    3    0    0 -0.10531324539E+01  0.16635023895E+02  0.61500781037E+01  0.17766726447E+02  0.00000000000E+00 0. -1.
</event>
<event>
 7    1  0.6184948E-012  0.5930193E+02  0.7816164E-02  0.1266605E+00
        -11   -1    0    0    0    0  0.00000000000E+00  0.00000000000E+00  0.45593999997E+02  0.45594000000E+02  0.51100000000E-03 0. -1.
         11   -1    0    0    0    0 -0.00000000000E+00 -0.00000000000E+00 -0.45593999997E+02  0.45594000000E+02  0.51100000000E-03 0.  1.
    9900012    2    1    2    0    0  0.79132562028E+01 -0.25430955230E+02 -0.17531920958E+02  0.59301931567E+02  0.49999977274E+02 0.  0.
         12    1    1    2    0    0 -0.79132562028E+01  0.25430955230E+02  0.17531920958E+02  0.31886068433E+02  0.00000000000E+00 0. -1.
         11    1    3    3    0    0 -0.61498045489E+01  0.25093091265E+00 -0.24154684999E+01  0.66119248822E+01  0.51100000000E-03 0. -1.
        -11    1    3    3    0    0  0.22629944472E+01  0.84590191207E+01 -0.14045527094E+02  0.16551525004E+02  0.51100000000E-03 0.  1.
         12    1    3    3    0    0  0.11800066304E+02 -0.34140905264E+02 -0.10709253638E+01  0.36138481680E+02  0.00000000000E+00 0. -1.
</event>
<event>
 7    1  0.6184948E-012  0.5930191E+02  0.7816164E-02  0.1266605E+00
        -11   -1    0    0    0    0  0.00000000000E+00  0.00000000000E+00  0.45593999997E+02  0.45594000000E+02  0.51100000000E-03 0. -1.
         11   -1    0    0    0    0 -0.00000000000E+00 -0.00000000000E+00 -0.45593999997E+02  0.45594000000E+02  0.51100000000E-03 0.  1.
    9900012    2    1    2    0    0  0.51372144653E+01  0.74741769806E+01 -0.30569074185E+02  0.59301912273E+02  0.49999942087E+02 0.  0.
         12    1    1    2    0    0 -0.51372144653E+01 -0.74741769806E+01  0.30569074185E+02  0.31886087727E+02  0.00000000000E+00 0. -1.
         11    1    3    3    0    0  0.56229268299E+01 -0.15147850475E+02 -0.52660737635E+01  0.16994299436E+02  0.51100000000E-03 0. -1.
        -11    1    3    3    0    0  0.21840490918E+01  0.23335919714E+01  0.48849147198E+01  0.58376462727E+01  0.51100000000E-03 0.  1.
        -12    1    3    3    0    0 -0.26697614564E+01  0.20288435485E+02 -0.30187915141E+02  0.36469966565E+02  0.00000000000E+00 0.  1.
</event>
<event>
 7    1  0.6184948E-012  0.5930193E+02  0.7816164E-02  0.1266605E+00
        -11   -1    0    0    0    0  0.00000000000E+00  0.00000000000E+00  0.45593999997E+02  0.45594000000E+02  0.51100000000E-03 0.  1.
         11   -1    0    0    0    0 -0.00000000000E+00 -0.00000000000E+00 -0.45593999997E+02  0.45594000000E+02  0.51100000000E-03 0. -1.
    9900012    2    1    2    0    0 -0.17665174454E+02 -0.24591458432E+02 -0.99961763653E+01  0.59301925324E+02  0.49999965889E+02 0.  0.
         12    1    1    2    0    0  0.17665174454E+02  0.24591458432E+02  0.99961763653E+01  0.31886074676E+02  0.00000000000E+00 0. -1.
         11    1    3    3    0    0 -0.15721672805E+02 -0.39633524501E+01 -0.35156351030E+01  0.16590323953E+02  0.51100000000E-03 0.  1.
        -11    1    3    3    0    0 -0.45226627117E+01 -0.19491506022E+02  0.12453940861E+02  0.23568494399E+02  0.51100000000E-03 0. -1.
         12    1    3    3    0    0  0.25791610626E+01 -0.11365999601E+01 -0.18934482123E+02  0.19143106972E+02  0.00000000000E+00 0. -1.
</event>
<event>
 7    1  0.6184948E-012  0.5930194E+02  0.7816164E-02  0.1266605E+00
        -11   -1    0    0    0    0  0.00000000000E+00  0.00000000000E+00  0.45593999997E+02  0.45594000000E+02  0.51100000000E-03 0.  1.
         11   -1    0    0    0    0 -0.00000000000E+00 -0.00000000000E+00 -0.45593999997E+02  0.45594000000E+02  0.51100000000E-03 0. -1.
    9900012    2    1    2    0    0  0.11160783034E+02 -0.20445683691E+02 -0.21774570114E+02  0.59301937791E+02  0.49999988626E+02 0.  0.
         12    1    1    2    0    0 -0.11160783034E+02  0.20445683691E+02  0.21774570114E+02  0.31886062209E+02  0.00000000000E+00 0. -1.
         11    1    3    3    0    0  0.30769028726E+01  0.88902504054E+01 -0.37129579317E+01  0.10113848942E+02  0.51100000000E-03 0. -1.
        -11    1    3    3    0    0 -0.93597148621E+01 -0.29189255348E+00  0.23237208301E+01  0.96482714680E+01  0.51100000000E-03 0.  1.
        -12    1    3    3    0    0  0.17443595023E+02 -0.29044041543E+02 -0.20385333012E+02  0.39539817381E+02  0.00000000000E+00 0.  1.
</event>
<event>
 7    1  0.6184948E-012  0.5930193E+02  0.7816164E-02  0.1266605E+00
        -11   -1    0    0    0    0  0.00000000000E+00  0.00000000000E+00  0.45593999997E+02  0.45594000000E+02  0.51100000000E-03 0. -1.
         11   -1    0    0    0    0 -0.00000000000E+00 -0.00000000000E+00 -0.45593999997E+02  0.45594000000E+02  0.51100000000E-03 0.  1.
    9900012    2    1    2    0    0  0.23360364396E+02  0.99160109691E+01 -0.19305117889E+02  0.59301929766E+02  0.49999973989E+02 0.  0.
         12    1    1    2    0    0 -0.23360364396E+02 -0.99160109691E+01  0.19305117889E+02  0.31886070234E+02  0.00000000000E+00 0. -1.
         11    1    3    3    0    0  0.11042870281E+02  0.18312966824E+02 -0.53660533810E+01  0.22047772384E+02  0.51100000000E-03 0. -1.
        -11    1    3    3    0    0  0.47402906358E+01 -0.16165644647E+02 -0.18903279686E+02  0.25320592515E+02  0.51100000000E-03 0.  1.
         12    1    3    3    0    0  0.75772034793E+01  0.77686887924E+01  0.49642151772E+01  0.11933564867E+02  0.00000000000E+00 0. -1.
</event>
<event>
 7    1  0.6184948E-012  0.5930195E+02  0.7816164E-02  0.1266605E+00
        -11   -1    0    0    0    0  0.00000000000E+00  0.00000000000E+00  0.45593999997E+02  0.45594000000E+02  0.51100000000E-03 0. -1.
         11   -1    0    0    0    0 -0.00000000000E+00 -0.00000000000E+00 -0.45593999997E+02  0.45594000000E+02  0.51100000000E-03 0.  1.
    9900012    2    1    2    0    0  0.25518278158E+02  0.18955367660E+02  0.24963310448E+01  0.59301950512E+02  0.50000011826E+02 0.  0.
         12    1    1    2    0    0 -0.25518278158E+02 -0.18955367660E+02 -0.24963310448E+01  0.31886049488E+02  0.00000000000E+00 0. -1.
         11    1    3    3    0    0  0.96200483553E+01  0.93744706996E-01  0.13292185341E+02  0.16408421918E+02  0.51100000000E-03 0. -1.
        -11    1    3    3    0    0  0.37821672103E+01  0.96522112022E+01  0.11764211144E+02  0.15680135013E+02  0.51100000000E-03 0.  1.
        -12    1    3    3    0    0  0.12116062592E+02  0.92094117509E+01 -0.22560065441E+02  0.27213393582E+02  0.00000000000E+00 0.  1.
</event>
<event>
 7    1  0.6184948E-012  0.5930194E+02  0.7816164E-02  0.1266605E+00
        -11   -1    0    0    0    0  0.00000000000E+00  0.00000000000E+00  0.45593999997E+02  0.45594000000E+02  0.51100000000E-03 0.  1.
         11   -1    0    0    0    0 -0.00000000000E+00 -0.00000000000E+00 -0.45593999997E+02  0.45594000000E+02  0.51100000000E-03 0. -1.
    9900012    2    1    2    0    0  0.11006515255E+02 -0.15699649321E+02  0.25477414984E+02  0.59301936569E+02  0.49999986397E+02 0.  0.
         12    1    1    2    0    0 -0.11006515255E+02  0.15699649321E+02 -0.25477414984E+02  0.31886063431E+02  0.00000000000E+00 0. -1.
         11    1    3    3    0    0  0.36941540294E+01 -0.87280138472E+01 -0.16876620751E+01  0.96266922279E+01  0.51100000000E-03 0. -1.
        -11    1    3    3    0    0  0.23601536641E+02  0.23349049549E+00  0.13210073447E+02  0.27047977565E+02  0.51100000000E-03 0.  1.
        -12    1    3    3    0    0 -0.16289175415E+02 -0.72051259697E+01  0.13955003612E+02  0.22627266776E+02  0.00000000000E+00 0.  1.
</event>
<event>
 7    1  0.6184948E-012  0.5930196E+02  0.7816164E-02  0.1266605E+00
        -11   -1    0    0    0    0  0.00000000000E+00  0.00000000000E+00  0.45593999997E+02  0.45594000000E+02  0.51100000000E-03 0.  1.
         11   -1    0    0    0    0 -0.00000000000E+00 -0.00000000000E+00 -0.45593999997E+02  0.45594000000E+02  0.51100000000E-03 0. -1.
    9900012    2    1    2    0    0 -0.10391714562E+02  0.34834308619E+01  0.29943241494E+02  0.59301957077E+02  0.50000023798E+02 0.  0.
         12    1    1    2    0    0  0.10391714562E+02 -0.34834308619E+01 -0.29943241494E+02  0.31886042923E+02  0.00000000000E+00 0. -1.
         11    1    3    3    0    0 -0.77606314306E+00  0.50743277361E+01  0.28351980522E+02  0.28812946322E+02  0.51100000000E-03 0. -1.
        -11    1    3    3    0    0  0.35720559848E+01 -0.44825779056E+01  0.12094264128E+02  0.13383733175E+02  0.51100000000E-03 0.  1.
         12    1    3    3    0    0 -0.13187707404E+02  0.28916810314E+01 -0.10503003156E+02  0.17105277579E+02  0.00000000000E+00 0. -1.
</event>
<event>
 7    1  0.6184948E-012  0.5930192E+02  0.7816164E-02  0.1266605E+00
        -11   -1    0    0    0    0  0.00000000000E+00  0.00000000000E+00  0.45593999997E+02  0.45594000000E+02  0.51100000000E-03 0.  1.
         11   -1    0    0    0    0 -0.00000000000E+00 -0.00000000000E+00 -0.45593999997E+02  0.45594000000E+02  0.51100000000E-03 0. -1.
    9900012    2    1    2    0    0  0.96909329513E+01 -0.95265487219E+01  0.28845327116E+02  0.59301918264E+02  0.49999953014E+02 0.  0.
         12    1    1    2    0    0 -0.96909329513E+01  0.95265487219E+01 -0.28845327116E+02  0.31886081736E+02  0.00000000000E+00 0. -1.
         11    1    3    3    0    0 -0.10261041658E+01 -0.49667241200E+00  0.75521001067E+01  0.76376560231E+01  0.51100000000E-03 0. -1.
        -11    1    3    3    0    0 -0.36733846722E+01  0.79615585731E+01  0.27240846521E+02  0.28617195692E+02  0.51100000000E-03 0.  1.
         12    1    3    3    0    0  0.14390421789E+02 -0.16991434883E+02 -0.59476195115E+01  0.23047066549E+02  0.00000000000E+00 0. -1.
</event>
<event>
 7    1  0.6184948E-012  0.5930198E+02  0.7816164E-02  0.1266605E+00
        -11   -1    0    0    0    0  0.00000000000E+00  0.00000000000E+00  0.45593999997E+02  0.45594000000E+02  0.51100000000E-03 0.  1.
         11   -1    0    0    0    0 -0.00000000000E+00 -0.00000000000E+00 -0.45593999997E+02  0.45594000000E+02  0.51100000000E-03 0. -1.
    9900012    2    1    2    0    0  0.21838056594E+02 -0.21984219721E+02  0.75174308891E+01  0.59301977989E+02  0.50000061937E+02 0.  0.
         12    1    1    2    0    0 -0.21838056594E+02  0.21984219721E+02 -0.75174308891E+01  0.31886022011E+02  0.00000000000E+00 0. -1.
         11    1    3    3    0    0  0.14724806318E+02 -0.59348748572E+01  0.78058589239E+01  0.17691073864E+02  0.51100000000E-03 0. -1.
        -11    1    3    3    0    0  0.44158848773E+01 -0.47881625981E+01  0.18459592615E+02  0.19575063220E+02  0.51100000000E-03 0.  1.
         12    1    3    3    0    0  0.26973653989E+01 -0.11261182265E+02 -0.18748020649E+02  0.22035840905E+02  0.00000000000E+00 0. -1.
</event>
<event>
 7    1  0.6184948E-012  0.5930200E+02  0.7816164E-02  0.1266605E+00
        -11   -1    0    0    0    0  0.00000000000E+00  0.00000000000E+00  0.45593999997E+02  0.45594000000E+02  0.51100000000E-03 0. -1.
         11   -1    0    0    0    0 -0.00000000000E+00 -0.00000000000E+00 -0.45593999997E+02  0.45594000000E+02  0.51100000000E-03 0.  1.
    9900012    2    1    2    0    0 -0.31643191914E+02 -0.17656722070E+01 -0.35082611362E+01  0.59301998541E+02  0.50000099418E+02 0.  0.
         12    1    1    2    0    0  0.31643191914E+02  0.17656722070E+01  0.35082611362E+01  0.31886001459E+02  0.00000000000E+00 0. -1.
         11    1    3    3    0    0 -0.31005932613E+02 -0.56931077823E+01  0.28755857868E+01  0.31655146932E+02  0.51100000000E-03 0. -1.
        -11    1    3    3    0    0 -0.10664058160E+02  0.10402603364E+02 -0.25781258588E+01  0.15118962478E+02  0.51100000000E-03 0.  1.
         12    1    3    3    0    0  0.10026798859E+02 -0.64751677889E+01 -0.38057210643E+01  0.12527889131E+02  0.00000000000E+00 0. -1.
</event>
<event>
 7    1  0.6184948E-012  0.5930214E+02  0.7816164E-02  0.1266604E+00
        -11   -1    0    0    0    0  0.00000000000E+00  0.00000000000E+00  0.45593999997E+02  0.45594000000E+02  0.51100000000E-03 0.  1.
         11   -1    0    0    0    0 -0.00000000000E+00 -0.00000000000E+00 -0.45593999997E+02  0.45594000000E+02  0.51100000000E-03 0. -1.
    9900012    2    1    2    0    0  0.20207179690E+02  0.90922079431E+01  0.22928361495E+02  0.59302139228E+02  0.50000355998E+02 0.  0.
         12    1    1    2    0    0 -0.20207179690E+02 -0.90922079431E+01 -0.22928361495E+02  0.31885860772E+02  0.00000000000E+00 0. -1.
         11    1    3    3    0    0  0.21205642479E+01 -0.43522725667E+01 -0.54895727456E+01  0.73194588881E+01  0.51100000000E-03 0. -1.
        -11    1    3    3    0    0  0.14623373740E+02 -0.99890273666E+01  0.20307344639E+02  0.26944609365E+02  0.51100000000E-03 0.  1.
        -12    1    3    3    0    0  0.34632417028E+01  0.23433507876E+02  0.81105896010E+01  0.25038070975E+02  0.00000000000E+00 0.  1.
</event>
<event>
 7    1  0.6184948E-012  0.5930193E+02  0.7816164E-02  0.1266605E+00
        -11   -1    0    0    0    0  0.00000000000E+00  0.00000000000E+00  0.45593999997E+02  0.45594000000E+02  0.51100000000E-03 0. -1.
         11   -1    0    0    0    0 -0.00000000000E+00 -0.00000000000E+00 -0.45593999997E+02  0.45594000000E+02  0.51100000000E-03 0.  1.
    9900012    2    1    2    0    0  0.25585833760E+02 -0.77684558763E+00 -0.19012712303E+02  0.59301927690E+02  0.49999970204E+02 0.  0.
         12    1    1    2    0    0 -0.25585833760E+02  0.77684558763E+00  0.19012712303E+02  0.31886072310E+02  0.00000000000E+00 0. -1.
         11    1    3    3    0    0  0.78888659409E+01  0.90906462930E+01 -0.13781950242E+00  0.12037152917E+02  0.51100000000E-03 0. -1.
        -11    1    3    3    0    0  0.22932250231E+01  0.14359222016E+02 -0.49828599857E+01  0.15371240412E+02  0.51100000000E-03 0.  1.
        -12    1    3    3    0    0  0.15403742796E+02 -0.24226713897E+02 -0.13892032815E+02  0.31893534361E+02  0.00000000000E+00 0.  1.
</event>
<event>
 7    1  0.6184948E-012  0.5930196E+02  0.7816164E-02  0.1266605E+00
        -11   -1    0    0    0    0  0.00000000000E+00  0.00000000000E+00  0.45593999997E+02  0.45594000000E+02  0.51100000000E-03 0.  1.
         11   -1    0    0    0    0 -0.00000000000E+00 -0.00000000000E+00 -0.45593999997E+02  0.45594000000E+02  0.51100000000E-03 0. -1.
    9900012    2    1    2    0    0  0.77355623590E+01  0.21643640630E+02 -0.22100535942E+02  0.59301956131E+02  0.50000022073E+02 0.  0.
         12    1    1    2    0    0 -0.77355623590E+01 -0.21643640630E+02  0.22100535942E+02  0.31886043869E+02  0.00000000000E+00 0. -1.
         11    1    3    3    0    0  0.10765802459E+02 -0.26508103791E+01 -0.59407121209E+01  0.12578607197E+02  0.51100000000E-03 0. -1.
        -11    1    3    3    0    0  0.13588216925E+02  0.13881046630E+02 -0.18681512483E+02  0.26950361846E+02  0.51100000000E-03 0.  1.
        -12    1    3    3    0    0 -0.16618457025E+02  0.10413404379E+02  0.25216886619E+01  0.19772987088E+02  0.00000000000E+00 0.  1.
</event>
<event>
 7    1  0.6184948E-012  0.5930194E+02  0.7816164E-02  0.1266605E+00
        -11   -1    0    0    0    0  0.00000000000E+00  0.00000000000E+00  0.45593999997E+02  0.45594000000E+02  0.51100000000E-03 0.  1.
         11   -1    0    0    0    0 -0.00000000000E+00 -0.00000000000E+00 -0.45593999997E+02  0.45594000000E+02  0.51100000000E-03 0. -1.
    9900012    2    1    2    0    0  0.10406149936E+01 -0.28946754181E+02  0.13331282204E+02  0.59301944389E+02  0.50000000659E+02 0.  0.
         12    1    1    2    0    0 -0.10406149936E+01  0.28946754181E+02 -0.13331282204E+02  0.31886055611E+02  0.00000000000E+00 0. -1.
         11    1    3    3    0    0 -0.71155324939E-01 -0.64020063742E+01 -0.48136732210E+01  0.80101310123E+01  0.51100000000E-03 0. -1.
        -11    1    3    3    0    0  0.21410753087E+02 -0.15444569437E+02  0.11377283004E+02  0.28747132755E+02  0.51100000000E-03 0.  1.
        -12    1    3    3    0    0 -0.20298982768E+02 -0.71001783703E+01  0.67676724209E+01  0.22544680621E+02  0.00000000000E+00 0.  1.
</event>
<event>
 7    1  0.6184948E-012  0.5930196E+02  0.7816164E-02  0.1266605E+00
        -11   -1    0    0    0    0  0.00000000000E+00  0.00000000000E+00  0.45593999997E+02  0.45594000000E+02  0.51100000000E-03 0.  1.
         11   -1    0    0    0    0 -0.00000000000E+00 -0.00000000000E+00 -0.45593999997E+02  0.45594000000E+02  0.51100000000E-03 0. -1.
    9900012    2    1    2    0    0  0.25728106350E+02 -0.18316709236E+02 -0.43911379705E+01  0.59301962519E+02  0.50000033723E+02 0.  0.
         12    1    1    2    0    0 -0.25728106350E+02  0.18316709236E+02  0.43911379705E+01  0.31886037481E+02  0.00000000000E+00 0. -1.
         11    1    3    3    0    0  0.74376397511E+01  0.24453349513E+01  0.69586942076E+01  0.10474806606E+02  0.51100000000E-03 0.  1.
        -11    1    3    3    0    0  0.31127025809E+01  0.11070844081E+02  0.79724022538E+00  0.11527710018E+02  0.51100000000E-03 0. -1.
         12    1    3    3    0    0  0.15177764018E+02 -0.31832888268E+02 -0.12147072404E+02  0.37299445895E+02  0.00000000000E+00 0. -1.
</event>
<event>
 7    1  0.6184948E-012  0.5930197E+02  0.7816164E-02  0.1266605E+00
        -11   -1    0    0    0    0  0.00000000000E+00  0.00000000000E+00  0.45593999997E+02  0.45594000000E+02  0.51100000000E-03 0. -1.
         11   -1    0    0    0    0 -0.00000000000E+00 -0.00000000000E+00 -0.45593999997E+02  0.45594000000E+02  0.51100000000E-03 0.  1.
    9900012    2    1    2    0    0  0.23262318737E+02  0.21802369988E+02  0.49025657420E+00  0.59301966041E+02  0.50000040147E+02 0.  0.
         12    1    1    2    0    0 -0.23262318737E+02 -0.21802369988E+02 -0.49025657420E+00  0.31886033959E+02  0.00000000000E+00 0. -1.
         11    1    3    3    0    0  0.33864964861E+02  0.71541408001E+01  0.66405086301E+01  0.35243636741E+02  0.51100000000E-03 0. -1.
        -11    1    3    3    0    0 -0.19317826515E+01  0.94232273984E+01 -0.93766240454E+01  0.13433170793E+02  0.51100000000E-03 0.  1.
        -12    1    3    3    0    0 -0.86708634726E+01  0.52250017898E+01  0.32263719895E+01  0.10625158506E+02  0.00000000000E+00 0.  1.
</event>
<event>
 7    1  0.6184948E-012  0.5930197E+02  0.7816164E-02  0.1266605E+00
        -11   -1    0    0    0    0  0.00000000000E+00  0.00000000000E+00  0.45593999997E+02  0.45594000000E+02  0.51100000000E-03 0.  1.
         11   -1    0    0    0    0 -0.00000000000E+00 -0.00000000000E+00 -0.45593999997E+02  0.45594000000E+02  0.51100000000E-03 0. -1.
    9900012    2    1    2    0    0 -0.46149837177E+01  0.26578917091E+02  0.16999478014E+02  0.59301966048E+02  0.50000040159E+02 0.  0.
         12    1    1    2    0    0  0.46149837177E+01 -0.26578917091E+02 -0.16999478014E+02  0.31886033952E+02  0.00000000000E+00 0. -1.
         11    1    3    3    0    0  0.18242315639E+01  0.10182408603E+01  0.14931353848E+01  0.25678957897E+01  0.51100000000E-03 0. -1.
        -11    1    3    3    0    0 -0.17209909156E+02  0.32524133270E+01  0.24726859887E+02  0.30301431744E+02  0.51100000000E-03 0.  1.
         12    1    3    3    0    0  0.10770693874E+02  0.22308262904E+02 -0.92205172577E+01  0.26432638514E+02  0.00000000000E+00 0. -1.
</event>
<event>
 7    1  0.6184948E-012  0.5930195E+02  0.7816164E-02  0.1266605E+00
        -11   -1    0    0    0    0  0.00000000000E+00  0.00000000000E+00  0.45593999997E+02  0.45594000000E+02  0.51100000000E-03 0. -1.
         11   -1    0    0    0    0 -0.00000000000E+00 -0.00000000000E+00 -0.45593999997E+02  0.45594000000E+02  0.51100000000E-03 0.  1.
    9900012    2    1    2    0    0 -0.29572510023E+02  0.79605771760E+01 -0.88778472176E+01  0.59301948045E+02  0.50000007327E+02 0.  0.
         12    1    1    2    0    0  0.29572510023E+02 -0.79605771760E+01  0.88778472176E+01  0.31886051955E+02  0.00000000000E+00 0. -1.
         11    1    3    3    0    0  0.57468922601E+01  0.41787602318E+01 -0.14027238555E+02  0.15724256086E+02  0.51100000000E-03 0. -1.
        -11    1    3    3    0    0  0.15949871042E+01 -0.42263447754E+01 -0.23122960436E+01  0.50747105610E+01  0.51100000000E-03 0.  1.
        -12    1    3    3    0    0 -0.36914389388E+02  0.80081617196E+01  0.74616873808E+01  0.38502981398E+02  0.00000000000E+00 0.  1.
</event>
<event>
 7    1  0.6184948E-012  0.5930196E+02  0.7816164E-02  0.1266605E+00
        -11   -1    0    0    0    0  0.00000000000E+00  0.00000000000E+00  0.45593999997E+02  0.45594000000E+02  0.51100000000E-03 0.  1.
         11   -1    0    0    0    0 -0.00000000000E+00 -0.00000000000E+00 -0.45593999997E+02  0.45594000000E+02  0.51100000000E-03 0. -1.
    9900012    2    1    2    0    0  0.17047215516E+02 -0.23591586781E+02  0.13021093514E+02  0.59301962303E+02  0.50000033330E+02 0.  0.
         12    1    1    2    0    0 -0.17047215516E+02  0.23591586781E+02 -0.13021093514E+02  0.31886037697E+02  0.00000000000E+00 0. -1.
         11    1    3    3    0    0  0.23187856365E+01 -0.46916998073E+01 -0.15745945431E+02  0.16592878342E+02  0.51100000000E-03 0. -1.
        -11    1    3    3    0    0  0.16986447205E+01 -0.11177107469E+02  0.13491623095E+01  0.11385664867E+02  0.51100000000E-03 0.  1.
        -12    1    3    3    0    0  0.13029785159E+02 -0.77227795047E+01  0.27417876635E+02  0.31323419094E+02  0.00000000000E+00 0.  1.
</event>
<event>
 7    1  0.6184948E-012  0.5930196E+02  0.7816164E-02  0.1266605E+00
        -11   -1    0    0    0    0  0.00000000000E+00  0.00000000000E+00  0.45593999997E+02  0.45594000000E+02  0.51100000000E-03 0. -1.
         11   -1    0    0    0    0 -0.00000000000E+00 -0.00000000000E+00 -0.45593999997E+02  0.45594000000E+02  0.51100000000E-03 0.  1.
    9900012    2    1    2    0    0 -0.57755307297E+01 -0.29735395153E+02 -0.99583798467E+01  0.59301955885E+02  0.50000021626E+02 0.  0.
         12    1    1    2    0    0  0.57755307297E+01  0.29735395153E+02  0.99583798467E+01  0.31886044115E+02  0.00000000000E+00 0. -1.
         11    1    3    3    0    0  0.29410486560E+01 -0.64974185590E+01  0.11489403070E+01  0.72240071441E+01  0.51100000000E-03 0. -1.
        -11    1    3    3    0    0  0.15677549781E+02  0.13361627434E+01 -0.67291065360E-01  0.15734529747E+02  0.51100000000E-03 0.  1.
        -12    1    3    3    0    0 -0.24394129166E+02 -0.24574139337E+02 -0.11040029088E+02  0.36343418995E+02  0.00000000000E+00 0.  1.
</event>
<event>
 7    1  0.6184948E-012  0.5930190E+02  0.7816164E-02  0.1266605E+00
        -11   -1    0    0    0    0  0.00000000000E+00  0.00000000000E+00  0.45593999997E+02  0.45594000000E+02  0.51100000000E-03 0. -1.
         11   -1    0    0    0    0 -0.00000000000E+00 -0.00000000000E+00 -0.45593999997E+02  0.45594000000E+02  0.51100000000E-03 0.  1.
    9900012    2    1    2    0    0  0.30455292855E+02  0.81830765580E+01  0.47155034559E+01  0.59301896793E+02  0.49999913856E+02 0.  0.
         12    1    1    2    0    0 -0.30455292855E+02 -0.81830765580E+01 -0.47155034559E+01  0.31886103207E+02  0.00000000000E+00 0. -1.
         11    1    3    3    0    0 -0.16026388748E+01  0.10353381891E+02 -0.58412564982E+00  0.10492958161E+02  0.51100000000E-03 0. -1.
        -11    1    3    3    0    0 -0.12651093842E+01 -0.10727735163E+02 -0.62961606913E+01  0.12503057353E+02  0.51100000000E-03 0.  1.
         12    1    3    3    0    0  0.33323041114E+02  0.85574298298E+01  0.11595789797E+02  0.36305881279E+02  0.00000000000E+00 0. -1.
</event>
<event>
 7    1  0.6184948E-012  0.5930193E+02  0.7816164E-02  0.1266605E+00
        -11   -1    0    0    0    0  0.00000000000E+00  0.00000000000E+00  0.45593999997E+02  0.45594000000E+02  0.51100000000E-03 0. -1.
         11   -1    0    0    0    0 -0.00000000000E+00 -0.00000000000E+00 -0.45593999997E+02  0.45594000000E+02  0.51100000000E-03 0.  1.
    9900012    2    1    2    0    0 -0.30669151804E+02  0.60380577034E+01  0.62981520446E+01  0.59301925729E+02  0.49999966628E+02 0.  0.
         12    1    1    2    0    0  0.30669151804E+02 -0.60380577034E+01 -0.62981520446E+01  0.31886074271E+02  0.00000000000E+00 0. -1.
         11    1    3    3    0    0 -0.96179028625E+01  0.12242019134E+02 -0.63128976452E+01  0.16799516805E+02  0.51100000000E-03 0.  1.
        -11    1    3    3    0    0  0.94852028327E+01 -0.38616386486E+00  0.25604870557E+01  0.98323084538E+01  0.51100000000E-03 0. -1.
         12    1    3    3    0    0 -0.30536451774E+02 -0.58177975657E+01  0.10050562634E+02  0.32670100470E+02  0.00000000000E+00 0. -1.
</event>
<event>
 7    1  0.6184948E-012  0.5930194E+02  0.7816164E-02  0.1266605E+00
        -11   -1    0    0    0    0  0.00000000000E+00  0.00000000000E+00  0.45593999997E+02  0.45594000000E+02  0.51100000000E-03 0. -1.
         11   -1    0    0    0    0 -0.00000000000E+00 -0.00000000000E+00 -0.45593999997E+02  0.45594000000E+02  0.51100000000E-03 0.  1.
    9900012    2    1    2    0    0 -0.30789942678E+02 -0.50863599912E+01 -0.65443976024E+01  0.59301940851E+02  0.49999994206E+02 0.  0.
         12    1    1    2    0    0  0.30789942678E+02  0.50863599912E+01  0.65443976024E+01  0.31886059149E+02  0.00000000000E+00 0. -1.
         11    1    3    3    0    0 -0.10695110280E+02 -0.85709103469E+01  0.15126521879E+02  0.20412191271E+02  0.51100000000E-03 0. -1.
        -11    1    3    3    0    0  0.16137123929E+01  0.89019601365E+01 -0.23986951024E+01  0.93596314251E+01  0.51100000000E-03 0.  1.
        -12    1    3    3    0    0 -0.21708544792E+02 -0.54174097808E+01 -0.19272224379E+02  0.29530118154E+02  0.00000000000E+00 0.  1.
</event>
<event>
 7    1  0.6184948E-012  0.5930193E+02  0.7816164E-02  0.1266605E+00
        -11   -1    0    0    0    0  0.00000000000E+00  0.00000000000E+00  0.45593999997E+02  0.45594000000E+02  0.51100000000E-03 0.  1.
         11   -1    0    0    0    0 -0.00000000000E+00 -0.00000000000E+00 -0.45593999997E+02  0.45594000000E+02  0.51100000000E-03 0. -1.
    9900012    2    1    2    0    0  0.18807813629E+02 -0.24930397285E+02  0.64391469765E+01  0.59301934453E+02  0.49999982538E+02 0.  0.
         12    1    1    2    0    0 -0.18807813629E+02  0.24930397285E+02 -0.64391469765E+01  0.31886065547E+02  0.00000000000E+00 0. -1.
         11    1    3    3    0    0 -0.98938214729E+01 -0.12221720671E+02  0.18503092025E+02  0.24282145174E+02  0.51100000000E-03 0. -1.
        -11    1    3    3    0    0  0.97358504966E+01 -0.70260770417E+00 -0.51072774241E+00  0.97745222680E+01  0.51100000000E-03 0.  1.
        -12    1    3    3    0    0  0.18965784605E+02 -0.12006068910E+02 -0.11553217306E+02  0.25245267011E+02  0.00000000000E+00 0.  1.
</event>
<event>
 7    1  0.6184948E-012  0.5930194E+02  0.7816164E-02  0.1266605E+00
        -11   -1    0    0    0    0  0.00000000000E+00  0.00000000000E+00  0.45593999997E+02  0.45594000000E+02  0.51100000000E-03 0.  1.
         11   -1    0    0    0    0 -0.00000000000E+00 -0.00000000000E+00 -0.45593999997E+02  0.45594000000E+02  0.51100000000E-03 0. -1.
    9900012    2    1    2    0    0  0.12733920235E+02 -0.28726076961E+02  0.54203965740E+01  0.59301938451E+02  0.49999989829E+02 0.  0.
         12    1    1    2    0    0 -0.12733920235E+02  0.28726076961E+02 -0.54203965740E+01  0.31886061549E+02  0.00000000000E+00 0. -1.
         11    1    3    3    0    0 -0.11082438840E+02  0.74701385535E+01  0.41589855441E+01  0.13997163344E+02  0.51100000000E-03 0. -1.
        -11    1    3    3    0    0  0.12020438516E+02 -0.72699273380E+01  0.30819086450E+00  0.14051255014E+02  0.51100000000E-03 0.  1.
        -12    1    3    3    0    0  0.11795920559E+02 -0.28926288176E+02  0.95322016541E+00  0.31253520093E+02  0.00000000000E+00 0.  1.
</event>
<event>
 7    1  0.6184948E-012  0.5930192E+02  0.7816164E-02  0.1266605E+00
        -11   -1    0    0    0    0  0.00000000000E+00  0.00000000000E+00  0.45593999997E+02  0.45594000000E+02  0.51100000000E-03 0.  1.
         11   -1    0    0    0    0 -0.00000000000E+00 -0.00000000000E+00 -0.45593999997E+02  0.45594000000E+02  0.51100000000E-03 0. -1.
    9900012    2    1    2    0    0 -0.14220489100E+02 -0.26843375795E+02 -0.96919043458E+01  0.59301919273E+02  0.49999954853E+02 0.  0.
         12    1    1    2    0    0  0.14220489100E+02  0.26843375795E+02  0.96919043458E+01  0.31886080727E+02  0.00000000000E+00 0. -1.
         11    1    3    3    0    0 -0.89494835766E+00  0.10631725537E+02  0.15117997245E+01  0.10775901778E+02  0.51100000000E-03 0. -1.
        -11    1    3    3    0    0 -0.14637901871E+02 -0.16784248101E+02  0.42439484554E+01  0.22671353164E+02  0.51100000000E-03 0.  1.
        -12    1    3    3    0    0  0.13123611292E+01 -0.20690853231E+02 -0.15447652526E+02  0.25854664332E+02  0.00000000000E+00 0.  1.
</event>
<event>
 7    1  0.6184948E-012  0.5930195E+02  0.7816164E-02  0.1266605E+00
        -11   -1    0    0    0    0  0.00000000000E+00  0.00000000000E+00  0.45593999997E+02  0.45594000000E+02  0.51100000000E-03 0.  1.
         11   -1    0    0    0    0 -0.00000000000E+00 -0.00000000000E+00 -0.45593999997E+02  0.45594000000E+02  0.51100000000E-03 0. -1.
    9900012    2    1    2    0    0 -0.19338109456E+02  0.10278296049E+02  0.23175726696E+02  0.59301950466E+02  0.50000011742E+02 0.  0.
         12    1    1    2    0    0  0.19338109456E+02 -0.10278296049E+02 -0.23175726696E+02  0.31886049534E+02  0.00000000000E+00 0. -1.
         11    1    3    3    0    0 -0.91880003777E+00 -0.10327712891E+02  0.17976326555E+01  0.10523180626E+02  0.51100000000E-03 0. -1.
        -11    1    3    3    0    0 -0.21517825382E+02 -0.16644801066E+00  0.16758636086E+02  0.27274464208E+02  0.51100000000E-03 0.  1.
         12    1    3    3    0    0  0.30985159641E+01  0.20772456950E+02  0.46194579543E+01  0.21504305632E+02  0.00000000000E+00 0. -1.
</event>
<event>
 7    1  0.6184948E-012  0.5930196E+02  0.7816164E-02  0.1266605E+00
        -11   -1    0    0    0    0  0.00000000000E+00  0.00000000000E+00  0.45593999997E+02  0.45594000000E+02  0.51100000000E-03 0.  1.
         11   -1    0    0    0    0 -0.00000000000E+00 -0.00000000000E+00 -0.45593999997E+02  0.45594000000E+02  0.51100000000E-03 0. -1.
    9900012    2    1    2    0    0 -0.84588120282E+00 -0.27138592248E+02  0.16718273973E+02  0.59301962478E+02  0.50000033649E+02 0.  0.
         12    1    1    2    0    0  0.84588120282E+00  0.27138592248E+02 -0.16718273973E+02  0.31886037522E+02  0.00000000000E+00 0. -1.
         11    1    3    3    0    0  0.11082565368E+02 -0.12358573169E+02  0.96717694941E+01  0.19211993945E+02  0.51100000000E-03 0. -1.
        -11    1    3    3    0    0 -0.13710057152E+02 -0.25297123479E+02  0.44988552896E+01  0.29123011908E+02  0.51100000000E-03 0.  1.
         12    1    3    3    0    0  0.17816105806E+01  0.10517104401E+02  0.25476491895E+01  0.10966956626E+02  0.00000000000E+00 0. -1.
</event>
<event>
 7    1  0.6184948E-012  0.5930193E+02  0.7816164E-02  0.1266605E+00
        -11   -1    0    0    0    0  0.00000000000E+00  0.00000000000E+00  0.45593999997E+02  0.45594000000E+02  0.51100000000E-03 0.  1.
         11   -1    0    0    0    0 -0.00000000000E+00 -0.00000000000E+00 -0.45593999997E+02  0.45594000000E+02  0.51100000000E-03 0. -1.
    9900012    2    1    2    0    0 -0.28279686400E+02 -0.14662500742E+02  0.14112230465E+01  0.59301934997E+02  0.49999983531E+02 0.  0.
         12    1    1    2    0    0  0.28279686400E+02  0.14662500742E+02 -0.14112230465E+01  0.31886065003E+02  0.00000000000E+00 0. -1.
         11    1    3    3    0    0  0.54272596566E+01 -0.47778970101E+01  0.59487402166E+01  0.93632770784E+01  0.51100000000E-03 0. -1.
        -11    1    3    3    0    0 -0.22259534046E+02 -0.10624098109E+02  0.13834180331E+02  0.28279725287E+02  0.51100000000E-03 0.  1.
         12    1    3    3    0    0 -0.11447412010E+02  0.73949437791E+00 -0.18371697502E+02  0.21658932632E+02  0.00000000000E+00 0. -1.
</event>
<event>
 7    1  0.6184948E-012  0.5930193E+02  0.7816164E-02  0.1266605E+00
        -11   -1    0    0    0    0  0.00000000000E+00  0.00000000000E+00  0.45593999997E+02  0.45594000000E+02  0.51100000000E-03 0.  1.
         11   -1    0    0    0    0 -0.00000000000E+00 -0.00000000000E+00 -0.45593999997E+02  0.45594000000E+02  0.51100000000E-03 0. -1.
    9900012    2    1    2    0    0 -0.28451865761E+02  0.97084222356E+01  0.10628231874E+02  0.59301930309E+02  0.49999974981E+02 0.  0.
         12    1    1    2    0    0  0.28451865761E+02 -0.97084222356E+01 -0.10628231874E+02  0.31886069691E+02  0.00000000000E+00 0. -1.
         11    1    3    3    0    0 -0.10711297756E+02 -0.93673541617E+01  0.33162732484E+00  0.14233383313E+02  0.51100000000E-03 0. -1.
        -11    1    3    3    0    0 -0.28045993827E+02  0.16241503960E+02  0.39782666847E+01  0.32652577642E+02  0.51100000000E-03 0.  1.
        -12    1    3    3    0    0  0.10305425822E+02  0.28342724377E+01  0.63183378642E+01  0.12415969354E+02  0.00000000000E+00 0.  1.
</event>
<event>
 7    1  0.6184948E-012  0.5930187E+02  0.7816164E-02  0.1266605E+00
        -11   -1    0    0    0    0  0.00000000000E+00  0.00000000000E+00  0.45593999997E+02  0.45594000000E+02  0.51100000000E-03 0.  1.
         11   -1    0    0    0    0 -0.00000000000E+00 -0.00000000000E+00 -0.45593999997E+02  0.45594000000E+02  0.51100000000E-03 0. -1.
    9900012    2    1    2    0    0  0.12336576013E+01  0.82506341407E+01  0.30775488409E+02  0.59301865685E+02  0.49999857121E+02 0.  0.
         12    1    1    2    0    0 -0.12336576013E+01 -0.82506341407E+01 -0.30775488409E+02  0.31886134315E+02  0.00000000000E+00 0. -1.
         11    1    3    3    0    0 -0.24062116204E+01 -0.68238102500E+01 -0.18340867324E+01  0.74644567849E+01  0.51100000000E-03 0. -1.
        -11    1    3    3    0    0 -0.55981032371E+01 -0.14410168688E+01  0.32401103209E+02  0.32912714548E+02  0.51100000000E-03 0.  1.
         12    1    3    3    0    0  0.92379724588E+01  0.16515461260E+02  0.20847193177E+00  0.18924694352E+02  0.00000000000E+00 0. -1.
</event>
<event>
 7    1  0.6184948E-012  0.5930193E+02  0.7816164E-02  0.1266605E+00
        -11   -1    0    0    0    0  0.00000000000E+00  0.00000000000E+00  0.45593999997E+02  0.45594000000E+02  0.51100000000E-03 0.  1.
         11   -1    0    0    0    0 -0.00000000000E+00 -0.00000000000E+00 -0.45593999997E+02  0.45594000000E+02  0.51100000000E-03 0. -1.
    9900012    2    1    2    0    0  0.10457344494E+02 -0.29978658828E+02  0.29403112351E+01  0.59301929857E+02  0.49999974157E+02 0.  0.
         12    1    1    2    0    0 -0.10457344494E+02  0.29978658828E+02 -0.29403112351E+01  0.31886070143E+02  0.00000000000E+00 0. -1.
         11    1    3    3    0    0 -0.82490972318E+01 -0.54334202899E+01 -0.74308076641E+01  0.12360686226E+02  0.51100000000E-03 0. -1.
        -11    1    3    3    0    0  0.22889896763E+02 -0.28016341017E+02  0.15600339915E+02  0.39398392651E+02  0.51100000000E-03 0.  1.
         12    1    3    3    0    0 -0.41834550369E+01  0.34711024790E+01 -0.52292210161E+01  0.75428509796E+01  0.00000000000E+00 0. -1.
</event>
<event>
 7    1  0.6184948E-012  0.5930192E+02  0.7816164E-02  0.1266605E+00
        -11   -1    0    0    0    0  0.00000000000E+00  0.00000000000E+00  0.45593999997E+02  0.45594000000E+02  0.51100000000E-03 0.  1.
         11   -1    0    0    0    0 -0.00000000000E+00 -0.00000000000E+00 -0.45593999997E+02  0.45594000000E+02  0.51100000000E-03 0. -1.
    9900012    2    1    2    0    0  0.53958363312E+01 -0.24631884383E+02  0.19516080947E+02  0.59301918499E+02  0.49999953441E+02 0.  0.
         12    1    1    2    0    0 -0.53958363312E+01  0.24631884383E+02 -0.19516080947E+02  0.31886081501E+02  0.00000000000E+00 0. -1.
         11    1    3    3    0    0  0.15495595020E+01 -0.91899226194E+01 -0.54314553289E+01  0.10786867926E+02  0.51100000000E-03 0.  1.
        -11    1    3    3    0    0 -0.16827285956E+02 -0.47203029064E+01  0.15580335146E+02  0.23413364894E+02  0.51100000000E-03 0. -1.
         12    1    3    3    0    0  0.20673562785E+02 -0.10721658858E+02  0.93672011301E+01  0.25101685678E+02  0.00000000000E+00 0. -1.
</event>
<event>
 7    1  0.6184948E-012  0.5930193E+02  0.7816164E-02  0.1266605E+00
        -11   -1    0    0    0    0  0.00000000000E+00  0.00000000000E+00  0.45593999997E+02  0.45594000000E+02  0.51100000000E-03 0.  1.
         11   -1    0    0    0    0 -0.00000000000E+00 -0.00000000000E+00 -0.45593999997E+02  0.45594000000E+02  0.51100000000E-03 0. -1.
    9900012    2    1    2    0    0 -0.28271372062E+02 -0.14741234648E+02  0.38301499242E+00  0.59301934428E+02  0.49999982492E+02 0.  0.
         12    1    1    2    0    0  0.28271372062E+02  0.14741234648E+02 -0.38301499242E+00  0.31886065572E+02  0.00000000000E+00 0. -1.
         11    1    3    3    0    0 -0.32585138525E+02  0.10389941291E+01 -0.67523994415E+01  0.33293627918E+02  0.51100000000E-03 0. -1.
        -11    1    3    3    0    0  0.45455208214E+00  0.37005417087E+01 -0.19064029555E+01  0.41874812265E+01  0.51100000000E-03 0.  1.
         12    1    3    3    0    0  0.38592143806E+01 -0.19480770485E+02  0.90418173893E+01  0.21820825283E+02  0.00000000000E+00 0. -1.
</event>
<event>
 7    1  0.6184948E-012  0.5930194E+02  0.7816164E-02  0.1266605E+00
        -11   -1    0    0    0    0  0.00000000000E+00  0.00000000000E+00  0.45593999997E+02  0.45594000000E+02  0.51100000000E-03 0. -1.
         11   -1    0    0    0    0 -0.00000000000E+00 -0.00000000000E+00 -0.45593999997E+02  0.45594000000E+02  0.51100000000E-03 0.  1.
    9900012    2    1    2    0    0  0.14979465043E+02  0.25270849561E+02 -0.12398405897E+02  0.59301942242E+02  0.49999996744E+02 0.  0.
         12    1    1    2    0    0 -0.14979465043E+02 -0.25270849561E+02  0.12398405897E+02  0.31886057758E+02  0.00000000000E+00 0. -1.
         11    1    3    3    0    0  0.70396413744E+01  0.22161423691E+02  0.91647796053E+01  0.24993567896E+02  0.51100000000E-03 0. -1.
        -11    1    3    3    0    0  0.82758733401E+01 -0.51613447766E+01  0.14418560077E+01  0.98594375322E+01  0.51100000000E-03 0.  1.
        -12    1    3    3    0    0 -0.33604967152E+00  0.82707706473E+01 -0.23005041510E+02  0.24448936814E+02  0.00000000000E+00 0.  1.
</event>
<event>
 7    1  0.6184948E-012  0.5930188E+02  0.7816164E-02  0.1266605E+00
        -11   -1    0    0    0    0  0.00000000000E+00  0.00000000000E+00  0.45593999997E+02  0.45594000000E+02  0.51100000000E-03 0.  1.
         11   -1    0    0    0    0 -0.00000000000E+00 -0.00000000000E+00 -0.45593999997E+02  0.45594000000E+02  0.51100000000E-03 0. -1.
    9900012    2    1    2    0    0  0.21210101498E+02 -0.21407975337E+02 -0.10418950213E+02  0.59301884885E+02  0.49999892137E+02 0.  0.
         12    1    1    2    0    0 -0.21210101498E+02  0.21407975337E+02  0.10418950213E+02  0.31886115115E+02  0.00000000000E+00 0. -1.
         11    1    3    3    0    0 -0.11256870682E+01 -0.13967947658E+02 -0.62739077088E+01  0.15353587572E+02  0.51100000000E-03 0. -1.
        -11    1    3    3    0    0  0.46505739347E+00 -0.15854871006E+02  0.77664461585E+01  0.17660999383E+02  0.51100000000E-03 0.  1.
         12    1    3    3    0    0  0.21870731173E+02  0.84148433268E+01 -0.11911488663E+02  0.26287297929E+02  0.00000000000E+00 0. -1.
</event>
<event>
 7    1  0.6184948E-012  0.5930196E+02  0.7816164E-02  0.1266605E+00
        -11   -1    0    0    0    0  0.00000000000E+00  0.00000000000E+00  0.45593999997E+02  0.45594000000E+02  0.51100000000E-03 0. -1.
         11   -1    0    0    0    0 -0.00000000000E+00 -0.00000000000E+00 -0.45593999997E+02  0.45594000000E+02  0.51100000000E-03 0.  1.
    9900012    2    1    2    0    0  0.31413087258E+02 -0.23299900724E+01  0.49506352625E+01  0.59301957689E+02  0.50000024914E+02 0.  0.
         12    1    1    2    0    0 -0.31413087258E+02  0.23299900724E+01 -0.49506352625E+01  0.31886042311E+02  0.00000000000E+00 0. -1.
         11    1    3    3    0    0  0.14139083407E+02  0.45734110786E+01  0.15100670867E+02  0.21186317032E+02  0.51100000000E-03 0. -1.
        -11    1    3    3    0    0 -0.54100319046E+01  0.71626434182E+01  0.13043663835E+01  0.90704618333E+01  0.51100000000E-03 0.  1.
        -12    1    3    3    0    0  0.22684035755E+02 -0.14066044569E+02 -0.11454401988E+02  0.29045178823E+02  0.00000000000E+00 0.  1.
</event>
<event>
 7    1  0.6184948E-012  0.5930189E+02  0.7816164E-02  0.1266605E+00
        -11   -1    0    0    0    0  0.00000000000E+00  0.00000000000E+00  0.45593999997E+02  0.45594000000E+02  0.51100000000E-03 0. -1.
         11   -1    0    0    0    0 -0.00000000000E+00 -0.00000000000E+00 -0.45593999997E+02  0.45594000000E+02  0.51100000000E-03 0.  1.
    9900012    2    1    2    0    0  0.23707963090E+02  0.21132101917E+02  0.28443799109E+01  0.59301894211E+02  0.49999909146E+02 0.  0.
         12    1    1    2    0    0 -0.23707963090E+02 -0.21132101917E+02 -0.28443799109E+01  0.31886105789E+02  0.00000000000E+00 0. -1.
         11    1    3    3    0    0  0.27475606864E+02  0.28790446296E+01 -0.16022833068E+02  0.31936328066E+02  0.51100000000E-03 0.  1.
        -11    1    3    3    0    0 -0.11463537112E+01  0.10820271479E+02  0.64221033649E+01  0.12634706708E+02  0.51100000000E-03 0. -1.
        -12    1    3    3    0    0 -0.26212900629E+01  0.74327858082E+01  0.12445109614E+02  0.14730859437E+02  0.00000000000E+00 0.  1.
</event>
<event>
 7    1  0.6184948E-012  0.5930195E+02  0.7816164E-02  0.1266605E+00
        -11   -1    0    0    0    0  0.00000000000E+00  0.00000000000E+00  0.45593999997E+02  0.45594000000E+02  0.51100000000E-03 0.  1.
         11   -1    0    0    0    0 -0.00000000000E+00 -0.00000000000E+00 -0.45593999997E+02  0.45594000000E+02  0.51100000000E-03 0. -1.
    9900012    2    1    2    0    0 -0.19264652407E+02  0.20677381475E+02 -0.14766153319E+02  0.59301949431E+02  0.50000009854E+02 0.  0.
         12    1    1    2    0    0  0.19264652407E+02 -0.20677381475E+02  0.14766153319E+02  0.31886050569E+02  0.00000000000E+00 0. -1.
         11    1    3    3    0    0 -0.82013435848E+01  0.14644661843E+02 -0.16292089040E+02  0.23391458326E+02  0.51100000000E-03 0. -1.
        -11    1    3    3    0    0 -0.15370297551E+02 -0.89124886789E+01 -0.58379586926E+01  0.18701878601E+02  0.51100000000E-03 0.  1.
         12    1    3    3    0    0  0.43069887283E+01  0.14945208311E+02  0.73638944133E+01  0.17208612504E+02  0.00000000000E+00 0. -1.
</event>
<event>
 7    1  0.6184948E-012  0.5930193E+02  0.7816164E-02  0.1266605E+00
        -11   -1    0    0    0    0  0.00000000000E+00  0.00000000000E+00  0.45593999997E+02  0.45594000000E+02  0.51100000000E-03 0.  1.
         11   -1    0    0    0    0 -0.00000000000E+00 -0.00000000000E+00 -0.45593999997E+02  0.45594000000E+02  0.51100000000E-03 0. -1.
    9900012    2    1    2    0    0  0.64458993779E-01 -0.19016817310E+02  0.25594488916E+02  0.59301931593E+02  0.49999977323E+02 0.  0.
         12    1    1    2    0    0 -0.64458993779E-01  0.19016817310E+02 -0.25594488916E+02  0.31886068407E+02  0.00000000000E+00 0. -1.
         11    1    3    3    0    0  0.10536462712E+02 -0.88376120404E+01  0.36984541335E+01  0.14240751255E+02  0.51100000000E-03 0. -1.
        -11    1    3    3    0    0  0.10319971013E+02 -0.12718814963E+02  0.26048804777E+01  0.16584795999E+02  0.51100000000E-03 0.  1.
         12    1    3    3    0    0 -0.20791974731E+02  0.25396096933E+01  0.19291154305E+02  0.28476384339E+02  0.00000000000E+00 0. -1.
</event>
<event>
 7    1  0.6184948E-012  0.5930191E+02  0.7816164E-02  0.1266605E+00
        -11   -1    0    0    0    0  0.00000000000E+00  0.00000000000E+00  0.45593999997E+02  0.45594000000E+02  0.51100000000E-03 0. -1.
         11   -1    0    0    0    0 -0.00000000000E+00 -0.00000000000E+00 -0.45593999997E+02  0.45594000000E+02  0.51100000000E-03 0.  1.
    9900012    2    1    2    0    0  0.23358675200E+02  0.21541899379E+02  0.26535669544E+01  0.59301912853E+02  0.49999943145E+02 0.  0.
         12    1    1    2    0    0 -0.23358675200E+02 -0.21541899379E+02 -0.26535669544E+01  0.31886087147E+02  0.00000000000E+00 0. -1.
         11    1    3    3    0    0 -0.63990190201E+01  0.19382916982E+02 -0.10014737769E+02  0.22736312102E+02  0.51100000000E-03 0. -1.
        -11    1    3    3    0    0  0.59523322409E+01  0.67920604405E+01 -0.35474319790E+00  0.90381517541E+01  0.51100000000E-03 0.  1.
         12    1    3    3    0    0  0.23805361979E+02 -0.46330780436E+01  0.13023047921E+02  0.27527448997E+02  0.00000000000E+00 0. -1.
</event>
<event>
 7    1  0.6184948E-012  0.5930192E+02  0.7816164E-02  0.1266605E+00
        -11   -1    0    0    0    0  0.00000000000E+00  0.00000000000E+00  0.45593999997E+02  0.45594000000E+02  0.51100000000E-03 0.  1.
         11   -1    0    0    0    0 -0.00000000000E+00 -0.00000000000E+00 -0.45593999997E+02  0.45594000000E+02  0.51100000000E-03 0. -1.
    9900012    2    1    2    0    0  0.13201187524E+02 -0.22055093383E+02  0.18868586757E+02  0.59301920555E+02  0.49999957191E+02 0.  0.
         12    1    1    2    0    0 -0.13201187524E+02  0.22055093383E+02 -0.18868586757E+02  0.31886079445E+02  0.00000000000E+00 0. -1.
         11    1    3    3    0    0  0.19183370317E+02  0.77731750417E+01  0.94632407967E+01  0.22759105290E+02  0.51100000000E-03 0. -1.
        -11    1    3    3    0    0  0.50013277429E+00 -0.17440051518E+02  0.13402748731E+02  0.22000890972E+02  0.51100000000E-03 0.  1.
        -12    1    3    3    0    0 -0.64823155670E+01 -0.12388216907E+02 -0.39974027711E+01  0.14541924294E+02  0.00000000000E+00 0.  1.
</event>
<event>
 7    1  0.6184948E-012  0.5930191E+02  0.7816164E-02  0.1266605E+00
        -11   -1    0    0    0    0  0.00000000000E+00  0.00000000000E+00  0.45593999997E+02  0.45594000000E+02  0.51100000000E-03 0. -1.
         11   -1    0    0    0    0 -0.00000000000E+00 -0.00000000000E+00 -0.45593999997E+02  0.45594000000E+02  0.51100000000E-03 0.  1.
    9900012    2    1    2    0    0  0.20516104900E+02  0.55022735323E+01 -0.23781020039E+02  0.59301913875E+02  0.49999945009E+02 0.  0.
         12    1    1    2    0    0 -0.20516104900E+02 -0.55022735323E+01  0.23781020039E+02  0.31886086125E+02  0.00000000000E+00 0. -1.
         11    1    3    3    0    0  0.22727432483E+02  0.10481942617E+02 -0.22411143163E+02  0.33595634336E+02  0.51100000000E-03 0. -1.
        -11    1    3    3    0    0  0.92657269494E+00  0.18985009498E+01 -0.12264711162E+02  0.12445319721E+02  0.51100000000E-03 0.  1.
         12    1    3    3    0    0 -0.31379002779E+01 -0.68781700343E+01  0.10894834287E+02  0.13260959818E+02  0.00000000000E+00 0. -1.
</event>
<event>
 7    1  0.6184948E-012  0.5930193E+02  0.7816164E-02  0.1266605E+00
        -11   -1    0    0    0    0  0.00000000000E+00  0.00000000000E+00  0.45593999997E+02  0.45594000000E+02  0.51100000000E-03 0.  1.
         11   -1    0    0    0    0 -0.00000000000E+00 -0.00000000000E+00 -0.45593999997E+02  0.45594000000E+02  0.51100000000E-03 0. -1.
    9900012    2    1    2    0    0  0.19891562359E+02  0.24899615720E+02 -0.10277367906E+01  0.59301931584E+02  0.49999977306E+02 0.  0.
         12    1    1    2    0    0 -0.19891562359E+02 -0.24899615720E+02  0.10277367906E+01  0.31886068416E+02  0.00000000000E+00 0. -1.
         11    1    3    3    0    0 -0.70561289073E+01 -0.34072260331E+01  0.72149825460E+00  0.78688439042E+01  0.51100000000E-03 0. -1.
        -11    1    3    3    0    0  0.20364495175E+02  0.55648519024E+01  0.11768923609E+02  0.24169977319E+02  0.51100000000E-03 0.  1.
         12    1    3    3    0    0  0.65831960917E+01  0.22741989851E+02 -0.13518158654E+02  0.27263110361E+02  0.00000000000E+00 0. -1.
</event>
<event>
 7    1  0.6184948E-012  0.5930200E+02  0.7816164E-02  0.1266605E+00
        -11   -1    0    0    0    0  0.00000000000E+00  0.00000000000E+00  0.45593999997E+02  0.45594000000E+02  0.51100000000E-03 0. -1.
         11   -1    0    0    0    0 -0.00000000000E+00 -0.00000000000E+00 -0.45593999997E+02  0.45594000000E+02  0.51100000000E-03 0.  1.
    9900012    2    1    2    0    0 -0.11080630131E+01  0.23911631947E+02 -0.21064736026E+02  0.59301999155E+02  0.50000100539E+02 0.  0.
         12    1    1    2    0    0  0.11080630131E+01 -0.23911631947E+02  0.21064736026E+02  0.31886000845E+02  0.00000000000E+00 0. -1.
         11    1    3    3    0    0 -0.57741440964E+01 -0.66331394458E+01  0.75281610391E+01  0.11576376283E+02  0.51100000000E-03 0. -1.
        -11    1    3    3    0    0  0.40606216415E+01 -0.21951308419E+01 -0.73959203446E+01  0.87181927905E+01  0.51100000000E-03 0.  1.
        -12    1    3    3    0    0  0.60545944182E+00  0.32739902235E+02 -0.21196976720E+02  0.39007430082E+02  0.00000000000E+00 0.  1.
</event>
<event>
 7    1  0.6184948E-012  0.5930194E+02  0.7816164E-02  0.1266605E+00
        -11   -1    0    0    0    0  0.00000000000E+00  0.00000000000E+00  0.45593999997E+02  0.45594000000E+02  0.51100000000E-03 0.  1.
         11   -1    0    0    0    0 -0.00000000000E+00 -0.00000000000E+00 -0.45593999997E+02  0.45594000000E+02  0.51100000000E-03 0. -1.
    9900012    2    1    2    0    0  0.22813887072E+01  0.31731020926E+02  0.21582675024E+01  0.59301944395E+02  0.50000000669E+02 0.  0.
         12    1    1    2    0    0 -0.22813887072E+01 -0.31731020926E+02 -0.21582675024E+01  0.31886055605E+02  0.00000000000E+00 0. -1.
         11    1    3    3    0    0 -0.40201650043E+01 -0.43661160652E+01  0.35806926308E+01  0.69315262485E+01  0.51100000000E-03 0. -1.
        -11    1    3    3    0    0 -0.15241380245E+02  0.21369948295E+02 -0.11423287114E+01  0.26273166483E+02  0.51100000000E-03 0.  1.
        -12    1    3    3    0    0  0.21542933957E+02  0.14727188697E+02 -0.28009641707E+00  0.26097251663E+02  0.00000000000E+00 0.  1.
</event>
<event>
 7    1  0.6184948E-012  0.5930160E+02  0.7816164E-02  0.1266606E+00
        -11   -1    0    0    0    0  0.00000000000E+00  0.00000000000E+00  0.45593999997E+02  0.45594000000E+02  0.51100000000E-03 0.  1.
         11   -1    0    0    0    0 -0.00000000000E+00 -0.00000000000E+00 -0.45593999997E+02  0.45594000000E+02  0.51100000000E-03 0. -1.
    9900012    2    1    2    0    0  0.28085074905E+02  0.14102629117E+02  0.53932227346E+01  0.59301601145E+02  0.49999374661E+02 0.  0.
         12    1    1    2    0    0 -0.28085074905E+02 -0.14102629117E+02 -0.53932227346E+01  0.31886398855E+02  0.00000000000E+00 0. -1.
         11    1    3    3    0    0 -0.62577776529E+01  0.20470742110E+01  0.76257406233E+00  0.66281078326E+01  0.51100000000E-03 0. -1.
        -11    1    3    3    0    0  0.14683026113E+02 -0.12007639832E+02 -0.59002952963E+01  0.19864243128E+02  0.51100000000E-03 0.  1.
         12    1    3    3    0    0  0.19659826445E+02  0.24063194738E+02  0.10530943969E+02  0.32809250185E+02  0.00000000000E+00 0. -1.
</event>
<event>
 7    1  0.6184948E-012  0.5930195E+02  0.7816164E-02  0.1266605E+00
        -11   -1    0    0    0    0  0.00000000000E+00  0.00000000000E+00  0.45593999997E+02  0.45594000000E+02  0.51100000000E-03 0. -1.
         11   -1    0    0    0    0 -0.00000000000E+00 -0.00000000000E+00 -0.45593999997E+02  0.45594000000E+02  0.51100000000E-03 0.  1.
    9900012    2    1    2    0    0  0.17104887771E+02 -0.14279433368E+02 -0.22808781357E+02  0.59301954306E+02  0.50000018746E+02 0.  0.
         12    1    1    2    0    0 -0.17104887771E+02  0.14279433368E+02  0.22808781357E+02  0.31886045694E+02  0.00000000000E+00 0. -1.
         11    1    3    3    0    0  0.25774657253E+02  0.38707458217E+00 -0.23641051169E+02  0.34976879276E+02  0.51100000000E-03 0. -1.
        -11    1    3    3    0    0  0.46728115247E+01 -0.81550520993E+01 -0.54457761804E+00  0.94147016591E+01  0.51100000000E-03 0.  1.
         12    1    3    3    0    0 -0.13342581007E+02 -0.65114558506E+01  0.13768474295E+01  0.14910373371E+02  0.00000000000E+00 0. -1.
</event>
<event>
 7    1  0.6184948E-012  0.5930193E+02  0.7816164E-02  0.1266605E+00
        -11   -1    0    0    0    0  0.00000000000E+00  0.00000000000E+00  0.45593999997E+02  0.45594000000E+02  0.51100000000E-03 0. -1.
         11   -1    0    0    0    0 -0.00000000000E+00 -0.00000000000E+00 -0.45593999997E+02  0.45594000000E+02  0.51100000000E-03 0.  1.
    9900012    2    1    2    0    0 -0.29735097710E+02  0.10684516928E+01  0.11463146494E+02  0.59301931688E+02  0.49999977495E+02 0.  0.
         12    1    1    2    0    0  0.29735097710E+02 -0.10684516928E+01 -0.11463146494E+02  0.31886068312E+02  0.00000000000E+00 0. -1.
         11    1    3    3    0    0 -0.16110522440E+01  0.52763127838E+01  0.15278825704E+02  0.16244306113E+02  0.51100000000E-03 0. -1.
        -11    1    3    3    0    0 -0.11130781659E+02 -0.13637143696E+02  0.90079848697E+01  0.19773967235E+02  0.51100000000E-03 0.  1.
        -12    1    3    3    0    0 -0.16993263808E+02  0.94292826052E+01 -0.12823664080E+02  0.23283658340E+02  0.00000000000E+00 0.  1.
</event>
<event>
 7    1  0.6184948E-012  0.5930196E+02  0.7816164E-02  0.1266605E+00
        -11   -1    0    0    0    0  0.00000000000E+00  0.00000000000E+00  0.45593999997E+02  0.45594000000E+02  0.51100000000E-03 0. -1.
         11   -1    0    0    0    0 -0.00000000000E+00 -0.00000000000E+00 -0.45593999997E+02  0.45594000000E+02  0.51100000000E-03 0.  1.
    9900012    2    1    2    0    0  0.13757961628E+02  0.28656754429E+02 -0.24957172931E+01  0.59301957797E+02  0.50000025112E+02 0.  0.
         12    1    1    2    0    0 -0.13757961628E+02 -0.28656754429E+02  0.24957172931E+01  0.31886042203E+02  0.00000000000E+00 0. -1.
         11    1    3    3    0    0  0.64300912323E+01  0.10573745359E+02 -0.23819164749E+01  0.12602527148E+02  0.51100000000E-03 0. -1.
        -11    1    3    3    0    0  0.16672411242E+01  0.30157849343E+02  0.77966417945E+01  0.31193960850E+02  0.51100000000E-03 0.  1.
         12    1    3    3    0    0  0.56606292717E+01 -0.12074840273E+02 -0.79104426127E+01  0.15505469799E+02  0.00000000000E+00 0. -1.
</event>
<event>
 7    1  0.6184948E-012  0.5930195E+02  0.7816164E-02  0.1266605E+00
        -11   -1    0    0    0    0  0.00000000000E+00  0.00000000000E+00  0.45593999997E+02  0.45594000000E+02  0.51100000000E-03 0. -1.
         11   -1    0    0    0    0 -0.00000000000E+00 -0.00000000000E+00 -0.45593999997E+02  0.45594000000E+02  0.51100000000E-03 0.  1.
    9900012    2    1    2    0    0  0.78913967976E+00  0.30968723131E+02 -0.75521873296E+01  0.59301951526E+02  0.50000013675E+02 0.  0.
         12    1    1    2    0    0 -0.78913967976E+00 -0.30968723131E+02  0.75521873296E+01  0.31886048474E+02  0.00000000000E+00 0. -1.
         11    1    3    3    0    0  0.15660874025E+02  0.20421918536E+02 -0.18813140652E+02  0.31878707524E+02  0.51100000000E-03 0. -1.
        -11    1    3    3    0    0  0.15268227420E+00  0.97774965332E+01  0.28403698074E+01  0.10182850840E+02  0.51100000000E-03 0.  1.
        -12    1    3    3    0    0 -0.15024416619E+02  0.76930806180E+00  0.84205835154E+01  0.17240393162E+02  0.00000000000E+00 0.  1.
</event>
<event>
 7    1  0.6184948E-012  0.5930194E+02  0.7816164E-02  0.1266605E+00
        -11   -1    0    0    0    0  0.00000000000E+00  0.00000000000E+00  0.45593999997E+02  0.45594000000E+02  0.51100000000E-03 0.  1.
         11   -1    0    0    0    0 -0.00000000000E+00 -0.00000000000E+00 -0.45593999997E+02  0.45594000000E+02  0.51100000000E-03 0. -1.
    9900012    2    1    2    0    0 -0.29646683458E+02  0.88521252665E+01  0.77093984298E+01  0.59301940570E+02  0.49999993695E+02 0.  0.
         12    1    1    2    0    0  0.29646683458E+02 -0.88521252665E+01 -0.77093984298E+01  0.31886059430E+02  0.00000000000E+00 0. -1.
         11    1    3    3    0    0 -0.18051362352E+01 -0.30353799489E+01 -0.12768743141E+02  0.13248126280E+02  0.51100000000E-03 0. -1.
        -11    1    3    3    0    0 -0.26682986714E+02  0.54677899100E+01  0.30050649258E+01  0.27402717419E+02  0.51100000000E-03 0.  1.
         12    1    3    3    0    0 -0.11585605088E+01  0.64197153054E+01  0.17473076645E+02  0.18651096871E+02  0.00000000000E+00 0. -1.
</event>
<event>
 7    1  0.6184948E-012  0.5930198E+02  0.7816164E-02  0.1266605E+00
        -11   -1    0    0    0    0  0.00000000000E+00  0.00000000000E+00  0.45593999997E+02  0.45594000000E+02  0.51100000000E-03 0. -1.
         11   -1    0    0    0    0 -0.00000000000E+00 -0.00000000000E+00 -0.45593999997E+02  0.45594000000E+02  0.51100000000E-03 0.  1.
    9900012    2    1    2    0    0  0.19487224786E+02 -0.20820876248E+02 -0.14263844066E+02  0.59301983235E+02  0.50000071504E+02 0.  0.
         12    1    1    2    0    0 -0.19487224786E+02  0.20820876248E+02  0.14263844066E+02  0.31886016765E+02  0.00000000000E+00 0. -1.
         11    1    3    3    0    0 -0.26916039752E+00 -0.30594297595E+01  0.80403345936E+01  0.86069471017E+01  0.51100000000E-03 0. -1.
        -11    1    3    3    0    0 -0.62175328876E+01 -0.17219322130E+02 -0.35371691634E+01  0.18646027346E+02  0.51100000000E-03 0.  1.
        -12    1    3    3    0    0  0.25973918071E+02 -0.54212435812E+00 -0.18767009496E+02  0.32049008787E+02  0.00000000000E+00 0.  1.
</event>
<event>
 7    1  0.6184948E-012  0.5930195E+02  0.7816164E-02  0.1266605E+00
        -11   -1    0    0    0    0  0.00000000000E+00  0.00000000000E+00  0.45593999997E+02  0.45594000000E+02  0.51100000000E-03 0.  1.
         11   -1    0    0    0    0 -0.00000000000E+00 -0.00000000000E+00 -0.45593999997E+02  0.45594000000E+02  0.51100000000E-03 0. -1.
    9900012    2    1    2    0    0  0.13831339398E+02 -0.77921476504E+01  0.27653147596E+02  0.59301951538E+02  0.50000013697E+02 0.  0.
         12    1    1    2    0    0 -0.13831339398E+02  0.77921476504E+01 -0.27653147596E+02  0.31886048462E+02  0.00000000000E+00 0. -1.
         11    1    3    3    0    0 -0.20589604853E+01  0.21188633702E+01 -0.99448759344E+01  0.10374461811E+02  0.51100000000E-03 0. -1.
        -11    1    3    3    0    0 -0.59817409788E+01 -0.28471425060E+01  0.27293701052E+01  0.71649778101E+01  0.51100000000E-03 0.  1.
        -12    1    3    3    0    0  0.21872040862E+02 -0.70638685146E+01  0.34868653425E+02  0.41762511917E+02  0.00000000000E+00 0.  1.
</event>
<event>
 7    1  0.6184948E-012  0.5930195E+02  0.7816164E-02  0.1266605E+00
        -11   -1    0    0    0    0  0.00000000000E+00  0.00000000000E+00  0.45593999997E+02  0.45594000000E+02  0.51100000000E-03 0. -1.
         11   -1    0    0    0    0 -0.00000000000E+00 -0.00000000000E+00 -0.45593999997E+02  0.45594000000E+02  0.51100000000E-03 0.  1.
    9900012    2    1    2    0    0 -0.28089804766E+02  0.15057834328E+02  0.97209068185E+00  0.59301945576E+02  0.50000002823E+02 0.  0.
         12    1    1    2    0    0  0.28089804766E+02 -0.15057834328E+02 -0.97209068185E+00  0.31886054424E+02  0.00000000000E+00 0. -1.
         11    1    3    3    0    0 -0.85784359178E+01  0.36527016617E+01  0.47932503053E+01  0.10483655897E+02  0.51100000000E-03 0. -1.
        -11    1    3    3    0    0 -0.25893588389E+02  0.23481002550E+02 -0.17017648224E+01  0.34996162706E+02  0.51100000000E-03 0.  1.
        -12    1    3    3    0    0  0.63822195402E+01 -0.12075869883E+02 -0.21193948011E+01  0.13822126972E+02  0.00000000000E+00 0.  1.
</event>
<event>
 7    1  0.6184948E-012  0.5930194E+02  0.7816164E-02  0.1266605E+00
        -11   -1    0    0    0    0  0.00000000000E+00  0.00000000000E+00  0.45593999997E+02  0.45594000000E+02  0.51100000000E-03 0.  1.
         11   -1    0    0    0    0 -0.00000000000E+00 -0.00000000000E+00 -0.45593999997E+02  0.45594000000E+02  0.51100000000E-03 0. -1.
    9900012    2    1    2    0    0  0.12333694272E+02 -0.28963627150E+02 -0.50703962729E+01  0.59301943008E+02  0.49999998141E+02 0.  0.
         12    1    1    2    0    0 -0.12333694272E+02  0.28963627150E+02  0.50703962729E+01  0.31886056992E+02  0.00000000000E+00 0. -1.
         11    1    3    3    0    0  0.57984226730E+01 -0.83051873593E+01 -0.71783249824E+01  0.12414757041E+02  0.51100000000E-03 0. -1.
        -11    1    3    3    0    0  0.11072830409E+02 -0.98778615902E+01 -0.18181336151E+02  0.23467865420E+02  0.51100000000E-03 0.  1.
        -12    1    3    3    0    0 -0.45375588106E+01 -0.10780578201E+02  0.20289264861E+02  0.23419320547E+02  0.00000000000E+00 0.  1.
</event>
<event>
 7    1  0.6184948E-012  0.5930196E+02  0.7816164E-02  0.1266605E+00
        -11   -1    0    0    0    0  0.00000000000E+00  0.00000000000E+00  0.45593999997E+02  0.45594000000E+02  0.51100000000E-03 0. -1.
         11   -1    0    0    0    0 -0.00000000000E+00 -0.00000000000E+00 -0.45593999997E+02  0.45594000000E+02  0.51100000000E-03 0.  1.
    9900012    2    1    2    0    0  0.23024351778E+02 -0.21114219847E+02 -0.63866049137E+01  0.59301956394E+02  0.50000022553E+02 0.  0.
         12    1    1    2    0    0 -0.23024351778E+02  0.21114219847E+02  0.63866049137E+01  0.31886043606E+02  0.00000000000E+00 0. -1.
         11    1    3    3    0    0  0.94118791414E+01 -0.33792589139E+02 -0.98811554008E+01  0.36443926545E+02  0.51100000000E-03 0. -1.
        -11    1    3    3    0    0  0.15134249321E+01  0.38567005252E+00 -0.38170353874E+01  0.41241915358E+01  0.51100000000E-03 0.  1.
        -12    1    3    3    0    0  0.12099047704E+02  0.12292699240E+02  0.73115858745E+01  0.18733838313E+02  0.00000000000E+00 0.  1.
</event>
<event>
 7    1  0.6184948E-012  0.5930197E+02  0.7816164E-02  0.1266605E+00
        -11   -1    0    0    0    0  0.00000000000E+00  0.00000000000E+00  0.45593999997E+02  0.45594000000E+02  0.51100000000E-03 0.  1.
         11   -1    0    0    0    0 -0.00000000000E+00 -0.00000000000E+00 -0.45593999997E+02  0.45594000000E+02  0.51100000000E-03 0. -1.
    9900012    2    1    2    0    0 -0.21030801033E+02  0.90825020607E+01  0.22179550185E+02  0.59301970423E+02  0.50000048139E+02 0.  0.
         12    1    1    2    0    0  0.21030801033E+02 -0.90825020607E+01 -0.22179550185E+02  0.31886029577E+02  0.00000000000E+00 0. -1.
         11    1    3    3    0    0 -0.21107777202E+02  0.86972139749E+01  0.13789616516E+01  0.22870971226E+02  0.51100000000E-03 0. -1.
        -11    1    3    3    0    0 -0.14529764639E+02 -0.15902700011E+01  0.13844232890E+02  0.20132208118E+02  0.51100000000E-03 0.  1.
         12    1    3    3    0    0  0.14606740808E+02  0.19755580870E+01  0.69563556432E+01  0.16298791079E+02  0.00000000000E+00 0. -1.
</event>
<event>
 7    1  0.6184948E-012  0.5930194E+02  0.7816164E-02  0.1266605E+00
        -11   -1    0    0    0    0  0.00000000000E+00  0.00000000000E+00  0.45593999997E+02  0.45594000000E+02  0.51100000000E-03 0.  1.
         11   -1    0    0    0    0 -0.00000000000E+00 -0.00000000000E+00 -0.45593999997E+02  0.45594000000E+02  0.51100000000E-03 0. -1.
    9900012    2    1    2    0    0 -0.22515749910E+02  0.75623510794E+01  0.21273753959E+02  0.59301941050E+02  0.49999994570E+02 0.  0.
         12    1    1    2    0    0  0.22515749910E+02 -0.75623510794E+01 -0.21273753959E+02  0.31886058950E+02  0.00000000000E+00 0. -1.
         11    1    3    3    0    0 -0.47944870864E+00 -0.84186562279E+01  0.11352469492E+02  0.14141506552E+02  0.51100000000E-03 0. -1.
        -11    1    3    3    0    0 -0.82793382902E+00  0.15981132745E+02  0.16470076167E+02  0.22964004169E+02  0.51100000000E-03 0.  1.
         12    1    3    3    0    0 -0.21208367372E+02 -0.12543815305E-03 -0.65487917003E+01  0.22196430329E+02  0.00000000000E+00 0. -1.
</event>
<event>
 7    1  0.6184948E-012  0.5930195E+02  0.7816164E-02  0.1266605E+00
        -11   -1    0    0    0    0  0.00000000000E+00  0.00000000000E+00  0.45593999997E+02  0.45594000000E+02  0.51100000000E-03 0.  1.
         11   -1    0    0    0    0 -0.00000000000E+00 -0.00000000000E+00 -0.45593999997E+02  0.45594000000E+02  0.51100000000E-03 0. -1.
    9900012    2    1    2    0    0  0.25970311556E+02 -0.90674419159E+01  0.16125906361E+02  0.59301945977E+02  0.50000003554E+02 0.  0.
         12    1    1    2    0    0 -0.25970311556E+02  0.90674419159E+01 -0.16125906361E+02  0.31886054023E+02  0.00000000000E+00 0. -1.
         11    1    3    3    0    0 -0.16025479744E+01 -0.17279127532E+02 -0.32693912582E+01  0.17658576606E+02  0.51100000000E-03 0. -1.
        -11    1    3    3    0    0  0.49753852485E+01 -0.23685489542E+01 -0.44855422070E+01  0.71052495855E+01  0.51100000000E-03 0.  1.
        -12    1    3    3    0    0  0.22597474282E+02  0.10580234571E+02  0.23880839826E+02  0.34538119785E+02  0.00000000000E+00 0.  1.
</event>
<event>
 7    1  0.6184948E-012  0.5930193E+02  0.7816164E-02  0.1266605E+00
        -11   -1    0    0    0    0  0.00000000000E+00  0.00000000000E+00  0.45593999997E+02  0.45594000000E+02  0.51100000000E-03 0.  1.
         11   -1    0    0    0    0 -0.00000000000E+00 -0.00000000000E+00 -0.45593999997E+02  0.45594000000E+02  0.51100000000E-03 0. -1.
    9900012    2    1    2    0    0 -0.30029694231E+02  0.53974421091E+01  0.92631657638E+01  0.59301934754E+02  0.49999983086E+02 0.  0.
         12    1    1    2    0    0  0.30029694231E+02 -0.53974421091E+01 -0.92631657638E+01  0.31886065246E+02  0.00000000000E+00 0. -1.
         11    1    3    3    0    0 -0.43942215023E+00 -0.12622470371E+02  0.12588504747E+02  0.17832282583E+02  0.51100000000E-03 0. -1.
        -11    1    3    3    0    0 -0.17925323193E+02  0.12383866959E+02  0.90142661603E+01  0.23578260477E+02  0.51100000000E-03 0.  1.
        -12    1    3    3    0    0 -0.11664948887E+02  0.56360455212E+01 -0.12339605143E+02  0.17891391694E+02  0.00000000000E+00 0.  1.
</event>
<event>
 7    1  0.6184948E-012  0.5930195E+02  0.7816164E-02  0.1266605E+00
        -11   -1    0    0    0    0  0.00000000000E+00  0.00000000000E+00  0.45593999997E+02  0.45594000000E+02  0.51100000000E-03 0.  1.
         11   -1    0    0    0    0 -0.00000000000E+00 -0.00000000000E+00 -0.45593999997E+02  0.45594000000E+02  0.51100000000E-03 0. -1.
    9900012    2    1    2    0    0 -0.16581715695E+02  0.23649612515E+02  0.13507870787E+02  0.59301952257E+02  0.50000015008E+02 0.  0.
         12    1    1    2    0    0  0.16581715695E+02 -0.23649612515E+02 -0.13507870787E+02  0.31886047743E+02  0.00000000000E+00 0. -1.
         11    1    3    3    0    0 -0.82876574635E+01  0.92780922161E+01 -0.12302804493E+02  0.17496492793E+02  0.51100000000E-03 0. -1.
        -11    1    3    3    0    0 -0.17990231855E+02  0.14364502781E+02  0.20040374401E+02  0.30522188466E+02  0.51100000000E-03 0.  1.
        -12    1    3    3    0    0  0.96961736240E+01  0.70175181199E-02  0.57703008784E+01  0.11283270998E+02  0.00000000000E+00 0.  1.
</event>
<event>
 7    1  0.6184948E-012  0.5930196E+02  0.7816164E-02  0.1266605E+00
        -11   -1    0    0    0    0  0.00000000000E+00  0.00000000000E+00  0.45593999997E+02  0.45594000000E+02  0.51100000000E-03 0.  1.
         11   -1    0    0    0    0 -0.00000000000E+00 -0.00000000000E+00 -0.45593999997E+02  0.45594000000E+02  0.51100000000E-03 0. -1.
    9900012    2    1    2    0    0  0.48216964718E+01  0.25686416978E+02  0.18266872102E+02  0.59301962453E+02  0.50000033604E+02 0.  0.
         12    1    1    2    0    0 -0.48216964718E+01 -0.25686416978E+02 -0.18266872102E+02  0.31886037547E+02  0.00000000000E+00 0. -1.
         11    1    3    3    0    0 -0.40257765347E+01  0.12793231700E+02 -0.69743782900E+01  0.15116732677E+02  0.51100000000E-03 0. -1.
        -11    1    3    3    0    0  0.50213805840E+01 -0.66756803117E+01 -0.36216266574E+01  0.91046773968E+01  0.51100000000E-03 0.  1.
        -12    1    3    3    0    0  0.38260924225E+01  0.19568865590E+02  0.28862877049E+02  0.35080552380E+02  0.00000000000E+00 0.  1.
</event>
<event>
 7    1  0.6184948E-012  0.5930198E+02  0.7816164E-02  0.1266605E+00
        -11   -1    0    0    0    0  0.00000000000E+00  0.00000000000E+00  0.45593999997E+02  0.45594000000E+02  0.51100000000E-03 0. -1.
         11   -1    0    0    0    0 -0.00000000000E+00 -0.00000000000E+00 -0.45593999997E+02  0.45594000000E+02  0.51100000000E-03 0.  1.
    9900012    2    1    2    0    0  0.19372272095E+02  0.24761055578E+02 -0.53219887467E+01  0.59301978554E+02  0.50000062967E+02 0.  0.
         12    1    1    2    0    0 -0.19372272095E+02 -0.24761055578E+02  0.53219887467E+01  0.31886021446E+02  0.00000000000E+00 0. -1.
         11    1    3    3    0    0 -0.56219256441E+00 -0.18390257917E+01  0.16466744022E+02  0.16578653000E+02  0.51100000000E-03 0. -1.
        -11    1    3    3    0    0  0.46971971359E+01  0.40472944051E+01  0.20618726872E+01  0.65341848898E+01  0.51100000000E-03 0.  1.
        -12    1    3    3    0    0  0.15237267524E+02  0.22552786964E+02 -0.23850605456E+02  0.36189140665E+02  0.00000000000E+00 0.  1.
</event>
<event>
 7    1  0.6184948E-012  0.5930194E+02  0.7816164E-02  0.1266605E+00
        -11   -1    0    0    0    0  0.00000000000E+00  0.00000000000E+00  0.45593999997E+02  0.45594000000E+02  0.51100000000E-03 0.  1.
         11   -1    0    0    0    0 -0.00000000000E+00 -0.00000000000E+00 -0.45593999997E+02  0.45594000000E+02  0.51100000000E-03 0. -1.
    9900012    2    1    2    0    0  0.21909991490E+02  0.23165778183E+02  0.14074746773E+00  0.59301940103E+02  0.49999992842E+02 0.  0.
         12    1    1    2    0    0 -0.21909991490E+02 -0.23165778183E+02 -0.14074746773E+00  0.31886059897E+02  0.00000000000E+00 0. -1.
         11    1    3    3    0    0  0.49665094117E+01  0.19114625932E+01 -0.15924266003E+02  0.16789942019E+02  0.51100000000E-03 0. -1.
        -11    1    3    3    0    0  0.60431763312E+01  0.29324913330E+01 -0.79443721340E+01  0.10403486649E+02  0.51100000000E-03 0.  1.
        -12    1    3    3    0    0  0.10900305747E+02  0.18321824257E+02  0.24009385605E+02  0.32108511436E+02  0.00000000000E+00 0.  1.
</event>
<event>
 7    1  0.6184948E-012  0.5930191E+02  0.7816164E-02  0.1266605E+00
        -11   -1    0    0    0    0  0.00000000000E+00  0.00000000000E+00  0.45593999997E+02  0.45594000000E+02  0.51100000000E-03 0. -1.
         11   -1    0    0    0    0 -0.00000000000E+00 -0.00000000000E+00 -0.45593999997E+02  0.45594000000E+02  0.51100000000E-03 0.  1.
    9900012    2    1    2    0    0  0.17071317785E+02  0.37214951462E+01 -0.26672899940E+02  0.59301905723E+02  0.49999930141E+02 0.  0.
         12    1    1    2    0    0 -0.17071317785E+02 -0.37214951462E+01  0.26672899940E+02  0.31886094277E+02  0.00000000000E+00 0. -1.
         11    1    3    3    0    0  0.79932063820E+01  0.10813539578E+02 -0.13712430204E+01  0.13516815237E+02  0.51100000000E-03 0. -1.
        -11    1    3    3    0    0 -0.73814398204E+00  0.98666468898E+00 -0.31581478109E+02  0.31605507805E+02  0.51100000000E-03 0.  1.
         12    1    3    3    0    0  0.98162553853E+01 -0.80787091206E+01  0.62798211899E+01  0.14179582681E+02  0.00000000000E+00 0. -1.
</event>
<event>
 7    1  0.6184948E-012  0.5930191E+02  0.7816164E-02  0.1266605E+00
        -11   -1    0    0    0    0  0.00000000000E+00  0.00000000000E+00  0.45593999997E+02  0.45594000000E+02  0.51100000000E-03 0. -1.
         11   -1    0    0    0    0 -0.00000000000E+00 -0.00000000000E+00 -0.45593999997E+02  0.45594000000E+02  0.51100000000E-03 0.  1.
    9900012    2    1    2    0    0  0.65389434452E+01  0.96982239838E+00 -0.31193336573E+02  0.59301912384E+02  0.49999942290E+02 0.  0.
         12    1    1    2    0    0 -0.65389434452E+01 -0.96982239838E+00  0.31193336573E+02  0.31886087616E+02  0.00000000000E+00 0. -1.
         11    1    3    3    0    0  0.22928762016E+01  0.61413284143E+01 -0.25541026826E+01  0.70353846194E+01  0.51100000000E-03 0. -1.
        -11    1    3    3    0    0  0.19038591127E+02  0.57643851781E+01 -0.21386489128E+01  0.20006746563E+02  0.51100000000E-03 0.  1.
        -12    1    3    3    0    0 -0.14792523883E+02 -0.10935891194E+02 -0.26500584978E+02  0.32259781202E+02  0.00000000000E+00 0.  1.
</event>
<event>
 7    1  0.6184948E-012  0.5930193E+02  0.7816164E-02  0.1266605E+00
        -11   -1    0    0    0    0  0.00000000000E+00  0.00000000000E+00  0.45593999997E+02  0.45594000000E+02  0.51100000000E-03 0.  1.
         11   -1    0    0    0    0 -0.00000000000E+00 -0.00000000000E+00 -0.45593999997E+02  0.45594000000E+02  0.51100000000E-03 0. -1.
    9900012    2    1    2    0    0 -0.15292014337E+02 -0.56837522972E+01  0.27396540107E+02  0.59301934823E+02  0.49999983213E+02 0.  0.
         12    1    1    2    0    0  0.15292014337E+02  0.56837522972E+01 -0.27396540107E+02  0.31886065177E+02  0.00000000000E+00 0. -1.
         11    1    3    3    0    0 -0.14741065626E+02 -0.26077404893E+01 -0.10863952906E+00  0.14970341648E+02  0.51100000000E-03 0.  1.
        -11    1    3    3    0    0 -0.49748013517E+01  0.15139686388E+02  0.14196118426E+02  0.21342177280E+02  0.51100000000E-03 0. -1.
         12    1    3    3    0    0  0.44238526407E+01 -0.18215698195E+02  0.13309061210E+02  0.22989415895E+02  0.00000000000E+00 0. -1.
</event>
<event>
 7    1  0.6184948E-012  0.5930193E+02  0.7816164E-02  0.1266605E+00
        -11   -1    0    0    0    0  0.00000000000E+00  0.00000000000E+00  0.45593999997E+02  0.45594000000E+02  0.51100000000E-03 0. -1.
         11   -1    0    0    0    0 -0.00000000000E+00 -0.00000000000E+00 -0.45593999997E+02  0.45594000000E+02  0.51100000000E-03 0.  1.
    9900012    2    1    2    0    0 -0.28840372928E+02 -0.12816459257E+02 -0.45489185299E+01  0.59301930968E+02  0.49999976182E+02 0.  0.
         12    1    1    2    0    0  0.28840372928E+02  0.12816459257E+02  0.45489185299E+01  0.31886069032E+02  0.00000000000E+00 0. -1.
         11    1    3    3    0    0 -0.23915495081E+01 -0.10561377271E+02  0.74239378045E+01  0.13129244141E+02  0.51100000000E-03 0. -1.
        -11    1    3    3    0    0 -0.90226940034E+01 -0.18139814736E+02 -0.97639095511E+01  0.22489904751E+02  0.51100000000E-03 0.  1.
         12    1    3    3    0    0 -0.17426129417E+02  0.15884732750E+02 -0.22089467833E+01  0.23682782076E+02  0.00000000000E+00 0. -1.
</event>
<event>
 7    1  0.6184948E-012  0.5930194E+02  0.7816164E-02  0.1266605E+00
        -11   -1    0    0    0    0  0.00000000000E+00  0.00000000000E+00  0.45593999997E+02  0.45594000000E+02  0.51100000000E-03 0. -1.
         11   -1    0    0    0    0 -0.00000000000E+00 -0.00000000000E+00 -0.45593999997E+02  0.45594000000E+02  0.51100000000E-03 0.  1.
    9900012    2    1    2    0    0 -0.27859117318E+02  0.10647215677E+02 -0.11279514213E+02  0.59301936269E+02  0.49999985850E+02 0.  0.
         12    1    1    2    0    0  0.27859117318E+02 -0.10647215677E+02  0.11279514213E+02  0.31886063731E+02  0.00000000000E+00 0. -1.
         11    1    3    3    0    0 -0.50527329400E+01  0.15985989443E+02  0.10671076027E+02  0.19873445411E+02  0.51100000000E-03 0. -1.
        -11    1    3    3    0    0 -0.13814801045E+02  0.84335021881E+01 -0.92011985349E+01  0.18618129385E+02  0.51100000000E-03 0.  1.
        -12    1    3    3    0    0 -0.89915833324E+01 -0.13772275955E+02 -0.12749391705E+02  0.20810361473E+02  0.00000000000E+00 0.  1.
</event>
<event>
 7    1  0.6184948E-012  0.5930195E+02  0.7816164E-02  0.1266605E+00
        -11   -1    0    0    0    0  0.00000000000E+00  0.00000000000E+00  0.45593999997E+02  0.45594000000E+02  0.51100000000E-03 0.  1.
         11   -1    0    0    0    0 -0.00000000000E+00 -0.00000000000E+00 -0.45593999997E+02  0.45594000000E+02  0.51100000000E-03 0. -1.
    9900012    2    1    2    0    0 -0.18768195294E+02 -0.22808189898E+02  0.12010898333E+02  0.59301947253E+02  0.50000005882E+02 0.  0.
         12    1    1    2    0    0  0.18768195294E+02  0.22808189898E+02 -0.12010898333E+02  0.31886052747E+02  0.00000000000E+00 0. -1.
         11    1    3    3    0    0 -0.20806925031E+01  0.48469261571E+01 -0.14416447799E+02  0.15351089273E+02  0.51100000000E-03 0. -1.
        -11    1    3    3    0    0 -0.98168716232E+01 -0.52515214043E+01  0.50253818994E+01  0.12214905199E+02  0.51100000000E-03 0.  1.
        -12    1    3    3    0    0 -0.68706311675E+01 -0.22403594651E+02  0.21401964232E+02  0.31735952781E+02  0.00000000000E+00 0.  1.
</event>
<event>
 7    1  0.6184948E-012  0.5930194E+02  0.7816164E-02  0.1266605E+00
        -11   -1    0    0    0    0  0.00000000000E+00  0.00000000000E+00  0.45593999997E+02  0.45594000000E+02  0.51100000000E-03 0.  1.
         11   -1    0    0    0    0 -0.00000000000E+00 -0.00000000000E+00 -0.45593999997E+02  0.45594000000E+02  0.51100000000E-03 0. -1.
    9900012    2    1    2    0    0 -0.17213561832E+02 -0.25528673523E+02  0.82885929534E+01  0.59301942609E+02  0.49999997412E+02 0.  0.
         12    1    1    2    0    0  0.17213561832E+02  0.25528673523E+02 -0.82885929534E+01  0.31886057391E+02  0.00000000000E+00 0. -1.
         11    1    3    3    0    0 -0.20548675768E+01  0.48823639046E+01  0.81845534005E+01  0.97491985661E+01  0.51100000000E-03 0. -1.
        -11    1    3    3    0    0 -0.22639125357E+01  0.79735197177E+01 -0.32908952142E+01  0.89180888216E+01  0.51100000000E-03 0.  1.
        -12    1    3    3    0    0 -0.12894781719E+02 -0.38384557146E+02  0.33949347671E+01  0.40634655221E+02  0.00000000000E+00 0.  1.
</event>
<event>
 7    1  0.6184948E-012  0.5930193E+02  0.7816164E-02  0.1266605E+00
        -11   -1    0    0    0    0  0.00000000000E+00  0.00000000000E+00  0.45593999997E+02  0.45594000000E+02  0.51100000000E-03 0.  1.
         11   -1    0    0    0    0 -0.00000000000E+00 -0.00000000000E+00 -0.45593999997E+02  0.45594000000E+02  0.51100000000E-03 0. -1.
    9900012    2    1    2    0    0  0.46913825640E+01  0.30175824703E+02  0.91723453931E+01  0.59301931147E+02  0.49999976509E+02 0.  0.
         12    1    1    2    0    0 -0.46913825640E+01 -0.30175824703E+02 -0.91723453931E+01  0.31886068853E+02  0.00000000000E+00 0. -1.
         11    1    3    3    0    0  0.60203007425E+01 -0.35314326129E+01 -0.87934252731E+01  0.11226725508E+02  0.51100000000E-03 0. -1.
        -11    1    3    3    0    0  0.20230379128E+01 -0.43498050806E+01  0.67076182659E+01  0.82465525947E+01  0.51100000000E-03 0.  1.
        -12    1    3    3    0    0 -0.33519560914E+01  0.38057062397E+02  0.11258152400E+02  0.39828653045E+02  0.00000000000E+00 0.  1.
</event>
<event>
 7    1  0.6184948E-012  0.5930194E+02  0.7816164E-02  0.1266605E+00
        -11   -1    0    0    0    0  0.00000000000E+00  0.00000000000E+00  0.45593999997E+02  0.45594000000E+02  0.51100000000E-03 0. -1.
         11   -1    0    0    0    0 -0.00000000000E+00 -0.00000000000E+00 -0.45593999997E+02  0.45594000000E+02  0.51100000000E-03 0.  1.
    9900012    2    1    2    0    0 -0.38405522344E+00 -0.29965022057E+02 -0.10893620437E+02  0.59301937033E+02  0.49999987244E+02 0.  0.
         12    1    1    2    0    0  0.38405522344E+00  0.29965022057E+02  0.10893620437E+02  0.31886062967E+02  0.00000000000E+00 0. -1.
         11    1    3    3    0    0 -0.23180237852E+01  0.61277754527E+01 -0.12748072473E+02  0.14333046373E+02  0.51100000000E-03 0. -1.
        -11    1    3    3    0    0 -0.76641045610E+01 -0.16120182290E+02 -0.93370259451E+01  0.20143952679E+02  0.51100000000E-03 0.  1.
         12    1    3    3    0    0  0.95980731227E+01 -0.19972615220E+02  0.11191477981E+02  0.24824937982E+02  0.00000000000E+00 0. -1.
</event>
<event>
 7    1  0.6184948E-012  0.5930200E+02  0.7816164E-02  0.1266605E+00
        -11   -1    0    0    0    0  0.00000000000E+00  0.00000000000E+00  0.45593999997E+02  0.45594000000E+02  0.51100000000E-03 0.  1.
         11   -1    0    0    0    0 -0.00000000000E+00 -0.00000000000E+00 -0.45593999997E+02  0.45594000000E+02  0.51100000000E-03 0. -1.
    9900012    2    1    2    0    0  0.29143347289E+02  0.11810421248E+02  0.52816757022E+01  0.59302002455E+02  0.50000106556E+02 0.  0.
         12    1    1    2    0    0 -0.29143347289E+02 -0.11810421248E+02 -0.52816757022E+01  0.31885997545E+02  0.00000000000E+00 0. -1.
         11    1    3    3    0    0  0.66116339748E+01 -0.90781326869E+01 -0.95565201552E+01  0.14746296980E+02  0.51100000000E-03 0. -1.
        -11    1    3    3    0    0  0.89442106013E+01  0.72886735840E+01 -0.84914277397E+01  0.14325781347E+02  0.51100000000E-03 0.  1.
        -12    1    3    3    0    0  0.13587502712E+02  0.13599880351E+02  0.23329623597E+02  0.30229924127E+02  0.00000000000E+00 0.  1.
</event>
<event>
 7    1  0.6184948E-012  0.5930194E+02  0.7816164E-02  0.1266605E+00
        -11   -1    0    0    0    0  0.00000000000E+00  0.00000000000E+00  0.45593999997E+02  0.45594000000E+02  0.51100000000E-03 0. -1.
         11   -1    0    0    0    0 -0.00000000000E+00 -0.00000000000E+00 -0.45593999997E+02  0.45594000000E+02  0.51100000000E-03 0.  1.
    9900012    2    1    2    0    0 -0.97240466646E+01  0.14366932712E+01 -0.30333143458E+02  0.59301940928E+02  0.49999994346E+02 0.  0.
         12    1    1    2    0    0  0.97240466646E+01 -0.14366932712E+01  0.30333143458E+02  0.31886059072E+02  0.00000000000E+00 0. -1.
         11    1    3    3    0    0 -0.18172728811E+02  0.57807326451E+01 -0.34933795387E+01  0.19387332029E+02  0.51100000000E-03 0. -1.
        -11    1    3    3    0    0  0.97521561191E+01  0.10157006174E+02 -0.83134304728E+01  0.16351833227E+02  0.51100000000E-03 0.  1.
        -12    1    3    3    0    0 -0.13034739730E+01 -0.14501045548E+02 -0.18526333447E+02  0.23562775672E+02  0.00000000000E+00 0.  1.
</event>
<event>
 7    1  0.6184948E-012  0.5930190E+02  0.7816164E-02  0.1266605E+00
        -11   -1    0    0    0    0  0.00000000000E+00  0.00000000000E+00  0.45593999997E+02  0.45594000000E+02  0.51100000000E-03 0. -1.
         11   -1    0    0    0    0 -0.00000000000E+00 -0.00000000000E+00 -0.45593999997E+02  0.45594000000E+02  0.51100000000E-03 0.  1.
    9900012    2    1    2    0    0 -0.53792065690E+00 -0.23368787800E+02 -0.21687184323E+02  0.59301896982E+02  0.49999914199E+02 0.  0.
         12    1    1    2    0    0  0.53792065690E+00  0.23368787800E+02  0.21687184323E+02  0.31886103018E+02  0.00000000000E+00 0. -1.
         11    1    3    3    0    0  0.12148363047E+02 -0.14035997301E+02  0.51731141763E+01  0.19270522969E+02  0.51100000000E-03 0. -1.
        -11    1    3    3    0    0 -0.56240182251E+00  0.82977261497E+00  0.46585551344E+01  0.47651814869E+01  0.51100000000E-03 0.  1.
        -12    1    3    3    0    0 -0.12123881881E+02 -0.10162563114E+02 -0.31518853633E+02  0.35266192526E+02  0.00000000000E+00 0.  1.
</event>
<event>
 7    1  0.6184948E-012  0.5930195E+02  0.7816164E-02  0.1266605E+00
        -11   -1    0    0    0    0  0.00000000000E+00  0.00000000000E+00  0.45593999997E+02  0.45594000000E+02  0.51100000000E-03 0.  1.
         11   -1    0    0    0    0 -0.00000000000E+00 -0.00000000000E+00 -0.45593999997E+02  0.45594000000E+02  0.51100000000E-03 0. -1.
    9900012    2    1    2    0    0  0.15294155272E+02 -0.13923176079E+02  0.24268383682E+02  0.59301945617E+02  0.50000002898E+02 0.  0.
         12    1    1    2    0    0 -0.15294155272E+02  0.13923176079E+02 -0.24268383682E+02  0.31886054383E+02  0.00000000000E+00 0. -1.
         11    1    3    3    0    0  0.58118801400E+01 -0.56700488333E+01  0.10900713181E+02  0.13592385833E+02  0.51100000000E-03 0. -1.
        -11    1    3    3    0    0  0.11553414330E+02  0.65207987963E+01  0.23977580337E+02  0.27403039224E+02  0.51100000000E-03 0.  1.
         12    1    3    3    0    0 -0.20711391981E+01 -0.14773926042E+02 -0.10609909836E+02  0.18306520559E+02  0.00000000000E+00 0. -1.
</event>
<event>
 7    1  0.6184948E-012  0.5930194E+02  0.7816164E-02  0.1266605E+00
        -11   -1    0    0    0    0  0.00000000000E+00  0.00000000000E+00  0.45593999997E+02  0.45594000000E+02  0.51100000000E-03 0. -1.
         11   -1    0    0    0    0 -0.00000000000E+00 -0.00000000000E+00 -0.45593999997E+02  0.45594000000E+02  0.51100000000E-03 0.  1.
    9900012    2    1    2    0    0  0.31294765236E+02 -0.27447685065E+01 -0.54612086190E+01  0.59301939019E+02  0.49999990865E+02 0.  0.
         12    1    1    2    0    0 -0.31294765236E+02  0.27447685065E+01  0.54612086190E+01  0.31886060981E+02  0.00000000000E+00 0. -1.
         11    1    3    3    0    0  0.23758604960E+02 -0.14929297584E+02 -0.13490334832E+01  0.28092260991E+02  0.51100000000E-03 0. -1.
        -11    1    3    3    0    0 -0.59586103909E+01 -0.55916865450E+01 -0.34825742206E+01  0.88825851908E+01  0.51100000000E-03 0.  1.
         12    1    3    3    0    0  0.13494770667E+02  0.17776215623E+02 -0.62960091519E+00  0.22327092836E+02  0.00000000000E+00 0. -1.
</event>
<event>
 7    1  0.6184948E-012  0.5930195E+02  0.7816164E-02  0.1266605E+00
        -11   -1    0    0    0    0  0.00000000000E+00  0.00000000000E+00  0.45593999997E+02  0.45594000000E+02  0.51100000000E-03 0. -1.
         11   -1    0    0    0    0 -0.00000000000E+00 -0.00000000000E+00 -0.45593999997E+02  0.45594000000E+02  0.51100000000E-03 0.  1.
    9900012    2    1    2    0    0 -0.12314828703E+02  0.27368430550E+02 -0.10771930580E+02  0.59301945287E+02  0.50000002296E+02 0.  0.
         12    1    1    2    0    0  0.12314828703E+02 -0.27368430550E+02  0.10771930580E+02  0.31886054713E+02  0.00000000000E+00 0. -1.
         11    1    3    3    0    0 -0.76098285261E+01  0.91673692204E+01  0.66885493283E+00  0.11933043024E+02  0.51100000000E-03 0. -1.
        -11    1    3    3    0    0  0.97024980754E+01  0.23743466213E+02  0.34985308386E+01  0.25886876501E+02  0.51100000000E-03 0.  1.
         12    1    3    3    0    0 -0.14407498252E+02 -0.55424048831E+01 -0.14939316351E+02  0.21482025762E+02  0.00000000000E+00 0. -1.
</event>
<event>
 7    1  0.6184948E-012  0.5930195E+02  0.7816164E-02  0.1266605E+00
        -11   -1    0    0    0    0  0.00000000000E+00  0.00000000000E+00  0.45593999997E+02  0.45594000000E+02  0.51100000000E-03 0.  1.
         11   -1    0    0    0    0 -0.00000000000E+00 -0.00000000000E+00 -0.45593999997E+02  0.45594000000E+02  0.51100000000E-03 0. -1.
    9900012    2    1    2    0    0  0.15047274595E+01 -0.24103243854E+02  0.20820412308E+02  0.59301950736E+02  0.50000012235E+02 0.  0.
         12    1    1    2    0    0 -0.15047274595E+01  0.24103243854E+02 -0.20820412308E+02  0.31886049264E+02  0.00000000000E+00 0. -1.
         11    1    3    3    0    0  0.29620734388E+01  0.48063337755E+01  0.17021076045E+01  0.58967697917E+01  0.51100000000E-03 0. -1.
        -11    1    3    3    0    0  0.71127693335E+01  0.15124551684E+01  0.20517581276E+02  0.21768099364E+02  0.51100000000E-03 0.  1.
        -12    1    3    3    0    0 -0.85701153128E+01 -0.30422032798E+02 -0.13992765730E+01  0.31637081581E+02  0.00000000000E+00 0.  1.
</event>
<event>
 7    1  0.6184948E-012  0.5930194E+02  0.7816164E-02  0.1266605E+00
        -11   -1    0    0    0    0  0.00000000000E+00  0.00000000000E+00  0.45593999997E+02  0.45594000000E+02  0.51100000000E-03 0. -1.
         11   -1    0    0    0    0 -0.00000000000E+00 -0.00000000000E+00 -0.45593999997E+02  0.45594000000E+02  0.51100000000E-03 0.  1.
    9900012    2    1    2    0    0  0.25190393396E+02 -0.13879253262E+02 -0.13767038684E+02  0.59301938081E+02  0.49999989154E+02 0.  0.
         12    1    1    2    0    0 -0.25190393396E+02  0.13879253262E+02  0.13767038684E+02  0.31886061919E+02  0.00000000000E+00 0. -1.
         11    1    3    3    0    0  0.17806320013E+02 -0.14769334682E+02 -0.31041113695E+01  0.23341674898E+02  0.51100000000E-03 0. -1.
        -11    1    3    3    0    0  0.12452883260E+02 -0.72343857276E+01 -0.18599097233E+02  0.23523117491E+02  0.51100000000E-03 0.  1.
         12    1    3    3    0    0 -0.50688098766E+01  0.81244671472E+01  0.79361699185E+01  0.12437145692E+02  0.00000000000E+00 0. -1.
</event>
<event>
 7    1  0.6184948E-012  0.5930204E+02  0.7816164E-02  0.1266604E+00
        -11   -1    0    0    0    0  0.00000000000E+00  0.00000000000E+00  0.45593999997E+02  0.45594000000E+02  0.51100000000E-03 0. -1.
         11   -1    0    0    0    0 -0.00000000000E+00 -0.00000000000E+00 -0.45593999997E+02  0.45594000000E+02  0.51100000000E-03 0.  1.
    9900012    2    1    2    0    0 -0.15473948360E+02  0.48869651410E+01 -0.27447936053E+02  0.59302036008E+02  0.50000167749E+02 0.  0.
         12    1    1    2    0    0  0.15473948360E+02 -0.48869651410E+01  0.27447936053E+02  0.31885963992E+02  0.00000000000E+00 0. -1.
         11    1    3    3    0    0  0.88580621515E+01  0.19549599452E+01  0.76716675769E-01  0.90715499876E+01  0.51100000000E-03 0.  1.
        -11    1    3    3    0    0  0.76195779590E+00 -0.44172402718E+00  0.72007500441E+01  0.72544125370E+01  0.51100000000E-03 0. -1.
        -12    1    3    3    0    0 -0.25093968307E+02  0.33737292230E+01 -0.34725402773E+02  0.42976073483E+02  0.00000000000E+00 0.  1.
</event>
<event>
 7    1  0.6184948E-012  0.5930194E+02  0.7816164E-02  0.1266605E+00
        -11   -1    0    0    0    0  0.00000000000E+00  0.00000000000E+00  0.45593999997E+02  0.45594000000E+02  0.51100000000E-03 0. -1.
         11   -1    0    0    0    0 -0.00000000000E+00 -0.00000000000E+00 -0.45593999997E+02  0.45594000000E+02  0.51100000000E-03 0.  1.
    9900012    2    1    2    0    0  0.12194473523E+02  0.17719642393E+02 -0.23537835838E+02  0.59301943063E+02  0.49999998241E+02 0.  0.
         12    1    1    2    0    0 -0.12194473523E+02 -0.17719642393E+02  0.23537835838E+02  0.31886056937E+02  0.00000000000E+00 0. -1.
         11    1    3    3    0    0  0.47627650542E+01  0.11941532649E+02 -0.20524416410E+02  0.24218501238E+02  0.51100000000E-03 0. -1.
        -11    1    3    3    0    0  0.93460574116E+01  0.16912485670E+02  0.64236326570E+01  0.20362809665E+02  0.51100000000E-03 0.  1.
         12    1    3    3    0    0 -0.19143489424E+01 -0.11134375926E+02 -0.94370520845E+01  0.14720632160E+02  0.00000000000E+00 0. -1.
</event>
<event>
 7    1  0.6184948E-012  0.5930192E+02  0.7816164E-02  0.1266605E+00
        -11   -1    0    0    0    0  0.00000000000E+00  0.00000000000E+00  0.45593999997E+02  0.45594000000E+02  0.51100000000E-03 0. -1.
         11   -1    0    0    0    0 -0.00000000000E+00 -0.00000000000E+00 -0.45593999997E+02  0.45594000000E+02  0.51100000000E-03 0.  1.
    9900012    2    1    2    0    0 -0.23027937604E+02  0.64174387303E+01 -0.21101008025E+02  0.59301922006E+02  0.49999959838E+02 0.  0.
         12    1    1    2    0    0  0.23027937604E+02 -0.64174387303E+01  0.21101008025E+02  0.31886077994E+02  0.00000000000E+00 0. -1.
         11    1    3    3    0    0 -0.47454727872E-01  0.19755478843E+02 -0.95510371747E+01  0.21943188183E+02  0.51100000000E-03 0. -1.
        -11    1    3    3    0    0 -0.13662498942E+02  0.13957728444E+01  0.36711993842E+01  0.14215827952E+02  0.51100000000E-03 0.  1.
        -12    1    3    3    0    0 -0.93179839342E+01 -0.14733812957E+02 -0.15221170234E+02  0.23142905871E+02  0.00000000000E+00 0.  1.
</event>
<event>
 7    1  0.6184948E-012  0.5930208E+02  0.7816164E-02  0.1266604E+00
        -11   -1    0    0    0    0  0.00000000000E+00  0.00000000000E+00  0.45593999997E+02  0.45594000000E+02  0.51100000000E-03 0.  1.
         11   -1    0    0    0    0 -0.00000000000E+00 -0.00000000000E+00 -0.45593999997E+02  0.45594000000E+02  0.51100000000E-03 0. -1.
    9900012    2    1    2    0    0 -0.19902119744E+02 -0.10046270875E+02  0.22796711083E+02  0.59302078890E+02  0.50000245957E+02 0.  0.
         12    1    1    2    0    0  0.19902119744E+02  0.10046270875E+02 -0.22796711083E+02  0.31885921110E+02  0.00000000000E+00 0. -1.
         11    1    3    3    0    0  0.92045761492E+01  0.60784699144E+01  0.79373281916E+01  0.13589451706E+02  0.51100000000E-03 0.  1.
        -11    1    3    3    0    0 -0.55623220178E+01  0.77139378524E+01  0.14351832178E+01  0.96179007351E+01  0.51100000000E-03 0. -1.
        -12    1    3    3    0    0 -0.23544373876E+02 -0.23838678642E+02  0.13424199673E+02  0.36094726449E+02  0.00000000000E+00 0.  1.
</event>
<event>
 7    1  0.6184948E-012  0.5930204E+02  0.7816164E-02  0.1266604E+00
        -11   -1    0    0    0    0  0.00000000000E+00  0.00000000000E+00  0.45593999997E+02  0.45594000000E+02  0.51100000000E-03 0.  1.
         11   -1    0    0    0    0 -0.00000000000E+00 -0.00000000000E+00 -0.45593999997E+02  0.45594000000E+02  0.51100000000E-03 0. -1.
    9900012    2    1    2    0    0 -0.12032806566E+02  0.25423621425E+02  0.15018827622E+02  0.59302044732E+02  0.50000183660E+02 0.  0.
         12    1    1    2    0    0  0.12032806566E+02 -0.25423621425E+02 -0.15018827622E+02  0.31885955268E+02  0.00000000000E+00 0. -1.
         11    1    3    3    0    0 -0.88842844624E+01  0.15087076817E+02  0.26992684769E+01  0.17715429655E+02  0.51100000000E-03 0. -1.
        -11    1    3    3    0    0  0.81813944152E+01  0.21818981311E+02  0.97154292934E+01  0.25246637928E+02  0.51100000000E-03 0.  1.
         12    1    3    3    0    0 -0.11329916518E+02 -0.11482436703E+02  0.26041298515E+01  0.16339977149E+02  0.00000000000E+00 0. -1.
</event>
<event>
 7    1  0.6184948E-012  0.5930195E+02  0.7816164E-02  0.1266605E+00
        -11   -1    0    0    0    0  0.00000000000E+00  0.00000000000E+00  0.45593999997E+02  0.45594000000E+02  0.51100000000E-03 0.  1.
         11   -1    0    0    0    0 -0.00000000000E+00 -0.00000000000E+00 -0.45593999997E+02  0.45594000000E+02  0.51100000000E-03 0. -1.
    9900012    2    1    2    0    0 -0.24516575610E+02 -0.16426672156E+02 -0.12075687629E+02  0.59301948669E+02  0.50000008464E+02 0.  0.
         12    1    1    2    0    0  0.24516575610E+02  0.16426672156E+02  0.12075687629E+02  0.31886051331E+02  0.00000000000E+00 0. -1.
         11    1    3    3    0    0 -0.12824288929E+02 -0.36867886621E+01 -0.63159771612E+01  0.14763006636E+02  0.51100000000E-03 0. -1.
        -11    1    3    3    0    0 -0.18132779157E+02  0.81559370174E+01  0.45004414479E+01  0.20385557684E+02  0.51100000000E-03 0.  1.
         12    1    3    3    0    0  0.64404924758E+01 -0.20895820512E+02 -0.10260151916E+02  0.24153384349E+02  0.00000000000E+00 0. -1.
</event>
<event>
 7    1  0.6184948E-012  0.5930201E+02  0.7816164E-02  0.1266605E+00
        -11   -1    0    0    0    0  0.00000000000E+00  0.00000000000E+00  0.45593999997E+02  0.45594000000E+02  0.51100000000E-03 0. -1.
         11   -1    0    0    0    0 -0.00000000000E+00 -0.00000000000E+00 -0.45593999997E+02  0.45594000000E+02  0.51100000000E-03 0.  1.
    9900012    2    1    2    0    0  0.57957724524E+01 -0.30439804217E+02 -0.75195510942E+01  0.59302010792E+02  0.50000121763E+02 0.  0.
         12    1    1    2    0    0 -0.57957724524E+01  0.30439804217E+02  0.75195510942E+01  0.31885989208E+02  0.00000000000E+00 0. -1.
         11    1    3    3    0    0  0.76350834530E+01 -0.13634764901E+02 -0.19277609220E+02  0.24815872557E+02  0.51100000000E-03 0. -1.
        -11    1    3    3    0    0  0.22894994906E+01 -0.21482783389E+02  0.16049472526E+02  0.26913516283E+02  0.51100000000E-03 0.  1.
         12    1    3    3    0    0 -0.41288104912E+01  0.46777440735E+01 -0.42914144005E+01  0.75726219532E+01  0.00000000000E+00 0. -1.
</event>
<event>
 7    1  0.6184948E-012  0.5930192E+02  0.7816164E-02  0.1266605E+00
        -11   -1    0    0    0    0  0.00000000000E+00  0.00000000000E+00  0.45593999997E+02  0.45594000000E+02  0.51100000000E-03 0.  1.
         11   -1    0    0    0    0 -0.00000000000E+00 -0.00000000000E+00 -0.45593999997E+02  0.45594000000E+02  0.51100000000E-03 0. -1.
    9900012    2    1    2    0    0 -0.26339640483E+02 -0.17554611464E+02  0.38446184741E+01  0.59301919406E+02  0.49999955097E+02 0.  0.
         12    1    1    2    0    0  0.26339640483E+02  0.17554611464E+02 -0.38446184741E+01  0.31886080594E+02  0.00000000000E+00 0. -1.
         11    1    3    3    0    0 -0.59929106965E+01  0.33909828272E+01  0.23815640693E+01  0.72859859201E+01  0.51100000000E-03 0. -1.
        -11    1    3    3    0    0 -0.76761008115E+01  0.10266431637E+02  0.11123593155E+02  0.16972226347E+02  0.51100000000E-03 0.  1.
         12    1    3    3    0    0 -0.12670628975E+02 -0.31212025928E+02 -0.96605387499E+01  0.35043707140E+02  0.00000000000E+00 0. -1.
</event>
<event>
 7    1  0.6184948E-012  0.5930193E+02  0.7816164E-02  0.1266605E+00
        -11   -1    0    0    0    0  0.00000000000E+00  0.00000000000E+00  0.45593999997E+02  0.45594000000E+02  0.51100000000E-03 0.  1.
         11   -1    0    0    0    0 -0.00000000000E+00 -0.00000000000E+00 -0.45593999997E+02  0.45594000000E+02  0.51100000000E-03 0. -1.
    9900012    2    1    2    0    0 -0.19131870563E+02 -0.24228561469E+02  0.79793476961E+01  0.59301926994E+02  0.49999968934E+02 0.  0.
         12    1    1    2    0    0  0.19131870563E+02  0.24228561469E+02 -0.79793476961E+01  0.31886073006E+02  0.00000000000E+00 0. -1.
         11    1    3    3    0    0  0.27513173823E+01 -0.16131227139E+02  0.15374406991E+02  0.22453476945E+02  0.51100000000E-03 0. -1.
        -11    1    3    3    0    0 -0.21500369295E+01 -0.13523846117E+02  0.28107780050E+01  0.13979182588E+02  0.51100000000E-03 0.  1.
         12    1    3    3    0    0 -0.19733151016E+02  0.54265117863E+01 -0.10205837300E+02  0.22869267460E+02  0.00000000000E+00 0. -1.
</event>
<event>
 7    1  0.6184948E-012  0.5930199E+02  0.7816164E-02  0.1266605E+00
        -11   -1    0    0    0    0  0.00000000000E+00  0.00000000000E+00  0.45593999997E+02  0.45594000000E+02  0.51100000000E-03 0.  1.
         11   -1    0    0    0    0 -0.00000000000E+00 -0.00000000000E+00 -0.45593999997E+02  0.45594000000E+02  0.51100000000E-03 0. -1.
    9900012    2    1    2    0    0 -0.25443330352E+01  0.68824856289E+01  0.31030234670E+02  0.59301988918E+02  0.50000081869E+02 0.  0.
         12    1    1    2    0    0  0.25443330352E+01 -0.68824856289E+01 -0.31030234670E+02  0.31886011082E+02  0.00000000000E+00 0. -1.
         11    1    3    3    0    0 -0.95582789462E+01 -0.30673996187E+01 -0.15519382192E+01  0.10157664561E+02  0.51100000000E-03 0. -1.
        -11    1    3    3    0    0  0.68842633324E+01 -0.12347986375E+02  0.16033745103E+02  0.21376314730E+02  0.51100000000E-03 0.  1.
        -12    1    3    3    0    0  0.12968257862E+00  0.22297871622E+02  0.16548427786E+02  0.27768009627E+02  0.00000000000E+00 0.  1.
</event>
<event>
 7    1  0.6184948E-012  0.5930192E+02  0.7816164E-02  0.1266605E+00
        -11   -1    0    0    0    0  0.00000000000E+00  0.00000000000E+00  0.45593999997E+02  0.45594000000E+02  0.51100000000E-03 0. -1.
         11   -1    0    0    0    0 -0.00000000000E+00 -0.00000000000E+00 -0.45593999997E+02  0.45594000000E+02  0.51100000000E-03 0.  1.
    9900012    2    1    2    0    0  0.28221298573E+02 -0.66484747507E+01  0.13269434520E+02  0.59301924636E+02  0.49999964634E+02 0.  0.
         12    1    1    2    0    0 -0.28221298573E+02  0.66484747507E+01 -0.13269434520E+02  0.31886075364E+02  0.00000000000E+00 0. -1.
         11    1    3    3    0    0 -0.13595670508E+01  0.13346018574E+02  0.65256901493E+01  0.14918085216E+02  0.51100000000E-03 0.  1.
        -11    1    3    3    0    0 -0.13512122974E+00 -0.55822654698E+01  0.97343370953E+01  0.11222177350E+02  0.51100000000E-03 0. -1.
        -12    1    3    3    0    0  0.29715986853E+02 -0.14412227855E+02 -0.29905927249E+01  0.33161662070E+02  0.00000000000E+00 0.  1.
</event>
<event>
 7    1  0.6184948E-012  0.5930192E+02  0.7816164E-02  0.1266605E+00
        -11   -1    0    0    0    0  0.00000000000E+00  0.00000000000E+00  0.45593999997E+02  0.45594000000E+02  0.51100000000E-03 0. -1.
         11   -1    0    0    0    0 -0.00000000000E+00 -0.00000000000E+00 -0.45593999997E+02  0.45594000000E+02  0.51100000000E-03 0.  1.
    9900012    2    1    2    0    0  0.77527216189E+01  0.40913273273E+01 -0.30657433676E+02  0.59301923236E+02  0.49999962082E+02 0.  0.
         12    1    1    2    0    0 -0.77527216189E+01 -0.40913273273E+01  0.30657433676E+02  0.31886076764E+02  0.00000000000E+00 0. -1.
         11    1    3    3    0    0  0.77380911656E+01 -0.35511161947E+01  0.98443825102E-01  0.85145858715E+01  0.51100000000E-03 0. -1.
        -11    1    3    3    0    0 -0.29161048788E+01 -0.14084393213E+02 -0.18405200810E+01  0.14500390142E+02  0.51100000000E-03 0.  1.
        -12    1    3    3    0    0  0.29307353322E+01  0.21726836735E+02 -0.28915357420E+02  0.36286947223E+02  0.00000000000E+00 0.  1.
</event>
<event>
 7    1  0.6184948E-012  0.5930194E+02  0.7816164E-02  0.1266605E+00
        -11   -1    0    0    0    0  0.00000000000E+00  0.00000000000E+00  0.45593999997E+02  0.45594000000E+02  0.51100000000E-03 0.  1.
         11   -1    0    0    0    0 -0.00000000000E+00 -0.00000000000E+00 -0.45593999997E+02  0.45594000000E+02  0.51100000000E-03 0. -1.
    9900012    2    1    2    0    0 -0.68617820224E+01  0.30722862604E+02  0.50737059941E+01  0.59301939854E+02  0.49999992389E+02 0.  0.
         12    1    1    2    0    0  0.68617820224E+01 -0.30722862604E+02 -0.50737059941E+01  0.31886060146E+02  0.00000000000E+00 0. -1.
         11    1    3    3    0    0 -0.71406804083E+01  0.22352525981E+02 -0.13750932951E+02  0.27197663350E+02  0.51100000000E-03 0. -1.
        -11    1    3    3    0    0  0.28991900104E+00  0.16740475930E+02  0.83903604470E+01  0.18727673002E+02  0.51100000000E-03 0.  1.
         12    1    3    3    0    0 -0.11020615179E-01 -0.83701393071E+01  0.10434278498E+02  0.13376603502E+02  0.00000000000E+00 0. -1.
</event>
<event>
 7    1  0.6184948E-012  0.5930196E+02  0.7816164E-02  0.1266605E+00
        -11   -1    0    0    0    0  0.00000000000E+00  0.00000000000E+00  0.45593999997E+02  0.45594000000E+02  0.51100000000E-03 0.  1.
         11   -1    0    0    0    0 -0.00000000000E+00 -0.00000000000E+00 -0.45593999997E+02  0.45594000000E+02  0.51100000000E-03 0. -1.
    9900012    2    1    2    0    0  0.17862981807E+02  0.26363611546E+02  0.16103246824E+01  0.59301964211E+02  0.50000036809E+02 0.  0.
         12    1    1    2    0    0 -0.17862981807E+02 -0.26363611546E+02 -0.16103246824E+01  0.31886035789E+02  0.00000000000E+00 0. -1.
         11    1    3    3    0    0  0.54714425045E+01  0.62138591429E+01  0.15424984625E+02  0.17506538192E+02  0.51100000000E-03 0. -1.
        -11    1    3    3    0    0  0.96684846333E+01  0.22843496922E+02  0.25986676453E+01  0.24941091005E+02  0.51100000000E-03 0.  1.
         12    1    3    3    0    0  0.27230546693E+01 -0.26937445195E+01 -0.16413327587E+02  0.16854335014E+02  0.00000000000E+00 0. -1.
</event>
<event>
 7    1  0.6184948E-012  0.5930198E+02  0.7816164E-02  0.1266605E+00
        -11   -1    0    0    0    0  0.00000000000E+00  0.00000000000E+00  0.45593999997E+02  0.45594000000E+02  0.51100000000E-03 0. -1.
         11   -1    0    0    0    0 -0.00000000000E+00 -0.00000000000E+00 -0.45593999997E+02  0.45594000000E+02  0.51100000000E-03 0.  1.
    9900012    2    1    2    0    0 -0.10443600970E+02 -0.26467792136E+02 -0.14391156013E+02  0.59301981228E+02  0.50000067844E+02 0.  0.
         12    1    1    2    0    0  0.10443600970E+02  0.26467792136E+02  0.14391156013E+02  0.31886018772E+02  0.00000000000E+00 0. -1.
         11    1    3    3    0    0 -0.12085647049E+02 -0.47186938001E+01 -0.27679241936E+01  0.13266135096E+02  0.51100000000E-03 0. -1.
        -11    1    3    3    0    0 -0.11622736374E+02 -0.13207471107E+02  0.92452973920E+01  0.19874627493E+02  0.51100000000E-03 0.  1.
         12    1    3    3    0    0  0.13264782453E+02 -0.85416272286E+01 -0.20868529211E+02  0.26161218639E+02  0.00000000000E+00 0. -1.
</event>
<event>
 7    1  0.6184948E-012  0.5930192E+02  0.7816164E-02  0.1266605E+00
        -11   -1    0    0    0    0  0.00000000000E+00  0.00000000000E+00  0.45593999997E+02  0.45594000000E+02  0.51100000000E-03 0.  1.
         11   -1    0    0    0    0 -0.00000000000E+00 -0.00000000000E+00 -0.45593999997E+02  0.45594000000E+02  0.51100000000E-03 0. -1.
    9900012    2    1    2    0    0  0.11195482036E+02 -0.29855641968E+02  0.15498621704E+00  0.59301918458E+02  0.49999953367E+02 0.  0.
         12    1    1    2    0    0 -0.11195482036E+02  0.29855641968E+02 -0.15498621704E+00  0.31886081542E+02  0.00000000000E+00 0. -1.
         11    1    3    3    0    0 -0.80962719619E+01 -0.70149158826E+01  0.49377571999E+01  0.11795766654E+02  0.51100000000E-03 0. -1.
        -11    1    3    3    0    0  0.28709638015E+02 -0.82658496241E+01 -0.21307366498E+01  0.29951754938E+02  0.51100000000E-03 0.  1.
         12    1    3    3    0    0 -0.94178840170E+01 -0.14574876462E+02 -0.26520343331E+01  0.17554396866E+02  0.00000000000E+00 0. -1.
</event>
<event>
 7    1  0.7271316E-012  0.5930193E+02  0.7816164E-02  0.1266605E+00
        -11   -1    0    0    0    0  0.00000000000E+00  0.00000000000E+00  0.45593999997E+02  0.45594000000E+02  0.51100000000E-03 0. -1.
         11   -1    0    0    0    0 -0.00000000000E+00 -0.00000000000E+00 -0.45593999997E+02  0.45594000000E+02  0.51100000000E-03 0.  1.
    9900012    2    1    2    0    0 -0.30800987665E+01 -0.15412637774E+02 -0.27743194624E+02  0.59301933145E+02  0.49999980153E+02 0.  0.
         12    1    1    2    0    0  0.30800987665E+01  0.15412637774E+02  0.27743194624E+02  0.31886066855E+02  0.00000000000E+00 0. -1.
         11    1    3    3    0    0 -0.63869965355E+01 -0.13065721830E+02 -0.77317907779E+01  0.16470804491E+02  0.51100000000E-03 0. -1.
        -11    1    3    3    0    0  0.85799994757E+01 -0.28869959050E+01 -0.30101583304E+02  0.31433365300E+02  0.51100000000E-03 0.  1.
         12    1    3    3    0    0 -0.52731017067E+01  0.54007996166E+00  0.10090179459E+02  0.11397763354E+02  0.00000000000E+00 0. -1.
</event>
<event>
 7    1  0.6184948E-012  0.5930193E+02  0.7816164E-02  0.1266605E+00
        -11   -1    0    0    0    0  0.00000000000E+00  0.00000000000E+00  0.45593999997E+02  0.45594000000E+02  0.51100000000E-03 0.  1.
         11   -1    0    0    0    0 -0.00000000000E+00 -0.00000000000E+00 -0.45593999997E+02  0.45594000000E+02  0.51100000000E-03 0. -1.
    9900012    2    1    2    0    0  0.19155620591E+02  0.66516043872E+01  0.24607724600E+02  0.59301925436E+02  0.49999966093E+02 0.  0.
         12    1    1    2    0    0 -0.19155620591E+02 -0.66516043872E+01 -0.24607724600E+02  0.31886074564E+02  0.00000000000E+00 0. -1.
         11    1    3    3    0    0  0.92407320065E+00  0.10885506815E+02 -0.88316284683E+01  0.14047983185E+02  0.51100000000E-03 0. -1.
        -11    1    3    3    0    0  0.16434154098E+02  0.35779048881E+01  0.80827596269E+01  0.18660488411E+02  0.51100000000E-03 0.  1.
        -12    1    3    3    0    0  0.17973932921E+01 -0.78118073161E+01  0.25356593441E+02  0.26593453840E+02  0.00000000000E+00 0.  1.
</event>
<event>
 7    1  0.6184948E-012  0.5930194E+02  0.7816164E-02  0.1266605E+00
        -11   -1    0    0    0    0  0.00000000000E+00  0.00000000000E+00  0.45593999997E+02  0.45594000000E+02  0.51100000000E-03 0. -1.
         11   -1    0    0    0    0 -0.00000000000E+00 -0.00000000000E+00 -0.45593999997E+02  0.45594000000E+02  0.51100000000E-03 0.  1.
    9900012    2    1    2    0    0  0.86034424052E+01 -0.27027532942E+02  0.14567572093E+02  0.59301938549E+02  0.49999990009E+02 0.  0.
         12    1    1    2    0    0 -0.86034424052E+01  0.27027532942E+02 -0.14567572093E+02  0.31886061451E+02  0.00000000000E+00 0. -1.
         11    1    3    3    0    0  0.26762984548E+01 -0.18828070017E+01 -0.92007441944E+00  0.33991282446E+01  0.51100000000E-03 0. -1.
        -11    1    3    3    0    0  0.39951328209E+01  0.41253638226E+01 -0.13495007143E+02  0.14666115061E+02  0.51100000000E-03 0.  1.
         12    1    3    3    0    0  0.19320111295E+01 -0.29270089763E+02  0.28982653656E+02  0.41236695244E+02  0.00000000000E+00 0. -1.
</event>
<event>
 7    1  0.6184948E-012  0.5930196E+02  0.7816164E-02  0.1266605E+00
        -11   -1    0    0    0    0  0.00000000000E+00  0.00000000000E+00  0.45593999997E+02  0.45594000000E+02  0.51100000000E-03 0. -1.
         11   -1    0    0    0    0 -0.00000000000E+00 -0.00000000000E+00 -0.45593999997E+02  0.45594000000E+02  0.51100000000E-03 0.  1.
    9900012    2    1    2    0    0 -0.17713102514E+02 -0.59636693035E+01 -0.25834087429E+02  0.59301961903E+02  0.50000032600E+02 0.  0.
         12    1    1    2    0    0  0.17713102514E+02  0.59636693035E+01  0.25834087429E+02  0.31886038097E+02  0.00000000000E+00 0. -1.
         11    1    3    3    0    0 -0.76597109555E+01  0.81300092620E+01 -0.22714379161E+02  0.25312274561E+02  0.51100000000E-03 0. -1.
        -11    1    3    3    0    0 -0.13150020777E+02 -0.17222520658E+01 -0.12448037045E+02  0.18189085330E+02  0.51100000000E-03 0.  1.
         12    1    3    3    0    0  0.30966292185E+01 -0.12371426500E+02  0.93283287774E+01  0.15800602012E+02  0.00000000000E+00 0. -1.
</event>
<event>
 7    1  0.6184948E-012  0.5930196E+02  0.7816164E-02  0.1266605E+00
        -11   -1    0    0    0    0  0.00000000000E+00  0.00000000000E+00  0.45593999997E+02  0.45594000000E+02  0.51100000000E-03 0. -1.
         11   -1    0    0    0    0 -0.00000000000E+00 -0.00000000000E+00 -0.45593999997E+02  0.45594000000E+02  0.51100000000E-03 0.  1.
    9900012    2    1    2    0    0  0.19678579533E+02 -0.19725263872E+02 -0.15504423893E+02  0.59301957795E+02  0.50000025108E+02 0.  0.
         12    1    1    2    0    0 -0.19678579533E+02  0.19725263872E+02  0.15504423893E+02  0.31886042205E+02  0.00000000000E+00 0. -1.
         11    1    3    3    0    0  0.14715780952E+02 -0.11390135067E+02  0.84442868883E+01  0.20435150286E+02  0.51100000000E-03 0. -1.
        -11    1    3    3    0    0  0.16362467342E+02 -0.66842065689E+01 -0.19998088545E+02  0.26689557896E+02  0.51100000000E-03 0.  1.
        -12    1    3    3    0    0 -0.11399668761E+02 -0.16509222356E+01 -0.39506222365E+01  0.12177249613E+02  0.00000000000E+00 0.  1.
</event>
<event>
 7    1  0.6184948E-012  0.5930192E+02  0.7816164E-02  0.1266605E+00
        -11   -1    0    0    0    0  0.00000000000E+00  0.00000000000E+00  0.45593999997E+02  0.45594000000E+02  0.51100000000E-03 0. -1.
         11   -1    0    0    0    0 -0.00000000000E+00 -0.00000000000E+00 -0.45593999997E+02  0.45594000000E+02  0.51100000000E-03 0.  1.
    9900012    2    1    2    0    0 -0.29432363944E+02  0.68083237425E+01 -0.10203186201E+02  0.59301916387E+02  0.49999949590E+02 0.  0.
         12    1    1    2    0    0  0.29432363944E+02 -0.68083237425E+01  0.10203186201E+02  0.31886083613E+02  0.00000000000E+00 0. -1.
         11    1    3    3    0    0 -0.43173231586E+01 -0.89080147103E+01  0.56098903675E+01  0.11378175404E+02  0.51100000000E-03 0.  1.
        -11    1    3    3    0    0  0.34907512376E+01 -0.84281290059E+00  0.69279086767E+01  0.78033067787E+01  0.51100000000E-03 0. -1.
        -12    1    3    3    0    0 -0.28605792023E+02  0.16559151353E+02 -0.22740985245E+02  0.40120434204E+02  0.00000000000E+00 0.  1.
</event>
<event>
 7    1  0.6184948E-012  0.5930193E+02  0.7816164E-02  0.1266605E+00
        -11   -1    0    0    0    0  0.00000000000E+00  0.00000000000E+00  0.45593999997E+02  0.45594000000E+02  0.51100000000E-03 0.  1.
         11   -1    0    0    0    0 -0.00000000000E+00 -0.00000000000E+00 -0.45593999997E+02  0.45594000000E+02  0.51100000000E-03 0. -1.
    9900012    2    1    2    0    0 -0.11639553167E+02  0.15210931033E+02  0.25492543464E+02  0.59301931050E+02  0.49999976332E+02 0.  0.
         12    1    1    2    0    0  0.11639553167E+02 -0.15210931033E+02 -0.25492543464E+02  0.31886068950E+02  0.00000000000E+00 0. -1.
         11    1    3    3    0    0 -0.25602157387E+01  0.97556734212E+01 -0.13540083098E+02  0.16883770879E+02  0.51100000000E-03 0. -1.
        -11    1    3    3    0    0 -0.28425354739E+01  0.43879729676E+01  0.34192466888E+01  0.62470443303E+01  0.51100000000E-03 0.  1.
        -12    1    3    3    0    0 -0.62368019547E+01  0.10672846443E+01  0.35613379874E+02  0.36171115841E+02  0.00000000000E+00 0.  1.
</event>
<event>
 7    1  0.6184948E-012  0.5930194E+02  0.7816164E-02  0.1266605E+00
        -11   -1    0    0    0    0  0.00000000000E+00  0.00000000000E+00  0.45593999997E+02  0.45594000000E+02  0.51100000000E-03 0.  1.
         11   -1    0    0    0    0 -0.00000000000E+00 -0.00000000000E+00 -0.45593999997E+02  0.45594000000E+02  0.51100000000E-03 0. -1.
    9900012    2    1    2    0    0  0.27463532764E+02 -0.15793821656E+02 -0.36097441141E+01  0.59301942122E+02  0.49999996525E+02 0.  0.
         12    1    1    2    0    0 -0.27463532764E+02  0.15793821656E+02  0.36097441141E+01  0.31886057878E+02  0.00000000000E+00 0. -1.
         11    1    3    3    0    0  0.16810546821E+02  0.42388478091E+01  0.49969648362E+01  0.18042504621E+02  0.51100000000E-03 0. -1.
        -11    1    3    3    0    0  0.14601304974E+02  0.48808736003E+00 -0.13394965165E+02  0.19820732283E+02  0.51100000000E-03 0.  1.
        -12    1    3    3    0    0 -0.39483190304E+01 -0.20520756825E+02  0.47882562148E+01  0.21438705218E+02  0.00000000000E+00 0.  1.
</event>
<event>
 7    1  0.6184948E-012  0.5930198E+02  0.7816164E-02  0.1266605E+00
        -11   -1    0    0    0    0  0.00000000000E+00  0.00000000000E+00  0.45593999997E+02  0.45594000000E+02  0.51100000000E-03 0.  1.
         11   -1    0    0    0    0 -0.00000000000E+00 -0.00000000000E+00 -0.45593999997E+02  0.45594000000E+02  0.51100000000E-03 0. -1.
    9900012    2    1    2    0    0 -0.64604905242E-01  0.13977142099E+02  0.28659268607E+02  0.59301978735E+02  0.50000063298E+02 0.  0.
         12    1    1    2    0    0  0.64604905242E-01 -0.13977142099E+02 -0.28659268607E+02  0.31886021265E+02  0.00000000000E+00 0. -1.
         11    1    3    3    0    0 -0.49803032678E+00 -0.12402830049E+02  0.10007605218E+02  0.15944603786E+02  0.51100000000E-03 0. -1.
        -11    1    3    3    0    0 -0.25796548171E+01  0.71217229025E+01  0.22277936962E+02  0.23530406534E+02  0.51100000000E-03 0.  1.
         12    1    3    3    0    0  0.30130802387E+01  0.19258249245E+02 -0.36262735740E+01  0.19826968415E+02  0.00000000000E+00 0. -1.
</event>
<event>
 7    1  0.6184948E-012  0.5930194E+02  0.7816164E-02  0.1266605E+00
        -11   -1    0    0    0    0  0.00000000000E+00  0.00000000000E+00  0.45593999997E+02  0.45594000000E+02  0.51100000000E-03 0.  1.
         11   -1    0    0    0    0 -0.00000000000E+00 -0.00000000000E+00 -0.45593999997E+02  0.45594000000E+02  0.51100000000E-03 0. -1.
    9900012    2    1    2    0    0 -0.83991013595E+01 -0.12293334537E+02  0.28196627794E+02  0.59301940403E+02  0.49999993389E+02 0.  0.
         12    1    1    2    0    0  0.83991013595E+01  0.12293334537E+02 -0.28196627794E+02  0.31886059597E+02  0.00000000000E+00 0. -1.
         11    1    3    3    0    0  0.59505661000E+01  0.69553562297E+01 -0.28126103468E+01  0.95758547616E+01  0.51100000000E-03 0. -1.
        -11    1    3    3    0    0 -0.19036007056E+02 -0.21369141598E+00  0.17994557214E+02  0.26195788178E+02  0.51100000000E-03 0.  1.
         12    1    3    3    0    0  0.46863395963E+01 -0.19034999351E+02  0.13014680926E+02  0.23530297463E+02  0.00000000000E+00 0. -1.
</event>
<event>
 7    1  0.6184948E-012  0.5930193E+02  0.7816164E-02  0.1266605E+00
        -11   -1    0    0    0    0  0.00000000000E+00  0.00000000000E+00  0.45593999997E+02  0.45594000000E+02  0.51100000000E-03 0.  1.
         11   -1    0    0    0    0 -0.00000000000E+00 -0.00000000000E+00 -0.45593999997E+02  0.45594000000E+02  0.51100000000E-03 0. -1.
    9900012    2    1    2    0    0 -0.31568124928E+02 -0.44323249534E+01  0.72772639433E+00  0.59301927779E+02  0.49999970366E+02 0.  0.
         12    1    1    2    0    0  0.31568124928E+02  0.44323249534E+01 -0.72772639433E+00  0.31886072221E+02  0.00000000000E+00 0. -1.
         11    1    3    3    0    0 -0.12413125878E+02  0.29787153647E+01 -0.98349301094E+00  0.12803347143E+02  0.51100000000E-03 0. -1.
        -11    1    3    3    0    0  0.98430115299E+01  0.78712843003E+01 -0.40071763020E+01  0.13224955754E+02  0.51100000000E-03 0.  1.
         12    1    3    3    0    0 -0.28998010580E+02 -0.15282324618E+02  0.57183957073E+01  0.33273624882E+02  0.00000000000E+00 0. -1.
</event>
<event>
 7    1  0.6184948E-012  0.5930194E+02  0.7816164E-02  0.1266605E+00
        -11   -1    0    0    0    0  0.00000000000E+00  0.00000000000E+00  0.45593999997E+02  0.45594000000E+02  0.51100000000E-03 0.  1.
         11   -1    0    0    0    0 -0.00000000000E+00 -0.00000000000E+00 -0.45593999997E+02  0.45594000000E+02  0.51100000000E-03 0. -1.
    9900012    2    1    2    0    0 -0.10246626651E+02 -0.18750727470E+02  0.23667228724E+02  0.59301939506E+02  0.49999991754E+02 0.  0.
         12    1    1    2    0    0  0.10246626651E+02  0.18750727470E+02 -0.23667228724E+02  0.31886060494E+02  0.00000000000E+00 0. -1.
         11    1    3    3    0    0  0.10071497876E+02 -0.82799258341E+00  0.20896746522E+01  0.10319272338E+02  0.51100000000E-03 0. -1.
        -11    1    3    3    0    0 -0.17073108648E+02  0.34719527633E+01  0.21066070831E+02  0.27337242644E+02  0.51100000000E-03 0.  1.
        -12    1    3    3    0    0 -0.32450158788E+01 -0.21394687650E+02  0.51148324019E+00  0.21645424523E+02  0.00000000000E+00 0.  1.
</event>
<event>
 7    1  0.6184948E-012  0.5930196E+02  0.7816164E-02  0.1266605E+00
        -11   -1    0    0    0    0  0.00000000000E+00  0.00000000000E+00  0.45593999997E+02  0.45594000000E+02  0.51100000000E-03 0. -1.
         11   -1    0    0    0    0 -0.00000000000E+00 -0.00000000000E+00 -0.45593999997E+02  0.45594000000E+02  0.51100000000E-03 0.  1.
    9900012    2    1    2    0    0  0.28934461470E+02  0.10964641091E+02 -0.77002116067E+01  0.59301958013E+02  0.50000025505E+02 0.  0.
         12    1    1    2    0    0 -0.28934461470E+02 -0.10964641091E+02  0.77002116067E+01  0.31886041987E+02  0.00000000000E+00 0. -1.
         11    1    3    3    0    0  0.17422307074E+01 -0.38357259324E+01  0.19854708261E+01  0.46572798851E+01  0.51100000000E-03 0. -1.
        -11    1    3    3    0    0  0.11325888502E+02 -0.11997543310E+02 -0.15871353241E+02  0.22893594078E+02  0.51100000000E-03 0.  1.
         12    1    3    3    0    0  0.15866342261E+02  0.26797910334E+02  0.61856708083E+01  0.31751084050E+02  0.00000000000E+00 0. -1.
</event>
<event>
 7    1  0.6184948E-012  0.5930196E+02  0.7816164E-02  0.1266605E+00
        -11   -1    0    0    0    0  0.00000000000E+00  0.00000000000E+00  0.45593999997E+02  0.45594000000E+02  0.51100000000E-03 0.  1.
         11   -1    0    0    0    0 -0.00000000000E+00 -0.00000000000E+00 -0.45593999997E+02  0.45594000000E+02  0.51100000000E-03 0. -1.
    9900012    2    1    2    0    0  0.46051293915E+01  0.31170877249E+02  0.48876288953E+01  0.59301957263E+02  0.50000024139E+02 0.  0.
         12    1    1    2    0    0 -0.46051293915E+01 -0.31170877249E+02 -0.48876288953E+01  0.31886042737E+02  0.00000000000E+00 0. -1.
         11    1    3    3    0    0 -0.50626006416E+00  0.34837931640E+01 -0.24929202954E+01  0.43136719767E+01  0.51100000000E-03 0. -1.
        -11    1    3    3    0    0 -0.17726876258E+02  0.16228117119E+02  0.14993306545E+02  0.28326545297E+02  0.51100000000E-03 0.  1.
         12    1    3    3    0    0  0.22838265713E+02  0.11458966966E+02 -0.76127573540E+01  0.26661739989E+02  0.00000000000E+00 0. -1.
</event>
<event>
 7    1  0.6184948E-012  0.5930201E+02  0.7816164E-02  0.1266605E+00
        -11   -1    0    0    0    0  0.00000000000E+00  0.00000000000E+00  0.45593999997E+02  0.45594000000E+02  0.51100000000E-03 0. -1.
         11   -1    0    0    0    0 -0.00000000000E+00 -0.00000000000E+00 -0.45593999997E+02  0.45594000000E+02  0.51100000000E-03 0.  1.
    9900012    2    1    2    0    0 -0.10212873401E+01 -0.31544495855E+02  0.45407330126E+01  0.59302007732E+02  0.50000116182E+02 0.  0.
         12    1    1    2    0    0  0.10212873401E+01  0.31544495855E+02 -0.45407330126E+01  0.31885992268E+02  0.00000000000E+00 0. -1.
         11    1    3    3    0    0  0.15952903572E+02 -0.19905366115E+02  0.60640653031E+01  0.26220061419E+02  0.51100000000E-03 0. -1.
        -11    1    3    3    0    0 -0.11500516816E+02 -0.19706111793E+02 -0.36428864656E+01  0.23105483139E+02  0.51100000000E-03 0.  1.
        -12    1    3    3    0    0 -0.54736740960E+01  0.80669820533E+01  0.21195541750E+01  0.99764631738E+01  0.00000000000E+00 0.  1.
</event>
<event>
 7    1  0.6184948E-012  0.5930193E+02  0.7816164E-02  0.1266605E+00
        -11   -1    0    0    0    0  0.00000000000E+00  0.00000000000E+00  0.45593999997E+02  0.45594000000E+02  0.51100000000E-03 0. -1.
         11   -1    0    0    0    0 -0.00000000000E+00 -0.00000000000E+00 -0.45593999997E+02  0.45594000000E+02  0.51100000000E-03 0.  1.
    9900012    2    1    2    0    0 -0.28015447932E+02 -0.14053215008E+02 -0.58620082306E+01  0.59301932268E+02  0.49999978554E+02 0.  0.
         12    1    1    2    0    0  0.28015447932E+02  0.14053215008E+02  0.58620082306E+01  0.31886067732E+02  0.00000000000E+00 0. -1.
         11    1    3    3    0    0 -0.78082954341E+01 -0.22826121630E+02 -0.12300658162E+02  0.27079650990E+02  0.51100000000E-03 0. -1.
        -11    1    3    3    0    0 -0.78256123047E+01 -0.20956763451E+01 -0.71968876990E+01  0.10836385933E+02  0.51100000000E-03 0.  1.
        -12    1    3    3    0    0 -0.12381540193E+02  0.10868582967E+02  0.13635537630E+02  0.21385895345E+02  0.00000000000E+00 0.  1.
</event>
<event>
 7    1  0.6184948E-012  0.5930198E+02  0.7816164E-02  0.1266605E+00
        -11   -1    0    0    0    0  0.00000000000E+00  0.00000000000E+00  0.45593999997E+02  0.45594000000E+02  0.51100000000E-03 0. -1.
         11   -1    0    0    0    0 -0.00000000000E+00 -0.00000000000E+00 -0.45593999997E+02  0.45594000000E+02  0.51100000000E-03 0.  1.
    9900012    2    1    2    0    0 -0.16034384028E+02 -0.15489752308E+02 -0.22796586687E+02  0.59301980143E+02  0.50000065866E+02 0.  0.
         12    1    1    2    0    0  0.16034384028E+02  0.15489752308E+02  0.22796586687E+02  0.31886019857E+02  0.00000000000E+00 0. -1.
         11    1    3    3    0    0 -0.26687524170E+01 -0.12848284174E+02 -0.20722358289E+02  0.24527877588E+02  0.51100000000E-03 0.  1.
        -11    1    3    3    0    0 -0.21733493102E+02 -0.92610285365E+01 -0.39159915581E+01  0.23946740115E+02  0.51100000000E-03 0. -1.
         12    1    3    3    0    0  0.83678614916E+01  0.66195604029E+01  0.18417631598E+01  0.10827362440E+02  0.00000000000E+00 0. -1.
</event>
<event>
 7    1  0.6184948E-012  0.5930198E+02  0.7816164E-02  0.1266605E+00
        -11   -1    0    0    0    0  0.00000000000E+00  0.00000000000E+00  0.45593999997E+02  0.45594000000E+02  0.51100000000E-03 0. -1.
         11   -1    0    0    0    0 -0.00000000000E+00 -0.00000000000E+00 -0.45593999997E+02  0.45594000000E+02  0.51100000000E-03 0.  1.
    9900012    2    1    2    0    0 -0.30546028590E+02  0.55882722418E+01 -0.72408432897E+01  0.59301977031E+02  0.50000060190E+02 0.  0.
         12    1    1    2    0    0  0.30546028590E+02 -0.55882722418E+01  0.72408432897E+01  0.31886022969E+02  0.00000000000E+00 0. -1.
         11    1    3    3    0    0 -0.17424894676E+02 -0.15005204420E+02  0.95224317823E+00  0.23014992538E+02  0.51100000000E-03 0. -1.
        -11    1    3    3    0    0 -0.13266285850E+02  0.15607080723E+02  0.59170034464E+01  0.21321028094E+02  0.51100000000E-03 0.  1.
        -12    1    3    3    0    0  0.14515193642E+00  0.49863959390E+01 -0.14110089914E+02  0.14965956399E+02  0.00000000000E+00 0.  1.
</event>
<event>
 7    1  0.6184948E-012  0.5930174E+02  0.7816164E-02  0.1266605E+00
        -11   -1    0    0    0    0  0.00000000000E+00  0.00000000000E+00  0.45593999997E+02  0.45594000000E+02  0.51100000000E-03 0.  1.
         11   -1    0    0    0    0 -0.00000000000E+00 -0.00000000000E+00 -0.45593999997E+02  0.45594000000E+02  0.51100000000E-03 0. -1.
    9900012    2    1    2    0    0  0.14104044574E+02  0.77372354439E+01  0.27530796598E+02  0.59301738899E+02  0.49999625893E+02 0.  0.
         12    1    1    2    0    0 -0.14104044574E+02 -0.77372354439E+01 -0.27530796598E+02  0.31886261101E+02  0.00000000000E+00 0. -1.
         11    1    3    3    0    0  0.56411714594E+01 -0.99138758424E+01  0.45776255693E+01  0.12290744720E+02  0.51100000000E-03 0. -1.
        -11    1    3    3    0    0  0.68347367196E+01 -0.43389277850E+01  0.23601364453E+02  0.24951238940E+02  0.51100000000E-03 0.  1.
         12    1    3    3    0    0  0.16281363953E+01  0.21990039071E+02 -0.64819342415E+00  0.22059755239E+02  0.00000000000E+00 0. -1.
</event>
<event>
 7    1  0.6184948E-012  0.5930196E+02  0.7816164E-02  0.1266605E+00
        -11   -1    0    0    0    0  0.00000000000E+00  0.00000000000E+00  0.45593999997E+02  0.45594000000E+02  0.51100000000E-03 0. -1.
         11   -1    0    0    0    0 -0.00000000000E+00 -0.00000000000E+00 -0.45593999997E+02  0.45594000000E+02  0.51100000000E-03 0.  1.
    9900012    2    1    2    0    0 -0.30377181309E+02 -0.61660710603E+01 -0.74783774139E+01  0.59301957515E+02  0.50000024598E+02 0.  0.
         12    1    1    2    0    0  0.30377181309E+02  0.61660710603E+01  0.74783774139E+01  0.31886042485E+02  0.00000000000E+00 0. -1.
         11    1    3    3    0    0 -0.11329090986E+02  0.82688820762E+01  0.95080378819E+01  0.16944777897E+02  0.51100000000E-03 0. -1.
        -11    1    3    3    0    0 -0.10291321872E+02  0.86572631494E+01 -0.23592487072E+01  0.13653774784E+02  0.51100000000E-03 0.  1.
         12    1    3    3    0    0 -0.87567684503E+01 -0.23092216286E+02 -0.14627166589E+02  0.28703404835E+02  0.00000000000E+00 0. -1.
</event>
<event>
 7    1  0.6184948E-012  0.5930194E+02  0.7816164E-02  0.1266605E+00
        -11   -1    0    0    0    0  0.00000000000E+00  0.00000000000E+00  0.45593999997E+02  0.45594000000E+02  0.51100000000E-03 0. -1.
         11   -1    0    0    0    0 -0.00000000000E+00 -0.00000000000E+00 -0.45593999997E+02  0.45594000000E+02  0.51100000000E-03 0.  1.
    9900012    2    1    2    0    0  0.20986321111E+02 -0.23782608033E+02  0.32684064298E+01  0.59301943499E+02  0.49999999035E+02 0.  0.
         12    1    1    2    0    0 -0.20986321111E+02  0.23782608033E+02 -0.32684064298E+01  0.31886056501E+02  0.00000000000E+00 0. -1.
         11    1    3    3    0    0  0.18187450486E+01  0.55327822660E+01  0.20785697779E+01  0.61838471632E+01  0.51100000000E-03 0. -1.
        -11    1    3    3    0    0 -0.73193739827E+01 -0.27923237632E+01 -0.11175188213E+02  0.13647532354E+02  0.51100000000E-03 0.  1.
         12    1    3    3    0    0  0.26486950045E+02 -0.26523066536E+02  0.12365024865E+02  0.39470563982E+02  0.00000000000E+00 0. -1.
</event>
<event>
 7    1  0.6184948E-012  0.5930195E+02  0.7816164E-02  0.1266605E+00
        -11   -1    0    0    0    0  0.00000000000E+00  0.00000000000E+00  0.45593999997E+02  0.45594000000E+02  0.51100000000E-03 0.  1.
         11   -1    0    0    0    0 -0.00000000000E+00 -0.00000000000E+00 -0.45593999997E+02  0.45594000000E+02  0.51100000000E-03 0. -1.
    9900012    2    1    2    0    0 -0.21918822076E+02 -0.13051757254E+02  0.19129482046E+02  0.59301949571E+02  0.50000010110E+02 0.  0.
         12    1    1    2    0    0  0.21918822076E+02  0.13051757254E+02 -0.19129482046E+02  0.31886050429E+02  0.00000000000E+00 0. -1.
         11    1    3    3    0    0 -0.10914139985E+02  0.84368332377E+01  0.21030674972E+00  0.13796479112E+02  0.51100000000E-03 0. -1.
        -11    1    3    3    0    0  0.51962766384E+00  0.97385645540E+00 -0.83043726495E+01  0.83774109764E+01  0.51100000000E-03 0.  1.
        -12    1    3    3    0    0 -0.11524309754E+02 -0.22462446947E+02  0.27223547946E+02  0.37128059482E+02  0.00000000000E+00 0.  1.
</event>
<event>
 7    1  0.6184948E-012  0.5930193E+02  0.7816164E-02  0.1266605E+00
        -11   -1    0    0    0    0  0.00000000000E+00  0.00000000000E+00  0.45593999997E+02  0.45594000000E+02  0.51100000000E-03 0. -1.
         11   -1    0    0    0    0 -0.00000000000E+00 -0.00000000000E+00 -0.45593999997E+02  0.45594000000E+02  0.51100000000E-03 0.  1.
    9900012    2    1    2    0    0 -0.64706717743E+01  0.16662576521E+02 -0.26404736895E+02  0.59301934391E+02  0.49999982425E+02 0.  0.
         12    1    1    2    0    0  0.64706717743E+01 -0.16662576521E+02  0.26404736895E+02  0.31886065609E+02  0.00000000000E+00 0. -1.
         11    1    3    3    0    0 -0.47623329520E+01  0.11062067050E+01 -0.12869763075E+01  0.50556717355E+01  0.51100000000E-03 0. -1.
        -11    1    3    3    0    0 -0.15524006628E+02  0.72632583578E+01 -0.32330136355E+02  0.36592177043E+02  0.51100000000E-03 0.  1.
         12    1    3    3    0    0  0.13815667806E+02  0.82931114584E+01  0.72123757679E+01  0.17654085612E+02  0.00000000000E+00 0. -1.
</event>
<event>
 7    1  0.6184948E-012  0.5930193E+02  0.7816164E-02  0.1266605E+00
        -11   -1    0    0    0    0  0.00000000000E+00  0.00000000000E+00  0.45593999997E+02  0.45594000000E+02  0.51100000000E-03 0.  1.
         11   -1    0    0    0    0 -0.00000000000E+00 -0.00000000000E+00 -0.45593999997E+02  0.45594000000E+02  0.51100000000E-03 0. -1.
    9900012    2    1    2    0    0  0.68699720829E+01  0.11913424164E+02  0.28767951742E+02  0.59301933464E+02  0.49999980734E+02 0.  0.
         12    1    1    2    0    0 -0.68699720829E+01 -0.11913424164E+02 -0.28767951742E+02  0.31886066536E+02  0.00000000000E+00 0. -1.
         11    1    3    3    0    0 -0.50775742758E+01  0.44176727853E+01  0.17882354948E+02  0.19106967632E+02  0.51100000000E-03 0. -1.
        -11    1    3    3    0    0 -0.95419802656E+01 -0.76013234048E+01  0.55181976790E+01  0.13389548565E+02  0.51100000000E-03 0.  1.
         12    1    3    3    0    0  0.21489526624E+02  0.15097074783E+02  0.53673991152E+01  0.26805417266E+02  0.00000000000E+00 0. -1.
</event>
<event>
 7    1  0.6184948E-012  0.5930193E+02  0.7816164E-02  0.1266605E+00
        -11   -1    0    0    0    0  0.00000000000E+00  0.00000000000E+00  0.45593999997E+02  0.45594000000E+02  0.51100000000E-03 0.  1.
         11   -1    0    0    0    0 -0.00000000000E+00 -0.00000000000E+00 -0.45593999997E+02  0.45594000000E+02  0.51100000000E-03 0. -1.
    9900012    2    1    2    0    0  0.98296108680E+00  0.55010704307E+01  0.31392566162E+02  0.59301934100E+02  0.49999981894E+02 0.  0.
         12    1    1    2    0    0 -0.98296108680E+00 -0.55010704307E+01 -0.31392566162E+02  0.31886065900E+02  0.00000000000E+00 0. -1.
         11    1    3    3    0    0 -0.40913414711E+01  0.17309558171E+01 -0.36063955972E+01  0.57220077367E+01  0.51100000000E-03 0. -1.
        -11    1    3    3    0    0 -0.15303328529E+02 -0.71837841028E+01  0.10587497281E+02  0.19947273424E+02  0.51100000000E-03 0.  1.
        -12    1    3    3    0    0  0.20377631087E+02  0.10953898716E+02  0.24411464477E+02  0.33632652939E+02  0.00000000000E+00 0.  1.
</event>
<event>
 7    1  0.6184948E-012  0.5930195E+02  0.7816164E-02  0.1266605E+00
        -11   -1    0    0    0    0  0.00000000000E+00  0.00000000000E+00  0.45593999997E+02  0.45594000000E+02  0.51100000000E-03 0.  1.
         11   -1    0    0    0    0 -0.00000000000E+00 -0.00000000000E+00 -0.45593999997E+02  0.45594000000E+02  0.51100000000E-03 0. -1.
    9900012    2    1    2    0    0 -0.10576081515E+02 -0.27706360035E+02 -0.11714272428E+02  0.59301951873E+02  0.50000014308E+02 0.  0.
         12    1    1    2    0    0  0.10576081515E+02  0.27706360035E+02  0.11714272428E+02  0.31886048127E+02  0.00000000000E+00 0. -1.
         11    1    3    3    0    0  0.19750345775E+01  0.12233237364E+02 -0.12335187276E+01  0.12452888288E+02  0.51100000000E-03 0. -1.
        -11    1    3    3    0    0 -0.85364931022E+01 -0.63253712903E+01  0.19189849871E+01  0.10796505920E+02  0.51100000000E-03 0.  1.
         12    1    3    3    0    0 -0.40146229904E+01 -0.33614226110E+02 -0.12399738687E+02  0.36052557665E+02  0.00000000000E+00 0. -1.
</event>
<event>
 7    1  0.6184948E-012  0.5930196E+02  0.7816164E-02  0.1266605E+00
        -11   -1    0    0    0    0  0.00000000000E+00  0.00000000000E+00  0.45593999997E+02  0.45594000000E+02  0.51100000000E-03 0. -1.
         11   -1    0    0    0    0 -0.00000000000E+00 -0.00000000000E+00 -0.45593999997E+02  0.45594000000E+02  0.51100000000E-03 0.  1.
    9900012    2    1    2    0    0  0.12587148632E+02 -0.14113164459E+02 -0.25672973161E+02  0.59301964300E+02  0.50000036972E+02 0.  0.
         12    1    1    2    0    0 -0.12587148632E+02  0.14113164459E+02  0.25672973161E+02  0.31886035700E+02  0.00000000000E+00 0. -1.
         11    1    3    3    0    0 -0.10232462712E+01  0.58323978219E+01 -0.36198482147E+01  0.69402592634E+01  0.51100000000E-03 0. -1.
        -11    1    3    3    0    0  0.27989714392E+02 -0.16203320617E+02 -0.17753117695E+02  0.36893697279E+02  0.51100000000E-03 0.  1.
         12    1    3    3    0    0 -0.14379319489E+02 -0.37422416644E+01 -0.43000072507E+01  0.15468007758E+02  0.00000000000E+00 0. -1.
</event>
<event>
 7    1  0.6184948E-012  0.5930193E+02  0.7816164E-02  0.1266605E+00
        -11   -1    0    0    0    0  0.00000000000E+00  0.00000000000E+00  0.45593999997E+02  0.45594000000E+02  0.51100000000E-03 0.  1.
         11   -1    0    0    0    0 -0.00000000000E+00 -0.00000000000E+00 -0.45593999997E+02  0.45594000000E+02  0.51100000000E-03 0. -1.
    9900012    2    1    2    0    0  0.26366217777E+02 -0.14254045115E+02  0.10879629254E+02  0.59301928202E+02  0.49999971137E+02 0.  0.
         12    1    1    2    0    0 -0.26366217777E+02  0.14254045115E+02 -0.10879629254E+02  0.31886071798E+02  0.00000000000E+00 0. -1.
         11    1    3    3    0    0 -0.51090063414E+01 -0.37039248602E+01  0.24220328950E+00  0.63150350641E+01  0.51100000000E-03 0. -1.
        -11    1    3    3    0    0  0.58128772770E+01 -0.21709267441E+02  0.10954111848E+02  0.25001487990E+02  0.51100000000E-03 0.  1.
         12    1    3    3    0    0  0.25662346842E+02  0.11159147186E+02 -0.31668588382E+00  0.27985405148E+02  0.00000000000E+00 0. -1.
</event>
<event>
 7    1  0.6184948E-012  0.5930193E+02  0.7816164E-02  0.1266605E+00
        -11   -1    0    0    0    0  0.00000000000E+00  0.00000000000E+00  0.45593999997E+02  0.45594000000E+02  0.51100000000E-03 0. -1.
         11   -1    0    0    0    0 -0.00000000000E+00 -0.00000000000E+00 -0.45593999997E+02  0.45594000000E+02  0.51100000000E-03 0.  1.
    9900012    2    1    2    0    0  0.29010239192E+02  0.13108589795E+01 -0.13168483991E+02  0.59301932512E+02  0.49999978998E+02 0.  0.
         12    1    1    2    0    0 -0.29010239192E+02 -0.13108589795E+01  0.13168483991E+02  0.31886067488E+02  0.00000000000E+00 0. -1.
         11    1    3    3    0    0 -0.53024276337E+01 -0.63132385837E+01 -0.58636982223E+01  0.10117098266E+02  0.51100000000E-03 0. -1.
        -11    1    3    3    0    0  0.29260346291E+02  0.91570039692E+01 -0.19196645036E+02  0.36173605954E+02  0.51100000000E-03 0.  1.
         12    1    3    3    0    0  0.50523205344E+01 -0.15329064060E+01  0.11891859267E+02  0.13011228292E+02  0.00000000000E+00 0. -1.
</event>
<event>
 7    1  0.6184948E-012  0.5930213E+02  0.7816164E-02  0.1266604E+00
        -11   -1    0    0    0    0  0.00000000000E+00  0.00000000000E+00  0.45593999997E+02  0.45594000000E+02  0.51100000000E-03 0. -1.
         11   -1    0    0    0    0 -0.00000000000E+00 -0.00000000000E+00 -0.45593999997E+02  0.45594000000E+02  0.51100000000E-03 0.  1.
    9900012    2    1    2    0    0  0.12067024484E+02 -0.24461894238E+02 -0.16513965598E+02  0.59302134646E+02  0.50000347640E+02 0.  0.
         12    1    1    2    0    0 -0.12067024484E+02  0.24461894238E+02  0.16513965598E+02  0.31885865354E+02  0.00000000000E+00 0. -1.
         11    1    3    3    0    0  0.17964117207E+02 -0.41398783863E+01  0.61808276677E+01  0.19443526712E+02  0.51100000000E-03 0. -1.
        -11    1    3    3    0    0 -0.21001157275E+01 -0.14780360586E+02  0.12579228094E+01  0.14981719367E+02  0.51100000000E-03 0.  1.
        -12    1    3    3    0    0 -0.37969769950E+01 -0.55416552654E+01 -0.23952716076E+02  0.24876888567E+02  0.00000000000E+00 0.  1.
</event>
<event>
 7    1  0.6184948E-012  0.5930188E+02  0.7816164E-02  0.1266605E+00
        -11   -1    0    0    0    0  0.00000000000E+00  0.00000000000E+00  0.45593999997E+02  0.45594000000E+02  0.51100000000E-03 0.  1.
         11   -1    0    0    0    0 -0.00000000000E+00 -0.00000000000E+00 -0.45593999997E+02  0.45594000000E+02  0.51100000000E-03 0. -1.
    9900012    2    1    2    0    0  0.28690791627E+02  0.11475656412E+02  0.78659234798E+01  0.59301875017E+02  0.49999874140E+02 0.  0.
         12    1    1    2    0    0 -0.28690791627E+02 -0.11475656412E+02 -0.78659234798E+01  0.31886124983E+02  0.00000000000E+00 0. -1.
         11    1    3    3    0    0  0.12964409294E+02 -0.10615040153E+02 -0.12669355964E+02  0.21006369667E+02  0.51100000000E-03 0. -1.
        -11    1    3    3    0    0  0.41805270074E+01  0.30843333621E+01  0.14277584766E+02  0.15193398085E+02  0.51100000000E-03 0.  1.
        -12    1    3    3    0    0  0.11545855325E+02  0.19006363203E+02  0.62576946775E+01  0.23102107265E+02  0.00000000000E+00 0.  1.
</event>
<event>
 7    1  0.6184948E-012  0.5930197E+02  0.7816164E-02  0.1266605E+00
        -11   -1    0    0    0    0  0.00000000000E+00  0.00000000000E+00  0.45593999997E+02  0.45594000000E+02  0.51100000000E-03 0.  1.
         11   -1    0    0    0    0 -0.00000000000E+00 -0.00000000000E+00 -0.45593999997E+02  0.45594000000E+02  0.51100000000E-03 0. -1.
    9900012    2    1    2    0    0 -0.26636697548E+02 -0.39816468298E+00  0.17522756524E+02  0.59301965634E+02  0.50000039405E+02 0.  0.
         12    1    1    2    0    0  0.26636697548E+02  0.39816468298E+00 -0.17522756524E+02  0.31886034366E+02  0.00000000000E+00 0. -1.
         11    1    3    3    0    0  0.42449820928E+01 -0.25854906994E+01  0.15127925891E+02  0.15923529042E+02  0.51100000000E-03 0. -1.
        -11    1    3    3    0    0 -0.66532293282E+01  0.29460771334E+01  0.14544985660E+02  0.16263500210E+02  0.51100000000E-03 0.  1.
         12    1    3    3    0    0 -0.24228450313E+02 -0.75875111704E+00 -0.12150155028E+02  0.27114936382E+02  0.00000000000E+00 0. -1.
</event>
<event>
 7    1  0.6184948E-012  0.5930195E+02  0.7816164E-02  0.1266605E+00
        -11   -1    0    0    0    0  0.00000000000E+00  0.00000000000E+00  0.45593999997E+02  0.45594000000E+02  0.51100000000E-03 0. -1.
         11   -1    0    0    0    0 -0.00000000000E+00 -0.00000000000E+00 -0.45593999997E+02  0.45594000000E+02  0.51100000000E-03 0.  1.
    9900012    2    1    2    0    0 -0.17295124426E+02 -0.54794875772E+01 -0.26221632334E+02  0.59301951087E+02  0.50000012874E+02 0.  0.
         12    1    1    2    0    0  0.17295124426E+02  0.54794875772E+01  0.26221632334E+02  0.31886048913E+02  0.00000000000E+00 0. -1.
         11    1    3    3    0    0 -0.73933996544E+01  0.77591787804E+01  0.31305835569E+01  0.11165472111E+02  0.51100000000E-03 0. -1.
        -11    1    3    3    0    0  0.56152866623E+01 -0.47146021998E+01 -0.29534889645E+02  0.30431375664E+02  0.51100000000E-03 0.  1.
         12    1    3    3    0    0 -0.15517011434E+02 -0.85240641578E+01  0.18267375347E+00  0.17705103312E+02  0.00000000000E+00 0. -1.
</event>
<event>
 7    1  0.6184948E-012  0.5930201E+02  0.7816164E-02  0.1266605E+00
        -11   -1    0    0    0    0  0.00000000000E+00  0.00000000000E+00  0.45593999997E+02  0.45594000000E+02  0.51100000000E-03 0.  1.
         11   -1    0    0    0    0 -0.00000000000E+00 -0.00000000000E+00 -0.45593999997E+02  0.45594000000E+02  0.51100000000E-03 0. -1.
    9900012    2    1    2    0    0  0.20925334280E+02 -0.20877953751E+02 -0.11956505010E+02  0.59302006530E+02  0.50000113989E+02 0.  0.
         12    1    1    2    0    0 -0.20925334280E+02  0.20877953751E+02  0.11956505010E+02  0.31885993470E+02  0.00000000000E+00 0. -1.
         11    1    3    3    0    0 -0.51791420711E+01  0.41672124129E+01 -0.34450112498E+00  0.66564144382E+01  0.51100000000E-03 0. -1.
        -11    1    3    3    0    0 -0.91876952180E+01 -0.68207956334E+01 -0.74989828310E+00  0.11467316346E+02  0.51100000000E-03 0.  1.
        -12    1    3    3    0    0  0.35292171569E+02 -0.18224370530E+02 -0.10862105602E+02  0.41178275745E+02  0.00000000000E+00 0.  1.
</event>
<event>
 7    1  0.6184948E-012  0.5930196E+02  0.7816164E-02  0.1266605E+00
        -11   -1    0    0    0    0  0.00000000000E+00  0.00000000000E+00  0.45593999997E+02  0.45594000000E+02  0.51100000000E-03 0. -1.
         11   -1    0    0    0    0 -0.00000000000E+00 -0.00000000000E+00 -0.45593999997E+02  0.45594000000E+02  0.51100000000E-03 0.  1.
    9900012    2    1    2    0    0 -0.27641313458E+02  0.15365594010E+02 -0.40713200223E+01  0.59301963311E+02  0.50000035168E+02 0.  0.
         12    1    1    2    0    0  0.27641313458E+02 -0.15365594010E+02  0.40713200223E+01  0.31886036689E+02  0.00000000000E+00 0. -1.
         11    1    3    3    0    0 -0.31682960779E+01 -0.10848748183E+01 -0.33483143782E+01  0.47356375331E+01  0.51100000000E-03 0. -1.
        -11    1    3    3    0    0 -0.61783613652E+01  0.22949744417E+02 -0.17008272913E+02  0.29225746623E+02  0.51100000000E-03 0.  1.
         12    1    3    3    0    0 -0.18294656015E+02 -0.64992755880E+01  0.16285267269E+02  0.25340579155E+02  0.00000000000E+00 0. -1.
</event>
<event>
 7    1  0.6184948E-012  0.5930195E+02  0.7816164E-02  0.1266605E+00
        -11   -1    0    0    0    0  0.00000000000E+00  0.00000000000E+00  0.45593999997E+02  0.45594000000E+02  0.51100000000E-03 0. -1.
         11   -1    0    0    0    0 -0.00000000000E+00 -0.00000000000E+00 -0.45593999997E+02  0.45594000000E+02  0.51100000000E-03 0.  1.
    9900012    2    1    2    0    0  0.27549423537E+02  0.59372848846E+01 -0.14916365965E+02  0.59301951913E+02  0.50000014381E+02 0.  0.
         12    1    1    2    0    0 -0.27549423537E+02 -0.59372848846E+01  0.14916365965E+02  0.31886048087E+02  0.00000000000E+00 0. -1.
         11    1    3    3    0    0 -0.55434854015E-01  0.39283713218E+01 -0.11800597679E+02  0.12437414527E+02  0.51100000000E-03 0. -1.
        -11    1    3    3    0    0  0.81422455155E+01  0.17053113394E+02 -0.99185238195E+01  0.21342023181E+02  0.51100000000E-03 0.  1.
         12    1    3    3    0    0  0.19462612875E+02 -0.15044199831E+02  0.68027555337E+01  0.25522514205E+02  0.00000000000E+00 0. -1.
</event>
<event>
 7    1  0.6184948E-012  0.5930194E+02  0.7816164E-02  0.1266605E+00
        -11   -1    0    0    0    0  0.00000000000E+00  0.00000000000E+00  0.45593999997E+02  0.45594000000E+02  0.51100000000E-03 0. -1.
         11   -1    0    0    0    0 -0.00000000000E+00 -0.00000000000E+00 -0.45593999997E+02  0.45594000000E+02  0.51100000000E-03 0.  1.
    9900012    2    1    2    0    0  0.18884689274E+02 -0.25645496783E+02  0.15485615053E+01  0.59301936635E+02  0.49999986517E+02 0.  0.
         12    1    1    2    0    0 -0.18884689274E+02  0.25645496783E+02 -0.15485615053E+01  0.31886063365E+02  0.00000000000E+00 0. -1.
         11    1    3    3    0    0  0.14668903819E+02 -0.16122985769E+02 -0.12515348948E+01  0.21833317412E+02  0.51100000000E-03 0. -1.
        -11    1    3    3    0    0  0.15399585185E+02  0.56057070282E+01  0.75820445389E+01  0.18057092092E+02  0.51100000000E-03 0.  1.
        -12    1    3    3    0    0 -0.11183799731E+02 -0.15128218042E+02 -0.47819481388E+01  0.19411527131E+02  0.00000000000E+00 0.  1.
</event>
<event>
 7    1  0.6184948E-012  0.5930195E+02  0.7816164E-02  0.1266605E+00
        -11   -1    0    0    0    0  0.00000000000E+00  0.00000000000E+00  0.45593999997E+02  0.45594000000E+02  0.51100000000E-03 0. -1.
         11   -1    0    0    0    0 -0.00000000000E+00 -0.00000000000E+00 -0.45593999997E+02  0.45594000000E+02  0.51100000000E-03 0.  1.
    9900012    2    1    2    0    0  0.22583281346E-01 -0.31054490233E+02  0.72345335525E+01  0.59301947416E+02  0.50000006180E+02 0.  0.
         12    1    1    2    0    0 -0.22583281346E-01  0.31054490233E+02 -0.72345335525E+01  0.31886052584E+02  0.00000000000E+00 0. -1.
         11    1    3    3    0    0  0.52379027217E+01 -0.19654314702E+02  0.12786553160E+02  0.24025479252E+02  0.51100000000E-03 0. -1.
        -11    1    3    3    0    0  0.12792180801E+02  0.72510362914E+00 -0.43610094998E+01  0.13534550936E+02  0.51100000000E-03 0.  1.
         12    1    3    3    0    0 -0.18007500242E+02 -0.12125279161E+02 -0.11910101081E+01  0.21741917228E+02  0.00000000000E+00 0. -1.
</event>
<event>
 7    1  0.6184948E-012  0.5930193E+02  0.7816164E-02  0.1266605E+00
        -11   -1    0    0    0    0  0.00000000000E+00  0.00000000000E+00  0.45593999997E+02  0.45594000000E+02  0.51100000000E-03 0. -1.
         11   -1    0    0    0    0 -0.00000000000E+00 -0.00000000000E+00 -0.45593999997E+02  0.45594000000E+02  0.51100000000E-03 0.  1.
    9900012    2    1    2    0    0  0.10623928802E+02  0.29553328436E+02 -0.55185280793E+01  0.59301933498E+02  0.49999980796E+02 0.  0.
         12    1    1    2    0    0 -0.10623928802E+02 -0.29553328436E+02  0.55185280793E+01  0.31886066502E+02  0.00000000000E+00 0. -1.
         11    1    3    3    0    0 -0.95228477697E+01  0.64580022528E+01  0.23896060226E+01  0.11751622864E+02  0.51100000000E-03 0. -1.
        -11    1    3    3    0    0 -0.68636114903E+01 -0.24291774945E+01 -0.74042424817E+01  0.10384260830E+02  0.51100000000E-03 0.  1.
         12    1    3    3    0    0  0.27010388062E+02  0.25524503678E+02 -0.50389162017E+00  0.37166049804E+02  0.00000000000E+00 0. -1.
</event>
<event>
 7    1  0.6184948E-012  0.5930194E+02  0.7816164E-02  0.1266605E+00
        -11   -1    0    0    0    0  0.00000000000E+00  0.00000000000E+00  0.45593999997E+02  0.45594000000E+02  0.51100000000E-03 0.  1.
         11   -1    0    0    0    0 -0.00000000000E+00 -0.00000000000E+00 -0.45593999997E+02  0.45594000000E+02  0.51100000000E-03 0. -1.
    9900012    2    1    2    0    0 -0.54941628283E+01  0.31120651165E+02  0.42473617373E+01  0.59301939788E+02  0.49999992268E+02 0.  0.
         12    1    1    2    0    0  0.54941628283E+01 -0.31120651165E+02 -0.42473617373E+01  0.31886060212E+02  0.00000000000E+00 0. -1.
         11    1    3    3    0    0  0.45520289506E+01  0.18261337367E+01  0.28603114870E+01  0.56777736883E+01  0.51100000000E-03 0. -1.
        -11    1    3    3    0    0 -0.45033313644E+01 -0.10911480744E+02  0.51195376663E+01  0.12866626270E+02  0.51100000000E-03 0.  1.
        -12    1    3    3    0    0 -0.55428604145E+01  0.40205998172E+02 -0.37324874160E+01  0.40757539829E+02  0.00000000000E+00 0.  1.
</event>
<event>
 7    1  0.6184948E-012  0.5930194E+02  0.7816164E-02  0.1266605E+00
        -11   -1    0    0    0    0  0.00000000000E+00  0.00000000000E+00  0.45593999997E+02  0.45594000000E+02  0.51100000000E-03 0.  1.
         11   -1    0    0    0    0 -0.00000000000E+00 -0.00000000000E+00 -0.45593999997E+02  0.45594000000E+02  0.51100000000E-03 0. -1.
    9900012    2    1    2    0    0 -0.28728877857E+02  0.38546803943E+00  0.13828368541E+02  0.59301940584E+02  0.49999993720E+02 0.  0.
         12    1    1    2    0    0  0.28728877857E+02 -0.38546803943E+00 -0.13828368541E+02  0.31886059416E+02  0.00000000000E+00 0. -1.
         11    1    3    3    0    0 -0.81846422345E+01 -0.69619926905E+01 -0.60594688815E+01  0.12335918049E+02  0.51100000000E-03 0. -1.
        -11    1    3    3    0    0 -0.10469669994E+02 -0.68607808968E+00 -0.99530670084E+01  0.14461958237E+02  0.51100000000E-03 0.  1.
        -12    1    3    3    0    0 -0.10074565629E+02  0.80335388196E+01  0.29840904431E+02  0.32504064298E+02  0.00000000000E+00 0.  1.
</event>
<event>
 7    1  0.6184948E-012  0.5930194E+02  0.7816164E-02  0.1266605E+00
        -11   -1    0    0    0    0  0.00000000000E+00  0.00000000000E+00  0.45593999997E+02  0.45594000000E+02  0.51100000000E-03 0.  1.
         11   -1    0    0    0    0 -0.00000000000E+00 -0.00000000000E+00 -0.45593999997E+02  0.45594000000E+02  0.51100000000E-03 0. -1.
    9900012    2    1    2    0    0 -0.72749888573E+01 -0.12372761707E+02  0.28472970377E+02  0.59301941334E+02  0.49999995088E+02 0.  0.
         12    1    1    2    0    0  0.72749888573E+01  0.12372761707E+02 -0.28472970377E+02  0.31886058666E+02  0.00000000000E+00 0. -1.
         11    1    3    3    0    0  0.10526961352E+02 -0.43103576994E+01  0.51597611582E+01  0.12490765960E+02  0.51100000000E-03 0. -1.
        -11    1    3    3    0    0 -0.16337157498E+02 -0.28796706174E+01  0.32313256207E+02  0.36322744182E+02  0.51100000000E-03 0.  1.
         12    1    3    3    0    0 -0.14647927104E+01 -0.51827333904E+01 -0.90000469879E+01  0.10488431192E+02  0.00000000000E+00 0. -1.
</event>
<event>
 7    1  0.6184948E-012  0.5930194E+02  0.7816164E-02  0.1266605E+00
        -11   -1    0    0    0    0  0.00000000000E+00  0.00000000000E+00  0.45593999997E+02  0.45594000000E+02  0.51100000000E-03 0.  1.
         11   -1    0    0    0    0 -0.00000000000E+00 -0.00000000000E+00 -0.45593999997E+02  0.45594000000E+02  0.51100000000E-03 0. -1.
    9900012    2    1    2    0    0 -0.25439005123E+02 -0.56085859498E+01  0.18388081441E+02  0.59301941023E+02  0.49999994520E+02 0.  0.
         12    1    1    2    0    0  0.25439005123E+02  0.56085859498E+01 -0.18388081441E+02  0.31886058977E+02  0.00000000000E+00 0. -1.
         11    1    3    3    0    0 -0.15906981140E+02 -0.14374609944E+02  0.15272159284E+01  0.21494042170E+02  0.51100000000E-03 0.  1.
        -11    1    3    3    0    0 -0.14746838898E+02  0.14847069340E+02  0.21230232562E+01  0.21033591074E+02  0.51100000000E-03 0. -1.
         12    1    3    3    0    0  0.52148149149E+01 -0.60810453457E+01  0.14737842257E+02  0.16774307779E+02  0.00000000000E+00 0. -1.
</event>
<event>
 7    1  0.6184948E-012  0.5930194E+02  0.7816164E-02  0.1266605E+00
        -11   -1    0    0    0    0  0.00000000000E+00  0.00000000000E+00  0.45593999997E+02  0.45594000000E+02  0.51100000000E-03 0. -1.
         11   -1    0    0    0    0 -0.00000000000E+00 -0.00000000000E+00 -0.45593999997E+02  0.45594000000E+02  0.51100000000E-03 0.  1.
    9900012    2    1    2    0    0 -0.12366283467E+02  0.25960857908E+02 -0.13777870396E+02  0.59301939994E+02  0.49999992643E+02 0.  0.
         12    1    1    2    0    0  0.12366283467E+02 -0.25960857908E+02  0.13777870396E+02  0.31886060006E+02  0.00000000000E+00 0. -1.
         11    1    3    3    0    0 -0.19900992710E+02  0.15017024863E+02 -0.12191137612E+02  0.27752196006E+02  0.51100000000E-03 0. -1.
        -11    1    3    3    0    0 -0.39470813745E+01  0.17549324387E+02 -0.29706105294E+01  0.18231367612E+02  0.51100000000E-03 0.  1.
         12    1    3    3    0    0  0.11481790618E+02 -0.66054913431E+01  0.13838777461E+01  0.13318376376E+02  0.00000000000E+00 0. -1.
</event>
<event>
 7    1  0.6184948E-012  0.5930188E+02  0.7816164E-02  0.1266605E+00
        -11   -1    0    0    0    0  0.00000000000E+00  0.00000000000E+00  0.45593999997E+02  0.45594000000E+02  0.51100000000E-03 0. -1.
         11   -1    0    0    0    0 -0.00000000000E+00 -0.00000000000E+00 -0.45593999997E+02  0.45594000000E+02  0.51100000000E-03 0.  1.
    9900012    2    1    2    0    0 -0.16939311331E+02 -0.21863078664E+02  0.15867900836E+02  0.59301878348E+02  0.49999880216E+02 0.  0.
         12    1    1    2    0    0  0.16939311331E+02  0.21863078664E+02 -0.15867900836E+02  0.31886121652E+02  0.00000000000E+00 0. -1.
         11    1    3    3    0    0 -0.40136254294E+01  0.32016634040E+01 -0.51913442888E+01  0.73013624363E+01  0.51100000000E-03 0. -1.
        -11    1    3    3    0    0  0.13406761090E+02 -0.10954140547E+02  0.10838588528E+02  0.20425705363E+02  0.51100000000E-03 0.  1.
         12    1    3    3    0    0 -0.26332446992E+02 -0.14110601521E+02  0.10220656597E+02  0.31574810548E+02  0.00000000000E+00 0. -1.
</event>
<event>
 7    1  0.6184948E-012  0.5930187E+02  0.7816164E-02  0.1266605E+00
        -11   -1    0    0    0    0  0.00000000000E+00  0.00000000000E+00  0.45593999997E+02  0.45594000000E+02  0.51100000000E-03 0. -1.
         11   -1    0    0    0    0 -0.00000000000E+00 -0.00000000000E+00 -0.45593999997E+02  0.45594000000E+02  0.51100000000E-03 0.  1.
    9900012    2    1    2    0    0  0.18156784535E+02  0.17831043420E+02 -0.19212248524E+02  0.59301867788E+02  0.49999860956E+02 0.  0.
         12    1    1    2    0    0 -0.18156784535E+02 -0.17831043420E+02  0.19212248524E+02  0.31886132212E+02  0.00000000000E+00 0. -1.
         11    1    3    3    0    0  0.48348362130E+01  0.12801355159E+02  0.13949736516E+02  0.19540867029E+02  0.51100000000E-03 0. -1.
        -11    1    3    3    0    0 -0.22590931709E+01  0.46893574108E+01 -0.35568890763E+01  0.63043663475E+01  0.51100000000E-03 0.  1.
        -12    1    3    3    0    0  0.15581041493E+02  0.34033084958E+00 -0.29605095964E+02  0.33456634411E+02  0.00000000000E+00 0.  1.
</event>
<event>
 7    1  0.6184948E-012  0.5930196E+02  0.7816164E-02  0.1266605E+00
        -11   -1    0    0    0    0  0.00000000000E+00  0.00000000000E+00  0.45593999997E+02  0.45594000000E+02  0.51100000000E-03 0.  1.
         11   -1    0    0    0    0 -0.00000000000E+00 -0.00000000000E+00 -0.45593999997E+02  0.45594000000E+02  0.51100000000E-03 0. -1.
    9900012    2    1    2    0    0 -0.29396850168E+02  0.80909157052E+01 -0.93317511779E+01  0.59301963922E+02  0.50000036282E+02 0.  0.
         12    1    1    2    0    0  0.29396850168E+02 -0.80909157052E+01  0.93317511779E+01  0.31886036078E+02  0.00000000000E+00 0. -1.
         11    1    3    3    0    0 -0.14930843129E+02 -0.19250430488E+02 -0.93243273170E+00  0.24379880672E+02  0.51100000000E-03 0. -1.
        -11    1    3    3    0    0 -0.58255446364E+01  0.67830932109E+00 -0.12527186989E+01  0.59971975326E+01  0.51100000000E-03 0.  1.
        -12    1    3    3    0    0 -0.86404624029E+01  0.26663036872E+02 -0.71465997473E+01  0.28924885717E+02  0.00000000000E+00 0.  1.
</event>
<event>
 7    1  0.6184948E-012  0.5930193E+02  0.7816164E-02  0.1266605E+00
        -11   -1    0    0    0    0  0.00000000000E+00  0.00000000000E+00  0.45593999997E+02  0.45594000000E+02  0.51100000000E-03 0.  1.
         11   -1    0    0    0    0 -0.00000000000E+00 -0.00000000000E+00 -0.45593999997E+02  0.45594000000E+02  0.51100000000E-03 0. -1.
    9900012    2    1    2    0    0  0.83342423852E+01  0.30613450380E+02 -0.31746641563E+01  0.59301930427E+02  0.49999975195E+02 0.  0.
         12    1    1    2    0    0 -0.83342423852E+01 -0.30613450380E+02  0.31746641563E+01  0.31886069573E+02  0.00000000000E+00 0. -1.
         11    1    3    3    0    0  0.12757775301E+02  0.64315518674E+01  0.17403283117E+02  0.22516659467E+02  0.51100000000E-03 0. -1.
        -11    1    3    3    0    0  0.82985531671E+00  0.43324835816E+01 -0.14816787866E+02  0.15459504415E+02  0.51100000000E-03 0.  1.
        -12    1    3    3    0    0 -0.52533882324E+01  0.19849414931E+02 -0.57611594068E+01  0.21325766545E+02  0.00000000000E+00 0.  1.
</event>
<event>
 7    1  0.6184948E-012  0.5930190E+02  0.7816164E-02  0.1266605E+00
        -11   -1    0    0    0    0  0.00000000000E+00  0.00000000000E+00  0.45593999997E+02  0.45594000000E+02  0.51100000000E-03 0.  1.
         11   -1    0    0    0    0 -0.00000000000E+00 -0.00000000000E+00 -0.45593999997E+02  0.45594000000E+02  0.51100000000E-03 0. -1.
    9900012    2    1    2    0    0 -0.25540238755E+02  0.16791673775E+02  0.90807030670E+01  0.59301901587E+02  0.49999922598E+02 0.  0.
         12    1    1    2    0    0  0.25540238755E+02 -0.16791673775E+02 -0.90807030670E+01  0.31886098413E+02  0.00000000000E+00 0. -1.
         11    1    3    3    0    0 -0.48683084750E+01 -0.10642403110E+02 -0.50011662260E+01  0.12726854884E+02  0.51100000000E-03 0. -1.
        -11    1    3    3    0    0 -0.10663389741E+02  0.39070127209E+01  0.17415543477E+02  0.20791194868E+02  0.51100000000E-03 0.  1.
         12    1    3    3    0    0 -0.10008540539E+02  0.23527064164E+02 -0.33336741837E+01  0.25783851835E+02  0.00000000000E+00 0. -1.
</event>
<event>
 7    1  0.6184948E-012  0.5930194E+02  0.7816164E-02  0.1266605E+00
        -11   -1    0    0    0    0  0.00000000000E+00  0.00000000000E+00  0.45593999997E+02  0.45594000000E+02  0.51100000000E-03 0. -1.
         11   -1    0    0    0    0 -0.00000000000E+00 -0.00000000000E+00 -0.45593999997E+02  0.45594000000E+02  0.51100000000E-03 0.  1.
    9900012    2    1    2    0    0  0.14657875141E+02  0.80749246758E+01 -0.27141533778E+02  0.59301943988E+02  0.49999999927E+02 0.  0.
         12    1    1    2    0    0 -0.14657875141E+02 -0.80749246758E+01  0.27141533778E+02  0.31886056012E+02  0.00000000000E+00 0. -1.
         11    1    3    3    0    0 -0.12763737187E+02 -0.22792562280E+01 -0.75917984370E+01  0.15024759556E+02  0.51100000000E-03 0. -1.
        -11    1    3    3    0    0 -0.13965360049E+01 -0.58565739722E+01 -0.32449523614E+00  0.60295164752E+01  0.51100000000E-03 0.  1.
        -12    1    3    3    0    0  0.28818148333E+02  0.16210754876E+02 -0.19225240105E+02  0.38247667957E+02  0.00000000000E+00 0.  1.
</event>
<event>
 7    1  0.6184948E-012  0.5930199E+02  0.7816164E-02  0.1266605E+00
        -11   -1    0    0    0    0  0.00000000000E+00  0.00000000000E+00  0.45593999997E+02  0.45594000000E+02  0.51100000000E-03 0.  1.
         11   -1    0    0    0    0 -0.00000000000E+00 -0.00000000000E+00 -0.45593999997E+02  0.45594000000E+02  0.51100000000E-03 0. -1.
    9900012    2    1    2    0    0  0.13389915224E+02 -0.99421519132E+01  0.27176849453E+02  0.59301994283E+02  0.50000091653E+02 0.  0.
         12    1    1    2    0    0 -0.13389915224E+02  0.99421519132E+01 -0.27176849453E+02  0.31886005717E+02  0.00000000000E+00 0. -1.
         11    1    3    3    0    0 -0.12752907947E+02 -0.49367184216E+01  0.18805636018E+01  0.13803780989E+02  0.51100000000E-03 0. -1.
        -11    1    3    3    0    0  0.86001749763E+01  0.86411833519E+01  0.18684307603E+02  0.22310006952E+02  0.51100000000E-03 0.  1.
        -12    1    3    3    0    0  0.17542648195E+02 -0.13646616844E+02  0.66119782484E+01  0.23188206341E+02  0.00000000000E+00 0.  1.
</event>
<event>
 7    1  0.6184948E-012  0.5930194E+02  0.7816164E-02  0.1266605E+00
        -11   -1    0    0    0    0  0.00000000000E+00  0.00000000000E+00  0.45593999997E+02  0.45594000000E+02  0.51100000000E-03 0.  1.
         11   -1    0    0    0    0 -0.00000000000E+00 -0.00000000000E+00 -0.45593999997E+02  0.45594000000E+02  0.51100000000E-03 0. -1.
    9900012    2    1    2    0    0 -0.45302960864E+01 -0.50773490171E+01  0.31151524215E+02  0.59301944794E+02  0.50000001398E+02 0.  0.
         12    1    1    2    0    0  0.45302960864E+01  0.50773490171E+01 -0.31151524215E+02  0.31886055206E+02  0.00000000000E+00 0. -1.
         11    1    3    3    0    0  0.80741201331E+01 -0.15659517642E+02 -0.34666751137E+01  0.17956328837E+02  0.51100000000E-03 0. -1.
        -11    1    3    3    0    0  0.13017401862E+01  0.52905302934E+01  0.25953263524E+01  0.60348949812E+01  0.51100000000E-03 0.  1.
        -12    1    3    3    0    0 -0.13906156406E+02  0.52916383316E+01  0.32022872976E+02  0.35310720976E+02  0.00000000000E+00 0.  1.
</event>
<event>
 7    1  0.6184948E-012  0.5930197E+02  0.7816164E-02  0.1266605E+00
        -11   -1    0    0    0    0  0.00000000000E+00  0.00000000000E+00  0.45593999997E+02  0.45594000000E+02  0.51100000000E-03 0. -1.
         11   -1    0    0    0    0 -0.00000000000E+00 -0.00000000000E+00 -0.45593999997E+02  0.45594000000E+02  0.51100000000E-03 0.  1.
    9900012    2    1    2    0    0 -0.44041637837E+01 -0.16761190051E+02 -0.26765364960E+02  0.59301969956E+02  0.50000047286E+02 0.  0.
         12    1    1    2    0    0  0.44041637837E+01  0.16761190051E+02  0.26765364960E+02  0.31886030044E+02  0.00000000000E+00 0. -1.
         11    1    3    3    0    0  0.74811480393E+01 -0.13434902439E+02 -0.13417633138E+02  0.20408259573E+02  0.51100000000E-03 0. -1.
        -11    1    3    3    0    0  0.95345395027E+01 -0.66728622700E+00 -0.14400575346E+02  0.17283786767E+02  0.51100000000E-03 0.  1.
         12    1    3    3    0    0 -0.21419851326E+02 -0.26590013852E+01  0.10528435241E+01  0.21609923615E+02  0.00000000000E+00 0. -1.
</event>
<event>
 7    1  0.6184948E-012  0.5930184E+02  0.7816164E-02  0.1266605E+00
        -11   -1    0    0    0    0  0.00000000000E+00  0.00000000000E+00  0.45593999997E+02  0.45594000000E+02  0.51100000000E-03 0.  1.
         11   -1    0    0    0    0 -0.00000000000E+00 -0.00000000000E+00 -0.45593999997E+02  0.45594000000E+02  0.51100000000E-03 0. -1.
    9900012    2    1    2    0    0  0.44479260096E+01  0.28165010206E+02  0.14271494475E+02  0.59301836853E+02  0.49999804538E+02 0.  0.
         12    1    1    2    0    0 -0.44479260096E+01 -0.28165010206E+02 -0.14271494475E+02  0.31886163147E+02  0.00000000000E+00 0. -1.
         11    1    3    3    0    0  0.19419505177E+02  0.21997674068E+02 -0.65042136378E+00  0.29350262246E+02  0.51100000000E-03 0. -1.
        -11    1    3    3    0    0  0.31822888752E+01 -0.10018870244E+00  0.94648288106E+01  0.99859894321E+01  0.51100000000E-03 0.  1.
         12    1    3    3    0    0 -0.18153868042E+02  0.62675248406E+01  0.54570870285E+01  0.19965585175E+02  0.00000000000E+00 0. -1.
</event>
<event>
 7    1  0.6184948E-012  0.5930179E+02  0.7816164E-02  0.1266605E+00
        -11   -1    0    0    0    0  0.00000000000E+00  0.00000000000E+00  0.45593999997E+02  0.45594000000E+02  0.51100000000E-03 0. -1.
         11   -1    0    0    0    0 -0.00000000000E+00 -0.00000000000E+00 -0.45593999997E+02  0.45594000000E+02  0.51100000000E-03 0.  1.
    9900012    2    1    2    0    0 -0.97502936715E+01 -0.29829736985E+02 -0.56434654052E+01  0.59301793938E+02  0.49999726272E+02 0.  0.
         12    1    1    2    0    0  0.97502936715E+01  0.29829736985E+02  0.56434654052E+01  0.31886206062E+02  0.00000000000E+00 0. -1.
         11    1    3    3    0    0 -0.15290973519E+02  0.79754358068E+01 -0.30679032078E+01  0.17516662862E+02  0.51100000000E-03 0. -1.
        -11    1    3    3    0    0  0.50031759384E-01  0.44133505440E+00  0.27460782371E+01  0.27817666604E+01  0.51100000000E-03 0.  1.
        -12    1    3    3    0    0  0.54906480882E+01 -0.38246507846E+02 -0.53216404345E+01  0.39003364416E+02  0.00000000000E+00 0.  1.
</event>
<event>
 7    1  0.6184948E-012  0.5930193E+02  0.7816164E-02  0.1266605E+00
        -11   -1    0    0    0    0  0.00000000000E+00  0.00000000000E+00  0.45593999997E+02  0.45594000000E+02  0.51100000000E-03 0. -1.
         11   -1    0    0    0    0 -0.00000000000E+00 -0.00000000000E+00 -0.45593999997E+02  0.45594000000E+02  0.51100000000E-03 0.  1.
    9900012    2    1    2    0    0  0.74814089064E+01 -0.16474989732E+02 -0.26254999764E+02  0.59301925006E+02  0.49999965310E+02 0.  0.
         12    1    1    2    0    0 -0.74814089064E+01  0.16474989732E+02  0.26254999764E+02  0.31886074994E+02  0.00000000000E+00 0. -1.
         11    1    3    3    0    0  0.13407267413E+02  0.53354440952E+01 -0.15997224277E+02  0.21543745450E+02  0.51100000000E-03 0. -1.
        -11    1    3    3    0    0  0.10016175000E+02 -0.44846927019E+01  0.20914334840E+01  0.11171854123E+02  0.51100000000E-03 0.  1.
         12    1    3    3    0    0 -0.15942033507E+02 -0.17325741126E+02 -0.12349208971E+02  0.26586325434E+02  0.00000000000E+00 0. -1.
</event>
<event>
 7    1  0.6184948E-012  0.5930194E+02  0.7816164E-02  0.1266605E+00
        -11   -1    0    0    0    0  0.00000000000E+00  0.00000000000E+00  0.45593999997E+02  0.45594000000E+02  0.51100000000E-03 0. -1.
         11   -1    0    0    0    0 -0.00000000000E+00 -0.00000000000E+00 -0.45593999997E+02  0.45594000000E+02  0.51100000000E-03 0.  1.
    9900012    2    1    2    0    0 -0.18229765119E+02  0.26160253551E+02  0.19352832563E+00  0.59301942618E+02  0.49999997429E+02 0.  0.
         12    1    1    2    0    0  0.18229765119E+02 -0.26160253551E+02 -0.19352832563E+00  0.31886057382E+02  0.00000000000E+00 0. -1.
         11    1    3    3    0    0  0.77468522008E+01  0.11177996102E+02 -0.10623552916E+02  0.17257496710E+02  0.51100000000E-03 0. -1.
        -11    1    3    3    0    0 -0.17989854795E+02  0.18874974765E+02 -0.23276654607E+01  0.26178570906E+02  0.51100000000E-03 0.  1.
         12    1    3    3    0    0 -0.79867625247E+01 -0.38927173154E+01  0.13144746702E+02  0.15865875002E+02  0.00000000000E+00 0. -1.
</event>
<event>
 7    1  0.6184948E-012  0.5930195E+02  0.7816164E-02  0.1266605E+00
        -11   -1    0    0    0    0  0.00000000000E+00  0.00000000000E+00  0.45593999997E+02  0.45594000000E+02  0.51100000000E-03 0. -1.
         11   -1    0    0    0    0 -0.00000000000E+00 -0.00000000000E+00 -0.45593999997E+02  0.45594000000E+02  0.51100000000E-03 0.  1.
    9900012    2    1    2    0    0  0.16078263926E+01  0.71610759660E+01 -0.31029891826E+02  0.59301948168E+02  0.50000007551E+02 0.  0.
         12    1    1    2    0    0 -0.16078263926E+01 -0.71610759660E+01  0.31029891826E+02  0.31886051832E+02  0.00000000000E+00 0. -1.
         11    1    3    3    0    0  0.11569772182E+02  0.22692944582E+02 -0.80863447253E+01  0.26724863581E+02  0.51100000000E-03 0. -1.
        -11    1    3    3    0    0 -0.18757038618E+01 -0.89651020074E+01 -0.19603900374E+02  0.21638027385E+02  0.51100000000E-03 0.  1.
        -12    1    3    3    0    0 -0.80862419271E+01 -0.65667666090E+01 -0.33396467264E+01  0.10939057202E+02  0.00000000000E+00 0.  1.
</event>
<event>
 7    1  0.6184948E-012  0.5930197E+02  0.7816164E-02  0.1266605E+00
        -11   -1    0    0    0    0  0.00000000000E+00  0.00000000000E+00  0.45593999997E+02  0.45594000000E+02  0.51100000000E-03 0.  1.
         11   -1    0    0    0    0 -0.00000000000E+00 -0.00000000000E+00 -0.45593999997E+02  0.45594000000E+02  0.51100000000E-03 0. -1.
    9900012    2    1    2    0    0 -0.23411964841E+02  0.14479933992E+02  0.16091311623E+02  0.59301970208E+02  0.50000047747E+02 0.  0.
         12    1    1    2    0    0  0.23411964841E+02 -0.14479933992E+02 -0.16091311623E+02  0.31886029792E+02  0.00000000000E+00 0. -1.
         11    1    3    3    0    0 -0.70544090560E+01 -0.14074389130E+02 -0.27646120860E+01  0.15984248395E+02  0.51100000000E-03 0. -1.
        -11    1    3    3    0    0  0.28406137434E+01 -0.15889544299E+01  0.17844075483E+01  0.37118692298E+01  0.51100000000E-03 0.  1.
        -12    1    3    3    0    0 -0.19198169528E+02  0.30143277552E+02  0.17071516161E+02  0.39605852583E+02  0.00000000000E+00 0.  1.
</event>
<event>
 7    1  0.6184948E-012  0.5930194E+02  0.7816164E-02  0.1266605E+00
        -11   -1    0    0    0    0  0.00000000000E+00  0.00000000000E+00  0.45593999997E+02  0.45594000000E+02  0.51100000000E-03 0.  1.
         11   -1    0    0    0    0 -0.00000000000E+00 -0.00000000000E+00 -0.45593999997E+02  0.45594000000E+02  0.51100000000E-03 0. -1.
    9900012    2    1    2    0    0  0.72357624197E+01 -0.30888643127E+02 -0.32025605597E+01  0.59301938372E+02  0.49999989684E+02 0.  0.
         12    1    1    2    0    0 -0.72357624197E+01  0.30888643127E+02  0.32025605597E+01  0.31886061628E+02  0.00000000000E+00 0. -1.
         11    1    3    3    0    0  0.19874906364E+01  0.38096514892E+01 -0.95458524080E+01  0.10468374370E+02  0.51100000000E-03 0. -1.
        -11    1    3    3    0    0 -0.74593618144E+01 -0.34067363676E+02  0.61407648885E+00  0.34879857177E+02  0.51100000000E-03 0.  1.
         12    1    3    3    0    0  0.12707633598E+02 -0.63093094067E+00  0.57292153595E+01  0.13953706824E+02  0.00000000000E+00 0. -1.
</event>
<event>
 7    1  0.6184948E-012  0.5930210E+02  0.7816164E-02  0.1266604E+00
        -11   -1    0    0    0    0  0.00000000000E+00  0.00000000000E+00  0.45593999997E+02  0.45594000000E+02  0.51100000000E-03 0.  1.
         11   -1    0    0    0    0 -0.00000000000E+00 -0.00000000000E+00 -0.45593999997E+02  0.45594000000E+02  0.51100000000E-03 0. -1.
    9900012    2    1    2    0    0 -0.13562839810E+02 -0.24683557399E+02  0.14949315823E+02  0.59302099148E+02  0.50000282901E+02 0.  0.
         12    1    1    2    0    0  0.13562839810E+02  0.24683557399E+02 -0.14949315823E+02  0.31885900852E+02  0.00000000000E+00 0. -1.
         11    1    3    3    0    0 -0.31824928953E+01 -0.52527280415E+01 -0.92560816494E+01  0.11108305932E+02  0.51100000000E-03 0. -1.
        -11    1    3    3    0    0 -0.10937054629E+02  0.27371082411E+01 -0.43108064593E+01  0.12070376053E+02  0.51100000000E-03 0.  1.
        -12    1    3    3    0    0  0.55670771389E+00 -0.22167937598E+02  0.28516203932E+02  0.36123417163E+02  0.00000000000E+00 0.  1.
</event>
<event>
 7    1  0.6184948E-012  0.5930198E+02  0.7816164E-02  0.1266605E+00
        -11   -1    0    0    0    0  0.00000000000E+00  0.00000000000E+00  0.45593999997E+02  0.45594000000E+02  0.51100000000E-03 0.  1.
         11   -1    0    0    0    0 -0.00000000000E+00 -0.00000000000E+00 -0.45593999997E+02  0.45594000000E+02  0.51100000000E-03 0. -1.
    9900012    2    1    2    0    0  0.78548008998E+01  0.17524655595E+02  0.25454009867E+02  0.59301983171E+02  0.50000071388E+02 0.  0.
         12    1    1    2    0    0 -0.78548008998E+01 -0.17524655595E+02 -0.25454009867E+02  0.31886016829E+02  0.00000000000E+00 0. -1.
         11    1    3    3    0    0 -0.86798555700E+01  0.71046291827E+00  0.13852601259E+01  0.88183669776E+01  0.51100000000E-03 0. -1.
        -11    1    3    3    0    0 -0.12254437219E+02  0.55480656701E+01  0.68110701018E+01  0.15077895756E+02  0.51100000000E-03 0.  1.
        -12    1    3    3    0    0  0.28789093689E+02  0.11266127007E+02  0.17257679640E+02  0.35405720437E+02  0.00000000000E+00 0.  1.
</event>
<event>
 7    1  0.6184948E-012  0.5930197E+02  0.7816164E-02  0.1266605E+00
        -11   -1    0    0    0    0  0.00000000000E+00  0.00000000000E+00  0.45593999997E+02  0.45594000000E+02  0.51100000000E-03 0.  1.
         11   -1    0    0    0    0 -0.00000000000E+00 -0.00000000000E+00 -0.45593999997E+02  0.45594000000E+02  0.51100000000E-03 0. -1.
    9900012    2    1    2    0    0 -0.25036340321E+02 -0.98063654891E+01  0.17138727867E+02  0.59301966480E+02  0.50000040947E+02 0.  0.
         12    1    1    2    0    0  0.25036340321E+02  0.98063654891E+01 -0.17138727867E+02  0.31886033520E+02  0.00000000000E+00 0. -1.
         11    1    3    3    0    0 -0.14733413143E+02 -0.85898516770E+01 -0.11991186888E+01  0.17096692679E+02  0.51100000000E-03 0. -1.
        -11    1    3    3    0    0 -0.13503444153E+02 -0.70540710435E+01  0.27167173168E+02  0.31147362978E+02  0.51100000000E-03 0.  1.
         12    1    3    3    0    0  0.32005169748E+01  0.58375572314E+01 -0.88293266125E+01  0.11057910823E+02  0.00000000000E+00 0. -1.
</event>
<event>
 7    1  0.6184948E-012  0.5930195E+02  0.7816164E-02  0.1266605E+00
        -11   -1    0    0    0    0  0.00000000000E+00  0.00000000000E+00  0.45593999997E+02  0.45594000000E+02  0.51100000000E-03 0. -1.
         11   -1    0    0    0    0 -0.00000000000E+00 -0.00000000000E+00 -0.45593999997E+02  0.45594000000E+02  0.51100000000E-03 0.  1.
    9900012    2    1    2    0    0 -0.12860885617E+02 -0.78962689591E+01 -0.28088556790E+02  0.59301945605E+02  0.50000002877E+02 0.  0.
         12    1    1    2    0    0  0.12860885617E+02  0.78962689591E+01  0.28088556790E+02  0.31886054395E+02  0.00000000000E+00 0. -1.
         11    1    3    3    0    0 -0.11527716525E+02 -0.23873729818E+02 -0.12651727845E+02  0.29375320278E+02  0.51100000000E-03 0. -1.
        -11    1    3    3    0    0 -0.69217584947E+01  0.21256757398E+01 -0.12875609685E+02  0.14771951903E+02  0.51100000000E-03 0.  1.
         12    1    3    3    0    0  0.55885894024E+01  0.13851785119E+02 -0.25612192608E+01  0.15154673425E+02  0.00000000000E+00 0. -1.
</event>
<event>
 7    1  0.6184948E-012  0.5930197E+02  0.7816164E-02  0.1266605E+00
        -11   -1    0    0    0    0  0.00000000000E+00  0.00000000000E+00  0.45593999997E+02  0.45594000000E+02  0.51100000000E-03 0.  1.
         11   -1    0    0    0    0 -0.00000000000E+00 -0.00000000000E+00 -0.45593999997E+02  0.45594000000E+02  0.51100000000E-03 0. -1.
    9900012    2    1    2    0    0 -0.11395626171E+02 -0.29734393459E+02 -0.16506376584E+01  0.59301967714E+02  0.50000043199E+02 0.  0.
         12    1    1    2    0    0  0.11395626171E+02  0.29734393459E+02  0.16506376584E+01  0.31886032286E+02  0.00000000000E+00 0. -1.
         11    1    3    3    0    0  0.35653222112E+01 -0.28379981835E+02  0.97605468472E+01  0.30222560554E+02  0.51100000000E-03 0. -1.
        -11    1    3    3    0    0  0.32913098756E+01 -0.40592277405E+01 -0.90863011802E+01  0.10481933025E+02  0.51100000000E-03 0.  1.
        -12    1    3    3    0    0 -0.18252258258E+02  0.27048161157E+01 -0.23248833254E+01  0.18597474136E+02  0.00000000000E+00 0.  1.
</event>
<event>
 7    1  0.6184948E-012  0.5930195E+02  0.7816164E-02  0.1266605E+00
        -11   -1    0    0    0    0  0.00000000000E+00  0.00000000000E+00  0.45593999997E+02  0.45594000000E+02  0.51100000000E-03 0. -1.
         11   -1    0    0    0    0 -0.00000000000E+00 -0.00000000000E+00 -0.45593999997E+02  0.45594000000E+02  0.51100000000E-03 0.  1.
    9900012    2    1    2    0    0 -0.43542865493E+01  0.15083572464E+02 -0.27753308154E+02  0.59301951591E+02  0.50000013794E+02 0.  0.
         12    1    1    2    0    0  0.43542865493E+01 -0.15083572464E+02  0.27753308154E+02  0.31886048409E+02  0.00000000000E+00 0. -1.
         11    1    3    3    0    0 -0.17986311593E+01  0.87177714718E+01  0.10012439916E+02  0.13397147712E+02  0.51100000000E-03 0. -1.
        -11    1    3    3    0    0 -0.11156975118E+02  0.23167887732E+01 -0.62710967605E+01  0.13006623653E+02  0.51100000000E-03 0.  1.
        -12    1    3    3    0    0  0.86013197283E+01  0.40490122186E+01 -0.31494651310E+02  0.32898180226E+02  0.00000000000E+00 0.  1.
</event>
<event>
 7    1  0.6184948E-012  0.5930194E+02  0.7816164E-02  0.1266605E+00
        -11   -1    0    0    0    0  0.00000000000E+00  0.00000000000E+00  0.45593999997E+02  0.45594000000E+02  0.51100000000E-03 0.  1.
         11   -1    0    0    0    0 -0.00000000000E+00 -0.00000000000E+00 -0.45593999997E+02  0.45594000000E+02  0.51100000000E-03 0. -1.
    9900012    2    1    2    0    0  0.39077980466E-01 -0.27726797197E+02 -0.15746242998E+02  0.59301937552E+02  0.49999988189E+02 0.  0.
         12    1    1    2    0    0 -0.39077980466E-01  0.27726797197E+02  0.15746242998E+02  0.31886062448E+02  0.00000000000E+00 0. -1.
         11    1    3    3    0    0 -0.90243677821E+01  0.22205142861E+01  0.36727568182E+01  0.99929495380E+01  0.51100000000E-03 0. -1.
        -11    1    3    3    0    0 -0.11765370273E+02 -0.91118452858E+01 -0.18211142617E+01  0.14992201959E+02  0.51100000000E-03 0.  1.
         12    1    3    3    0    0  0.20828816036E+02 -0.20835466198E+02 -0.17597885555E+02  0.34316786054E+02  0.00000000000E+00 0. -1.
</event>
<event>
 7    1  0.6184948E-012  0.5930195E+02  0.7816164E-02  0.1266605E+00
        -11   -1    0    0    0    0  0.00000000000E+00  0.00000000000E+00  0.45593999997E+02  0.45594000000E+02  0.51100000000E-03 0. -1.
         11   -1    0    0    0    0 -0.00000000000E+00 -0.00000000000E+00 -0.45593999997E+02  0.45594000000E+02  0.51100000000E-03 0.  1.
    9900012    2    1    2    0    0  0.19424014855E+02  0.21874786884E+02 -0.12685478004E+02  0.59301952792E+02  0.50000015985E+02 0.  0.
         12    1    1    2    0    0 -0.19424014855E+02 -0.21874786884E+02  0.12685478004E+02  0.31886047208E+02  0.00000000000E+00 0. -1.
         11    1    3    3    0    0 -0.37341814688E+01  0.14939154951E+02  0.11026675600E+02  0.18939641943E+02  0.51100000000E-03 0.  1.
        -11    1    3    3    0    0  0.78860902176E+01 -0.23746890726E+01  0.25198250117E+01  0.86127281080E+01  0.51100000000E-03 0. -1.
        -12    1    3    3    0    0  0.15272106107E+02  0.93103210057E+01 -0.26231978615E+02  0.31749582741E+02  0.00000000000E+00 0.  1.
</event>
<event>
 7    1  0.6184948E-012  0.5930195E+02  0.7816164E-02  0.1266605E+00
        -11   -1    0    0    0    0  0.00000000000E+00  0.00000000000E+00  0.45593999997E+02  0.45594000000E+02  0.51100000000E-03 0. -1.
         11   -1    0    0    0    0 -0.00000000000E+00 -0.00000000000E+00 -0.45593999997E+02  0.45594000000E+02  0.51100000000E-03 0.  1.
    9900012    2    1    2    0    0 -0.27515970052E+02 -0.10239730963E+02 -0.12439437779E+02  0.59301948028E+02  0.50000007295E+02 0.  0.
         12    1    1    2    0    0  0.27515970052E+02  0.10239730963E+02  0.12439437779E+02  0.31886051972E+02  0.00000000000E+00 0. -1.
         11    1    3    3    0    0  0.52811232163E+01  0.96920865572E+01  0.75846817057E+01  0.13392318735E+02  0.51100000000E-03 0. -1.
        -11    1    3    3    0    0 -0.13254290973E+01 -0.60118252415E+01 -0.12428191190E+00  0.61574549353E+01  0.51100000000E-03 0.  1.
        -12    1    3    3    0    0 -0.31471664171E+02 -0.13919992279E+02 -0.19899837573E+02  0.39752174358E+02  0.00000000000E+00 0.  1.
</event>
<event>
 7    1  0.6184948E-012  0.5930193E+02  0.7816164E-02  0.1266605E+00
        -11   -1    0    0    0    0  0.00000000000E+00  0.00000000000E+00  0.45593999997E+02  0.45594000000E+02  0.51100000000E-03 0.  1.
         11   -1    0    0    0    0 -0.00000000000E+00 -0.00000000000E+00 -0.45593999997E+02  0.45594000000E+02  0.51100000000E-03 0. -1.
    9900012    2    1    2    0    0  0.11367903214E+01 -0.12827651208E+02  0.29169858020E+02  0.59301928673E+02  0.49999971997E+02 0.  0.
         12    1    1    2    0    0 -0.11367903214E+01  0.12827651208E+02 -0.29169858020E+02  0.31886071327E+02  0.00000000000E+00 0. -1.
         11    1    3    3    0    0  0.29988049754E+01 -0.74303480736E+01  0.21897055626E+02  0.23317031310E+02  0.51100000000E-03 0. -1.
        -11    1    3    3    0    0 -0.81969777472E+01 -0.12499320001E+02  0.16821824857E+02  0.22503271683E+02  0.51100000000E-03 0.  1.
         12    1    3    3    0    0  0.63349630933E+01  0.71020168665E+01 -0.95490224631E+01  0.13481625680E+02  0.00000000000E+00 0. -1.
</event>
<event>
 7    1  0.6184948E-012  0.5930196E+02  0.7816164E-02  0.1266605E+00
        -11   -1    0    0    0    0  0.00000000000E+00  0.00000000000E+00  0.45593999997E+02  0.45594000000E+02  0.51100000000E-03 0. -1.
         11   -1    0    0    0    0 -0.00000000000E+00 -0.00000000000E+00 -0.45593999997E+02  0.45594000000E+02  0.51100000000E-03 0.  1.
    9900012    2    1    2    0    0  0.15305045985E+01  0.19092204170E+02 -0.25492450009E+02  0.59301957413E+02  0.50000024411E+02 0.  0.
         12    1    1    2    0    0 -0.15305045985E+01 -0.19092204170E+02  0.25492450009E+02  0.31886042587E+02  0.00000000000E+00 0. -1.
         11    1    3    3    0    0 -0.11082875393E+02 -0.93411694473E+01 -0.24529809857E+01  0.14700499638E+02  0.51100000000E-03 0. -1.
        -11    1    3    3    0    0 -0.61425322952E+01  0.68787219609E+01 -0.85025220033E+01  0.12543540150E+02  0.51100000000E-03 0.  1.
        -12    1    3    3    0    0  0.18755912287E+02  0.21554651657E+02 -0.14536947020E+02  0.32057917625E+02  0.00000000000E+00 0.  1.
</event>
<event>
 7    1  0.6184948E-012  0.5930193E+02  0.7816164E-02  0.1266605E+00
        -11   -1    0    0    0    0  0.00000000000E+00  0.00000000000E+00  0.45593999997E+02  0.45594000000E+02  0.51100000000E-03 0.  1.
         11   -1    0    0    0    0 -0.00000000000E+00 -0.00000000000E+00 -0.45593999997E+02  0.45594000000E+02  0.51100000000E-03 0. -1.
    9900012    2    1    2    0    0  0.96203798789E+01 -0.15919993640E+02  0.25898327389E+02  0.59301933010E+02  0.49999979907E+02 0.  0.
         12    1    1    2    0    0 -0.96203798789E+01  0.15919993640E+02 -0.25898327389E+02  0.31886066990E+02  0.00000000000E+00 0. -1.
         11    1    3    3    0    0 -0.11233142134E+02  0.13721833525E+01 -0.52632701384E+01  0.12480720418E+02  0.51100000000E-03 0. -1.
        -11    1    3    3    0    0  0.20981516169E+01  0.35184971587E+01 -0.95135444027E+00  0.42056079222E+01  0.51100000000E-03 0.  1.
        -12    1    3    3    0    0  0.18755370396E+02 -0.20810674151E+02  0.32112951968E+02  0.42615604670E+02  0.00000000000E+00 0.  1.
</event>
<event>
 7    1  0.6184948E-012  0.5930195E+02  0.7816164E-02  0.1266605E+00
        -11   -1    0    0    0    0  0.00000000000E+00  0.00000000000E+00  0.45593999997E+02  0.45594000000E+02  0.51100000000E-03 0.  1.
         11   -1    0    0    0    0 -0.00000000000E+00 -0.00000000000E+00 -0.45593999997E+02  0.45594000000E+02  0.51100000000E-03 0. -1.
    9900012    2    1    2    0    0 -0.33942781340E+01  0.11846659768E+02  0.29408424417E+02  0.59301954488E+02  0.50000019076E+02 0.  0.
         12    1    1    2    0    0  0.33942781340E+01 -0.11846659768E+02 -0.29408424417E+02  0.31886045512E+02  0.00000000000E+00 0. -1.
         11    1    3    3    0    0 -0.13235384337E+02 -0.61098677170E+01  0.18527398783E+01  0.14694846967E+02  0.51100000000E-03 0. -1.
        -11    1    3    3    0    0 -0.81824239550E+01  0.77085260895E+01  0.19209273481E+02  0.22256900597E+02  0.51100000000E-03 0.  1.
         12    1    3    3    0    0  0.18023530158E+02  0.10248001395E+02  0.83464110584E+01  0.22350206924E+02  0.00000000000E+00 0. -1.
</event>
<event>
 7    1  0.6184948E-012  0.5930197E+02  0.7816164E-02  0.1266605E+00
        -11   -1    0    0    0    0  0.00000000000E+00  0.00000000000E+00  0.45593999997E+02  0.45594000000E+02  0.51100000000E-03 0.  1.
         11   -1    0    0    0    0 -0.00000000000E+00 -0.00000000000E+00 -0.45593999997E+02  0.45594000000E+02  0.51100000000E-03 0. -1.
    9900012    2    1    2    0    0 -0.16574108751E+02 -0.26647605625E+02 -0.56500242212E+01  0.59301972650E+02  0.50000052201E+02 0.  0.
         12    1    1    2    0    0  0.16574108751E+02  0.26647605625E+02  0.56500242212E+01  0.31886027350E+02  0.00000000000E+00 0. -1.
         11    1    3    3    0    0  0.10538060154E+02 -0.39848199381E+01 -0.15810307827E+02  0.19413792406E+02  0.51100000000E-03 0. -1.
        -11    1    3    3    0    0 -0.27068100696E+01 -0.10782661258E+02  0.68399774934E+00  0.11138243028E+02  0.51100000000E-03 0.  1.
        -12    1    3    3    0    0 -0.24405358836E+02 -0.11880124429E+02  0.94762858561E+01  0.28749937217E+02  0.00000000000E+00 0.  1.
</event>
<event>
 7    1  0.6184948E-012  0.5930194E+02  0.7816164E-02  0.1266605E+00
        -11   -1    0    0    0    0  0.00000000000E+00  0.00000000000E+00  0.45593999997E+02  0.45594000000E+02  0.51100000000E-03 0. -1.
         11   -1    0    0    0    0 -0.00000000000E+00 -0.00000000000E+00 -0.45593999997E+02  0.45594000000E+02  0.51100000000E-03 0.  1.
    9900012    2    1    2    0    0 -0.25854396397E+02  0.18636304294E+02  0.97944585996E+00  0.59301937763E+02  0.49999988575E+02 0.  0.
         12    1    1    2    0    0  0.25854396397E+02 -0.18636304294E+02 -0.97944585996E+00  0.31886062237E+02  0.00000000000E+00 0. -1.
         11    1    3    3    0    0 -0.61896288462E+01 -0.80508224856E+01 -0.57412083583E+01  0.11665707078E+02  0.51100000000E-03 0. -1.
        -11    1    3    3    0    0 -0.16682540323E+02  0.65219977852E+01 -0.10663241825E+02  0.20845822920E+02  0.51100000000E-03 0.  1.
         12    1    3    3    0    0 -0.29822272273E+01  0.20165128994E+02  0.17383896043E+02  0.26790407765E+02  0.00000000000E+00 0. -1.
</event>
<event>
 7    1  0.6184948E-012  0.5930194E+02  0.7816164E-02  0.1266605E+00
        -11   -1    0    0    0    0  0.00000000000E+00  0.00000000000E+00  0.45593999997E+02  0.45594000000E+02  0.51100000000E-03 0.  1.
         11   -1    0    0    0    0 -0.00000000000E+00 -0.00000000000E+00 -0.45593999997E+02  0.45594000000E+02  0.51100000000E-03 0. -1.
    9900012    2    1    2    0    0 -0.14772274030E+02  0.25318517892E+02  0.12548840052E+02  0.59301940116E+02  0.49999992865E+02 0.  0.
         12    1    1    2    0    0  0.14772274030E+02 -0.25318517892E+02 -0.12548840052E+02  0.31886059884E+02  0.00000000000E+00 0. -1.
         11    1    3    3    0    0 -0.12848470888E+02 -0.16319155582E+01  0.18764042071E+02  0.22799904115E+02  0.51100000000E-03 0.  1.
        -11    1    3    3    0    0  0.42169503347E+01  0.27752790759E+02 -0.93151595668E+01  0.29576549208E+02  0.51100000000E-03 0. -1.
         12    1    3    3    0    0 -0.61407534766E+01 -0.80235730865E+00  0.30999575476E+01  0.69254867921E+01  0.00000000000E+00 0. -1.
</event>
<event>
 7    1  0.6184948E-012  0.5930194E+02  0.7816164E-02  0.1266605E+00
        -11   -1    0    0    0    0  0.00000000000E+00  0.00000000000E+00  0.45593999997E+02  0.45594000000E+02  0.51100000000E-03 0.  1.
         11   -1    0    0    0    0 -0.00000000000E+00 -0.00000000000E+00 -0.45593999997E+02  0.45594000000E+02  0.51100000000E-03 0. -1.
    9900012    2    1    2    0    0 -0.24168020293E+02 -0.18995881609E+02  0.84725472379E+01  0.59301940669E+02  0.49999993874E+02 0.  0.
         12    1    1    2    0    0  0.24168020293E+02  0.18995881609E+02 -0.84725472379E+01  0.31886059331E+02  0.00000000000E+00 0. -1.
         11    1    3    3    0    0 -0.80260665359E+01 -0.69092212744E+01 -0.55741603402E+01  0.11967721020E+02  0.51100000000E-03 0. -1.
        -11    1    3    3    0    0 -0.80188125856E+01  0.12756343682E+02  0.14889800272E+02  0.21183290863E+02  0.51100000000E-03 0.  1.
         12    1    3    3    0    0 -0.81231411714E+01 -0.24843004016E+02 -0.84309269346E+00  0.26150928785E+02  0.00000000000E+00 0. -1.
</event>
<event>
 7    1  0.6184948E-012  0.5930195E+02  0.7816164E-02  0.1266605E+00
        -11   -1    0    0    0    0  0.00000000000E+00  0.00000000000E+00  0.45593999997E+02  0.45594000000E+02  0.51100000000E-03 0.  1.
         11   -1    0    0    0    0 -0.00000000000E+00 -0.00000000000E+00 -0.45593999997E+02  0.45594000000E+02  0.51100000000E-03 0. -1.
    9900012    2    1    2    0    0 -0.20066111580E+02  0.10903908036E+02  0.22252547017E+02  0.59301954570E+02  0.50000019226E+02 0.  0.
         12    1    1    2    0    0  0.20066111580E+02 -0.10903908036E+02 -0.22252547017E+02  0.31886045430E+02  0.00000000000E+00 0. -1.
         11    1    3    3    0    0  0.76488671142E+01 -0.16103003101E+01  0.27291411633E+00  0.78212989711E+01  0.51100000000E-03 0. -1.
        -11    1    3    3    0    0 -0.76090650721E+01  0.11147141470E+02 -0.77508631599E+01  0.15563820682E+02  0.51100000000E-03 0.  1.
        -12    1    3    3    0    0 -0.20105913622E+02  0.13670668762E+01  0.29730496061E+02  0.35916834917E+02  0.00000000000E+00 0.  1.
</event>
<event>
 7    1  0.6184948E-012  0.5930197E+02  0.7816164E-02  0.1266605E+00
        -11   -1    0    0    0    0  0.00000000000E+00  0.00000000000E+00  0.45593999997E+02  0.45594000000E+02  0.51100000000E-03 0.  1.
         11   -1    0    0    0    0 -0.00000000000E+00 -0.00000000000E+00 -0.45593999997E+02  0.45594000000E+02  0.51100000000E-03 0. -1.
    9900012    2    1    2    0    0 -0.28527183179E+02  0.83907752069E+01 -0.11511463001E+02  0.59301967492E+02  0.50000042793E+02 0.  0.
         12    1    1    2    0    0  0.28527183179E+02 -0.83907752069E+01  0.11511463001E+02  0.31886032508E+02  0.00000000000E+00 0. -1.
         11    1    3    3    0    0 -0.91562097943E+01  0.23329390152E+02 -0.16675412550E+02  0.30102591361E+02  0.51100000000E-03 0. -1.
        -11    1    3    3    0    0 -0.11968583029E+02 -0.13807325705E+00  0.38858545966E+00  0.11975685486E+02  0.51100000000E-03 0.  1.
        -12    1    3    3    0    0 -0.74023903559E+01 -0.14800541688E+02  0.47753640897E+01  0.17223690645E+02  0.00000000000E+00 0.  1.
</event>
<event>
 7    1  0.6184948E-012  0.5930197E+02  0.7816164E-02  0.1266605E+00
        -11   -1    0    0    0    0  0.00000000000E+00  0.00000000000E+00  0.45593999997E+02  0.45594000000E+02  0.51100000000E-03 0.  1.
         11   -1    0    0    0    0 -0.00000000000E+00 -0.00000000000E+00 -0.45593999997E+02  0.45594000000E+02  0.51100000000E-03 0. -1.
    9900012    2    1    2    0    0 -0.26042342928E+02 -0.33049399868E+01 -0.18099528286E+02  0.59301965790E+02  0.50000039689E+02 0.  0.
         12    1    1    2    0    0  0.26042342928E+02  0.33049399868E+01  0.18099528286E+02  0.31886034210E+02  0.00000000000E+00 0. -1.
         11    1    3    3    0    0 -0.79421215079E+01  0.86386624839E+01 -0.14485595776E+01  0.11823794174E+02  0.51100000000E-03 0. -1.
        -11    1    3    3    0    0 -0.47209672087E+01 -0.16497653553E+02  0.81006399975E+01  0.18975786487E+02  0.51100000000E-03 0.  1.
         12    1    3    3    0    0 -0.13379254211E+02  0.45540510828E+01 -0.24751608706E+02  0.28502385129E+02  0.00000000000E+00 0. -1.
</event>
<event>
 7    1  0.6184948E-012  0.5930194E+02  0.7816164E-02  0.1266605E+00
        -11   -1    0    0    0    0  0.00000000000E+00  0.00000000000E+00  0.45593999997E+02  0.45594000000E+02  0.51100000000E-03 0. -1.
         11   -1    0    0    0    0 -0.00000000000E+00 -0.00000000000E+00 -0.45593999997E+02  0.45594000000E+02  0.51100000000E-03 0.  1.
    9900012    2    1    2    0    0 -0.18656841215E+02  0.25718798074E+02 -0.26807269333E+01  0.59301943559E+02  0.49999999145E+02 0.  0.
         12    1    1    2    0    0  0.18656841215E+02 -0.25718798074E+02  0.26807269333E+01  0.31886056441E+02  0.00000000000E+00 0. -1.
         11    1    3    3    0    0 -0.92215884827E+01  0.77968516189E+01 -0.11437173248E+02  0.16632423800E+02  0.51100000000E-03 0. -1.
        -11    1    3    3    0    0  0.69925274647E+01  0.22907946275E+02  0.14008083328E+01  0.23992326005E+02  0.51100000000E-03 0.  1.
         12    1    3    3    0    0 -0.16427780197E+02 -0.49859998205E+01  0.73556379815E+01  0.18677193754E+02  0.00000000000E+00 0. -1.
</event>
<event>
 7    1  0.6184948E-012  0.5930194E+02  0.7816164E-02  0.1266605E+00
        -11   -1    0    0    0    0  0.00000000000E+00  0.00000000000E+00  0.45593999997E+02  0.45594000000E+02  0.51100000000E-03 0.  1.
         11   -1    0    0    0    0 -0.00000000000E+00 -0.00000000000E+00 -0.45593999997E+02  0.45594000000E+02  0.51100000000E-03 0. -1.
    9900012    2    1    2    0    0  0.29404775899E+02  0.10672478765E+02 -0.61788388163E+01  0.59301941953E+02  0.49999996215E+02 0.  0.
         12    1    1    2    0    0 -0.29404775899E+02 -0.10672478765E+02  0.61788388163E+01  0.31886058047E+02  0.00000000000E+00 0. -1.
         11    1    3    3    0    0 -0.41024205311E+01 -0.65873487349E+01  0.47266185165E+01  0.90864701854E+01  0.51100000000E-03 0. -1.
        -11    1    3    3    0    0  0.90605277477E+01  0.11191586265E+02  0.99589585059E+01  0.17507873114E+02  0.51100000000E-03 0.  1.
         12    1    3    3    0    0  0.24446668683E+02  0.60682412355E+01 -0.20864415839E+02  0.32707598653E+02  0.00000000000E+00 0. -1.
</event>
<event>
 7    1  0.6184948E-012  0.5930198E+02  0.7816164E-02  0.1266605E+00
        -11   -1    0    0    0    0  0.00000000000E+00  0.00000000000E+00  0.45593999997E+02  0.45594000000E+02  0.51100000000E-03 0.  1.
         11   -1    0    0    0    0 -0.00000000000E+00 -0.00000000000E+00 -0.45593999997E+02  0.45594000000E+02  0.51100000000E-03 0. -1.
    9900012    2    1    2    0    0  0.95014529687E+01  0.15233896735E+02  0.26350886295E+02  0.59301977564E+02  0.50000061162E+02 0.  0.
         12    1    1    2    0    0 -0.95014529687E+01 -0.15233896735E+02 -0.26350886295E+02  0.31886022436E+02  0.00000000000E+00 0. -1.
         11    1    3    3    0    0 -0.68642459208E+01 -0.20322025806E+00 -0.17149226301E+01  0.70781445608E+01  0.51100000000E-03 0. -1.
        -11    1    3    3    0    0 -0.59713010731E+01  0.96973595079E+01  0.26808238465E+02  0.29126909684E+02  0.51100000000E-03 0.  1.
        -12    1    3    3    0    0  0.22336999963E+02  0.57397574855E+01  0.12575704609E+01  0.23096923319E+02  0.00000000000E+00 0.  1.
</event>
<event>
 7    1  0.6184948E-012  0.5930193E+02  0.7816164E-02  0.1266605E+00
        -11   -1    0    0    0    0  0.00000000000E+00  0.00000000000E+00  0.45593999997E+02  0.45594000000E+02  0.51100000000E-03 0.  1.
         11   -1    0    0    0    0 -0.00000000000E+00 -0.00000000000E+00 -0.45593999997E+02  0.45594000000E+02  0.51100000000E-03 0. -1.
    9900012    2    1    2    0    0  0.24629561353E+02  0.95523142107E+01  0.17856627760E+02  0.59301934796E+02  0.49999983164E+02 0.  0.
         12    1    1    2    0    0 -0.24629561353E+02 -0.95523142107E+01 -0.17856627760E+02  0.31886065204E+02  0.00000000000E+00 0. -1.
         11    1    3    3    0    0 -0.12774291802E+01 -0.77512589837E+00 -0.10541981811E+02  0.10647348319E+02  0.51100000000E-03 0. -1.
        -11    1    3    3    0    0 -0.49504507240E+01  0.42312335790E+01  0.10801754479E+02  0.12613017088E+02  0.51100000000E-03 0.  1.
        -12    1    3    3    0    0  0.30857441257E+02  0.60962065300E+01  0.17596855091E+02  0.36041569390E+02  0.00000000000E+00 0.  1.
</event>
<event>
 7    1  0.6184948E-012  0.5930193E+02  0.7816164E-02  0.1266605E+00
        -11   -1    0    0    0    0  0.00000000000E+00  0.00000000000E+00  0.45593999997E+02  0.45594000000E+02  0.51100000000E-03 0. -1.
         11   -1    0    0    0    0 -0.00000000000E+00 -0.00000000000E+00 -0.45593999997E+02  0.45594000000E+02  0.51100000000E-03 0.  1.
    9900012    2    1    2    0    0 -0.14916640956E+02 -0.24345877281E+02 -0.14194836588E+02  0.59301932450E+02  0.49999978886E+02 0.  0.
         12    1    1    2    0    0  0.14916640956E+02  0.24345877281E+02  0.14194836588E+02  0.31886067550E+02  0.00000000000E+00 0. -1.
         11    1    3    3    0    0 -0.65020575599E+01 -0.17727472359E+02  0.52887729949E+01  0.19608955831E+02  0.51100000000E-03 0. -1.
        -11    1    3    3    0    0  0.94381235752E+01 -0.12361567347E+02 -0.63571739100E+01  0.16801791103E+02  0.51100000000E-03 0.  1.
        -12    1    3    3    0    0 -0.17852706972E+02  0.57431624244E+01 -0.13126435673E+02  0.22891185516E+02  0.00000000000E+00 0.  1.
</event>
<event>
 7    1  0.6184948E-012  0.5930193E+02  0.7816164E-02  0.1266605E+00
        -11   -1    0    0    0    0  0.00000000000E+00  0.00000000000E+00  0.45593999997E+02  0.45594000000E+02  0.51100000000E-03 0.  1.
         11   -1    0    0    0    0 -0.00000000000E+00 -0.00000000000E+00 -0.45593999997E+02  0.45594000000E+02  0.51100000000E-03 0. -1.
    9900012    2    1    2    0    0 -0.26679027341E+02  0.14492408826E+02  0.97427290903E+01  0.59301934335E+02  0.49999982323E+02 0.  0.
         12    1    1    2    0    0  0.26679027341E+02 -0.14492408826E+02 -0.97427290903E+01  0.31886065665E+02  0.00000000000E+00 0. -1.
         11    1    3    3    0    0 -0.16069074938E+02 -0.91761385532E+01 -0.35279747094E+01  0.18837815530E+02  0.51100000000E-03 0. -1.
        -11    1    3    3    0    0  0.35024030208E+01 -0.74446665850E-01  0.12340413654E+02  0.12828023177E+02  0.51100000000E-03 0.  1.
         12    1    3    3    0    0 -0.14112355423E+02  0.23742994045E+02  0.93029014594E+00  0.27636095628E+02  0.00000000000E+00 0. -1.
</event>
<event>
 7    1  0.6184948E-012  0.5930195E+02  0.7816164E-02  0.1266605E+00
        -11   -1    0    0    0    0  0.00000000000E+00  0.00000000000E+00  0.45593999997E+02  0.45594000000E+02  0.51100000000E-03 0. -1.
         11   -1    0    0    0    0 -0.00000000000E+00 -0.00000000000E+00 -0.45593999997E+02  0.45594000000E+02  0.51100000000E-03 0.  1.
    9900012    2    1    2    0    0  0.31619632707E+02 -0.86767196149E+00 -0.40206838904E+01  0.59301954053E+02  0.50000018284E+02 0.  0.
         12    1    1    2    0    0 -0.31619632707E+02  0.86767196149E+00  0.40206838904E+01  0.31886045947E+02  0.00000000000E+00 0. -1.
         11    1    3    3    0    0  0.47016554521E+01  0.10277010189E+02 -0.15045659971E+02  0.18817395851E+02  0.51100000000E-03 0. -1.
        -11    1    3    3    0    0 -0.51249752730E+01 -0.17759305308E+01  0.27897261973E+01  0.60993338420E+01  0.51100000000E-03 0.  1.
        -12    1    3    3    0    0  0.32042952528E+02 -0.93687516193E+01  0.82352498834E+01  0.34385224360E+02  0.00000000000E+00 0.  1.
</event>
<event>
 7    1  0.6184948E-012  0.5930196E+02  0.7816164E-02  0.1266605E+00
        -11   -1    0    0    0    0  0.00000000000E+00  0.00000000000E+00  0.45593999997E+02  0.45594000000E+02  0.51100000000E-03 0. -1.
         11   -1    0    0    0    0 -0.00000000000E+00 -0.00000000000E+00 -0.45593999997E+02  0.45594000000E+02  0.51100000000E-03 0.  1.
    9900012    2    1    2    0    0 -0.17569394943E+02  0.21361961412E+02 -0.15865145143E+02  0.59301955020E+02  0.50000020048E+02 0.  0.
         12    1    1    2    0    0  0.17569394943E+02 -0.21361961412E+02  0.15865145143E+02  0.31886044980E+02  0.00000000000E+00 0. -1.
         11    1    3    3    0    0 -0.10120289722E+02 -0.62620930632E+01 -0.13603545692E+02  0.18074582408E+02  0.51100000000E-03 0. -1.
        -11    1    3    3    0    0 -0.10106589341E+02  0.17458774733E+02 -0.14688464531E+02  0.24954016787E+02  0.51100000000E-03 0.  1.
         12    1    3    3    0    0  0.26574841201E+01  0.10165279743E+02  0.12426865079E+02  0.16273355825E+02  0.00000000000E+00 0. -1.
</event>
<event>
 7    1  0.6184948E-012  0.5930193E+02  0.7816164E-02  0.1266605E+00
        -11   -1    0    0    0    0  0.00000000000E+00  0.00000000000E+00  0.45593999997E+02  0.45594000000E+02  0.51100000000E-03 0.  1.
         11   -1    0    0    0    0 -0.00000000000E+00 -0.00000000000E+00 -0.45593999997E+02  0.45594000000E+02  0.51100000000E-03 0. -1.
    9900012    2    1    2    0    0  0.78719759785E+01  0.20736316259E+02  0.22907607363E+02  0.59301932621E+02  0.49999979197E+02 0.  0.
         12    1    1    2    0    0 -0.78719759785E+01 -0.20736316259E+02 -0.22907607363E+02  0.31886067379E+02  0.00000000000E+00 0. -1.
         11    1    3    3    0    0  0.12075167445E+02 -0.56984866102E+00  0.18532235566E+02  0.22126412987E+02  0.51100000000E-03 0. -1.
        -11    1    3    3    0    0 -0.33382959502E+01 -0.71856222961E+01  0.34874782253E+01  0.86567830206E+01  0.51100000000E-03 0.  1.
         12    1    3    3    0    0 -0.86489551668E+00  0.28491787216E+02  0.88789357159E+00  0.28518736614E+02  0.00000000000E+00 0. -1.
</event>
<event>
 7    1  0.6184948E-012  0.5930196E+02  0.7816164E-02  0.1266605E+00
        -11   -1    0    0    0    0  0.00000000000E+00  0.00000000000E+00  0.45593999997E+02  0.45594000000E+02  0.51100000000E-03 0.  1.
         11   -1    0    0    0    0 -0.00000000000E+00 -0.00000000000E+00 -0.45593999997E+02  0.45594000000E+02  0.51100000000E-03 0. -1.
    9900012    2    1    2    0    0  0.71596800957E+01  0.22862553417E+02 -0.21041910798E+02  0.59301962651E+02  0.50000033964E+02 0.  0.
         12    1    1    2    0    0 -0.71596800957E+01 -0.22862553417E+02  0.21041910798E+02  0.31886037349E+02  0.00000000000E+00 0. -1.
         11    1    3    3    0    0  0.12006513028E+02  0.14632017859E+02 -0.44615659206E+01  0.19446281713E+02  0.51100000000E-03 0.  1.
        -11    1    3    3    0    0  0.90982150708E+01  0.42829908507E+00  0.69189019822E+01  0.11438188776E+02  0.51100000000E-03 0. -1.
        -12    1    3    3    0    0 -0.13945048003E+02  0.78022364730E+01 -0.23499246860E+02  0.28417492162E+02  0.00000000000E+00 0.  1.
</event>
<event>
 7    1  0.6184948E-012  0.5930196E+02  0.7816164E-02  0.1266605E+00
        -11   -1    0    0    0    0  0.00000000000E+00  0.00000000000E+00  0.45593999997E+02  0.45594000000E+02  0.51100000000E-03 0.  1.
         11   -1    0    0    0    0 -0.00000000000E+00 -0.00000000000E+00 -0.45593999997E+02  0.45594000000E+02  0.51100000000E-03 0. -1.
    9900012    2    1    2    0    0  0.25128152921E+02  0.18333210089E+02  0.70134693782E+01  0.59301962082E+02  0.50000032926E+02 0.  0.
         12    1    1    2    0    0 -0.25128152921E+02 -0.18333210089E+02 -0.70134693782E+01  0.31886037918E+02  0.00000000000E+00 0. -1.
         11    1    3    3    0    0  0.15111487550E+01 -0.59498916988E+00  0.90980506282E+00  0.18615391979E+01  0.51100000000E-03 0. -1.
        -11    1    3    3    0    0 -0.44322119141E+01  0.31294384747E+01 -0.16980865925E+02  0.17826600782E+02  0.51100000000E-03 0.  1.
        -12    1    3    3    0    0  0.28049216080E+02  0.15798760784E+02  0.23084530241E+02  0.39613822101E+02  0.00000000000E+00 0.  1.
</event>
<event>
 7    1  0.6184948E-012  0.5930195E+02  0.7816164E-02  0.1266605E+00
        -11   -1    0    0    0    0  0.00000000000E+00  0.00000000000E+00  0.45593999997E+02  0.45594000000E+02  0.51100000000E-03 0. -1.
         11   -1    0    0    0    0 -0.00000000000E+00 -0.00000000000E+00 -0.45593999997E+02  0.45594000000E+02  0.51100000000E-03 0.  1.
    9900012    2    1    2    0    0  0.11313975579E+02  0.26740186112E+02 -0.13178652469E+02  0.59301945406E+02  0.50000002513E+02 0.  0.
         12    1    1    2    0    0 -0.11313975579E+02 -0.26740186112E+02  0.13178652469E+02  0.31886054594E+02  0.00000000000E+00 0. -1.
         11    1    3    3    0    0 -0.39464426689E+01  0.55064403880E+01 -0.11738299844E+02  0.13552969379E+02  0.51100000000E-03 0. -1.
        -11    1    3    3    0    0  0.16823115325E+02  0.27385536633E+02 -0.11260984598E+02  0.34055757227E+02  0.51100000000E-03 0.  1.
         12    1    3    3    0    0 -0.15626970778E+01 -0.61517909088E+01  0.98206319736E+01  0.11693218800E+02  0.00000000000E+00 0. -1.
</event>
<event>
 7    1  0.6184948E-012  0.5930195E+02  0.7816164E-02  0.1266605E+00
        -11   -1    0    0    0    0  0.00000000000E+00  0.00000000000E+00  0.45593999997E+02  0.45594000000E+02  0.51100000000E-03 0.  1.
         11   -1    0    0    0    0 -0.00000000000E+00 -0.00000000000E+00 -0.45593999997E+02  0.45594000000E+02  0.51100000000E-03 0. -1.
    9900012    2    1    2    0    0  0.31089580854E+02  0.14379371273E+01 -0.69347213033E+01  0.59301951948E+02  0.50000014444E+02 0.  0.
         12    1    1    2    0    0 -0.31089580854E+02 -0.14379371273E+01  0.69347213033E+01  0.31886048052E+02  0.00000000000E+00 0. -1.
         11    1    3    3    0    0  0.12579559942E+02  0.15346842290E+02 -0.59149652413E+00  0.19852475035E+02  0.51100000000E-03 0. -1.
        -11    1    3    3    0    0  0.35597149810E+01 -0.18776838621E+02  0.53604887179E+01  0.19848830668E+02  0.51100000000E-03 0.  1.
         12    1    3    3    0    0  0.14950305930E+02  0.48679334582E+01 -0.11703713497E+02  0.19600646244E+02  0.00000000000E+00 0. -1.
</event>
<event>
 7    1  0.6184948E-012  0.5930194E+02  0.7816164E-02  0.1266605E+00
        -11   -1    0    0    0    0  0.00000000000E+00  0.00000000000E+00  0.45593999997E+02  0.45594000000E+02  0.51100000000E-03 0.  1.
         11   -1    0    0    0    0 -0.00000000000E+00 -0.00000000000E+00 -0.45593999997E+02  0.45594000000E+02  0.51100000000E-03 0. -1.
    9900012    2    1    2    0    0  0.71809813929E+01 -0.29673689806E+02  0.91992491392E+01  0.59301944345E+02  0.50000000579E+02 0.  0.
         12    1    1    2    0    0 -0.71809813929E+01  0.29673689806E+02 -0.91992491392E+01  0.31886055655E+02  0.00000000000E+00 0. -1.
         11    1    3    3    0    0  0.69948105452E+01  0.64521560396E+01 -0.53599958365E+01  0.10921870158E+02  0.51100000000E-03 0. -1.
        -11    1    3    3    0    0 -0.10188159630E+02 -0.11398760816E+02 -0.39583840809E+01  0.15792376312E+02  0.51100000000E-03 0.  1.
         12    1    3    3    0    0  0.10374330477E+02 -0.24727085030E+02  0.18517629057E+02  0.32587697875E+02  0.00000000000E+00 0. -1.
</event>
<event>
 7    1  0.6184948E-012  0.5930198E+02  0.7816164E-02  0.1266605E+00
        -11   -1    0    0    0    0  0.00000000000E+00  0.00000000000E+00  0.45593999997E+02  0.45594000000E+02  0.51100000000E-03 0. -1.
         11   -1    0    0    0    0 -0.00000000000E+00 -0.00000000000E+00 -0.45593999997E+02  0.45594000000E+02  0.51100000000E-03 0.  1.
    9900012    2    1    2    0    0  0.62925889451E+01  0.29711966374E+02  0.97118731654E+01  0.59301982660E+02  0.50000070455E+02 0.  0.
         12    1    1    2    0    0 -0.62925889451E+01 -0.29711966374E+02 -0.97118731654E+01  0.31886017340E+02  0.00000000000E+00 0. -1.
         11    1    3    3    0    0 -0.78080821256E+01 -0.21258803672E+01  0.13730883694E+02  0.15938089004E+02  0.51100000000E-03 0. -1.
        -11    1    3    3    0    0 -0.65174495423E+01  0.60848819677E+01 -0.52572743492E+01  0.10350935752E+02  0.51100000000E-03 0.  1.
        -12    1    3    3    0    0  0.20618120613E+02  0.25752964774E+02  0.12382638203E+01  0.33012957903E+02  0.00000000000E+00 0.  1.
</event>
<event>
 7    1  0.6184948E-012  0.5930197E+02  0.7816164E-02  0.1266605E+00
        -11   -1    0    0    0    0  0.00000000000E+00  0.00000000000E+00  0.45593999997E+02  0.45594000000E+02  0.51100000000E-03 0. -1.
         11   -1    0    0    0    0 -0.00000000000E+00 -0.00000000000E+00 -0.45593999997E+02  0.45594000000E+02  0.51100000000E-03 0.  1.
    9900012    2    1    2    0    0  0.12234789785E+02  0.17919794504E+02 -0.23364718786E+02  0.59301965437E+02  0.50000039046E+02 0.  0.
         12    1    1    2    0    0 -0.12234789785E+02 -0.17919794504E+02  0.23364718786E+02  0.31886034563E+02  0.00000000000E+00 0. -1.
         11    1    3    3    0    0  0.59674156956E+01  0.11967141769E+02 -0.23925600140E+02  0.27409065554E+02  0.51100000000E-03 0. -1.
        -11    1    3    3    0    0  0.16669467326E+02 -0.23643009645E+01 -0.48446801590E+01  0.17519474481E+02  0.51100000000E-03 0.  1.
         12    1    3    3    0    0 -0.10402093236E+02  0.83169536994E+01  0.54055615126E+01  0.14373425402E+02  0.00000000000E+00 0. -1.
</event>
<event>
 7    1  0.6184948E-012  0.5930194E+02  0.7816164E-02  0.1266605E+00
        -11   -1    0    0    0    0  0.00000000000E+00  0.00000000000E+00  0.45593999997E+02  0.45594000000E+02  0.51100000000E-03 0.  1.
         11   -1    0    0    0    0 -0.00000000000E+00 -0.00000000000E+00 -0.45593999997E+02  0.45594000000E+02  0.51100000000E-03 0. -1.
    9900012    2    1    2    0    0  0.25024028632E+02 -0.14698278496E+02  0.13209067663E+02  0.59301939280E+02  0.49999991341E+02 0.  0.
         12    1    1    2    0    0 -0.25024028632E+02  0.14698278496E+02 -0.13209067663E+02  0.31886060720E+02  0.00000000000E+00 0. -1.
         11    1    3    3    0    0  0.16113398808E+01 -0.64877047862E-01 -0.15716978938E+01  0.22518569611E+01  0.51100000000E-03 0. -1.
        -11    1    3    3    0    0  0.73211639118E+01 -0.12042131754E+02 -0.16547563282E+02  0.21735552191E+02  0.51100000000E-03 0.  1.
        -12    1    3    3    0    0  0.16091524840E+02 -0.25912696938E+01  0.31328328839E+02  0.35314530128E+02  0.00000000000E+00 0.  1.
</event>
<event>
 7    1  0.6184948E-012  0.5930194E+02  0.7816164E-02  0.1266605E+00
        -11   -1    0    0    0    0  0.00000000000E+00  0.00000000000E+00  0.45593999997E+02  0.45594000000E+02  0.51100000000E-03 0.  1.
         11   -1    0    0    0    0 -0.00000000000E+00 -0.00000000000E+00 -0.45593999997E+02  0.45594000000E+02  0.51100000000E-03 0. -1.
    9900012    2    1    2    0    0 -0.18499565753E+02 -0.24897254220E+02  0.73901082404E+01  0.59301938773E+02  0.49999990417E+02 0.  0.
         12    1    1    2    0    0  0.18499565753E+02  0.24897254220E+02 -0.73901082404E+01  0.31886061227E+02  0.00000000000E+00 0. -1.
         11    1    3    3    0    0 -0.73592706828E+01  0.95987090728E+01 -0.20046186970E+01  0.12260202985E+02  0.51100000000E-03 0. -1.
        -11    1    3    3    0    0  0.86179927620E+01 -0.10114013450E+02  0.82453656618E+01  0.15638066456E+02  0.51100000000E-03 0.  1.
        -12    1    3    3    0    0 -0.19758287832E+02 -0.24381949843E+02  0.11493612756E+01  0.31403669333E+02  0.00000000000E+00 0.  1.
</event>
<event>
 7    1  0.6184948E-012  0.5930185E+02  0.7816164E-02  0.1266605E+00
        -11   -1    0    0    0    0  0.00000000000E+00  0.00000000000E+00  0.45593999997E+02  0.45594000000E+02  0.51100000000E-03 0. -1.
         11   -1    0    0    0    0 -0.00000000000E+00 -0.00000000000E+00 -0.45593999997E+02  0.45594000000E+02  0.51100000000E-03 0.  1.
    9900012    2    1    2    0    0 -0.23978301431E+02  0.41452562300E+01 -0.20605441441E+02  0.59301854016E+02  0.49999835840E+02 0.  0.
         12    1    1    2    0    0  0.23978301431E+02 -0.41452562300E+01  0.20605441441E+02  0.31886145984E+02  0.00000000000E+00 0. -1.
         11    1    3    3    0    0  0.38138291785E-01 -0.81579245700E+01  0.17767483920E+01  0.83492528365E+01  0.51100000000E-03 0. -1.
        -11    1    3    3    0    0 -0.15796987835E+02 -0.11865555113E+01  0.72123687909E+01  0.17406062234E+02  0.51100000000E-03 0.  1.
        -12    1    3    3    0    0 -0.82194518879E+01  0.13489736311E+02 -0.29594558624E+02  0.33546538945E+02  0.00000000000E+00 0.  1.
</event>
<event>
 7    1  0.6184948E-012  0.5930197E+02  0.7816164E-02  0.1266605E+00
        -11   -1    0    0    0    0  0.00000000000E+00  0.00000000000E+00  0.45593999997E+02  0.45594000000E+02  0.51100000000E-03 0. -1.
         11   -1    0    0    0    0 -0.00000000000E+00 -0.00000000000E+00 -0.45593999997E+02  0.45594000000E+02  0.51100000000E-03 0.  1.
    9900012    2    1    2    0    0 -0.23535073364E+02 -0.16146156861E+02  0.14216915049E+02  0.59301972760E+02  0.50000052400E+02 0.  0.
         12    1    1    2    0    0  0.23535073364E+02  0.16146156861E+02 -0.14216915049E+02  0.31886027240E+02  0.00000000000E+00 0. -1.
         11    1    3    3    0    0  0.37784387494E+00 -0.11338410866E+02  0.32238113182E+01  0.11793866484E+02  0.51100000000E-03 0. -1.
        -11    1    3    3    0    0 -0.13447241766E+02 -0.87754971178E+01  0.24917371388E+02  0.29643094608E+02  0.51100000000E-03 0.  1.
        -12    1    3    3    0    0 -0.10465675473E+02  0.39677511232E+01 -0.13924267657E+02  0.17865011667E+02  0.00000000000E+00 0.  1.
</event>
<event>
 7    1  0.6184948E-012  0.5930196E+02  0.7816164E-02  0.1266605E+00
        -11   -1    0    0    0    0  0.00000000000E+00  0.00000000000E+00  0.45593999997E+02  0.45594000000E+02  0.51100000000E-03 0. -1.
         11   -1    0    0    0    0 -0.00000000000E+00 -0.00000000000E+00 -0.45593999997E+02  0.45594000000E+02  0.51100000000E-03 0.  1.
    9900012    2    1    2    0    0  0.12356728942E+02  0.24906868123E+02  0.15610220658E+02  0.59301955735E+02  0.50000021352E+02 0.  0.
         12    1    1    2    0    0 -0.12356728942E+02 -0.24906868123E+02 -0.15610220658E+02  0.31886044265E+02  0.00000000000E+00 0. -1.
         11    1    3    3    0    0  0.63296200475E+01 -0.11611880852E+01  0.98445364748E+01  0.11761264659E+02  0.51100000000E-03 0. -1.
        -11    1    3    3    0    0 -0.69815493389E+01 -0.67142593124E+01 -0.46796014662E+01  0.10757415090E+02  0.51100000000E-03 0.  1.
        -12    1    3    3    0    0  0.13008658233E+02  0.32782315521E+02  0.10445285649E+02  0.36783275986E+02  0.00000000000E+00 0.  1.
</event>
<event>
 7    1  0.6184948E-012  0.5930193E+02  0.7816164E-02  0.1266605E+00
        -11   -1    0    0    0    0  0.00000000000E+00  0.00000000000E+00  0.45593999997E+02  0.45594000000E+02  0.51100000000E-03 0. -1.
         11   -1    0    0    0    0 -0.00000000000E+00 -0.00000000000E+00 -0.45593999997E+02  0.45594000000E+02  0.51100000000E-03 0.  1.
    9900012    2    1    2    0    0 -0.66336237116E+01  0.95764203184E+01 -0.29681792932E+02  0.59301927471E+02  0.49999969805E+02 0.  0.
         12    1    1    2    0    0  0.66336237116E+01 -0.95764203184E+01  0.29681792932E+02  0.31886072529E+02  0.00000000000E+00 0. -1.
         11    1    3    3    0    0  0.58386291357E+01 -0.85880132657E+01 -0.96354405129E+00  0.10429380587E+02  0.51100000000E-03 0. -1.
        -11    1    3    3    0    0  0.10198279481E+02 -0.38911010899E+00 -0.84473091050E+01  0.13248144868E+02  0.51100000000E-03 0.  1.
        -12    1    3    3    0    0 -0.22670532329E+02  0.18553543693E+02 -0.20270939775E+02  0.35624402016E+02  0.00000000000E+00 0.  1.
</event>
<event>
 7    1  0.6184948E-012  0.5930196E+02  0.7816164E-02  0.1266605E+00
        -11   -1    0    0    0    0  0.00000000000E+00  0.00000000000E+00  0.45593999997E+02  0.45594000000E+02  0.51100000000E-03 0.  1.
         11   -1    0    0    0    0 -0.00000000000E+00 -0.00000000000E+00 -0.45593999997E+02  0.45594000000E+02  0.51100000000E-03 0. -1.
    9900012    2    1    2    0    0  0.27000184056E+02  0.15332863103E+02  0.72534972226E+01  0.59301955216E+02  0.50000020406E+02 0.  0.
         12    1    1    2    0    0 -0.27000184056E+02 -0.15332863103E+02 -0.72534972226E+01  0.31886044784E+02  0.00000000000E+00 0. -1.
         11    1    3    3    0    0  0.11240512003E+02 -0.72673398908E+01 -0.21223035015E+01  0.13552398739E+02  0.51100000000E-03 0. -1.
        -11    1    3    3    0    0 -0.52165427804E+01 -0.63513887989E+01 -0.15532841443E+01  0.83645173290E+01  0.51100000000E-03 0.  1.
        -12    1    3    3    0    0  0.20976214833E+02  0.28951591792E+02  0.10929084868E+02  0.37385039148E+02  0.00000000000E+00 0.  1.
</event>
<event>
 7    1  0.6184948E-012  0.5930193E+02  0.7816164E-02  0.1266605E+00
        -11   -1    0    0    0    0  0.00000000000E+00  0.00000000000E+00  0.45593999997E+02  0.45594000000E+02  0.51100000000E-03 0. -1.
         11   -1    0    0    0    0 -0.00000000000E+00 -0.00000000000E+00 -0.45593999997E+02  0.45594000000E+02  0.51100000000E-03 0.  1.
    9900012    2    1    2    0    0 -0.26133778774E+01  0.10102427144E+02 -0.30130257715E+02  0.59301933950E+02  0.49999981621E+02 0.  0.
         12    1    1    2    0    0  0.26133778774E+01 -0.10102427144E+02  0.30130257715E+02  0.31886066050E+02  0.00000000000E+00 0. -1.
         11    1    3    3    0    0 -0.84629073147E+01 -0.76875116019E+01 -0.26170080423E+02  0.28558566918E+02  0.51100000000E-03 0. -1.
        -11    1    3    3    0    0 -0.41083688001E+01 -0.21027105380E+01  0.49606058030E+01  0.67755218247E+01  0.51100000000E-03 0.  1.
        -12    1    3    3    0    0  0.99578982373E+01  0.19892649284E+02 -0.89207830958E+01  0.23967845207E+02  0.00000000000E+00 0.  1.
</event>
<event>
 7    1  0.6184948E-012  0.5930195E+02  0.7816164E-02  0.1266605E+00
        -11   -1    0    0    0    0  0.00000000000E+00  0.00000000000E+00  0.45593999997E+02  0.45594000000E+02  0.51100000000E-03 0.  1.
         11   -1    0    0    0    0 -0.00000000000E+00 -0.00000000000E+00 -0.45593999997E+02  0.45594000000E+02  0.51100000000E-03 0. -1.
    9900012    2    1    2    0    0 -0.86069608992E+01 -0.26878852442E+02  0.14838058111E+02  0.59301945791E+02  0.50000003216E+02 0.  0.
         12    1    1    2    0    0  0.86069608992E+01  0.26878852442E+02 -0.14838058111E+02  0.31886054209E+02  0.00000000000E+00 0. -1.
         11    1    3    3    0    0 -0.75203942465E+01 -0.11417092114E+02  0.60473199209E+01  0.14949127080E+02  0.51100000000E-03 0. -1.
        -11    1    3    3    0    0 -0.91341602222E+01 -0.17548917561E+02 -0.11177488981E+02  0.22722976273E+02  0.51100000000E-03 0.  1.
         12    1    3    3    0    0  0.80475935695E+01  0.20871572332E+01  0.19968227171E+02  0.21629842439E+02  0.00000000000E+00 0. -1.
</event>
<event>
 7    1  0.6184948E-012  0.5930197E+02  0.7816164E-02  0.1266605E+00
        -11   -1    0    0    0    0  0.00000000000E+00  0.00000000000E+00  0.45593999997E+02  0.45594000000E+02  0.51100000000E-03 0. -1.
         11   -1    0    0    0    0 -0.00000000000E+00 -0.00000000000E+00 -0.45593999997E+02  0.45594000000E+02  0.51100000000E-03 0.  1.
    9900012    2    1    2    0    0 -0.20784968989E+02  0.55572733502E+01 -0.23533389223E+02  0.59301974357E+02  0.50000055314E+02 0.  0.
         12    1    1    2    0    0  0.20784968989E+02 -0.55572733502E+01  0.23533389223E+02  0.31886025643E+02  0.00000000000E+00 0. -1.
         11    1    3    3    0    0 -0.15151094560E+02  0.32972022425E+01  0.40450664486E+00  0.15510990777E+02  0.51100000000E-03 0. -1.
        -11    1    3    3    0    0 -0.10855284170E+02  0.17354615188E+02 -0.11013417717E+02  0.23244681817E+02  0.51100000000E-03 0.  1.
        -12    1    3    3    0    0  0.52214097405E+01 -0.15094544080E+02 -0.12924478151E+02  0.20546301763E+02  0.00000000000E+00 0.  1.
</event>
<event>
 7    1  0.6184948E-012  0.5930194E+02  0.7816164E-02  0.1266605E+00
        -11   -1    0    0    0    0  0.00000000000E+00  0.00000000000E+00  0.45593999997E+02  0.45594000000E+02  0.51100000000E-03 0.  1.
         11   -1    0    0    0    0 -0.00000000000E+00 -0.00000000000E+00 -0.45593999997E+02  0.45594000000E+02  0.51100000000E-03 0. -1.
    9900012    2    1    2    0    0 -0.21622472961E+02  0.23223862594E+02  0.31371525482E+01  0.59301939459E+02  0.49999991667E+02 0.  0.
         12    1    1    2    0    0  0.21622472961E+02 -0.23223862594E+02 -0.31371525482E+01  0.31886060541E+02  0.00000000000E+00 0. -1.
         11    1    3    3    0    0 -0.17317916640E+01  0.89411998884E+00 -0.29686422623E+01  0.35512519011E+01  0.51100000000E-03 0. -1.
        -11    1    3    3    0    0 -0.34691459791E+02  0.20962065402E+02  0.38244620281E+01  0.40712799933E+02  0.51100000000E-03 0.  1.
        -12    1    3    3    0    0  0.14800778493E+02  0.13676772025E+01  0.22813327824E+01  0.15037887624E+02  0.00000000000E+00 0.  1.
</event>
<event>
 7    1  0.6184948E-012  0.5930195E+02  0.7816164E-02  0.1266605E+00
        -11   -1    0    0    0    0  0.00000000000E+00  0.00000000000E+00  0.45593999997E+02  0.45594000000E+02  0.51100000000E-03 0.  1.
         11   -1    0    0    0    0 -0.00000000000E+00 -0.00000000000E+00 -0.45593999997E+02  0.45594000000E+02  0.51100000000E-03 0. -1.
    9900012    2    1    2    0    0 -0.24944692216E+02  0.10864632393E+02 -0.16626552738E+02  0.59301950343E+02  0.50000011518E+02 0.  0.
         12    1    1    2    0    0  0.24944692216E+02 -0.10864632393E+02  0.16626552738E+02  0.31886049657E+02  0.00000000000E+00 0. -1.
         11    1    3    3    0    0  0.81726066275E+01 -0.11532168264E+01  0.94408967986E+01  0.12540013587E+02  0.51100000000E-03 0. -1.
        -11    1    3    3    0    0 -0.78341784829E+01  0.72229229737E+01 -0.78184755157E+00  0.10684393040E+02  0.51100000000E-03 0.  1.
        -12    1    3    3    0    0 -0.25283120360E+02  0.47949262457E+01 -0.25285601985E+02  0.36077543716E+02  0.00000000000E+00 0.  1.
</event>
<event>
 7    1  0.6184948E-012  0.5930199E+02  0.7816164E-02  0.1266605E+00
        -11   -1    0    0    0    0  0.00000000000E+00  0.00000000000E+00  0.45593999997E+02  0.45594000000E+02  0.51100000000E-03 0.  1.
         11   -1    0    0    0    0 -0.00000000000E+00 -0.00000000000E+00 -0.45593999997E+02  0.45594000000E+02  0.51100000000E-03 0. -1.
    9900012    2    1    2    0    0 -0.12507635211E+02  0.17212929934E+02  0.23748506801E+02  0.59301992556E+02  0.50000088504E+02 0.  0.
         12    1    1    2    0    0  0.12507635211E+02 -0.17212929934E+02 -0.23748506801E+02  0.31886007444E+02  0.00000000000E+00 0. -1.
         11    1    3    3    0    0  0.85368387558E+01 -0.83584758723E+01  0.14435342277E+02  0.18738218745E+02  0.51100000000E-03 0. -1.
        -11    1    3    3    0    0 -0.58285273578E+01  0.20311863304E+02 -0.14767461337E+01  0.21183113591E+02  0.51100000000E-03 0.  1.
        -12    1    3    3    0    0 -0.15215946609E+02  0.52595425023E+01  0.10789910658E+02  0.19380660219E+02  0.00000000000E+00 0.  1.
</event>
<event>
 7    1  0.6184948E-012  0.5930194E+02  0.7816164E-02  0.1266605E+00
        -11   -1    0    0    0    0  0.00000000000E+00  0.00000000000E+00  0.45593999997E+02  0.45594000000E+02  0.51100000000E-03 0. -1.
         11   -1    0    0    0    0 -0.00000000000E+00 -0.00000000000E+00 -0.45593999997E+02  0.45594000000E+02  0.51100000000E-03 0.  1.
    9900012    2    1    2    0    0  0.19901021993E+01  0.27875415404E+02 -0.15353226634E+02  0.59301939429E+02  0.49999991613E+02 0.  0.
         12    1    1    2    0    0 -0.19901021993E+01 -0.27875415404E+02  0.15353226634E+02  0.31886060571E+02  0.00000000000E+00 0. -1.
         11    1    3    3    0    0  0.10455550359E+01  0.28142364237E+02 -0.44127716935E+01  0.28505410091E+02  0.51100000000E-03 0. -1.
        -11    1    3    3    0    0 -0.10111142999E+02 -0.29681034995E+01 -0.15326579592E+02  0.18599701432E+02  0.51100000000E-03 0.  1.
         12    1    3    3    0    0  0.11055690162E+02  0.27011546659E+01  0.43861246517E+01  0.12196827905E+02  0.00000000000E+00 0. -1.
</event>
<event>
 7    1  0.6184948E-012  0.5930195E+02  0.7816164E-02  0.1266605E+00
        -11   -1    0    0    0    0  0.00000000000E+00  0.00000000000E+00  0.45593999997E+02  0.45594000000E+02  0.51100000000E-03 0. -1.
         11   -1    0    0    0    0 -0.00000000000E+00 -0.00000000000E+00 -0.45593999997E+02  0.45594000000E+02  0.51100000000E-03 0.  1.
    9900012    2    1    2    0    0  0.25300706391E+02  0.95939804540E+00 -0.19382309025E+02  0.59301951458E+02  0.50000013551E+02 0.  0.
         12    1    1    2    0    0 -0.25300706391E+02 -0.95939804540E+00  0.19382309025E+02  0.31886048542E+02  0.00000000000E+00 0. -1.
         11    1    3    3    0    0 -0.51272329242E+01  0.19510313258E+01  0.38450360851E+00  0.54993530510E+01  0.51100000000E-03 0. -1.
        -11    1    3    3    0    0  0.24405567139E+01 -0.68012750898E+00 -0.25169604462E+02  0.25296795835E+02  0.51100000000E-03 0.  1.
        -12    1    3    3    0    0  0.27987382601E+02 -0.31150577146E+00  0.54027918282E+01  0.28505802572E+02  0.00000000000E+00 0.  1.
</event>
<event>
 7    1  0.6184948E-012  0.5930209E+02  0.7816164E-02  0.1266604E+00
        -11   -1    0    0    0    0  0.00000000000E+00  0.00000000000E+00  0.45593999997E+02  0.45594000000E+02  0.51100000000E-03 0.  1.
         11   -1    0    0    0    0 -0.00000000000E+00 -0.00000000000E+00 -0.45593999997E+02  0.45594000000E+02  0.51100000000E-03 0. -1.
    9900012    2    1    2    0    0  0.41028704876E+00 -0.31043335854E+02  0.72701004066E+01  0.59302087808E+02  0.50000262220E+02 0.  0.
         12    1    1    2    0    0 -0.41028704876E+00  0.31043335854E+02 -0.72701004066E+01  0.31885912192E+02  0.00000000000E+00 0. -1.
         11    1    3    3    0    0  0.54935204485E+01 -0.30697760295E+01 -0.13464789980E+02  0.14862801258E+02  0.51100000000E-03 0. -1.
        -11    1    3    3    0    0 -0.73788373160E+01 -0.26035964584E+02  0.39029600167E+01  0.27341393328E+02  0.51100000000E-03 0.  1.
         12    1    3    3    0    0  0.22956039163E+01 -0.19375952404E+01  0.16831930370E+02  0.17097893222E+02  0.00000000000E+00 0. -1.
</event>
<event>
 7    1  0.6184948E-012  0.5930196E+02  0.7816164E-02  0.1266605E+00
        -11   -1    0    0    0    0  0.00000000000E+00  0.00000000000E+00  0.45593999997E+02  0.45594000000E+02  0.51100000000E-03 0. -1.
         11   -1    0    0    0    0 -0.00000000000E+00 -0.00000000000E+00 -0.45593999997E+02  0.45594000000E+02  0.51100000000E-03 0.  1.
    9900012    2    1    2    0    0  0.28201557676E+02  0.38741984779E+01  0.14366016771E+02  0.59301957488E+02  0.50000024548E+02 0.  0.
         12    1    1    2    0    0 -0.28201557676E+02 -0.38741984779E+01 -0.14366016771E+02  0.31886042512E+02  0.00000000000E+00 0. -1.
         11    1    3    3    0    0 -0.18575765221E+01  0.14029615708E+02  0.48590411941E+01  0.14962987304E+02  0.51100000000E-03 0. -1.
        -11    1    3    3    0    0  0.17247941900E+02  0.95861679246E+01  0.52941261908E+01  0.20430709426E+02  0.51100000000E-03 0.  1.
        -12    1    3    3    0    0  0.12811192299E+02 -0.19741585155E+02  0.42128493861E+01  0.23908260759E+02  0.00000000000E+00 0.  1.
</event>
<event>
 7    1  0.6184948E-012  0.5930195E+02  0.7816164E-02  0.1266605E+00
        -11   -1    0    0    0    0  0.00000000000E+00  0.00000000000E+00  0.45593999997E+02  0.45594000000E+02  0.51100000000E-03 0.  1.
         11   -1    0    0    0    0 -0.00000000000E+00 -0.00000000000E+00 -0.45593999997E+02  0.45594000000E+02  0.51100000000E-03 0. -1.
    9900012    2    1    2    0    0  0.21993385025E+02  0.20558668327E+02 -0.10504882918E+02  0.59301946727E+02  0.50000004922E+02 0.  0.
         12    1    1    2    0    0 -0.21993385025E+02 -0.20558668327E+02  0.10504882918E+02  0.31886053273E+02  0.00000000000E+00 0. -1.
         11    1    3    3    0    0  0.54116780824E+01 -0.68861139862E+01  0.80417347281E+01  0.11890093490E+02  0.51100000000E-03 0. -1.
        -11    1    3    3    0    0 -0.86332370115E+01  0.58821766345E+01 -0.40163296484E+01  0.11192126132E+02  0.51100000000E-03 0.  1.
        -12    1    3    3    0    0  0.25214943954E+02  0.21562605678E+02 -0.14530287998E+02  0.36219727105E+02  0.00000000000E+00 0.  1.
</event>
<event>
 7    1  0.6521199E-012  0.5930199E+02  0.7816164E-02  0.1266605E+00
        -11   -1    0    0    0    0  0.00000000000E+00  0.00000000000E+00  0.45593999997E+02  0.45594000000E+02  0.51100000000E-03 0. -1.
         11   -1    0    0    0    0 -0.00000000000E+00 -0.00000000000E+00 -0.45593999997E+02  0.45594000000E+02  0.51100000000E-03 0.  1.
    9900012    2    1    2    0    0  0.16283795610E+02  0.25978086190E+02 -0.87575476415E+01  0.59301990493E+02  0.50000084742E+02 0.  0.
         12    1    1    2    0    0 -0.16283795610E+02 -0.25978086190E+02  0.87575476415E+01  0.31886009507E+02  0.00000000000E+00 0. -1.
         11    1    3    3    0    0  0.82422510342E+00 -0.55335598145E+01  0.56181280888E+01  0.79286187148E+01  0.51100000000E-03 0. -1.
        -11    1    3    3    0    0  0.26293435267E+02  0.18053705893E+02 -0.11219486568E+02  0.33810618358E+02  0.51100000000E-03 0.  1.
         12    1    3    3    0    0 -0.10833864760E+02  0.13457940111E+02 -0.31561891625E+01  0.17562753421E+02  0.00000000000E+00 0. -1.
</event>
<event>
 7    1  0.6184948E-012  0.5930193E+02  0.7816164E-02  0.1266605E+00
        -11   -1    0    0    0    0  0.00000000000E+00  0.00000000000E+00  0.45593999997E+02  0.45594000000E+02  0.51100000000E-03 0.  1.
         11   -1    0    0    0    0 -0.00000000000E+00 -0.00000000000E+00 -0.45593999997E+02  0.45594000000E+02  0.51100000000E-03 0. -1.
    9900012    2    1    2    0    0 -0.27982109952E+01  0.31666485408E+02 -0.24748489862E+01  0.59301934700E+02  0.49999982988E+02 0.  0.
         12    1    1    2    0    0  0.27982109952E+01 -0.31666485408E+02  0.24748489862E+01  0.31886065300E+02  0.00000000000E+00 0. -1.
         11    1    3    3    0    0 -0.11534301539E+02  0.28249102635E+01  0.33895636159E+01  0.12349468481E+02  0.51100000000E-03 0. -1.
        -11    1    3    3    0    0 -0.48480787212E+01  0.73198854246E+01  0.12708138070E+02  0.15446079224E+02  0.51100000000E-03 0.  1.
        -12    1    3    3    0    0  0.13584169265E+02  0.21521689719E+02 -0.18572550672E+02  0.31506386995E+02  0.00000000000E+00 0.  1.
</event>
<event>
 7    1  0.6184948E-012  0.5930194E+02  0.7816164E-02  0.1266605E+00
        -11   -1    0    0    0    0  0.00000000000E+00  0.00000000000E+00  0.45593999997E+02  0.45594000000E+02  0.51100000000E-03 0. -1.
         11   -1    0    0    0    0 -0.00000000000E+00 -0.00000000000E+00 -0.45593999997E+02  0.45594000000E+02  0.51100000000E-03 0.  1.
    9900012    2    1    2    0    0 -0.20549671041E+02  0.49295511768E+01 -0.23877429544E+02  0.59301935703E+02  0.49999984818E+02 0.  0.
         12    1    1    2    0    0  0.20549671041E+02 -0.49295511768E+01  0.23877429544E+02  0.31886064297E+02  0.00000000000E+00 0. -1.
         11    1    3    3    0    0 -0.11493133916E+02  0.77814426061E+01  0.45213841359E+00  0.13886950913E+02  0.51100000000E-03 0. -1.
        -11    1    3    3    0    0 -0.34609529963E+01  0.17159157421E+02 -0.12444131743E+02  0.21477227338E+02  0.51100000000E-03 0.  1.
         12    1    3    3    0    0 -0.55955841284E+01 -0.20011048850E+02 -0.11885436215E+02  0.23937757452E+02  0.00000000000E+00 0. -1.
</event>
<event>
 7    1  0.6184948E-012  0.5930194E+02  0.7816164E-02  0.1266605E+00
        -11   -1    0    0    0    0  0.00000000000E+00  0.00000000000E+00  0.45593999997E+02  0.45594000000E+02  0.51100000000E-03 0. -1.
         11   -1    0    0    0    0 -0.00000000000E+00 -0.00000000000E+00 -0.45593999997E+02  0.45594000000E+02  0.51100000000E-03 0.  1.
    9900012    2    1    2    0    0  0.37611707333E+01 -0.27959318234E+02  0.14861045345E+02  0.59301944268E+02  0.50000000439E+02 0.  0.
         12    1    1    2    0    0 -0.37611707333E+01  0.27959318234E+02 -0.14861045345E+02  0.31886055732E+02  0.00000000000E+00 0. -1.
         11    1    3    3    0    0 -0.12038157133E+02 -0.31543157382E+02  0.71766740995E+01  0.34516556262E+02  0.51100000000E-03 0. -1.
        -11    1    3    3    0    0  0.81906375481E+01 -0.71827338084E-01 -0.49648612074E+01  0.95781809171E+01  0.51100000000E-03 0.  1.
        -12    1    3    3    0    0  0.76086903186E+01  0.36556664858E+01  0.12649232452E+02  0.15207207089E+02  0.00000000000E+00 0.  1.
</event>
<event>
 7    1  0.6184948E-012  0.5930196E+02  0.7816164E-02  0.1266605E+00
        -11   -1    0    0    0    0  0.00000000000E+00  0.00000000000E+00  0.45593999997E+02  0.45594000000E+02  0.51100000000E-03 0. -1.
         11   -1    0    0    0    0 -0.00000000000E+00 -0.00000000000E+00 -0.45593999997E+02  0.45594000000E+02  0.51100000000E-03 0.  1.
    9900012    2    1    2    0    0 -0.55935326683E+01 -0.30660472806E+02 -0.67355442350E+01  0.59301956713E+02  0.50000023134E+02 0.  0.
         12    1    1    2    0    0  0.55935326683E+01  0.30660472806E+02  0.67355442350E+01  0.31886043287E+02  0.00000000000E+00 0. -1.
         11    1    3    3    0    0 -0.15422461222E+01  0.32043498556E+01 -0.17015355845E+00  0.35602434739E+01  0.51100000000E-03 0. -1.
        -11    1    3    3    0    0  0.17758711450E+02 -0.39054057903E+01 -0.48971950755E+00  0.18189663334E+02  0.51100000000E-03 0.  1.
         12    1    3    3    0    0 -0.21809997996E+02 -0.29959416871E+02 -0.60756711690E+01  0.37552049904E+02  0.00000000000E+00 0. -1.
</event>
<event>
 7    1  0.6184948E-012  0.5930195E+02  0.7816164E-02  0.1266605E+00
        -11   -1    0    0    0    0  0.00000000000E+00  0.00000000000E+00  0.45593999997E+02  0.45594000000E+02  0.51100000000E-03 0.  1.
         11   -1    0    0    0    0 -0.00000000000E+00 -0.00000000000E+00 -0.45593999997E+02  0.45594000000E+02  0.51100000000E-03 0. -1.
    9900012    2    1    2    0    0 -0.25558131089E+01 -0.12959765888E+02  0.29021238323E+02  0.59301953109E+02  0.50000016563E+02 0.  0.
         12    1    1    2    0    0  0.25558131089E+01  0.12959765888E+02 -0.29021238323E+02  0.31886046891E+02  0.00000000000E+00 0. -1.
         11    1    3    3    0    0  0.20858173257E+01 -0.44369819905E+01 -0.48291723028E+01  0.68817402226E+01  0.51100000000E-03 0. -1.
        -11    1    3    3    0    0 -0.52233317424E+01  0.15091966739E+02  0.99501229182E+01  0.18816365241E+02  0.51100000000E-03 0.  1.
        -12    1    3    3    0    0  0.58170130780E+00 -0.23614750637E+02  0.23900287707E+02  0.33603847645E+02  0.00000000000E+00 0.  1.
</event>
<event>
 7    1  0.6184948E-012  0.5930197E+02  0.7816164E-02  0.1266605E+00
        -11   -1    0    0    0    0  0.00000000000E+00  0.00000000000E+00  0.45593999997E+02  0.45594000000E+02  0.51100000000E-03 0. -1.
         11   -1    0    0    0    0 -0.00000000000E+00 -0.00000000000E+00 -0.45593999997E+02  0.45594000000E+02  0.51100000000E-03 0.  1.
    9900012    2    1    2    0    0 -0.87211634951E+01  0.95528119409E+01 -0.29144537120E+02  0.59301969318E+02  0.50000046124E+02 0.  0.
         12    1    1    2    0    0  0.87211634951E+01 -0.95528119409E+01  0.29144537120E+02  0.31886030682E+02  0.00000000000E+00 0. -1.
         11    1    3    3    0    0 -0.96858594364E+01 -0.14321821352E+02 -0.31748456457E+01  0.17578682686E+02  0.51100000000E-03 0. -1.
        -11    1    3    3    0    0 -0.99818583602E+01  0.17041276085E+02 -0.15476810437E+02  0.25091318190E+02  0.51100000000E-03 0.  1.
        -12    1    3    3    0    0  0.10946554302E+02  0.68333572072E+01 -0.10492881038E+02  0.16631968442E+02  0.00000000000E+00 0.  1.
</event>
<event>
 7    1  0.6184948E-012  0.5930201E+02  0.7816164E-02  0.1266605E+00
        -11   -1    0    0    0    0  0.00000000000E+00  0.00000000000E+00  0.45593999997E+02  0.45594000000E+02  0.51100000000E-03 0.  1.
         11   -1    0    0    0    0 -0.00000000000E+00 -0.00000000000E+00 -0.45593999997E+02  0.45594000000E+02  0.51100000000E-03 0. -1.
    9900012    2    1    2    0    0  0.10546039586E+02  0.29096676764E+02 -0.76733983520E+01  0.59302006336E+02  0.50000113636E+02 0.  0.
         12    1    1    2    0    0 -0.10546039586E+02 -0.29096676764E+02  0.76733983520E+01  0.31885993664E+02  0.00000000000E+00 0. -1.
         11    1    3    3    0    0  0.46181712815E+01  0.90080108014E+01 -0.78799194857E+01  0.12828284996E+02  0.51100000000E-03 0. -1.
        -11    1    3    3    0    0  0.23764794721E+02  0.11653308386E+02  0.26115510063E+01  0.26596715275E+02  0.51100000000E-03 0.  1.
        -12    1    3    3    0    0 -0.17836926417E+02  0.84353575765E+01 -0.24050298726E+01  0.19877006065E+02  0.00000000000E+00 0.  1.
</event>
<event>
 7    1  0.6184948E-012  0.5930196E+02  0.7816164E-02  0.1266605E+00
        -11   -1    0    0    0    0  0.00000000000E+00  0.00000000000E+00  0.45593999997E+02  0.45594000000E+02  0.51100000000E-03 0. -1.
         11   -1    0    0    0    0 -0.00000000000E+00 -0.00000000000E+00 -0.45593999997E+02  0.45594000000E+02  0.51100000000E-03 0.  1.
    9900012    2    1    2    0    0  0.28676895215E+02 -0.13333269906E+02  0.40717717843E+01  0.59301957113E+02  0.50000023864E+02 0.  0.
         12    1    1    2    0    0 -0.28676895215E+02  0.13333269906E+02 -0.40717717843E+01  0.31886042887E+02  0.00000000000E+00 0. -1.
         11    1    3    3    0    0  0.26098876465E+01  0.73107492062E-01  0.13256649528E+02  0.13511314341E+02  0.51100000000E-03 0. -1.
        -11    1    3    3    0    0  0.79824312717E+01  0.10826025925E+02  0.19037023013E+01  0.13584775635E+02  0.51100000000E-03 0.  1.
        -12    1    3    3    0    0  0.18084576297E+02 -0.24232403323E+02 -0.11088580045E+02  0.32205867137E+02  0.00000000000E+00 0.  1.
</event>
<event>
 7    1  0.6184948E-012  0.5930195E+02  0.7816164E-02  0.1266605E+00
        -11   -1    0    0    0    0  0.00000000000E+00  0.00000000000E+00  0.45593999997E+02  0.45594000000E+02  0.51100000000E-03 0.  1.
         11   -1    0    0    0    0 -0.00000000000E+00 -0.00000000000E+00 -0.45593999997E+02  0.45594000000E+02  0.51100000000E-03 0. -1.
    9900012    2    1    2    0    0  0.19181757623E+02 -0.15878903353E+02  0.19915842067E+02  0.59301950348E+02  0.50000011526E+02 0.  0.
         12    1    1    2    0    0 -0.19181757623E+02  0.15878903353E+02 -0.19915842067E+02  0.31886049652E+02  0.00000000000E+00 0. -1.
         11    1    3    3    0    0 -0.82705768065E+01 -0.10792364397E+02 -0.52580277317E+00  0.13607131909E+02  0.51100000000E-03 0. -1.
        -11    1    3    3    0    0  0.13854848640E+01 -0.13402114682E+02  0.58882896037E+01  0.14704019892E+02  0.51100000000E-03 0.  1.
        -12    1    3    3    0    0  0.26066849566E+02  0.83155757252E+01  0.14553355236E+02  0.30990798546E+02  0.00000000000E+00 0.  1.
</event>
<event>
 7    1  0.6184948E-012  0.5930194E+02  0.7816164E-02  0.1266605E+00
        -11   -1    0    0    0    0  0.00000000000E+00  0.00000000000E+00  0.45593999997E+02  0.45594000000E+02  0.51100000000E-03 0. -1.
         11   -1    0    0    0    0 -0.00000000000E+00 -0.00000000000E+00 -0.45593999997E+02  0.45594000000E+02  0.51100000000E-03 0.  1.
    9900012    2    1    2    0    0 -0.47821292586E+01 -0.28062037534E+02 -0.14365723791E+02  0.59301941434E+02  0.49999995270E+02 0.  0.
         12    1    1    2    0    0  0.47821292586E+01  0.28062037534E+02  0.14365723791E+02  0.31886058566E+02  0.00000000000E+00 0. -1.
         11    1    3    3    0    0 -0.19891443460E+02 -0.13731281071E+02 -0.91001253774E+01  0.25826921708E+02  0.51100000000E-03 0. -1.
        -11    1    3    3    0    0 -0.45177628548E+01  0.33718527317E+01  0.21338578400E+01  0.60276796198E+01  0.51100000000E-03 0.  1.
         12    1    3    3    0    0  0.19627077056E+02 -0.17702609194E+02 -0.73994562541E+01  0.27447340106E+02  0.00000000000E+00 0. -1.
</event>
<event>
 7    1  0.6184948E-012  0.5930195E+02  0.7816164E-02  0.1266605E+00
        -11   -1    0    0    0    0  0.00000000000E+00  0.00000000000E+00  0.45593999997E+02  0.45594000000E+02  0.51100000000E-03 0. -1.
         11   -1    0    0    0    0 -0.00000000000E+00 -0.00000000000E+00 -0.45593999997E+02  0.45594000000E+02  0.51100000000E-03 0.  1.
    9900012    2    1    2    0    0  0.20959058934E+02 -0.85091566829E+01 -0.22472929290E+02  0.59301945842E+02  0.50000003309E+02 0.  0.
         12    1    1    2    0    0 -0.20959058934E+02  0.85091566829E+01  0.22472929290E+02  0.31886054158E+02  0.00000000000E+00 0. -1.
         11    1    3    3    0    0 -0.11212590387E+01 -0.12610449143E+02 -0.47070680668E+01  0.13506929313E+02  0.51100000000E-03 0. -1.
        -11    1    3    3    0    0  0.17183265571E+02 -0.14255672202E+02 -0.49248325201E+01  0.22863568865E+02  0.51100000000E-03 0.  1.
        -12    1    3    3    0    0  0.48970524018E+01  0.18356964662E+02 -0.12841028703E+02  0.22931447665E+02  0.00000000000E+00 0.  1.
</event>
<event>
 7    1  0.6184948E-012  0.5930187E+02  0.7816164E-02  0.1266605E+00
        -11   -1    0    0    0    0  0.00000000000E+00  0.00000000000E+00  0.45593999997E+02  0.45594000000E+02  0.51100000000E-03 0.  1.
         11   -1    0    0    0    0 -0.00000000000E+00 -0.00000000000E+00 -0.45593999997E+02  0.45594000000E+02  0.51100000000E-03 0. -1.
    9900012    2    1    2    0    0  0.77337670862E+01 -0.15779591286E+02  0.26606745911E+02  0.59301865357E+02  0.49999856523E+02 0.  0.
         12    1    1    2    0    0 -0.77337670862E+01  0.15779591286E+02 -0.26606745911E+02  0.31886134643E+02  0.00000000000E+00 0. -1.
         11    1    3    3    0    0  0.10367285490E+02  0.13083236180E+02  0.76175038710E+01  0.18348788593E+02  0.51100000000E-03 0. -1.
        -11    1    3    3    0    0 -0.12022515445E+01 -0.10207681038E+02  0.19710299646E+02  0.22229216661E+02  0.51100000000E-03 0.  1.
        -12    1    3    3    0    0 -0.14312668593E+01 -0.18655146428E+02 -0.72105760602E+00  0.18723860103E+02  0.00000000000E+00 0.  1.
</event>
<event>
 7    1  0.6184948E-012  0.5930195E+02  0.7816164E-02  0.1266605E+00
        -11   -1    0    0    0    0  0.00000000000E+00  0.00000000000E+00  0.45593999997E+02  0.45594000000E+02  0.51100000000E-03 0. -1.
         11   -1    0    0    0    0 -0.00000000000E+00 -0.00000000000E+00 -0.45593999997E+02  0.45594000000E+02  0.51100000000E-03 0.  1.
    9900012    2    1    2    0    0 -0.13309782381E+02  0.22199312714E+02  0.18621503885E+02  0.59301949775E+02  0.50000010482E+02 0.  0.
         12    1    1    2    0    0  0.13309782381E+02 -0.22199312714E+02 -0.18621503885E+02  0.31886050225E+02  0.00000000000E+00 0. -1.
         11    1    3    3    0    0 -0.23606017440E+02  0.11043743760E+02 -0.33760745341E+00  0.26063812358E+02  0.51100000000E-03 0. -1.
        -11    1    3    3    0    0 -0.22676519183E+01  0.62821071032E+01  0.18594102597E+02  0.19757220617E+02  0.51100000000E-03 0.  1.
        -12    1    3    3    0    0  0.12563886977E+02  0.48734618512E+01  0.36500874139E+00  0.13480916800E+02  0.00000000000E+00 0.  1.
</event>
<event>
 7    1  0.6184948E-012  0.5930194E+02  0.7816164E-02  0.1266605E+00
        -11   -1    0    0    0    0  0.00000000000E+00  0.00000000000E+00  0.45593999997E+02  0.45594000000E+02  0.51100000000E-03 0.  1.
         11   -1    0    0    0    0 -0.00000000000E+00 -0.00000000000E+00 -0.45593999997E+02  0.45594000000E+02  0.51100000000E-03 0. -1.
    9900012    2    1    2    0    0 -0.11520635382E+02 -0.29407132785E+02  0.43836659623E+01  0.59301936814E+02  0.49999986844E+02 0.  0.
         12    1    1    2    0    0  0.11520635382E+02  0.29407132785E+02 -0.43836659623E+01  0.31886063186E+02  0.00000000000E+00 0. -1.
         11    1    3    3    0    0 -0.90178513307E+01  0.21931124731E+01 -0.72598478976E+01  0.11782901879E+02  0.51100000000E-03 0. -1.
        -11    1    3    3    0    0  0.14322958021E+01 -0.52033511891E+01 -0.11172080012E+02  0.12407324728E+02  0.51100000000E-03 0.  1.
        -12    1    3    3    0    0 -0.39350798537E+01 -0.26396894069E+02  0.22815593871E+02  0.35111710207E+02  0.00000000000E+00 0.  1.
</event>
<event>
 7    1  0.6184948E-012  0.5930194E+02  0.7816164E-02  0.1266605E+00
        -11   -1    0    0    0    0  0.00000000000E+00  0.00000000000E+00  0.45593999997E+02  0.45594000000E+02  0.51100000000E-03 0. -1.
         11   -1    0    0    0    0 -0.00000000000E+00 -0.00000000000E+00 -0.45593999997E+02  0.45594000000E+02  0.51100000000E-03 0.  1.
    9900012    2    1    2    0    0 -0.74642072826E-01  0.31254592231E+02 -0.63139308415E+01  0.59301939885E+02  0.49999992445E+02 0.  0.
         12    1    1    2    0    0  0.74642072826E-01 -0.31254592231E+02  0.63139308415E+01  0.31886060115E+02  0.00000000000E+00 0. -1.
         11    1    3    3    0    0 -0.14674429107E+01 -0.64917524914E+01  0.48710412541E+01  0.82476228251E+01  0.51100000000E-03 0. -1.
        -11    1    3    3    0    0  0.11011557783E+02  0.64524243144E+00  0.32639275691E+00  0.11035274129E+02  0.51100000000E-03 0.  1.
         12    1    3    3    0    0 -0.96187569455E+01  0.37101102291E+02 -0.11511364852E+02  0.40019042931E+02  0.00000000000E+00 0. -1.
</event>
<event>
 7    1  0.6184948E-012  0.5930191E+02  0.7816164E-02  0.1266605E+00
        -11   -1    0    0    0    0  0.00000000000E+00  0.00000000000E+00  0.45593999997E+02  0.45594000000E+02  0.51100000000E-03 0.  1.
         11   -1    0    0    0    0 -0.00000000000E+00 -0.00000000000E+00 -0.45593999997E+02  0.45594000000E+02  0.51100000000E-03 0. -1.
    9900012    2    1    2    0    0 -0.25209752416E+02  0.13946916069E+02 -0.13662890427E+02  0.59301911191E+02  0.49999940113E+02 0.  0.
         12    1    1    2    0    0  0.25209752416E+02 -0.13946916069E+02  0.13662890427E+02  0.31886088809E+02  0.00000000000E+00 0. -1.
         11    1    3    3    0    0  0.46196372906E+01 -0.87165166639E+00  0.44983961710E+01  0.65066422751E+01  0.51100000000E-03 0. -1.
        -11    1    3    3    0    0 -0.14211106139E+02  0.15378387396E+02  0.79225315119E+01  0.22387872664E+02  0.51100000000E-03 0.  1.
         12    1    3    3    0    0 -0.15618283567E+02 -0.55981965996E+00 -0.26083818110E+02  0.30407396252E+02  0.00000000000E+00 0. -1.
</event>
<event>
 7    1  0.6184948E-012  0.5930195E+02  0.7816164E-02  0.1266605E+00
        -11   -1    0    0    0    0  0.00000000000E+00  0.00000000000E+00  0.45593999997E+02  0.45594000000E+02  0.51100000000E-03 0.  1.
         11   -1    0    0    0    0 -0.00000000000E+00 -0.00000000000E+00 -0.45593999997E+02  0.45594000000E+02  0.51100000000E-03 0. -1.
    9900012    2    1    2    0    0 -0.21030557911E+01 -0.11640567069E+02  0.29610713654E+02  0.59301952762E+02  0.50000015929E+02 0.  0.
         12    1    1    2    0    0  0.21030557911E+01  0.11640567069E+02 -0.29610713654E+02  0.31886047238E+02  0.00000000000E+00 0. -1.
         11    1    3    3    0    0  0.14205427352E+02 -0.88199608324E+00  0.17771678321E+02  0.22768500915E+02  0.51100000000E-03 0. -1.
        -11    1    3    3    0    0 -0.11048907948E+02  0.88898738175E+01  0.39960359420E+01  0.14733517124E+02  0.51100000000E-03 0.  1.
         12    1    3    3    0    0 -0.52595751948E+01 -0.19648444804E+02  0.78429993917E+01  0.21799934722E+02  0.00000000000E+00 0. -1.
</event>
<event>
 7    1  0.6184948E-012  0.5930191E+02  0.7816164E-02  0.1266605E+00
        -11   -1    0    0    0    0  0.00000000000E+00  0.00000000000E+00  0.45593999997E+02  0.45594000000E+02  0.51100000000E-03 0. -1.
         11   -1    0    0    0    0 -0.00000000000E+00 -0.00000000000E+00 -0.45593999997E+02  0.45594000000E+02  0.51100000000E-03 0.  1.
    9900012    2    1    2    0    0  0.61385115807E+01 -0.97981516973E+01 -0.29715953760E+02  0.59301905711E+02  0.49999930120E+02 0.  0.
         12    1    1    2    0    0 -0.61385115807E+01  0.97981516973E+01  0.29715953760E+02  0.31886094289E+02  0.00000000000E+00 0. -1.
         11    1    3    3    0    0 -0.69112444774E+01 -0.23835039837E+02 -0.17127174229E+02  0.30153184269E+02  0.51100000000E-03 0. -1.
        -11    1    3    3    0    0 -0.41646732701E+01  0.24838576664E+00 -0.27573560789E+01  0.50009210894E+01  0.51100000000E-03 0.  1.
         12    1    3    3    0    0  0.17214429328E+02  0.13788502373E+02 -0.98314234527E+01  0.24147800353E+02  0.00000000000E+00 0. -1.
</event>
<event>
 7    1  0.6184948E-012  0.5930191E+02  0.7816164E-02  0.1266605E+00
        -11   -1    0    0    0    0  0.00000000000E+00  0.00000000000E+00  0.45593999997E+02  0.45594000000E+02  0.51100000000E-03 0.  1.
         11   -1    0    0    0    0 -0.00000000000E+00 -0.00000000000E+00 -0.45593999997E+02  0.45594000000E+02  0.51100000000E-03 0. -1.
    9900012    2    1    2    0    0 -0.31512963028E+01  0.27179626464E+02  0.16372536450E+02  0.59301910354E+02  0.49999938587E+02 0.  0.
         12    1    1    2    0    0  0.31512963028E+01 -0.27179626464E+02 -0.16372536450E+02  0.31886089646E+02  0.00000000000E+00 0. -1.
         11    1    3    3    0    0  0.11008801685E+01  0.48007891411E+01  0.82171466069E+01  0.95802407143E+01  0.51100000000E-03 0. -1.
        -11    1    3    3    0    0  0.91776238868E+01  0.14222561077E+02  0.22696364408E+02  0.28313159156E+02  0.51100000000E-03 0.  1.
         12    1    3    3    0    0 -0.13429800358E+02  0.81562762458E+01 -0.14540974565E+02  0.21408510484E+02  0.00000000000E+00 0. -1.
</event>
<event>
 7    1  0.6184948E-012  0.5930192E+02  0.7816164E-02  0.1266605E+00
        -11   -1    0    0    0    0  0.00000000000E+00  0.00000000000E+00  0.45593999997E+02  0.45594000000E+02  0.51100000000E-03 0. -1.
         11   -1    0    0    0    0 -0.00000000000E+00 -0.00000000000E+00 -0.45593999997E+02  0.45594000000E+02  0.51100000000E-03 0.  1.
    9900012    2    1    2    0    0  0.57277633001E+01  0.31089569353E+02 -0.41657175293E+01  0.59301924708E+02  0.49999964766E+02 0.  0.
         12    1    1    2    0    0 -0.57277633001E+01 -0.31089569353E+02  0.41657175293E+01  0.31886075292E+02  0.00000000000E+00 0. -1.
         11    1    3    3    0    0 -0.34135929139E+01  0.23677433115E+00  0.93580649475E+01  0.99640382621E+01  0.51100000000E-03 0. -1.
        -11    1    3    3    0    0 -0.44220038551E+01  0.79866043492E+01  0.10212134217E+02  0.13697724360E+02  0.51100000000E-03 0.  1.
         12    1    3    3    0    0  0.13563360069E+02  0.22866190672E+02 -0.23735916694E+02  0.35640162086E+02  0.00000000000E+00 0. -1.
</event>
<event>
 7    1  0.6184948E-012  0.5930195E+02  0.7816164E-02  0.1266605E+00
        -11   -1    0    0    0    0  0.00000000000E+00  0.00000000000E+00  0.45593999997E+02  0.45594000000E+02  0.51100000000E-03 0.  1.
         11   -1    0    0    0    0 -0.00000000000E+00 -0.00000000000E+00 -0.45593999997E+02  0.45594000000E+02  0.51100000000E-03 0. -1.
    9900012    2    1    2    0    0 -0.77718321911E+01 -0.55374336991E+01  0.30424585323E+02  0.59301953841E+02  0.50000017897E+02 0.  0.
         12    1    1    2    0    0  0.77718321911E+01  0.55374336991E+01 -0.30424585323E+02  0.31886046159E+02  0.00000000000E+00 0. -1.
         11    1    3    3    0    0  0.18653150572E+01 -0.81663782239E+01  0.75901088834E+01  0.11303932355E+02  0.51100000000E-03 0. -1.
        -11    1    3    3    0    0  0.15935659640E+02 -0.24132727872E+01  0.77673010860E+01  0.17891341485E+02  0.51100000000E-03 0.  1.
         12    1    3    3    0    0 -0.25572806888E+02  0.50422173120E+01  0.15067175354E+02  0.30106680001E+02  0.00000000000E+00 0. -1.
</event>
<event>
 7    1  0.6184948E-012  0.5930188E+02  0.7816164E-02  0.1266605E+00
        -11   -1    0    0    0    0  0.00000000000E+00  0.00000000000E+00  0.45593999997E+02  0.45594000000E+02  0.51100000000E-03 0.  1.
         11   -1    0    0    0    0 -0.00000000000E+00 -0.00000000000E+00 -0.45593999997E+02  0.45594000000E+02  0.51100000000E-03 0. -1.
    9900012    2    1    2    0    0 -0.25380181057E+02 -0.15727844644E+02  0.11189551258E+02  0.59301878489E+02  0.49999880473E+02 0.  0.
         12    1    1    2    0    0  0.25380181057E+02  0.15727844644E+02 -0.11189551258E+02  0.31886121511E+02  0.00000000000E+00 0. -1.
         11    1    3    3    0    0  0.42266251658E+00  0.44112875754E+00 -0.77811226847E+01  0.78050694218E+01  0.51100000000E-03 0. -1.
        -11    1    3    3    0    0 -0.14882217454E+00  0.77784630235E+01  0.14048728259E+02  0.16059059780E+02  0.51100000000E-03 0.  1.
         12    1    3    3    0    0 -0.25654021399E+02 -0.23947436425E+02  0.49219456840E+01  0.35437749288E+02  0.00000000000E+00 0. -1.
</event>
<event>
 7    1  0.6184948E-012  0.5930194E+02  0.7816164E-02  0.1266605E+00
        -11   -1    0    0    0    0  0.00000000000E+00  0.00000000000E+00  0.45593999997E+02  0.45594000000E+02  0.51100000000E-03 0.  1.
         11   -1    0    0    0    0 -0.00000000000E+00 -0.00000000000E+00 -0.45593999997E+02  0.45594000000E+02  0.51100000000E-03 0. -1.
    9900012    2    1    2    0    0 -0.32797900789E+01  0.22886886277E+02  0.21958004115E+02  0.59301944567E+02  0.50000000983E+02 0.  0.
         12    1    1    2    0    0  0.32797900789E+01 -0.22886886277E+02 -0.21958004115E+02  0.31886055433E+02  0.00000000000E+00 0. -1.
         11    1    3    3    0    0  0.65668816186E+01  0.74053049136E+01 -0.65805669798E+01  0.11885551611E+02  0.51100000000E-03 0. -1.
        -11    1    3    3    0    0  0.84349419813E+01 -0.54432116309E+01  0.66075846597E+01  0.12018193474E+02  0.51100000000E-03 0.  1.
        -12    1    3    3    0    0 -0.18281613679E+02  0.20924792994E+02  0.21930986435E+02  0.35398199482E+02  0.00000000000E+00 0.  1.
</event>
<event>
 7    1  0.6184948E-012  0.5930196E+02  0.7816164E-02  0.1266605E+00
        -11   -1    0    0    0    0  0.00000000000E+00  0.00000000000E+00  0.45593999997E+02  0.45594000000E+02  0.51100000000E-03 0.  1.
         11   -1    0    0    0    0 -0.00000000000E+00 -0.00000000000E+00 -0.45593999997E+02  0.45594000000E+02  0.51100000000E-03 0. -1.
    9900012    2    1    2    0    0  0.14086310739E+02  0.28581260455E+02  0.11862498516E+01  0.59301956217E+02  0.50000022231E+02 0.  0.
         12    1    1    2    0    0 -0.14086310739E+02 -0.28581260455E+02 -0.11862498516E+01  0.31886043783E+02  0.00000000000E+00 0. -1.
         11    1    3    3    0    0 -0.30013473928E+01 -0.28293439889E+01  0.79216508417E-01  0.41254756206E+01  0.51100000000E-03 0. -1.
        -11    1    3    3    0    0 -0.93016771460E+01  0.25003656644E+02  0.65736707105E+01  0.27475756407E+02  0.51100000000E-03 0.  1.
         12    1    3    3    0    0  0.26389335277E+02  0.64069477998E+01 -0.54666373673E+01  0.27700724189E+02  0.00000000000E+00 0. -1.
</event>
<event>
 7    1  0.6184948E-012  0.5930194E+02  0.7816164E-02  0.1266605E+00
        -11   -1    0    0    0    0  0.00000000000E+00  0.00000000000E+00  0.45593999997E+02  0.45594000000E+02  0.51100000000E-03 0.  1.
         11   -1    0    0    0    0 -0.00000000000E+00 -0.00000000000E+00 -0.45593999997E+02  0.45594000000E+02  0.51100000000E-03 0. -1.
    9900012    2    1    2    0    0 -0.28045383093E+02 -0.35904032539E+01  0.14740641747E+02  0.59301936783E+02  0.49999986787E+02 0.  0.
         12    1    1    2    0    0  0.28045383093E+02  0.35904032539E+01 -0.14740641747E+02  0.31886063217E+02  0.00000000000E+00 0. -1.
         11    1    3    3    0    0 -0.10113052008E+02 -0.54709562521E+00  0.25036642851E+02  0.27007528951E+02  0.51100000000E-03 0. -1.
        -11    1    3    3    0    0 -0.13852613376E+02 -0.76865691459E+01  0.43237755085E+01  0.16421731866E+02  0.51100000000E-03 0.  1.
         12    1    3    3    0    0 -0.40797177092E+01  0.46432615172E+01 -0.14619776613E+02  0.15872675966E+02  0.00000000000E+00 0. -1.
</event>
<event>
 7    1  0.6184948E-012  0.5930193E+02  0.7816164E-02  0.1266605E+00
        -11   -1    0    0    0    0  0.00000000000E+00  0.00000000000E+00  0.45593999997E+02  0.45594000000E+02  0.51100000000E-03 0.  1.
         11   -1    0    0    0    0 -0.00000000000E+00 -0.00000000000E+00 -0.45593999997E+02  0.45594000000E+02  0.51100000000E-03 0. -1.
    9900012    2    1    2    0    0 -0.63927897991E+01 -0.25530359918E+02  0.18001510434E+02  0.59301930677E+02  0.49999975651E+02 0.  0.
         12    1    1    2    0    0  0.63927897991E+01  0.25530359918E+02 -0.18001510434E+02  0.31886069323E+02  0.00000000000E+00 0. -1.
         11    1    3    3    0    0  0.82096344823E+01 -0.30576609146E+02  0.12505859345E+02  0.34040030015E+02  0.51100000000E-03 0. -1.
        -11    1    3    3    0    0 -0.28018895892E+01 -0.63988293427E+01  0.53889647553E+01  0.88225021180E+01  0.51100000000E-03 0.  1.
         12    1    3    3    0    0 -0.11800534692E+02  0.11445078571E+02  0.10668633357E+00  0.16439398544E+02  0.00000000000E+00 0. -1.
</event>
<event>
 7    1  0.6184948E-012  0.5930196E+02  0.7816164E-02  0.1266605E+00
        -11   -1    0    0    0    0  0.00000000000E+00  0.00000000000E+00  0.45593999997E+02  0.45594000000E+02  0.51100000000E-03 0.  1.
         11   -1    0    0    0    0 -0.00000000000E+00 -0.00000000000E+00 -0.45593999997E+02  0.45594000000E+02  0.51100000000E-03 0. -1.
    9900012    2    1    2    0    0 -0.21564390994E+02 -0.18643481147E+02  0.14286950465E+02  0.59301963843E+02  0.50000036139E+02 0.  0.
         12    1    1    2    0    0  0.21564390994E+02  0.18643481147E+02 -0.14286950465E+02  0.31886036157E+02  0.00000000000E+00 0. -1.
         11    1    3    3    0    0 -0.75824212436E+01  0.59192214286E+01  0.14002946999E+02  0.16988608511E+02  0.51100000000E-03 0.  1.
        -11    1    3    3    0    0 -0.14635892465E+01 -0.17378180540E+02 -0.13729889674E+02  0.22195790662E+02  0.51100000000E-03 0. -1.
         12    1    3    3    0    0 -0.12518380504E+02 -0.71845220352E+01  0.14013893140E+02  0.20117564670E+02  0.00000000000E+00 0. -1.
</event>
<event>
 7    1  0.6184948E-012  0.5930196E+02  0.7816164E-02  0.1266605E+00
        -11   -1    0    0    0    0  0.00000000000E+00  0.00000000000E+00  0.45593999997E+02  0.45594000000E+02  0.51100000000E-03 0. -1.
         11   -1    0    0    0    0 -0.00000000000E+00 -0.00000000000E+00 -0.45593999997E+02  0.45594000000E+02  0.51100000000E-03 0.  1.
    9900012    2    1    2    0    0 -0.17965517810E+02  0.14916753380E+02 -0.21712908138E+02  0.59301956950E+02  0.50000023566E+02 0.  0.
         12    1    1    2    0    0  0.17965517810E+02 -0.14916753380E+02  0.21712908138E+02  0.31886043050E+02  0.00000000000E+00 0. -1.
         11    1    3    3    0    0 -0.38761289102E+01  0.21697372138E+01  0.86066650738E+01  0.96853920344E+01  0.51100000000E-03 0. -1.
        -11    1    3    3    0    0  0.84819945124E+01  0.11118277001E+02 -0.32932101446E+01  0.14366821071E+02  0.51100000000E-03 0.  1.
        -12    1    3    3    0    0 -0.22571383412E+02  0.16287391658E+01 -0.27026363068E+02  0.35249743844E+02  0.00000000000E+00 0.  1.
</event>
<event>
 7    1  0.6184948E-012  0.5930193E+02  0.7816164E-02  0.1266605E+00
        -11   -1    0    0    0    0  0.00000000000E+00  0.00000000000E+00  0.45593999997E+02  0.45594000000E+02  0.51100000000E-03 0.  1.
         11   -1    0    0    0    0 -0.00000000000E+00 -0.00000000000E+00 -0.45593999997E+02  0.45594000000E+02  0.51100000000E-03 0. -1.
    9900012    2    1    2    0    0  0.50539398850E+00 -0.30251933634E+02  0.10064113491E+02  0.59301932634E+02  0.49999979221E+02 0.  0.
         12    1    1    2    0    0 -0.50539398850E+00  0.30251933634E+02 -0.10064113491E+02  0.31886067366E+02  0.00000000000E+00 0. -1.
         11    1    3    3    0    0 -0.13074098511E+00 -0.38951146872E+01 -0.54797147561E+01  0.67243055925E+01  0.51100000000E-03 0. -1.
        -11    1    3    3    0    0 -0.20827122418E+02 -0.12102207079E+02  0.10713971034E+02  0.26363262696E+02  0.51100000000E-03 0.  1.
        -12    1    3    3    0    0  0.21463257392E+02 -0.14254611867E+02  0.48298572132E+01  0.26214364346E+02  0.00000000000E+00 0.  1.
</event>
<event>
 7    1  0.6184948E-012  0.5930195E+02  0.7816164E-02  0.1266605E+00
        -11   -1    0    0    0    0  0.00000000000E+00  0.00000000000E+00  0.45593999997E+02  0.45594000000E+02  0.51100000000E-03 0. -1.
         11   -1    0    0    0    0 -0.00000000000E+00 -0.00000000000E+00 -0.45593999997E+02  0.45594000000E+02  0.51100000000E-03 0.  1.
    9900012    2    1    2    0    0  0.70476445671E+01 -0.62434453403E+01 -0.30464249571E+02  0.59301946534E+02  0.50000004572E+02 0.  0.
         12    1    1    2    0    0 -0.70476445671E+01  0.62434453403E+01  0.30464249571E+02  0.31886053466E+02  0.00000000000E+00 0. -1.
         11    1    3    3    0    0 -0.17366975231E+02  0.60046112985E+01 -0.82197081218E+01  0.20130344940E+02  0.51100000000E-03 0. -1.
        -11    1    3    3    0    0 -0.18432546768E+01  0.11267037337E+01  0.14142228344E+00  0.21649594986E+01  0.51100000000E-03 0.  1.
        -12    1    3    3    0    0  0.26257874475E+02 -0.13374760372E+02 -0.22385963733E+02  0.37006642096E+02  0.00000000000E+00 0.  1.
</event>
<event>
 7    1  0.6184948E-012  0.5930194E+02  0.7816164E-02  0.1266605E+00
        -11   -1    0    0    0    0  0.00000000000E+00  0.00000000000E+00  0.45593999997E+02  0.45594000000E+02  0.51100000000E-03 0.  1.
         11   -1    0    0    0    0 -0.00000000000E+00 -0.00000000000E+00 -0.45593999997E+02  0.45594000000E+02  0.51100000000E-03 0. -1.
    9900012    2    1    2    0    0  0.24773063091E+02  0.11928596498E+02  0.16146965235E+02  0.59301944183E+02  0.50000000282E+02 0.  0.
         12    1    1    2    0    0 -0.24773063091E+02 -0.11928596498E+02 -0.16146965235E+02  0.31886055817E+02  0.00000000000E+00 0. -1.
         11    1    3    3    0    0 -0.59468451882E+01  0.83448122178E+01 -0.24209239570E+01  0.10529089785E+02  0.51100000000E-03 0. -1.
        -11    1    3    3    0    0 -0.51022754152E+01 -0.28393068798E+00  0.10751853006E+02  0.11904460273E+02  0.51100000000E-03 0.  1.
         12    1    3    3    0    0  0.35822183694E+02  0.38677149677E+01  0.78160361857E+01  0.36868394125E+02  0.00000000000E+00 0. -1.
</event>
<event>
 7    1  0.6184948E-012  0.5930196E+02  0.7816164E-02  0.1266605E+00
        -11   -1    0    0    0    0  0.00000000000E+00  0.00000000000E+00  0.45593999997E+02  0.45594000000E+02  0.51100000000E-03 0.  1.
         11   -1    0    0    0    0 -0.00000000000E+00 -0.00000000000E+00 -0.45593999997E+02  0.45594000000E+02  0.51100000000E-03 0. -1.
    9900012    2    1    2    0    0 -0.19121563129E+02  0.25113531259E+02  0.45161912731E+01  0.59301958972E+02  0.50000027256E+02 0.  0.
         12    1    1    2    0    0  0.19121563129E+02 -0.25113531259E+02 -0.45161912731E+01  0.31886041028E+02  0.00000000000E+00 0. -1.
         11    1    3    3    0    0  0.63107589070E+01  0.22497566878E+02 -0.25402711894E+01  0.23503599116E+02  0.51100000000E-03 0. -1.
        -11    1    3    3    0    0  0.40561992742E+01  0.11875857335E+00 -0.24191532703E+01  0.47243157131E+01  0.51100000000E-03 0.  1.
        -12    1    3    3    0    0 -0.29488521310E+02  0.24972058074E+01  0.94756157329E+01  0.31074044143E+02  0.00000000000E+00 0.  1.
</event>
<event>
 7    1  0.6184948E-012  0.5930185E+02  0.7816164E-02  0.1266605E+00
        -11   -1    0    0    0    0  0.00000000000E+00  0.00000000000E+00  0.45593999997E+02  0.45594000000E+02  0.51100000000E-03 0.  1.
         11   -1    0    0    0    0 -0.00000000000E+00 -0.00000000000E+00 -0.45593999997E+02  0.45594000000E+02  0.51100000000E-03 0. -1.
    9900012    2    1    2    0    0 -0.24007029526E+02  0.39390174064E+01  0.20612449405E+02  0.59301852612E+02  0.49999833279E+02 0.  0.
         12    1    1    2    0    0  0.24007029526E+02 -0.39390174064E+01 -0.20612449405E+02  0.31886147388E+02  0.00000000000E+00 0. -1.
         11    1    3    3    0    0  0.69404879334E+01  0.13566652102E+01  0.12818237308E+02  0.14639607959E+02  0.51100000000E-03 0. -1.
        -11    1    3    3    0    0 -0.89486868736E+01  0.15215884831E+02 -0.13314907954E+01  0.17702401418E+02  0.51100000000E-03 0.  1.
        -12    1    3    3    0    0 -0.21998830586E+02 -0.12633532635E+02  0.91257028924E+01  0.26959843235E+02  0.00000000000E+00 0.  1.
</event>
<event>
 7    1  0.6184948E-012  0.5930195E+02  0.7816164E-02  0.1266605E+00
        -11   -1    0    0    0    0  0.00000000000E+00  0.00000000000E+00  0.45593999997E+02  0.45594000000E+02  0.51100000000E-03 0.  1.
         11   -1    0    0    0    0 -0.00000000000E+00 -0.00000000000E+00 -0.45593999997E+02  0.45594000000E+02  0.51100000000E-03 0. -1.
    9900012    2    1    2    0    0  0.13891897931E+02 -0.23174711688E+02  0.16931284698E+02  0.59301945188E+02  0.50000002116E+02 0.  0.
         12    1    1    2    0    0 -0.13891897931E+02  0.23174711688E+02 -0.16931284698E+02  0.31886054812E+02  0.00000000000E+00 0. -1.
         11    1    3    3    0    0  0.14824105029E+02 -0.65881109327E+01  0.61835516761E+01  0.17360691437E+02  0.51100000000E-03 0. -1.
        -11    1    3    3    0    0  0.96796410499E+01  0.50847285676E+01 -0.60917209984E+01  0.12516348527E+02  0.51100000000E-03 0.  1.
        -12    1    3    3    0    0 -0.10611848149E+02 -0.21671329323E+02  0.16839454020E+02  0.29424905224E+02  0.00000000000E+00 0.  1.
</event>
<event>
 7    1  0.6184948E-012  0.5930194E+02  0.7816164E-02  0.1266605E+00
        -11   -1    0    0    0    0  0.00000000000E+00  0.00000000000E+00  0.45593999997E+02  0.45594000000E+02  0.51100000000E-03 0.  1.
         11   -1    0    0    0    0 -0.00000000000E+00 -0.00000000000E+00 -0.45593999997E+02  0.45594000000E+02  0.51100000000E-03 0. -1.
    9900012    2    1    2    0    0  0.23721243404E+02 -0.49589302607E+01  0.20722754431E+02  0.59301938325E+02  0.49999989599E+02 0.  0.
         12    1    1    2    0    0 -0.23721243404E+02  0.49589302607E+01 -0.20722754431E+02  0.31886061675E+02  0.00000000000E+00 0. -1.
         11    1    3    3    0    0  0.99477630602E+01  0.22791660779E+01 -0.13017241252E+02  0.16540893506E+02  0.51100000000E-03 0. -1.
        -11    1    3    3    0    0  0.11414922750E+01 -0.61344133570E+01 -0.48901530752E+00  0.62588471846E+01  0.51100000000E-03 0.  1.
         12    1    3    3    0    0  0.12631988069E+02 -0.11036829816E+01  0.34229010990E+02  0.36502197634E+02  0.00000000000E+00 0. -1.
</event>
<event>
 7    1  0.6184948E-012  0.5930194E+02  0.7816164E-02  0.1266605E+00
        -11   -1    0    0    0    0  0.00000000000E+00  0.00000000000E+00  0.45593999997E+02  0.45594000000E+02  0.51100000000E-03 0. -1.
         11   -1    0    0    0    0 -0.00000000000E+00 -0.00000000000E+00 -0.45593999997E+02  0.45594000000E+02  0.51100000000E-03 0.  1.
    9900012    2    1    2    0    0  0.23163118673E+02 -0.19019473378E+02  0.10883491158E+02  0.59301940130E+02  0.49999992891E+02 0.  0.
         12    1    1    2    0    0 -0.23163118673E+02  0.19019473378E+02 -0.10883491158E+02  0.31886059870E+02  0.00000000000E+00 0. -1.
         11    1    3    3    0    0  0.17587087194E+02 -0.20738242419E+02 -0.46438183509E+01  0.27585238512E+02  0.51100000000E-03 0. -1.
        -11    1    3    3    0    0  0.12724863387E+02  0.23258090560E+01 -0.17078064548E+01  0.13047917042E+02  0.51100000000E-03 0.  1.
         12    1    3    3    0    0 -0.71488319085E+01 -0.60704001481E+00  0.17235115964E+02  0.18668784576E+02  0.00000000000E+00 0. -1.
</event>
<event>
 7    1  0.6184948E-012  0.5930199E+02  0.7816164E-02  0.1266605E+00
        -11   -1    0    0    0    0  0.00000000000E+00  0.00000000000E+00  0.45593999997E+02  0.45594000000E+02  0.51100000000E-03 0.  1.
         11   -1    0    0    0    0 -0.00000000000E+00 -0.00000000000E+00 -0.45593999997E+02  0.45594000000E+02  0.51100000000E-03 0. -1.
    9900012    2    1    2    0    0  0.25305261029E+02 -0.19367844183E+02 -0.11172810080E+01  0.59301985183E+02  0.50000075057E+02 0.  0.
         12    1    1    2    0    0 -0.25305261029E+02  0.19367844183E+02  0.11172810080E+01  0.31886014817E+02  0.00000000000E+00 0. -1.
         11    1    3    3    0    0 -0.26986728386E+01 -0.11342147818E-01 -0.54185169994E+01  0.60533701744E+01  0.51100000000E-03 0. -1.
        -11    1    3    3    0    0  0.19223907191E+02 -0.15068028030E+02 -0.17036479929E+02  0.29779955088E+02  0.51100000000E-03 0.  1.
        -12    1    3    3    0    0  0.87800266770E+01 -0.42884740048E+01  0.21337715921E+02  0.23468659920E+02  0.00000000000E+00 0.  1.
</event>
<event>
 7    1  0.6184948E-012  0.5930200E+02  0.7816164E-02  0.1266605E+00
        -11   -1    0    0    0    0  0.00000000000E+00  0.00000000000E+00  0.45593999997E+02  0.45594000000E+02  0.51100000000E-03 0.  1.
         11   -1    0    0    0    0 -0.00000000000E+00 -0.00000000000E+00 -0.45593999997E+02  0.45594000000E+02  0.51100000000E-03 0. -1.
    9900012    2    1    2    0    0 -0.21735318860E+00 -0.31784604505E+02  0.25315026027E+01  0.59302002581E+02  0.50000106787E+02 0.  0.
         12    1    1    2    0    0  0.21735318860E+00  0.31784604505E+02 -0.25315026027E+01  0.31885997419E+02  0.00000000000E+00 0. -1.
         11    1    3    3    0    0  0.87531888335E+01 -0.46697248427E+01  0.15830287353E+02  0.18682147704E+02  0.51100000000E-03 0. -1.
        -11    1    3    3    0    0  0.76632941640E+01 -0.17137140507E+02 -0.86720289399E+01  0.20678775312E+02  0.51100000000E-03 0.  1.
        -12    1    3    3    0    0 -0.16633836186E+02 -0.99777391558E+01 -0.46267558109E+01  0.19941079566E+02  0.00000000000E+00 0.  1.
</event>
<event>
 7    1  0.6184948E-012  0.5930195E+02  0.7816164E-02  0.1266605E+00
        -11   -1    0    0    0    0  0.00000000000E+00  0.00000000000E+00  0.45593999997E+02  0.45594000000E+02  0.51100000000E-03 0. -1.
         11   -1    0    0    0    0 -0.00000000000E+00 -0.00000000000E+00 -0.45593999997E+02  0.45594000000E+02  0.51100000000E-03 0.  1.
    9900012    2    1    2    0    0  0.26352091189E+02  0.13963672891E+02 -0.11282873107E+02  0.59301951386E+02  0.50000013420E+02 0.  0.
         12    1    1    2    0    0 -0.26352091189E+02 -0.13963672891E+02  0.11282873107E+02  0.31886048614E+02  0.00000000000E+00 0. -1.
         11    1    3    3    0    0  0.33177035912E+00 -0.52216503362E+01  0.11336221938E+02  0.12485416769E+02  0.51100000000E-03 0. -1.
        -11    1    3    3    0    0 -0.12375808315E+01  0.20062943757E+01 -0.12970693185E+02  0.13183159917E+02  0.51100000000E-03 0.  1.
        -12    1    3    3    0    0  0.27257901662E+02  0.17179028852E+02 -0.96484018599E+01  0.33633374700E+02  0.00000000000E+00 0.  1.
</event>
<event>
 7    1  0.6184948E-012  0.5930194E+02  0.7816164E-02  0.1266605E+00
        -11   -1    0    0    0    0  0.00000000000E+00  0.00000000000E+00  0.45593999997E+02  0.45594000000E+02  0.51100000000E-03 0.  1.
         11   -1    0    0    0    0 -0.00000000000E+00 -0.00000000000E+00 -0.45593999997E+02  0.45594000000E+02  0.51100000000E-03 0. -1.
    9900012    2    1    2    0    0  0.21108805167E+02  0.19070635301E+02  0.14403118460E+02  0.59301943365E+02  0.49999998791E+02 0.  0.
         12    1    1    2    0    0 -0.21108805167E+02 -0.19070635301E+02 -0.14403118460E+02  0.31886056635E+02  0.00000000000E+00 0. -1.
         11    1    3    3    0    0  0.22740901573E+02  0.12611247666E+02 -0.89954029765E+01  0.27515621873E+02  0.51100000000E-03 0. -1.
        -11    1    3    3    0    0  0.51139369822E+01  0.10083626721E+02  0.60509033871E+01  0.12823623176E+02  0.51100000000E-03 0.  1.
        -12    1    3    3    0    0 -0.67460333882E+01 -0.36242390867E+01  0.17347618049E+02  0.18962698316E+02  0.00000000000E+00 0.  1.
</event>
<event>
 7    1  0.6184948E-012  0.5930165E+02  0.7816164E-02  0.1266606E+00
        -11   -1    0    0    0    0  0.00000000000E+00  0.00000000000E+00  0.45593999997E+02  0.45594000000E+02  0.51100000000E-03 0.  1.
         11   -1    0    0    0    0 -0.00000000000E+00 -0.00000000000E+00 -0.45593999997E+02  0.45594000000E+02  0.51100000000E-03 0. -1.
    9900012    2    1    2    0    0 -0.70590468683E+01  0.28501418707E+02  0.12432950324E+02  0.59301650809E+02  0.49999465236E+02 0.  0.
         12    1    1    2    0    0  0.70590468683E+01 -0.28501418707E+02 -0.12432950324E+02  0.31886349191E+02  0.00000000000E+00 0. -1.
         11    1    3    3    0    0  0.65169413944E+00  0.15016867331E+02  0.22726830768E+01  0.15201845228E+02  0.51100000000E-03 0. -1.
        -11    1    3    3    0    0  0.21627065996E+01  0.25889526848E+02  0.11023623833E+02  0.28221714741E+02  0.51100000000E-03 0.  1.
         12    1    3    3    0    0 -0.98734476073E+01 -0.12404975473E+02 -0.86335658632E+00  0.15878090840E+02  0.00000000000E+00 0. -1.
</event>
<event>
 7    1  0.6184948E-012  0.5930193E+02  0.7816164E-02  0.1266605E+00
        -11   -1    0    0    0    0  0.00000000000E+00  0.00000000000E+00  0.45593999997E+02  0.45594000000E+02  0.51100000000E-03 0.  1.
         11   -1    0    0    0    0 -0.00000000000E+00 -0.00000000000E+00 -0.45593999997E+02  0.45594000000E+02  0.51100000000E-03 0. -1.
    9900012    2    1    2    0    0  0.16832177056E+02  0.25719968538E+02 -0.84783495918E+01  0.59301931289E+02  0.49999976767E+02 0.  0.
         12    1    1    2    0    0 -0.16832177056E+02 -0.25719968538E+02  0.84783495918E+01  0.31886068711E+02  0.00000000000E+00 0. -1.
         11    1    3    3    0    0  0.88240382991E+01 -0.44186839737E+00  0.75964710684E+01  0.11651835587E+02  0.51100000000E-03 0.  1.
        -11    1    3    3    0    0  0.18610834526E+02  0.53797655925E+01 -0.14627313693E+02  0.24274747078E+02  0.51100000000E-03 0. -1.
         12    1    3    3    0    0 -0.10602695769E+02  0.20782071343E+02 -0.14475069676E+01  0.23375348624E+02  0.00000000000E+00 0. -1.
</event>
<event>
 7    1  0.6184948E-012  0.5930196E+02  0.7816164E-02  0.1266605E+00
        -11   -1    0    0    0    0  0.00000000000E+00  0.00000000000E+00  0.45593999997E+02  0.45594000000E+02  0.51100000000E-03 0.  1.
         11   -1    0    0    0    0 -0.00000000000E+00 -0.00000000000E+00 -0.45593999997E+02  0.45594000000E+02  0.51100000000E-03 0. -1.
    9900012    2    1    2    0    0  0.18204185216E+02 -0.10992175335E+02  0.23759197917E+02  0.59301956601E+02  0.50000022930E+02 0.  0.
         12    1    1    2    0    0 -0.18204185216E+02  0.10992175335E+02 -0.23759197917E+02  0.31886043399E+02  0.00000000000E+00 0. -1.
         11    1    3    3    0    0 -0.63199753767E+01  0.40330846303E+01  0.24758124927E+00  0.75012770335E+01  0.51100000000E-03 0. -1.
        -11    1    3    3    0    0  0.39767324309E+01 -0.21475599465E+02  0.29749926156E+01  0.22042376336E+02  0.51100000000E-03 0.  1.
        -12    1    3    3    0    0  0.20547428162E+02  0.64503394993E+01  0.20536624052E+02  0.29758303231E+02  0.00000000000E+00 0.  1.
</event>
<event>
 7    1  0.6184948E-012  0.5930198E+02  0.7816164E-02  0.1266605E+00
        -11   -1    0    0    0    0  0.00000000000E+00  0.00000000000E+00  0.45593999997E+02  0.45594000000E+02  0.51100000000E-03 0. -1.
         11   -1    0    0    0    0 -0.00000000000E+00 -0.00000000000E+00 -0.45593999997E+02  0.45594000000E+02  0.51100000000E-03 0.  1.
    9900012    2    1    2    0    0 -0.16430510975E+02 -0.42658040554E+01 -0.26991836552E+02  0.59301984012E+02  0.50000072922E+02 0.  0.
         12    1    1    2    0    0  0.16430510975E+02  0.42658040554E+01  0.26991836552E+02  0.31886015988E+02  0.00000000000E+00 0. -1.
         11    1    3    3    0    0  0.11338576621E+02  0.93715988146E+01 -0.55633171173E+00  0.14720723126E+02  0.51100000000E-03 0. -1.
        -11    1    3    3    0    0 -0.69229356509E+01 -0.13134837633E+02 -0.87139399470E+01  0.17215799352E+02  0.51100000000E-03 0.  1.
        -12    1    3    3    0    0 -0.20846151945E+02 -0.50256523678E+00 -0.17721564893E+02  0.27365461534E+02  0.00000000000E+00 0.  1.
</event>
<event>
 7    1  0.6184948E-012  0.5930193E+02  0.7816164E-02  0.1266605E+00
        -11   -1    0    0    0    0  0.00000000000E+00  0.00000000000E+00  0.45593999997E+02  0.45594000000E+02  0.51100000000E-03 0. -1.
         11   -1    0    0    0    0 -0.00000000000E+00 -0.00000000000E+00 -0.45593999997E+02  0.45594000000E+02  0.51100000000E-03 0.  1.
    9900012    2    1    2    0    0  0.18535667826E+02  0.21744076094E+02 -0.14154346483E+02  0.59301931705E+02  0.49999977527E+02 0.  0.
         12    1    1    2    0    0 -0.18535667826E+02 -0.21744076094E+02  0.14154346483E+02  0.31886068295E+02  0.00000000000E+00 0. -1.
         11    1    3    3    0    0  0.88277398498E+00 -0.34383433067E+01 -0.14999678888E+02  0.15414015104E+02  0.51100000000E-03 0. -1.
        -11    1    3    3    0    0 -0.65939398332E+01 -0.25097605440E+01 -0.31553919128E+00  0.70624716463E+01  0.51100000000E-03 0.  1.
         12    1    3    3    0    0  0.24246833674E+02  0.27692179944E+02  0.11608715964E+01  0.36825444955E+02  0.00000000000E+00 0. -1.
</event>
<event>
 7    1  0.6184948E-012  0.5930193E+02  0.7816164E-02  0.1266605E+00
        -11   -1    0    0    0    0  0.00000000000E+00  0.00000000000E+00  0.45593999997E+02  0.45594000000E+02  0.51100000000E-03 0. -1.
         11   -1    0    0    0    0 -0.00000000000E+00 -0.00000000000E+00 -0.45593999997E+02  0.45594000000E+02  0.51100000000E-03 0.  1.
    9900012    2    1    2    0    0  0.64849948971E+01  0.17366984673E+02 -0.25943282152E+02  0.59301934011E+02  0.49999981731E+02 0.  0.
         12    1    1    2    0    0 -0.64849948971E+01 -0.17366984673E+02  0.25943282152E+02  0.31886065989E+02  0.00000000000E+00 0. -1.
         11    1    3    3    0    0  0.10686227661E+00  0.12122689984E+02  0.38456405452E+01  0.12718489826E+02  0.51100000000E-03 0. -1.
        -11    1    3    3    0    0 -0.97476283031E+01  0.13958585705E+02 -0.18073369791E+02  0.24829520097E+02  0.51100000000E-03 0.  1.
        -12    1    3    3    0    0  0.16125760924E+02 -0.87142910159E+01 -0.11715552907E+02  0.21753924087E+02  0.00000000000E+00 0.  1.
</event>
<event>
 7    1  0.6184948E-012  0.5930194E+02  0.7816164E-02  0.1266605E+00
        -11   -1    0    0    0    0  0.00000000000E+00  0.00000000000E+00  0.45593999997E+02  0.45594000000E+02  0.51100000000E-03 0. -1.
         11   -1    0    0    0    0 -0.00000000000E+00 -0.00000000000E+00 -0.45593999997E+02  0.45594000000E+02  0.51100000000E-03 0.  1.
    9900012    2    1    2    0    0 -0.18156879592E+02 -0.60010090557E+01 -0.25515419653E+02  0.59301936801E+02  0.49999986821E+02 0.  0.
         12    1    1    2    0    0  0.18156879592E+02  0.60010090557E+01  0.25515419653E+02  0.31886063199E+02  0.00000000000E+00 0. -1.
         11    1    3    3    0    0  0.10554966141E+02 -0.69711935533E+01 -0.15076768341E+01  0.12738835877E+02  0.51100000000E-03 0. -1.
        -11    1    3    3    0    0 -0.10071519542E+02 -0.64377258644E+01  0.35583458593E+01  0.12471633642E+02  0.51100000000E-03 0.  1.
        -12    1    3    3    0    0 -0.18640326192E+02  0.74079103619E+01 -0.27566088679E+02  0.34091467283E+02  0.00000000000E+00 0.  1.
</event>
<event>
 7    1  0.6184948E-012  0.5930197E+02  0.7816164E-02  0.1266605E+00
        -11   -1    0    0    0    0  0.00000000000E+00  0.00000000000E+00  0.45593999997E+02  0.45594000000E+02  0.51100000000E-03 0. -1.
         11   -1    0    0    0    0 -0.00000000000E+00 -0.00000000000E+00 -0.45593999997E+02  0.45594000000E+02  0.51100000000E-03 0.  1.
    9900012    2    1    2    0    0  0.11742342271E+02 -0.29007585134E+02  0.61152348443E+01  0.59301973366E+02  0.50000053506E+02 0.  0.
         12    1    1    2    0    0 -0.11742342271E+02  0.29007585134E+02 -0.61152348443E+01  0.31886026634E+02  0.00000000000E+00 0. -1.
         11    1    3    3    0    0 -0.40156090381E+01 -0.10962385918E+02 -0.13296473441E+01  0.11750190776E+02  0.51100000000E-03 0. -1.
        -11    1    3    3    0    0 -0.32937956893E+01  0.98417201898E+00  0.18225206853E+02  0.18546585931E+02  0.51100000000E-03 0.  1.
        -12    1    3    3    0    0  0.19051746999E+02 -0.19029371235E+02 -0.10780324665E+02  0.29005196658E+02  0.00000000000E+00 0.  1.
</event>
<event>
 7    1  0.6184948E-012  0.5930199E+02  0.7816164E-02  0.1266605E+00
        -11   -1    0    0    0    0  0.00000000000E+00  0.00000000000E+00  0.45593999997E+02  0.45594000000E+02  0.51100000000E-03 0. -1.
         11   -1    0    0    0    0 -0.00000000000E+00 -0.00000000000E+00 -0.45593999997E+02  0.45594000000E+02  0.51100000000E-03 0.  1.
    9900012    2    1    2    0    0  0.66108670136E+00  0.25494415254E+02 -0.19139366838E+02  0.59301990408E+02  0.50000084586E+02 0.  0.
         12    1    1    2    0    0 -0.66108670136E+00 -0.25494415254E+02  0.19139366838E+02  0.31886009592E+02  0.00000000000E+00 0. -1.
         11    1    3    3    0    0  0.37100859019E+01 -0.13313451852E+01  0.30469834692E+01  0.49821005534E+01  0.51100000000E-03 0. -1.
        -11    1    3    3    0    0  0.14342086737E+02  0.19360583553E+02 -0.25526592621E+02  0.35101774579E+02  0.51100000000E-03 0.  1.
        -12    1    3    3    0    0 -0.17391085938E+02  0.74651768863E+01  0.33402423138E+01  0.19218115276E+02  0.00000000000E+00 0.  1.
</event>
<event>
 7    1  0.6184948E-012  0.5930194E+02  0.7816164E-02  0.1266605E+00
        -11   -1    0    0    0    0  0.00000000000E+00  0.00000000000E+00  0.45593999997E+02  0.45594000000E+02  0.51100000000E-03 0.  1.
         11   -1    0    0    0    0 -0.00000000000E+00 -0.00000000000E+00 -0.45593999997E+02  0.45594000000E+02  0.51100000000E-03 0. -1.
    9900012    2    1    2    0    0 -0.21972658302E+01 -0.30377285433E+02  0.94399856298E+01  0.59301940725E+02  0.49999993976E+02 0.  0.
         12    1    1    2    0    0  0.21972658302E+01  0.30377285433E+02 -0.94399856298E+01  0.31886059275E+02  0.00000000000E+00 0. -1.
         11    1    3    3    0    0  0.15523519941E+01  0.88546451508E+01 -0.50545986483E+01  0.10313268406E+02  0.51100000000E-03 0. -1.
        -11    1    3    3    0    0  0.12092795747E+01  0.62361521736E+00  0.82281559235E+01  0.83398922770E+01  0.51100000000E-03 0.  1.
         12    1    3    3    0    0 -0.49588973990E+01 -0.39855545801E+02  0.62664283546E+01  0.40648780042E+02  0.00000000000E+00 0. -1.
</event>
<event>
 7    1  0.6184948E-012  0.5930195E+02  0.7816164E-02  0.1266605E+00
        -11   -1    0    0    0    0  0.00000000000E+00  0.00000000000E+00  0.45593999997E+02  0.45594000000E+02  0.51100000000E-03 0.  1.
         11   -1    0    0    0    0 -0.00000000000E+00 -0.00000000000E+00 -0.45593999997E+02  0.45594000000E+02  0.51100000000E-03 0. -1.
    9900012    2    1    2    0    0  0.30415164485E+02  0.95193896388E+01 -0.10096521211E+01  0.59301946510E+02  0.50000004528E+02 0.  0.
         12    1    1    2    0    0 -0.30415164485E+02 -0.95193896388E+01  0.10096521211E+01  0.31886053490E+02  0.00000000000E+00 0. -1.
         11    1    3    3    0    0  0.17416800029E+02  0.43232313399E+01 -0.34755515340E+01  0.18278804972E+02  0.51100000000E-03 0. -1.
        -11    1    3    3    0    0  0.18564326236E+02 -0.71214355248E+01 -0.10333172860E+02  0.22408112686E+02  0.51100000000E-03 0.  1.
         12    1    3    3    0    0 -0.55659617804E+01  0.12317593824E+02  0.12799072273E+02  0.18615028853E+02  0.00000000000E+00 0. -1.
</event>
<event>
 7    1  0.6184948E-012  0.5930203E+02  0.7816164E-02  0.1266604E+00
        -11   -1    0    0    0    0  0.00000000000E+00  0.00000000000E+00  0.45593999997E+02  0.45594000000E+02  0.51100000000E-03 0. -1.
         11   -1    0    0    0    0 -0.00000000000E+00 -0.00000000000E+00 -0.45593999997E+02  0.45594000000E+02  0.51100000000E-03 0.  1.
    9900012    2    1    2    0    0  0.28802380970E+02  0.12051572317E+02 -0.64728228745E+01  0.59302031599E+02  0.50000159709E+02 0.  0.
         12    1    1    2    0    0 -0.28802380970E+02 -0.12051572317E+02  0.64728228745E+01  0.31885968401E+02  0.00000000000E+00 0. -1.
         11    1    3    3    0    0  0.64201034130E+01  0.33283203666E+01  0.11998670428E+02  0.14009408859E+02  0.51100000000E-03 0. -1.
        -11    1    3    3    0    0 -0.65342571176E+01 -0.36061351477E+00 -0.12914081591E+02  0.14477570990E+02  0.51100000000E-03 0.  1.
         12    1    3    3    0    0  0.28916534675E+02  0.90838654653E+01 -0.55574117117E+01  0.30815051750E+02  0.00000000000E+00 0. -1.
</event>
<event>
 7    1  0.6184948E-012  0.5930196E+02  0.7816164E-02  0.1266605E+00
        -11   -1    0    0    0    0  0.00000000000E+00  0.00000000000E+00  0.45593999997E+02  0.45594000000E+02  0.51100000000E-03 0. -1.
         11   -1    0    0    0    0 -0.00000000000E+00 -0.00000000000E+00 -0.45593999997E+02  0.45594000000E+02  0.51100000000E-03 0.  1.
    9900012    2    1    2    0    0 -0.29359949036E+02 -0.11147591090E+02 -0.55176474279E+01  0.59301955598E+02  0.50000021101E+02 0.  0.
         12    1    1    2    0    0  0.29359949036E+02  0.11147591090E+02  0.55176474279E+01  0.31886044402E+02  0.00000000000E+00 0. -1.
         11    1    3    3    0    0 -0.11692250382E+02 -0.21977129130E+02  0.86101527197E+01  0.26340798278E+02  0.51100000000E-03 0. -1.
        -11    1    3    3    0    0 -0.79231849963E+01 -0.38506425611E+00  0.45111993342E+01  0.91255714704E+01  0.51100000000E-03 0.  1.
        -12    1    3    3    0    0 -0.97445136569E+01  0.11214602297E+02 -0.18638999482E+02  0.23835585849E+02  0.00000000000E+00 0.  1.
</event>
<event>
 7    1  0.6184948E-012  0.5930195E+02  0.7816164E-02  0.1266605E+00
        -11   -1    0    0    0    0  0.00000000000E+00  0.00000000000E+00  0.45593999997E+02  0.45594000000E+02  0.51100000000E-03 0. -1.
         11   -1    0    0    0    0 -0.00000000000E+00 -0.00000000000E+00 -0.45593999997E+02  0.45594000000E+02  0.51100000000E-03 0.  1.
    9900012    2    1    2    0    0  0.90715163164E+01  0.70790714006E+01 -0.29737431170E+02  0.59301945481E+02  0.50000002651E+02 0.  0.
         12    1    1    2    0    0 -0.90715163164E+01 -0.70790714006E+01  0.29737431170E+02  0.31886054519E+02  0.00000000000E+00 0. -1.
         11    1    3    3    0    0  0.55173093816E+01  0.19480537228E+01 -0.50745574862E+00  0.58730850255E+01  0.51100000000E-03 0. -1.
        -11    1    3    3    0    0  0.20311949812E+02 -0.82108664219E+01 -0.21389677921E+02  0.30618816998E+02  0.51100000000E-03 0.  1.
         12    1    3    3    0    0 -0.16757742877E+02  0.13341884100E+02 -0.78402975006E+01  0.22810043458E+02  0.00000000000E+00 0. -1.
</event>
<event>
 7    1  0.6184948E-012  0.5930204E+02  0.7816164E-02  0.1266604E+00
        -11   -1    0    0    0    0  0.00000000000E+00  0.00000000000E+00  0.45593999997E+02  0.45594000000E+02  0.51100000000E-03 0.  1.
         11   -1    0    0    0    0 -0.00000000000E+00 -0.00000000000E+00 -0.45593999997E+02  0.45594000000E+02  0.51100000000E-03 0. -1.
    9900012    2    1    2    0    0 -0.17378794855E+02 -0.13847462785E+02  0.22867868670E+02  0.59302044570E+02  0.50000183364E+02 0.  0.
         12    1    1    2    0    0  0.17378794855E+02  0.13847462785E+02 -0.22867868670E+02  0.31885955430E+02  0.00000000000E+00 0. -1.
         11    1    3    3    0    0 -0.75261500118E+01 -0.12950946698E+02  0.67486219491E+01  0.16429055142E+02  0.51100000000E-03 0. -1.
        -11    1    3    3    0    0 -0.11517494031E+02 -0.10688004068E+02 -0.73811812442E+01  0.17359952089E+02  0.51100000000E-03 0.  1.
        -12    1    3    3    0    0  0.16648491875E+01  0.97914879819E+01  0.23500427965E+02  0.25513037339E+02  0.00000000000E+00 0.  1.
</event>
<event>
 7    1  0.6184948E-012  0.5930193E+02  0.7816164E-02  0.1266605E+00
        -11   -1    0    0    0    0  0.00000000000E+00  0.00000000000E+00  0.45593999997E+02  0.45594000000E+02  0.51100000000E-03 0.  1.
         11   -1    0    0    0    0 -0.00000000000E+00 -0.00000000000E+00 -0.45593999997E+02  0.45594000000E+02  0.51100000000E-03 0. -1.
    9900012    2    1    2    0    0 -0.26480443247E+02 -0.89041009319E+01  0.15369596476E+02  0.59301931195E+02  0.49999976597E+02 0.  0.
         12    1    1    2    0    0  0.26480443247E+02  0.89041009319E+01 -0.15369596476E+02  0.31886068805E+02  0.00000000000E+00 0. -1.
         11    1    3    3    0    0 -0.10227016333E+02  0.13976721594E+02 -0.10899904619E+02  0.20463346025E+02  0.51100000000E-03 0. -1.
        -11    1    3    3    0    0  0.21641466487E+00 -0.12324554967E+01  0.21317142924E+01  0.24718389802E+01  0.51100000000E-03 0.  1.
        -12    1    3    3    0    0 -0.16469841580E+02 -0.21648367029E+02  0.24137786803E+02  0.36366746190E+02  0.00000000000E+00 0.  1.
</event>
<event>
 7    1  0.6184948E-012  0.5930195E+02  0.7816164E-02  0.1266605E+00
        -11   -1    0    0    0    0  0.00000000000E+00  0.00000000000E+00  0.45593999997E+02  0.45594000000E+02  0.51100000000E-03 0. -1.
         11   -1    0    0    0    0 -0.00000000000E+00 -0.00000000000E+00 -0.45593999997E+02  0.45594000000E+02  0.51100000000E-03 0.  1.
    9900012    2    1    2    0    0  0.58820431786E+01  0.49170693758E+01 -0.30950669290E+02  0.59301953950E+02  0.50000018096E+02 0.  0.
         12    1    1    2    0    0 -0.58820431786E+01 -0.49170693758E+01  0.30950669290E+02  0.31886046050E+02  0.00000000000E+00 0. -1.
         11    1    3    3    0    0  0.20375271720E+02 -0.36077401272E+01 -0.36208208885E+01  0.21006613974E+02  0.51100000000E-03 0. -1.
        -11    1    3    3    0    0 -0.23303163912E+01 -0.44130380065E+01 -0.17075501647E+02  0.17789829557E+02  0.51100000000E-03 0.  1.
        -12    1    3    3    0    0 -0.12162912151E+02  0.12937847510E+02 -0.10254346755E+02  0.20505510419E+02  0.00000000000E+00 0.  1.
</event>
<event>
 7    1  0.6184948E-012  0.5930194E+02  0.7816164E-02  0.1266605E+00
        -11   -1    0    0    0    0  0.00000000000E+00  0.00000000000E+00  0.45593999997E+02  0.45594000000E+02  0.51100000000E-03 0.  1.
         11   -1    0    0    0    0 -0.00000000000E+00 -0.00000000000E+00 -0.45593999997E+02  0.45594000000E+02  0.51100000000E-03 0. -1.
    9900012    2    1    2    0    0  0.26008229925E+02 -0.13079680865E+02 -0.13008251534E+02  0.59301942180E+02  0.49999996630E+02 0.  0.
         12    1    1    2    0    0 -0.26008229925E+02  0.13079680865E+02  0.13008251534E+02  0.31886057820E+02  0.00000000000E+00 0. -1.
         11    1    3    3    0    0 -0.31807440421E+01  0.97410589222E-01  0.52148366371E+00  0.32246809078E+01  0.51100000000E-03 0. -1.
        -11    1    3    3    0    0  0.37470238902E+02 -0.85467007939E+01  0.13200097090E+01  0.38455263928E+02  0.51100000000E-03 0.  1.
         12    1    3    3    0    0 -0.82812649355E+01 -0.46303906602E+01 -0.14849744907E+02  0.17621997344E+02  0.00000000000E+00 0. -1.
</event>
<event>
 7    1  0.6184948E-012  0.5930193E+02  0.7816164E-02  0.1266605E+00
        -11   -1    0    0    0    0  0.00000000000E+00  0.00000000000E+00  0.45593999997E+02  0.45594000000E+02  0.51100000000E-03 0.  1.
         11   -1    0    0    0    0 -0.00000000000E+00 -0.00000000000E+00 -0.45593999997E+02  0.45594000000E+02  0.51100000000E-03 0. -1.
    9900012    2    1    2    0    0  0.14786097389E+02 -0.16186080429E+02  0.23153915375E+02  0.59301926663E+02  0.49999968331E+02 0.  0.
         12    1    1    2    0    0 -0.14786097389E+02  0.16186080429E+02 -0.23153915375E+02  0.31886073337E+02  0.00000000000E+00 0. -1.
         11    1    3    3    0    0  0.32305611636E+00 -0.98137789838E+01  0.25772452027E+02  0.27579592219E+02  0.51100000000E-03 0. -1.
        -11    1    3    3    0    0  0.17885381420E+02 -0.20953453135E-01  0.74172058281E+01  0.19362392676E+02  0.51100000000E-03 0.  1.
         12    1    3    3    0    0 -0.34223401468E+01 -0.63513479923E+01 -0.10035742480E+02  0.12359941769E+02  0.00000000000E+00 0. -1.
</event>
<event>
 7    1  0.6184948E-012  0.5930193E+02  0.7816164E-02  0.1266605E+00
        -11   -1    0    0    0    0  0.00000000000E+00  0.00000000000E+00  0.45593999997E+02  0.45594000000E+02  0.51100000000E-03 0. -1.
         11   -1    0    0    0    0 -0.00000000000E+00 -0.00000000000E+00 -0.45593999997E+02  0.45594000000E+02  0.51100000000E-03 0.  1.
    9900012    2    1    2    0    0 -0.55252250508E+00 -0.30477631063E+02  0.93557612995E+01  0.59301928655E+02  0.49999971964E+02 0.  0.
         12    1    1    2    0    0  0.55252250508E+00  0.30477631063E+02 -0.93557612995E+01  0.31886071345E+02  0.00000000000E+00 0. -1.
         11    1    3    3    0    0  0.43238223737E+01 -0.76333004881E+01  0.17596912474E+02  0.19662503532E+02  0.51100000000E-03 0. -1.
        -11    1    3    3    0    0 -0.11342372662E+02 -0.18600381032E+02  0.67188058796E+01  0.22798375925E+02  0.51100000000E-03 0.  1.
        -12    1    3    3    0    0  0.64660277828E+01 -0.42439495426E+01 -0.14959957054E+02  0.16841049198E+02  0.00000000000E+00 0.  1.
</event>
<event>
 7    1  0.6184948E-012  0.5930195E+02  0.7816164E-02  0.1266605E+00
        -11   -1    0    0    0    0  0.00000000000E+00  0.00000000000E+00  0.45593999997E+02  0.45594000000E+02  0.51100000000E-03 0.  1.
         11   -1    0    0    0    0 -0.00000000000E+00 -0.00000000000E+00 -0.45593999997E+02  0.45594000000E+02  0.51100000000E-03 0. -1.
    9900012    2    1    2    0    0  0.78599292233E+01  0.30572072176E+02 -0.45044408406E+01  0.59301951769E+02  0.50000014118E+02 0.  0.
         12    1    1    2    0    0 -0.78599292233E+01 -0.30572072176E+02  0.45044408406E+01  0.31886048231E+02  0.00000000000E+00 0. -1.
         11    1    3    3    0    0  0.76152692592E+01  0.90474258252E+01 -0.33422305209E+01  0.12288968430E+02  0.51100000000E-03 0. -1.
        -11    1    3    3    0    0 -0.69482899840E+01  0.25772802791E+02  0.13670237014E+02  0.29989856247E+02  0.51100000000E-03 0.  1.
         12    1    3    3    0    0  0.71929499482E+01 -0.42481564407E+01 -0.14832447334E+02  0.17023127093E+02  0.00000000000E+00 0. -1.
</event>
<event>
 7    1  0.6184948E-012  0.5930195E+02  0.7816164E-02  0.1266605E+00
        -11   -1    0    0    0    0  0.00000000000E+00  0.00000000000E+00  0.45593999997E+02  0.45594000000E+02  0.51100000000E-03 0. -1.
         11   -1    0    0    0    0 -0.00000000000E+00 -0.00000000000E+00 -0.45593999997E+02  0.45594000000E+02  0.51100000000E-03 0.  1.
    9900012    2    1    2    0    0  0.31867188437E+02  0.93552368990E+00  0.57226740137E+00  0.59301946725E+02  0.50000004919E+02 0.  0.
         12    1    1    2    0    0 -0.31867188437E+02 -0.93552368990E+00 -0.57226740137E+00  0.31886053275E+02  0.00000000000E+00 0. -1.
         11    1    3    3    0    0 -0.41247702671E+01  0.75314705069E+01  0.48188675333E+00  0.86005228246E+01  0.51100000000E-03 0. -1.
        -11    1    3    3    0    0  0.21008667401E+02 -0.12941407088E+02 -0.14692135369E+02  0.28717642057E+02  0.51100000000E-03 0.  1.
         12    1    3    3    0    0  0.14983291303E+02  0.63454602708E+01  0.14782516017E+02  0.21983781843E+02  0.00000000000E+00 0. -1.
</event>
<event>
 7    1  0.6184948E-012  0.5930195E+02  0.7816164E-02  0.1266605E+00
        -11   -1    0    0    0    0  0.00000000000E+00  0.00000000000E+00  0.45593999997E+02  0.45594000000E+02  0.51100000000E-03 0. -1.
         11   -1    0    0    0    0 -0.00000000000E+00 -0.00000000000E+00 -0.45593999997E+02  0.45594000000E+02  0.51100000000E-03 0.  1.
    9900012    2    1    2    0    0  0.11743596788E+02  0.27368004365E+02 -0.11393009428E+02  0.59301946744E+02  0.50000004954E+02 0.  0.
         12    1    1    2    0    0 -0.11743596788E+02 -0.27368004365E+02  0.11393009428E+02  0.31886053256E+02  0.00000000000E+00 0. -1.
         11    1    3    3    0    0  0.86550556756E+01  0.90014621256E+01  0.15033323406E+02  0.19543211661E+02  0.51100000000E-03 0. -1.
        -11    1    3    3    0    0  0.81559108099E+01  0.13711084164E+02 -0.42078389768E+01  0.16499049040E+02  0.51100000000E-03 0.  1.
        -12    1    3    3    0    0 -0.50673696972E+01  0.46554580749E+01 -0.22218493857E+02  0.23259686043E+02  0.00000000000E+00 0.  1.
</event>
<event>
 7    1  0.6184948E-012  0.5930194E+02  0.7816164E-02  0.1266605E+00
        -11   -1    0    0    0    0  0.00000000000E+00  0.00000000000E+00  0.45593999997E+02  0.45594000000E+02  0.51100000000E-03 0. -1.
         11   -1    0    0    0    0 -0.00000000000E+00 -0.00000000000E+00 -0.45593999997E+02  0.45594000000E+02  0.51100000000E-03 0.  1.
    9900012    2    1    2    0    0  0.30774876973E+02  0.39709981107E+01  0.73388708795E+01  0.59301938711E+02  0.49999990304E+02 0.  0.
         12    1    1    2    0    0 -0.30774876973E+02 -0.39709981107E+01 -0.73388708795E+01  0.31886061289E+02  0.00000000000E+00 0. -1.
         11    1    3    3    0    0 -0.57266453583E+01  0.14921942923E+02 -0.23232648381E+01  0.16151049732E+02  0.51100000000E-03 0. -1.
        -11    1    3    3    0    0  0.16377161727E+02 -0.11643723387E+02 -0.14594897936E+01  0.20147402593E+02  0.51100000000E-03 0.  1.
        -12    1    3    3    0    0  0.20124360605E+02  0.69277857479E+00  0.11121625511E+02  0.23003486386E+02  0.00000000000E+00 0.  1.
</event>
<event>
 7    1  0.6184948E-012  0.5930196E+02  0.7816164E-02  0.1266605E+00
        -11   -1    0    0    0    0  0.00000000000E+00  0.00000000000E+00  0.45593999997E+02  0.45594000000E+02  0.51100000000E-03 0. -1.
         11   -1    0    0    0    0 -0.00000000000E+00 -0.00000000000E+00 -0.45593999997E+02  0.45594000000E+02  0.51100000000E-03 0.  1.
    9900012    2    1    2    0    0  0.14676665356E+02  0.73601419370E+01 -0.27333926921E+02  0.59301956718E+02  0.50000023144E+02 0.  0.
         12    1    1    2    0    0 -0.14676665356E+02 -0.73601419370E+01  0.27333926921E+02  0.31886043282E+02  0.00000000000E+00 0. -1.
         11    1    3    3    0    0  0.60350585507E+00  0.99105643253E+01  0.12060923331E+02  0.15622079773E+02  0.51100000000E-03 0.  1.
        -11    1    3    3    0    0  0.48442480562E+00 -0.36300092439E+01 -0.27441048671E+01  0.45762152796E+01  0.51100000000E-03 0. -1.
        -12    1    3    3    0    0  0.13588734695E+02  0.10795868555E+01 -0.36650745385E+02  0.39103661665E+02  0.00000000000E+00 0.  1.
</event>
<event>
 7    1  0.6184948E-012  0.5930157E+02  0.7816164E-02  0.1266606E+00
        -11   -1    0    0    0    0  0.00000000000E+00  0.00000000000E+00  0.45593999997E+02  0.45594000000E+02  0.51100000000E-03 0.  1.
         11   -1    0    0    0    0 -0.00000000000E+00 -0.00000000000E+00 -0.45593999997E+02  0.45594000000E+02  0.51100000000E-03 0. -1.
    9900012    2    1    2    0    0  0.24225983056E+02 -0.19345576498E+02 -0.74561924140E+01  0.59301570436E+02  0.49999318653E+02 0.  0.
         12    1    1    2    0    0 -0.24225983056E+02  0.19345576498E+02  0.74561924140E+01  0.31886429564E+02  0.00000000000E+00 0. -1.
         11    1    3    3    0    0  0.55836722606E+00  0.16968165859E+01  0.15745057774E+02  0.15846065917E+02  0.51100000000E-03 0. -1.
        -11    1    3    3    0    0  0.13257819954E+02 -0.19356738091E+01 -0.29248724511E+01  0.13713916368E+02  0.51100000000E-03 0.  1.
        -12    1    3    3    0    0  0.10409795876E+02 -0.19106719274E+02 -0.20276377737E+02  0.29741588151E+02  0.00000000000E+00 0.  1.
</event>
<event>
 7    1  0.6184948E-012  0.5930193E+02  0.7816164E-02  0.1266605E+00
        -11   -1    0    0    0    0  0.00000000000E+00  0.00000000000E+00  0.45593999997E+02  0.45594000000E+02  0.51100000000E-03 0. -1.
         11   -1    0    0    0    0 -0.00000000000E+00 -0.00000000000E+00 -0.45593999997E+02  0.45594000000E+02  0.51100000000E-03 0.  1.
    9900012    2    1    2    0    0 -0.49409913634E+01  0.23728072899E+02 -0.20719238752E+02  0.59301926337E+02  0.49999967736E+02 0.  0.
         12    1    1    2    0    0  0.49409913634E+01 -0.23728072899E+02  0.20719238752E+02  0.31886073663E+02  0.00000000000E+00 0. -1.
         11    1    3    3    0    0 -0.15429658923E+02  0.11222473786E+01 -0.81260716606E+01  0.17474749055E+02  0.51100000000E-03 0.  1.
        -11    1    3    3    0    0 -0.73620473607E+00  0.17689913658E+02  0.67340163766E+01  0.18942598013E+02  0.51100000000E-03 0. -1.
         12    1    3    3    0    0  0.11224872296E+02  0.49159118626E+01 -0.19327183468E+02  0.22884579269E+02  0.00000000000E+00 0. -1.
</event>
<event>
 7    1  0.6184948E-012  0.5930195E+02  0.7816164E-02  0.1266605E+00
        -11   -1    0    0    0    0  0.00000000000E+00  0.00000000000E+00  0.45593999997E+02  0.45594000000E+02  0.51100000000E-03 0.  1.
         11   -1    0    0    0    0 -0.00000000000E+00 -0.00000000000E+00 -0.45593999997E+02  0.45594000000E+02  0.51100000000E-03 0. -1.
    9900012    2    1    2    0    0 -0.11812908201E+02  0.37089606204E+01  0.29383992360E+02  0.59301949820E+02  0.50000010563E+02 0.  0.
         12    1    1    2    0    0  0.11812908201E+02 -0.37089606204E+01 -0.29383992360E+02  0.31886050180E+02  0.00000000000E+00 0. -1.
         11    1    3    3    0    0 -0.14376793068E+02  0.82613533977E+01  0.24056903300E+02  0.29217746928E+02  0.51100000000E-03 0. -1.
        -11    1    3    3    0    0 -0.12466854026E+02  0.23250425540E+01  0.47579400610E+01  0.13544971985E+02  0.51100000000E-03 0.  1.
         12    1    3    3    0    0  0.15030738893E+02 -0.68774353313E+01  0.56914899990E+00  0.16539230907E+02  0.00000000000E+00 0. -1.
</event>
<event>
 7    1  0.6184948E-012  0.5930198E+02  0.7816164E-02  0.1266605E+00
        -11   -1    0    0    0    0  0.00000000000E+00  0.00000000000E+00  0.45593999997E+02  0.45594000000E+02  0.51100000000E-03 0.  1.
         11   -1    0    0    0    0 -0.00000000000E+00 -0.00000000000E+00 -0.45593999997E+02  0.45594000000E+02  0.51100000000E-03 0. -1.
    9900012    2    1    2    0    0 -0.79327544975E+01  0.26810190194E+02 -0.15329820116E+02  0.59301979913E+02  0.50000065447E+02 0.  0.
         12    1    1    2    0    0  0.79327544975E+01 -0.26810190194E+02  0.15329820116E+02  0.31886020087E+02  0.00000000000E+00 0. -1.
         11    1    3    3    0    0 -0.78365781350E+01 -0.31825660895E+01 -0.73316481635E+01  0.11193469026E+02  0.51100000000E-03 0. -1.
        -11    1    3    3    0    0 -0.43620605653E+01  0.73080040508E+01 -0.20257393271E+02  0.21972630201E+02  0.51100000000E-03 0.  1.
        -12    1    3    3    0    0  0.42658842028E+01  0.22684752233E+02  0.12259221318E+02  0.26135880686E+02  0.00000000000E+00 0.  1.
</event>
<event>
 7    1  0.6184948E-012  0.5930196E+02  0.7816164E-02  0.1266605E+00
        -11   -1    0    0    0    0  0.00000000000E+00  0.00000000000E+00  0.45593999997E+02  0.45594000000E+02  0.51100000000E-03 0. -1.
         11   -1    0    0    0    0 -0.00000000000E+00 -0.00000000000E+00 -0.45593999997E+02  0.45594000000E+02  0.51100000000E-03 0.  1.
    9900012    2    1    2    0    0  0.10270927576E+02 -0.17270722081E+02 -0.24757820931E+02  0.59301960865E+02  0.50000030707E+02 0.  0.
         12    1    1    2    0    0 -0.10270927576E+02  0.17270722081E+02  0.24757820931E+02  0.31886039135E+02  0.00000000000E+00 0. -1.
         11    1    3    3    0    0  0.13391803644E+02 -0.62662450306E+01  0.84877835194E+01  0.17048422242E+02  0.51100000000E-03 0. -1.
        -11    1    3    3    0    0 -0.69568317200E+01 -0.10025648554E+02 -0.41491701031E+01  0.12889016615E+02  0.51100000000E-03 0.  1.
        -12    1    3    3    0    0  0.38359556525E+01 -0.97882849678E+00 -0.29096434347E+02  0.29364522007E+02  0.00000000000E+00 0.  1.
</event>
<event>
 7    1  0.6184948E-012  0.5930191E+02  0.7816164E-02  0.1266605E+00
        -11   -1    0    0    0    0  0.00000000000E+00  0.00000000000E+00  0.45593999997E+02  0.45594000000E+02  0.51100000000E-03 0.  1.
         11   -1    0    0    0    0 -0.00000000000E+00 -0.00000000000E+00 -0.45593999997E+02  0.45594000000E+02  0.51100000000E-03 0. -1.
    9900012    2    1    2    0    0  0.10653726072E+02 -0.29445478380E+02 -0.60153766232E+01  0.59301908484E+02  0.49999935176E+02 0.  0.
         12    1    1    2    0    0 -0.10653726072E+02  0.29445478380E+02  0.60153766232E+01  0.31886091516E+02  0.00000000000E+00 0. -1.
         11    1    3    3    0    0 -0.12835997416E+02 -0.17101977349E+02 -0.64199420818E+01  0.22326130778E+02  0.51100000000E-03 0. -1.
        -11    1    3    3    0    0 -0.32984380157E+01 -0.13821463631E+00  0.61524583130E+01  0.69822303159E+01  0.51100000000E-03 0.  1.
        -12    1    3    3    0    0  0.26788161504E+02 -0.12205286395E+02 -0.57478928544E+01  0.29993547390E+02  0.00000000000E+00 0.  1.
</event>
<event>
 7    1  0.6184948E-012  0.5930160E+02  0.7816164E-02  0.1266606E+00
        -11   -1    0    0    0    0  0.00000000000E+00  0.00000000000E+00  0.45593999997E+02  0.45594000000E+02  0.51100000000E-03 0. -1.
         11   -1    0    0    0    0 -0.00000000000E+00 -0.00000000000E+00 -0.45593999997E+02  0.45594000000E+02  0.51100000000E-03 0.  1.
    9900012    2    1    2    0    0 -0.27347137340E+02 -0.12922393796E+02 -0.10093969737E+02  0.59301601534E+02  0.49999375369E+02 0.  0.
         12    1    1    2    0    0  0.27347137340E+02  0.12922393796E+02  0.10093969737E+02  0.31886398466E+02  0.00000000000E+00 0. -1.
         11    1    3    3    0    0 -0.30642234335E+02 -0.16817297793E+02 -0.73071780609E+01  0.35709422868E+02  0.51100000000E-03 0. -1.
        -11    1    3    3    0    0 -0.79492243033E+01 -0.19105533621E+01  0.41419369215E+01  0.91649344186E+01  0.51100000000E-03 0.  1.
        -12    1    3    3    0    0  0.11244321298E+02  0.58054573585E+01 -0.69287285973E+01  0.14427244247E+02  0.00000000000E+00 0.  1.
</event>
<event>
 7    1  0.6184948E-012  0.5930195E+02  0.7816164E-02  0.1266605E+00
        -11   -1    0    0    0    0  0.00000000000E+00  0.00000000000E+00  0.45593999997E+02  0.45594000000E+02  0.51100000000E-03 0. -1.
         11   -1    0    0    0    0 -0.00000000000E+00 -0.00000000000E+00 -0.45593999997E+02  0.45594000000E+02  0.51100000000E-03 0.  1.
    9900012    2    1    2    0    0 -0.16561960782E+01 -0.24711452693E+02 -0.20082853372E+02  0.59301954789E+02  0.50000019627E+02 0.  0.
         12    1    1    2    0    0  0.16561960782E+01  0.24711452693E+02  0.20082853372E+02  0.31886045211E+02  0.00000000000E+00 0. -1.
         11    1    3    3    0    0 -0.30683779456E+00 -0.12581229700E+02  0.60252075112E+01  0.13952942916E+02  0.51100000000E-03 0. -1.
        -11    1    3    3    0    0 -0.12836692345E+02  0.64921850601E+01 -0.58451441574E+01  0.15527229235E+02  0.51100000000E-03 0.  1.
        -12    1    3    3    0    0  0.11487334062E+02 -0.18622408053E+02 -0.20262916726E+02  0.29821782639E+02  0.00000000000E+00 0.  1.
</event>
<event>
 7    1  0.6184948E-012  0.5930192E+02  0.7816164E-02  0.1266605E+00
        -11   -1    0    0    0    0  0.00000000000E+00  0.00000000000E+00  0.45593999997E+02  0.45594000000E+02  0.51100000000E-03 0.  1.
         11   -1    0    0    0    0 -0.00000000000E+00 -0.00000000000E+00 -0.45593999997E+02  0.45594000000E+02  0.51100000000E-03 0. -1.
    9900012    2    1    2    0    0 -0.26565031037E+02  0.17267492813E+02 -0.35853310573E+01  0.59301924970E+02  0.49999965243E+02 0.  0.
         12    1    1    2    0    0  0.26565031037E+02 -0.17267492813E+02  0.35853310573E+01  0.31886075030E+02  0.00000000000E+00 0. -1.
         11    1    3    3    0    0 -0.20247119082E+02  0.30298898171E+02 -0.14915444594E+02  0.39375621254E+02  0.51100000000E-03 0. -1.
        -11    1    3    3    0    0  0.14401280504E+01 -0.41819269698E+01  0.17699708067E+01  0.47639562236E+01  0.51100000000E-03 0.  1.
        -12    1    3    3    0    0 -0.77580400058E+01 -0.88494783878E+01  0.95601427296E+01  0.15162347492E+02  0.00000000000E+00 0.  1.
</event>
<event>
 7    1  0.6184948E-012  0.5930191E+02  0.7816164E-02  0.1266605E+00
        -11   -1    0    0    0    0  0.00000000000E+00  0.00000000000E+00  0.45593999997E+02  0.45594000000E+02  0.51100000000E-03 0. -1.
         11   -1    0    0    0    0 -0.00000000000E+00 -0.00000000000E+00 -0.45593999997E+02  0.45594000000E+02  0.51100000000E-03 0.  1.
    9900012    2    1    2    0    0  0.14775425753E+02 -0.76189300253E+01 -0.27209582838E+02  0.59301910570E+02  0.49999938982E+02 0.  0.
         12    1    1    2    0    0 -0.14775425753E+02  0.76189300253E+01  0.27209582838E+02  0.31886089430E+02  0.00000000000E+00 0. -1.
         11    1    3    3    0    0  0.12589452711E+01 -0.99955429306E+01  0.37395460985E+00  0.10081451482E+02  0.51100000000E-03 0. -1.
        -11    1    3    3    0    0  0.25237498739E+02  0.88954423038E+01 -0.22197107775E+02  0.34767396080E+02  0.51100000000E-03 0.  1.
         12    1    3    3    0    0 -0.11721018257E+02 -0.65188293985E+01 -0.53864296722E+01  0.14453063008E+02  0.00000000000E+00 0. -1.
</event>
<event>
 7    1  0.6184948E-012  0.5930189E+02  0.7816164E-02  0.1266605E+00
        -11   -1    0    0    0    0  0.00000000000E+00  0.00000000000E+00  0.45593999997E+02  0.45594000000E+02  0.51100000000E-03 0.  1.
         11   -1    0    0    0    0 -0.00000000000E+00 -0.00000000000E+00 -0.45593999997E+02  0.45594000000E+02  0.51100000000E-03 0. -1.
    9900012    2    1    2    0    0  0.24086043488E+01  0.13657110951E+02  0.28712475145E+02  0.59301885728E+02  0.49999893675E+02 0.  0.
         12    1    1    2    0    0 -0.24086043488E+01 -0.13657110951E+02 -0.28712475145E+02  0.31886114272E+02  0.00000000000E+00 0. -1.
         11    1    3    3    0    0 -0.11481290607E+02 -0.11756529131E+01  0.24695023219E+02  0.27258876826E+02  0.51100000000E-03 0. -1.
        -11    1    3    3    0    0 -0.68548804625E+01  0.46434248196E+01  0.33200751057E+01  0.89204080164E+01  0.51100000000E-03 0.  1.
         12    1    3    3    0    0  0.20744775418E+02  0.10189339044E+02  0.69737682016E+00  0.23122600886E+02  0.00000000000E+00 0. -1.
</event>
<event>
 7    1  0.6184948E-012  0.5930179E+02  0.7816164E-02  0.1266605E+00
        -11   -1    0    0    0    0  0.00000000000E+00  0.00000000000E+00  0.45593999997E+02  0.45594000000E+02  0.51100000000E-03 0.  1.
         11   -1    0    0    0    0 -0.00000000000E+00 -0.00000000000E+00 -0.45593999997E+02  0.45594000000E+02  0.51100000000E-03 0. -1.
    9900012    2    1    2    0    0 -0.13859385771E+02 -0.13410627226E+02  0.25392973796E+02  0.59301786447E+02  0.49999712610E+02 0.  0.
         12    1    1    2    0    0  0.13859385771E+02  0.13410627226E+02 -0.25392973796E+02  0.31886213553E+02  0.00000000000E+00 0. -1.
         11    1    3    3    0    0 -0.15055436233E+02 -0.23848709145E+02 -0.23059892394E+01  0.28297432298E+02  0.51100000000E-03 0. -1.
        -11    1    3    3    0    0 -0.91232979524E+00  0.33126678653E+01  0.14597089546E+01  0.37332110219E+01  0.51100000000E-03 0.  1.
        -12    1    3    3    0    0  0.21083802573E+01  0.71254140537E+01  0.26239254081E+02  0.27271143127E+02  0.00000000000E+00 0.  1.
</event>
<event>
 7    1  0.6184948E-012  0.5930188E+02  0.7816164E-02  0.1266605E+00
        -11   -1    0    0    0    0  0.00000000000E+00  0.00000000000E+00  0.45593999997E+02  0.45594000000E+02  0.51100000000E-03 0. -1.
         11   -1    0    0    0    0 -0.00000000000E+00 -0.00000000000E+00 -0.45593999997E+02  0.45594000000E+02  0.51100000000E-03 0.  1.
    9900012    2    1    2    0    0 -0.29697782408E+02 -0.14482975941E+01  0.11518184233E+02  0.59301883681E+02  0.49999889942E+02 0.  0.
         12    1    1    2    0    0  0.29697782408E+02  0.14482975941E+01 -0.11518184233E+02  0.31886116319E+02  0.00000000000E+00 0. -1.
         11    1    3    3    0    0 -0.22484544455E+02 -0.37063042283E+01  0.10765075221E+02  0.25202743406E+02  0.51100000000E-03 0. -1.
        -11    1    3    3    0    0 -0.18335341610E+02  0.42804696423E+01 -0.73270670313E+01  0.20203788849E+02  0.51100000000E-03 0.  1.
         12    1    3    3    0    0  0.11122103657E+02 -0.20224630081E+01  0.80801760429E+01  0.13895351426E+02  0.00000000000E+00 0. -1.
</event>
<event>
 7    1  0.6184948E-012  0.5930194E+02  0.7816164E-02  0.1266605E+00
        -11   -1    0    0    0    0  0.00000000000E+00  0.00000000000E+00  0.45593999997E+02  0.45594000000E+02  0.51100000000E-03 0.  1.
         11   -1    0    0    0    0 -0.00000000000E+00 -0.00000000000E+00 -0.45593999997E+02  0.45594000000E+02  0.51100000000E-03 0. -1.
    9900012    2    1    2    0    0  0.15065404926E+02 -0.11386695217E+02  0.25692358608E+02  0.59301944359E+02  0.50000000604E+02 0.  0.
         12    1    1    2    0    0 -0.15065404926E+02  0.11386695217E+02 -0.25692358608E+02  0.31886055641E+02  0.00000000000E+00 0. -1.
         11    1    3    3    0    0  0.18974262415E+01 -0.53144039961E+01  0.38203242062E+02  0.38617752660E+02  0.51100000000E-03 0.  1.
        -11    1    3    3    0    0  0.64170849021E+01 -0.54909906325E+01 -0.29098584557E+01  0.89329297132E+01  0.51100000000E-03 0. -1.
        -12    1    3    3    0    0  0.67508937820E+01 -0.58130058854E+00 -0.96010249987E+01  0.11751261986E+02  0.00000000000E+00 0.  1.
</event>
<event>
 7    1  0.6184948E-012  0.5930194E+02  0.7816164E-02  0.1266605E+00
        -11   -1    0    0    0    0  0.00000000000E+00  0.00000000000E+00  0.45593999997E+02  0.45594000000E+02  0.51100000000E-03 0. -1.
         11   -1    0    0    0    0 -0.00000000000E+00 -0.00000000000E+00 -0.45593999997E+02  0.45594000000E+02  0.51100000000E-03 0.  1.
    9900012    2    1    2    0    0 -0.29478758622E+01  0.31680363675E+02  0.20941064568E+01  0.59301941973E+02  0.49999996253E+02 0.  0.
         12    1    1    2    0    0  0.29478758622E+01 -0.31680363675E+02 -0.20941064568E+01  0.31886058027E+02  0.00000000000E+00 0. -1.
         11    1    3    3    0    0 -0.31002080484E+01  0.13797339141E+02  0.10402146721E+02  0.17555127854E+02  0.51100000000E-03 0. -1.
        -11    1    3    3    0    0 -0.92069396267E+01 -0.28161723421E+00  0.10504860001E+02  0.13971368203E+02  0.51100000000E-03 0.  1.
        -12    1    3    3    0    0  0.93592718129E+01  0.18164641767E+02 -0.18812900265E+02  0.27775445916E+02  0.00000000000E+00 0.  1.
</event>
<event>
 7    1  0.6184948E-012  0.5930196E+02  0.7816164E-02  0.1266605E+00
        -11   -1    0    0    0    0  0.00000000000E+00  0.00000000000E+00  0.45593999997E+02  0.45594000000E+02  0.51100000000E-03 0. -1.
         11   -1    0    0    0    0 -0.00000000000E+00 -0.00000000000E+00 -0.45593999997E+02  0.45594000000E+02  0.51100000000E-03 0.  1.
    9900012    2    1    2    0    0  0.29812037710E+01  0.25488771316E+02 -0.18924962958E+02  0.59301964466E+02  0.50000037274E+02 0.  0.
         12    1    1    2    0    0 -0.29812037710E+01 -0.25488771316E+02  0.18924962958E+02  0.31886035534E+02  0.00000000000E+00 0. -1.
         11    1    3    3    0    0  0.77807490773E+01  0.34794343727E+01 -0.74159747848E+00  0.85554945409E+01  0.51100000000E-03 0. -1.
        -11    1    3    3    0    0 -0.90409088354E+01  0.23889612299E+02  0.59038303129E+01  0.26216537166E+02  0.51100000000E-03 0.  1.
         12    1    3    3    0    0  0.42413635291E+01 -0.18802753557E+01 -0.24087195792E+02  0.24529932759E+02  0.00000000000E+00 0. -1.
</event>
<event>
 7    1  0.6184948E-012  0.5930194E+02  0.7816164E-02  0.1266605E+00
        -11   -1    0    0    0    0  0.00000000000E+00  0.00000000000E+00  0.45593999997E+02  0.45594000000E+02  0.51100000000E-03 0.  1.
         11   -1    0    0    0    0 -0.00000000000E+00 -0.00000000000E+00 -0.45593999997E+02  0.45594000000E+02  0.51100000000E-03 0. -1.
    9900012    2    1    2    0    0  0.96270457216E+01 -0.26939864203E+02  0.14081358167E+02  0.59301938148E+02  0.49999989276E+02 0.  0.
         12    1    1    2    0    0 -0.96270457216E+01  0.26939864203E+02 -0.14081358167E+02  0.31886061852E+02  0.00000000000E+00 0. -1.
         11    1    3    3    0    0 -0.22646405461E+00 -0.17385644256E+02 -0.14352606652E+02  0.22545714229E+02  0.51100000000E-03 0. -1.
        -11    1    3    3    0    0  0.21357080888E+01  0.38548842396E+01  0.24435987632E-01  0.44070374312E+01  0.51100000000E-03 0.  1.
        -12    1    3    3    0    0  0.77178016874E+01 -0.13409104187E+02  0.28409528831E+02  0.32349186487E+02  0.00000000000E+00 0.  1.
</event>
<event>
 7    1  0.6184948E-012  0.5930196E+02  0.7816164E-02  0.1266605E+00
        -11   -1    0    0    0    0  0.00000000000E+00  0.00000000000E+00  0.45593999997E+02  0.45594000000E+02  0.51100000000E-03 0.  1.
         11   -1    0    0    0    0 -0.00000000000E+00 -0.00000000000E+00 -0.45593999997E+02  0.45594000000E+02  0.51100000000E-03 0. -1.
    9900012    2    1    2    0    0 -0.22684859920E+01  0.21337509437E+02  0.23585676817E+02  0.59301960914E+02  0.50000030796E+02 0.  0.
         12    1    1    2    0    0  0.22684859920E+01 -0.21337509437E+02 -0.23585676817E+02  0.31886039086E+02  0.00000000000E+00 0. -1.
         11    1    3    3    0    0 -0.65400133197E+01  0.10668933250E+02 -0.28880270094E+00  0.12517240837E+02  0.51100000000E-03 0. -1.
        -11    1    3    3    0    0 -0.75842668713E+01  0.20034063461E+02  0.23320452663E+02  0.31665885672E+02  0.51100000000E-03 0.  1.
         12    1    3    3    0    0  0.11855794199E+02 -0.93654872747E+01  0.55402685554E+00  0.15118834404E+02  0.00000000000E+00 0. -1.
</event>
<event>
 7    1  0.6184948E-012  0.5930192E+02  0.7816164E-02  0.1266605E+00
        -11   -1    0    0    0    0  0.00000000000E+00  0.00000000000E+00  0.45593999997E+02  0.45594000000E+02  0.51100000000E-03 0.  1.
         11   -1    0    0    0    0 -0.00000000000E+00 -0.00000000000E+00 -0.45593999997E+02  0.45594000000E+02  0.51100000000E-03 0. -1.
    9900012    2    1    2    0    0 -0.13371953870E+02  0.43250529992E+01  0.28621791773E+02  0.59301918428E+02  0.49999953311E+02 0.  0.
         12    1    1    2    0    0  0.13371953870E+02 -0.43250529992E+01 -0.28621791773E+02  0.31886081572E+02  0.00000000000E+00 0. -1.
         11    1    3    3    0    0  0.40190626543E+01 -0.13614572922E+02  0.10896570479E+02  0.17895382335E+02  0.51100000000E-03 0. -1.
        -11    1    3    3    0    0 -0.15963734430E+02 -0.13269864872E+01  0.14908289962E+02  0.21882843050E+02  0.51100000000E-03 0.  1.
         12    1    3    3    0    0 -0.14272820937E+01  0.19266612408E+02  0.28169313316E+01  0.19523693042E+02  0.00000000000E+00 0. -1.
</event>
<event>
 7    1  0.6184948E-012  0.5930195E+02  0.7816164E-02  0.1266605E+00
        -11   -1    0    0    0    0  0.00000000000E+00  0.00000000000E+00  0.45593999997E+02  0.45594000000E+02  0.51100000000E-03 0.  1.
         11   -1    0    0    0    0 -0.00000000000E+00 -0.00000000000E+00 -0.45593999997E+02  0.45594000000E+02  0.51100000000E-03 0. -1.
    9900012    2    1    2    0    0 -0.21879747195E+02  0.12837443579E+01  0.23159212663E+02  0.59301945555E+02  0.50000002785E+02 0.  0.
         12    1    1    2    0    0  0.21879747195E+02 -0.12837443579E+01 -0.23159212663E+02  0.31886054445E+02  0.00000000000E+00 0. -1.
         11    1    3    3    0    0 -0.86879206495E+01  0.72412052308E+01  0.16720447763E+02  0.20186341721E+02  0.51100000000E-03 0. -1.
        -11    1    3    3    0    0 -0.13703546572E+02  0.35766057685E+01  0.18774054852E+02  0.23516896762E+02  0.51100000000E-03 0.  1.
         12    1    3    3    0    0  0.51172002698E+00 -0.95340666414E+01 -0.12335289952E+02  0.15598707072E+02  0.00000000000E+00 0. -1.
</event>
<event>
 7    1  0.6184948E-012  0.5930199E+02  0.7816164E-02  0.1266605E+00
        -11   -1    0    0    0    0  0.00000000000E+00  0.00000000000E+00  0.45593999997E+02  0.45594000000E+02  0.51100000000E-03 0.  1.
         11   -1    0    0    0    0 -0.00000000000E+00 -0.00000000000E+00 -0.45593999997E+02  0.45594000000E+02  0.51100000000E-03 0. -1.
    9900012    2    1    2    0    0  0.19496505381E+02 -0.20194936226E+02  0.15125103751E+02  0.59301985280E+02  0.50000075234E+02 0.  0.
         12    1    1    2    0    0 -0.19496505381E+02  0.20194936226E+02 -0.15125103751E+02  0.31886014720E+02  0.00000000000E+00 0. -1.
         11    1    3    3    0    0  0.15537171371E+02 -0.24962300231E+02 -0.26682631890E+01  0.29523545785E+02  0.51100000000E-03 0. -1.
        -11    1    3    3    0    0 -0.30985760076E+00 -0.44626228817E+01 -0.38262092890E+01  0.58865008708E+01  0.51100000000E-03 0.  1.
        -12    1    3    3    0    0  0.42691916110E+01  0.92299868862E+01  0.21619576228E+02  0.23891938624E+02  0.00000000000E+00 0.  1.
</event>
<event>
 7    1  0.6184948E-012  0.5930200E+02  0.7816164E-02  0.1266605E+00
        -11   -1    0    0    0    0  0.00000000000E+00  0.00000000000E+00  0.45593999997E+02  0.45594000000E+02  0.51100000000E-03 0.  1.
         11   -1    0    0    0    0 -0.00000000000E+00 -0.00000000000E+00 -0.45593999997E+02  0.45594000000E+02  0.51100000000E-03 0. -1.
    9900012    2    1    2    0    0 -0.66233468037E+01  0.10309952497E+02  0.29437279076E+02  0.59301996130E+02  0.50000095022E+02 0.  0.
         12    1    1    2    0    0  0.66233468037E+01 -0.10309952497E+02 -0.29437279076E+02  0.31886003870E+02  0.00000000000E+00 0. -1.
         11    1    3    3    0    0  0.43992017457E+01  0.76189895064E+01  0.36048754111E+01  0.95077391681E+01  0.51100000000E-03 0. -1.
        -11    1    3    3    0    0 -0.27436082888E+01  0.15567260527E+02 -0.39630139925E+01  0.16296394292E+02  0.51100000000E-03 0.  1.
        -12    1    3    3    0    0 -0.82789402606E+01 -0.12876297536E+02  0.29795417658E+02  0.33497862670E+02  0.00000000000E+00 0.  1.
</event>
<event>
 7    1  0.6184948E-012  0.5930194E+02  0.7816164E-02  0.1266605E+00
        -11   -1    0    0    0    0  0.00000000000E+00  0.00000000000E+00  0.45593999997E+02  0.45594000000E+02  0.51100000000E-03 0. -1.
         11   -1    0    0    0    0 -0.00000000000E+00 -0.00000000000E+00 -0.45593999997E+02  0.45594000000E+02  0.51100000000E-03 0.  1.
    9900012    2    1    2    0    0 -0.31377425815E+02  0.40320318124E+01 -0.39900694543E+01  0.59301940577E+02  0.49999993706E+02 0.  0.
         12    1    1    2    0    0  0.31377425815E+02 -0.40320318124E+01  0.39900694543E+01  0.31886059423E+02  0.00000000000E+00 0. -1.
         11    1    3    3    0    0 -0.10055001355E+02  0.21710285293E+02  0.96624394186E-01  0.23925903876E+02  0.51100000000E-03 0. -1.
        -11    1    3    3    0    0 -0.11582688934E+02 -0.52496348904E+01  0.84038865541E+01  0.15242790391E+02  0.51100000000E-03 0.  1.
        -12    1    3    3    0    0 -0.97397355256E+01 -0.12428618590E+02 -0.12490580403E+02  0.20133246310E+02  0.00000000000E+00 0.  1.
</event>
<event>
 7    1  0.6184948E-012  0.5930196E+02  0.7816164E-02  0.1266605E+00
        -11   -1    0    0    0    0  0.00000000000E+00  0.00000000000E+00  0.45593999997E+02  0.45594000000E+02  0.51100000000E-03 0.  1.
         11   -1    0    0    0    0 -0.00000000000E+00 -0.00000000000E+00 -0.45593999997E+02  0.45594000000E+02  0.51100000000E-03 0. -1.
    9900012    2    1    2    0    0  0.26058313084E+02  0.15945635943E+02  0.91334732419E+01  0.59301963560E+02  0.50000035622E+02 0.  0.
         12    1    1    2    0    0 -0.26058313084E+02 -0.15945635943E+02 -0.91334732419E+01  0.31886036440E+02  0.00000000000E+00 0. -1.
         11    1    3    3    0    0  0.57966345717E+01 -0.11635373565E+01 -0.60100995158E+01  0.84306635556E+01  0.51100000000E-03 0. -1.
        -11    1    3    3    0    0 -0.28985214412E+01  0.51931610532E+01 -0.11913242155E+02  0.13315242663E+02  0.51100000000E-03 0.  1.
        -12    1    3    3    0    0  0.23160199954E+02  0.11916012246E+02  0.27056814913E+02  0.37556057341E+02  0.00000000000E+00 0.  1.
</event>
<event>
 7    1  0.6184948E-012  0.5930194E+02  0.7816164E-02  0.1266605E+00
        -11   -1    0    0    0    0  0.00000000000E+00  0.00000000000E+00  0.45593999997E+02  0.45594000000E+02  0.51100000000E-03 0. -1.
         11   -1    0    0    0    0 -0.00000000000E+00 -0.00000000000E+00 -0.45593999997E+02  0.45594000000E+02  0.51100000000E-03 0.  1.
    9900012    2    1    2    0    0  0.23680379529E+02  0.50291421806E+01 -0.20752544500E+02  0.59301941151E+02  0.49999994754E+02 0.  0.
         12    1    1    2    0    0 -0.23680379529E+02 -0.50291421806E+01  0.20752544500E+02  0.31886058849E+02  0.00000000000E+00 0. -1.
         11    1    3    3    0    0  0.72753714498E+01  0.35475914702E+01 -0.25152948201E+01  0.84760334630E+01  0.51100000000E-03 0. -1.
        -11    1    3    3    0    0  0.36273124908E+01  0.39595712707E+01  0.14571612849E+02  0.15529568630E+02  0.51100000000E-03 0.  1.
        -12    1    3    3    0    0  0.12777695588E+02 -0.24780205603E+01 -0.32808862529E+02  0.35296339058E+02  0.00000000000E+00 0.  1.
</event>
<event>
 7    1  0.6184948E-012  0.5930195E+02  0.7816164E-02  0.1266605E+00
        -11   -1    0    0    0    0  0.00000000000E+00  0.00000000000E+00  0.45593999997E+02  0.45594000000E+02  0.51100000000E-03 0.  1.
         11   -1    0    0    0    0 -0.00000000000E+00 -0.00000000000E+00 -0.45593999997E+02  0.45594000000E+02  0.51100000000E-03 0. -1.
    9900012    2    1    2    0    0  0.59483115047E+01  0.27098766648E+02  0.15716071226E+02  0.59301945706E+02  0.50000003061E+02 0.  0.
         12    1    1    2    0    0 -0.59483115047E+01 -0.27098766648E+02 -0.15716071226E+02  0.31886054294E+02  0.00000000000E+00 0. -1.
         11    1    3    3    0    0  0.96373111057E+01  0.20620836955E+02  0.26248236945E+01  0.22912581298E+02  0.51100000000E-03 0. -1.
        -11    1    3    3    0    0 -0.11502404608E+02  0.11866980649E+02  0.19020932002E+02  0.25197745851E+02  0.51100000000E-03 0.  1.
         12    1    3    3    0    0  0.78134050071E+01 -0.53890509553E+01 -0.59296844703E+01  0.11191618557E+02  0.00000000000E+00 0. -1.
</event>
<event>
 7    1  0.6184948E-012  0.5930194E+02  0.7816164E-02  0.1266605E+00
        -11   -1    0    0    0    0  0.00000000000E+00  0.00000000000E+00  0.45593999997E+02  0.45594000000E+02  0.51100000000E-03 0.  1.
         11   -1    0    0    0    0 -0.00000000000E+00 -0.00000000000E+00 -0.45593999997E+02  0.45594000000E+02  0.51100000000E-03 0. -1.
    9900012    2    1    2    0    0  0.28047657156E+02 -0.15082172474E+02  0.16055140778E+01  0.59301942327E+02  0.49999996898E+02 0.  0.
         12    1    1    2    0    0 -0.28047657156E+02  0.15082172474E+02 -0.16055140778E+01  0.31886057673E+02  0.00000000000E+00 0. -1.
         11    1    3    3    0    0 -0.36004404444E+01 -0.58177209139E+01 -0.10059186200E+02  0.12165371975E+02  0.51100000000E-03 0. -1.
        -11    1    3    3    0    0  0.28540531917E+01  0.34852863029E+01 -0.85864993008E+01  0.96964328873E+01  0.51100000000E-03 0.  1.
        -12    1    3    3    0    0  0.28794044409E+02 -0.12749737863E+02  0.20251199578E+02  0.37440137465E+02  0.00000000000E+00 0.  1.
</event>
<event>
 7    1  0.6184948E-012  0.5930195E+02  0.7816164E-02  0.1266605E+00
        -11   -1    0    0    0    0  0.00000000000E+00  0.00000000000E+00  0.45593999997E+02  0.45594000000E+02  0.51100000000E-03 0.  1.
         11   -1    0    0    0    0 -0.00000000000E+00 -0.00000000000E+00 -0.45593999997E+02  0.45594000000E+02  0.51100000000E-03 0. -1.
    9900012    2    1    2    0    0 -0.29278966510E+02  0.12626215397E+02 -0.20181544085E+00  0.59301954077E+02  0.50000018327E+02 0.  0.
         12    1    1    2    0    0  0.29278966510E+02 -0.12626215397E+02  0.20181544085E+00  0.31886045923E+02  0.00000000000E+00 0. -1.
         11    1    3    3    0    0  0.41424151345E+01  0.61520973525E+01 -0.97205155700E+01  0.12226869108E+02  0.51100000000E-03 0. -1.
        -11    1    3    3    0    0  0.62143370218E+00 -0.35333679434E+01  0.10990569428E+02  0.11561292553E+02  0.51100000000E-03 0.  1.
         12    1    3    3    0    0 -0.34042815347E+02  0.10007485987E+02 -0.14718692990E+01  0.35513792416E+02  0.00000000000E+00 0. -1.
</event>
<event>
 7    1  0.6184948E-012  0.5930193E+02  0.7816164E-02  0.1266605E+00
        -11   -1    0    0    0    0  0.00000000000E+00  0.00000000000E+00  0.45593999997E+02  0.45594000000E+02  0.51100000000E-03 0. -1.
         11   -1    0    0    0    0 -0.00000000000E+00 -0.00000000000E+00 -0.45593999997E+02  0.45594000000E+02  0.51100000000E-03 0.  1.
    9900012    2    1    2    0    0 -0.18134353589E+02  0.80814310900E+01 -0.24951091424E+02  0.59301932952E+02  0.49999979800E+02 0.  0.
         12    1    1    2    0    0  0.18134353589E+02 -0.80814310900E+01  0.24951091424E+02  0.31886067048E+02  0.00000000000E+00 0. -1.
         11    1    3    3    0    0  0.44082957518E+01 -0.63195160135E+01 -0.11176352781E+02  0.13574984929E+02  0.51100000000E-03 0. -1.
        -11    1    3    3    0    0 -0.24474870172E+02 -0.41567243110E+01 -0.95336799834E+01  0.26593019408E+02  0.51100000000E-03 0.  1.
         12    1    3    3    0    0  0.19322208311E+01  0.18557671414E+02 -0.42410586594E+01  0.19133928614E+02  0.00000000000E+00 0. -1.
</event>
<event>
 7    1  0.6184948E-012  0.5930194E+02  0.7816164E-02  0.1266605E+00
        -11   -1    0    0    0    0  0.00000000000E+00  0.00000000000E+00  0.45593999997E+02  0.45594000000E+02  0.51100000000E-03 0.  1.
         11   -1    0    0    0    0 -0.00000000000E+00 -0.00000000000E+00 -0.45593999997E+02  0.45594000000E+02  0.51100000000E-03 0. -1.
    9900012    2    1    2    0    0  0.30337389246E+02  0.11285759969E+01 -0.97513947977E+01  0.59301943948E+02  0.49999999855E+02 0.  0.
         12    1    1    2    0    0 -0.30337389246E+02 -0.11285759969E+01  0.97513947977E+01  0.31886056052E+02  0.00000000000E+00 0. -1.
         11    1    3    3    0    0  0.19619430298E+02 -0.82196643312E+01 -0.46751968141E+01  0.21779402941E+02  0.51100000000E-03 0. -1.
        -11    1    3    3    0    0  0.74430711360E+01  0.21867914811E+02  0.12182948600E+01  0.23131996212E+02  0.51100000000E-03 0.  1.
         12    1    3    3    0    0  0.32748878117E+01 -0.12519674483E+02 -0.62944928436E+01  0.14390544795E+02  0.00000000000E+00 0. -1.
</event>
<event>
 7    1  0.6184948E-012  0.5930191E+02  0.7816164E-02  0.1266605E+00
        -11   -1    0    0    0    0  0.00000000000E+00  0.00000000000E+00  0.45593999997E+02  0.45594000000E+02  0.51100000000E-03 0. -1.
         11   -1    0    0    0    0 -0.00000000000E+00 -0.00000000000E+00 -0.45593999997E+02  0.45594000000E+02  0.51100000000E-03 0.  1.
    9900012    2    1    2    0    0 -0.13052664302E+02 -0.13148627194E+02 -0.25951188212E+02  0.59301911935E+02  0.49999941471E+02 0.  0.
         12    1    1    2    0    0  0.13052664302E+02  0.13148627194E+02  0.25951188212E+02  0.31886088065E+02  0.00000000000E+00 0. -1.
         11    1    3    3    0    0  0.53205926196E+01  0.10453266148E+02 -0.31721410812E+01  0.12150800726E+02  0.51100000000E-03 0. -1.
        -11    1    3    3    0    0 -0.53338511238E+01  0.64645503104E+01 -0.61929721412E+01  0.10420810080E+02  0.51100000000E-03 0.  1.
         12    1    3    3    0    0 -0.13039405798E+02 -0.30066443652E+02 -0.16586074990E+02  0.36730301129E+02  0.00000000000E+00 0. -1.
</event>
<event>
 7    1  0.6184948E-012  0.5930194E+02  0.7816164E-02  0.1266605E+00
        -11   -1    0    0    0    0  0.00000000000E+00  0.00000000000E+00  0.45593999997E+02  0.45594000000E+02  0.51100000000E-03 0.  1.
         11   -1    0    0    0    0 -0.00000000000E+00 -0.00000000000E+00 -0.45593999997E+02  0.45594000000E+02  0.51100000000E-03 0. -1.
    9900012    2    1    2    0    0  0.43741519711E+00  0.99893424950E+01  0.30277752761E+02  0.59301943364E+02  0.49999998789E+02 0.  0.
         12    1    1    2    0    0 -0.43741519711E+00 -0.99893424950E+01 -0.30277752761E+02  0.31886056636E+02  0.00000000000E+00 0. -1.
         11    1    3    3    0    0 -0.15481371975E+02  0.56365134511E+01  0.14571498057E+02  0.21994811161E+02  0.51100000000E-03 0. -1.
        -11    1    3    3    0    0 -0.22022949859E+01  0.12796422711E+02  0.10365026293E+02  0.16614220046E+02  0.51100000000E-03 0.  1.
        -12    1    3    3    0    0  0.18121082158E+02 -0.84435936671E+01  0.53412284107E+01  0.20692912157E+02  0.00000000000E+00 0.  1.
</event>
<event>
 7    1  0.6184948E-012  0.5930223E+02  0.7816164E-02  0.1266604E+00
        -11   -1    0    0    0    0  0.00000000000E+00  0.00000000000E+00  0.45593999997E+02  0.45594000000E+02  0.51100000000E-03 0.  1.
         11   -1    0    0    0    0 -0.00000000000E+00 -0.00000000000E+00 -0.45593999997E+02  0.45594000000E+02  0.51100000000E-03 0. -1.
    9900012    2    1    2    0    0 -0.26476508019E+02  0.43308414129E+01  0.17231967865E+02  0.59302229181E+02  0.50000520048E+02 0.  0.
         12    1    1    2    0    0  0.26476508019E+02 -0.43308414129E+01 -0.17231967865E+02  0.31885770819E+02  0.00000000000E+00 0. -1.
         11    1    3    3    0    0 -0.37362937728E+00 -0.81609102492E+01 -0.38794770737E+01  0.90438043783E+01  0.51100000000E-03 0. -1.
        -11    1    3    3    0    0 -0.33184827218E+02  0.62555790968E+01  0.90815172991E+01  0.34969114716E+02  0.51100000000E-03 0.  1.
         12    1    3    3    0    0  0.70819485758E+01  0.62361725654E+01  0.12029927640E+02  0.15289310086E+02  0.00000000000E+00 0. -1.
</event>
<event>
 7    1  0.6184948E-012  0.5930191E+02  0.7816164E-02  0.1266605E+00
        -11   -1    0    0    0    0  0.00000000000E+00  0.00000000000E+00  0.45593999997E+02  0.45594000000E+02  0.51100000000E-03 0.  1.
         11   -1    0    0    0    0 -0.00000000000E+00 -0.00000000000E+00 -0.45593999997E+02  0.45594000000E+02  0.51100000000E-03 0. -1.
    9900012    2    1    2    0    0 -0.22575675362E+02  0.31161633455E+01  0.22301365628E+02  0.59301913678E+02  0.49999944650E+02 0.  0.
         12    1    1    2    0    0  0.22575675362E+02 -0.31161633455E+01 -0.22301365628E+02  0.31886086322E+02  0.00000000000E+00 0. -1.
         11    1    3    3    0    0 -0.23312341123E+01 -0.67051292650E+00  0.22179895471E+02  0.22312149234E+02  0.51100000000E-03 0. -1.
        -11    1    3    3    0    0 -0.20821200593E+02  0.98939888977E+01  0.10186404203E+02  0.25202703055E+02  0.51100000000E-03 0.  1.
         12    1    3    3    0    0  0.57675934342E+00 -0.61073126257E+01 -0.10064934046E+02  0.11787061390E+02  0.00000000000E+00 0. -1.
</event>
<event>
 7    1  0.6184948E-012  0.5930189E+02  0.7816164E-02  0.1266605E+00
        -11   -1    0    0    0    0  0.00000000000E+00  0.00000000000E+00  0.45593999997E+02  0.45594000000E+02  0.51100000000E-03 0. -1.
         11   -1    0    0    0    0 -0.00000000000E+00 -0.00000000000E+00 -0.45593999997E+02  0.45594000000E+02  0.51100000000E-03 0.  1.
    9900012    2    1    2    0    0  0.12872814248E+02  0.23409062318E+01 -0.29078078683E+02  0.59301892547E+02  0.49999906111E+02 0.  0.
         12    1    1    2    0    0 -0.12872814248E+02 -0.23409062318E+01  0.29078078683E+02  0.31886107453E+02  0.00000000000E+00 0. -1.
         11    1    3    3    0    0  0.44644731088E+01 -0.13717285079E+02 -0.14898920669E+02  0.20738207913E+02  0.51100000000E-03 0. -1.
        -11    1    3    3    0    0  0.19500404791E+02  0.84765783298E+01 -0.13341399879E+02  0.25102014226E+02  0.51100000000E-03 0.  1.
        -12    1    3    3    0    0 -0.11092063652E+02  0.75816129814E+01 -0.83775813477E+00  0.13461670408E+02  0.00000000000E+00 0.  1.
</event>
<event>
 7    1  0.6184948E-012  0.5930194E+02  0.7816164E-02  0.1266605E+00
        -11   -1    0    0    0    0  0.00000000000E+00  0.00000000000E+00  0.45593999997E+02  0.45594000000E+02  0.51100000000E-03 0. -1.
         11   -1    0    0    0    0 -0.00000000000E+00 -0.00000000000E+00 -0.45593999997E+02  0.45594000000E+02  0.51100000000E-03 0.  1.
    9900012    2    1    2    0    0  0.20082691209E+01 -0.13619571027E+02 -0.28760993733E+02  0.59301943168E+02  0.49999998431E+02 0.  0.
         12    1    1    2    0    0 -0.20082691209E+01  0.13619571027E+02  0.28760993733E+02  0.31886056832E+02  0.00000000000E+00 0. -1.
         11    1    3    3    0    0 -0.29213536003E+01 -0.93694175055E+01  0.22540881484E+01  0.10069816527E+02  0.51100000000E-03 0.  1.
        -11    1    3    3    0    0 -0.15577773797E+02 -0.69073088431E+01 -0.10043119442E+02  0.19779843284E+02  0.51100000000E-03 0. -1.
         12    1    3    3    0    0  0.20507396519E+02  0.26571553216E+01 -0.20971962439E+02  0.29452283357E+02  0.00000000000E+00 0. -1.
</event>
<event>
 7    1  0.6184948E-012  0.5930194E+02  0.7816164E-02  0.1266605E+00
        -11   -1    0    0    0    0  0.00000000000E+00  0.00000000000E+00  0.45593999997E+02  0.45594000000E+02  0.51100000000E-03 0.  1.
         11   -1    0    0    0    0 -0.00000000000E+00 -0.00000000000E+00 -0.45593999997E+02  0.45594000000E+02  0.51100000000E-03 0. -1.
    9900012    2    1    2    0    0 -0.32103047256E+01 -0.22555493671E+02  0.22308391270E+02  0.59301942354E+02  0.49999996947E+02 0.  0.
         12    1    1    2    0    0  0.32103047256E+01  0.22555493671E+02 -0.22308391270E+02  0.31886057646E+02  0.00000000000E+00 0. -1.
         11    1    3    3    0    0  0.48890992886E+01  0.66198315076E+01  0.88874318168E+01  0.12112469013E+02  0.51100000000E-03 0. -1.
        -11    1    3    3    0    0  0.78834499885E+01 -0.91783945208E+01  0.17491589864E+02  0.21268460827E+02  0.51100000000E-03 0.  1.
         12    1    3    3    0    0 -0.15982854003E+02 -0.19996930658E+02 -0.40706304110E+01  0.25921012514E+02  0.00000000000E+00 0. -1.
</event>
<event>
 7    1  0.6184948E-012  0.5930197E+02  0.7816164E-02  0.1266605E+00
        -11   -1    0    0    0    0  0.00000000000E+00  0.00000000000E+00  0.45593999997E+02  0.45594000000E+02  0.51100000000E-03 0.  1.
         11   -1    0    0    0    0 -0.00000000000E+00 -0.00000000000E+00 -0.45593999997E+02  0.45594000000E+02  0.51100000000E-03 0. -1.
    9900012    2    1    2    0    0 -0.57972032098E+01 -0.45604719669E+01  0.31021179654E+02  0.59301967686E+02  0.50000043146E+02 0.  0.
         12    1    1    2    0    0  0.57972032098E+01  0.45604719669E+01 -0.31021179654E+02  0.31886032314E+02  0.00000000000E+00 0. -1.
         11    1    3    3    0    0 -0.50156604711E+01  0.84034229003E+01  0.59388530445E+01  0.11447460074E+02  0.51100000000E-03 0. -1.
        -11    1    3    3    0    0 -0.78132286006E+01  0.11664374908E+02  0.37754698673E+01  0.14538168941E+02  0.51100000000E-03 0.  1.
         12    1    3    3    0    0  0.70316858619E+01 -0.24628269776E+02  0.21306856742E+02  0.33316338671E+02  0.00000000000E+00 0. -1.
</event>
<event>
 7    1  0.6184948E-012  0.5930192E+02  0.7816164E-02  0.1266605E+00
        -11   -1    0    0    0    0  0.00000000000E+00  0.00000000000E+00  0.45593999997E+02  0.45594000000E+02  0.51100000000E-03 0. -1.
         11   -1    0    0    0    0 -0.00000000000E+00 -0.00000000000E+00 -0.45593999997E+02  0.45594000000E+02  0.51100000000E-03 0.  1.
    9900012    2    1    2    0    0 -0.29568413663E+01  0.28634949159E+02 -0.13712000113E+02  0.59301918847E+02  0.49999954076E+02 0.  0.
         12    1    1    2    0    0  0.29568413663E+01 -0.28634949159E+02  0.13712000113E+02  0.31886081153E+02  0.00000000000E+00 0. -1.
         11    1    3    3    0    0  0.40398774200E+01  0.14208263212E+02  0.59815467813E+01  0.15936569745E+02  0.51100000000E-03 0. -1.
        -11    1    3    3    0    0 -0.96814074724E+01  0.18074398946E+02  0.25531085705E+01  0.20662330738E+02  0.51100000000E-03 0.  1.
         12    1    3    3    0    0  0.26846886861E+01 -0.36477129992E+01 -0.22246655465E+02  0.22703018364E+02  0.00000000000E+00 0. -1.
</event>
<event>
 7    1  0.6184948E-012  0.5930193E+02  0.7816164E-02  0.1266605E+00
        -11   -1    0    0    0    0  0.00000000000E+00  0.00000000000E+00  0.45593999997E+02  0.45594000000E+02  0.51100000000E-03 0.  1.
         11   -1    0    0    0    0 -0.00000000000E+00 -0.00000000000E+00 -0.45593999997E+02  0.45594000000E+02  0.51100000000E-03 0. -1.
    9900012    2    1    2    0    0  0.28966721451E+02 -0.13740173172E+01  0.13257547360E+02  0.59301930358E+02  0.49999975070E+02 0.  0.
         12    1    1    2    0    0 -0.28966721451E+02  0.13740173172E+01 -0.13257547360E+02  0.31886069642E+02  0.00000000000E+00 0. -1.
         11    1    3    3    0    0  0.79718547972E+01  0.24576032730E+01 -0.76179314843E+01  0.11297042229E+02  0.51100000000E-03 0. -1.
        -11    1    3    3    0    0  0.21602466949E+02  0.10939851282E+02  0.23864522081E+01  0.24331914819E+02  0.51100000000E-03 0.  1.
        -12    1    3    3    0    0 -0.60760029539E+00 -0.14771471872E+02  0.18489026637E+02  0.23672973311E+02  0.00000000000E+00 0.  1.
</event>
<event>
 7    1  0.6184948E-012  0.5930201E+02  0.7816164E-02  0.1266605E+00
        -11   -1    0    0    0    0  0.00000000000E+00  0.00000000000E+00  0.45593999997E+02  0.45594000000E+02  0.51100000000E-03 0. -1.
         11   -1    0    0    0    0 -0.00000000000E+00 -0.00000000000E+00 -0.45593999997E+02  0.45594000000E+02  0.51100000000E-03 0.  1.
    9900012    2    1    2    0    0 -0.13995483707E+02 -0.18458596625E+02 -0.21911715497E+02  0.59302005746E+02  0.50000112559E+02 0.  0.
         12    1    1    2    0    0  0.13995483707E+02  0.18458596625E+02  0.21911715497E+02  0.31885994254E+02  0.00000000000E+00 0. -1.
         11    1    3    3    0    0 -0.47769161116E+01  0.85062422791E+01 -0.11844865624E+02  0.15345224897E+02  0.51100000000E-03 0. -1.
        -11    1    3    3    0    0 -0.40171433669E+01 -0.85806466820E+01 -0.20213491464E+02  0.22323758101E+02  0.51100000000E-03 0.  1.
         12    1    3    3    0    0 -0.52014242286E+01 -0.18384192222E+02  0.10146641590E+02  0.21633022748E+02  0.00000000000E+00 0. -1.
</event>
<event>
 7    1  0.6184948E-012  0.5930195E+02  0.7816164E-02  0.1266605E+00
        -11   -1    0    0    0    0  0.00000000000E+00  0.00000000000E+00  0.45593999997E+02  0.45594000000E+02  0.51100000000E-03 0. -1.
         11   -1    0    0    0    0 -0.00000000000E+00 -0.00000000000E+00 -0.45593999997E+02  0.45594000000E+02  0.51100000000E-03 0.  1.
    9900012    2    1    2    0    0  0.13219926768E+01  0.31109640493E+02 -0.68675109413E+01  0.59301951283E+02  0.50000013232E+02 0.  0.
         12    1    1    2    0    0 -0.13219926768E+01 -0.31109640493E+02  0.68675109413E+01  0.31886048717E+02  0.00000000000E+00 0. -1.
         11    1    3    3    0    0 -0.13251083335E+01 -0.22861751410E+00  0.15611528117E+02  0.15669332739E+02  0.51100000000E-03 0. -1.
        -11    1    3    3    0    0  0.23476013337E+01  0.15156903620E+02  0.71039990367E+00  0.15354075278E+02  0.51100000000E-03 0.  1.
         12    1    3    3    0    0  0.29949967666E+00  0.16181354388E+02 -0.23189438962E+02  0.28278543266E+02  0.00000000000E+00 0. -1.
</event>
<event>
 7    1  0.6184948E-012  0.5930195E+02  0.7816164E-02  0.1266605E+00
        -11   -1    0    0    0    0  0.00000000000E+00  0.00000000000E+00  0.45593999997E+02  0.45594000000E+02  0.51100000000E-03 0.  1.
         11   -1    0    0    0    0 -0.00000000000E+00 -0.00000000000E+00 -0.45593999997E+02  0.45594000000E+02  0.51100000000E-03 0. -1.
    9900012    2    1    2    0    0 -0.25875746452E+02  0.78762166068E+01  0.16885829120E+02  0.59301948699E+02  0.50000008520E+02 0.  0.
         12    1    1    2    0    0  0.25875746452E+02 -0.78762166068E+01 -0.16885829120E+02  0.31886051301E+02  0.00000000000E+00 0. -1.
         11    1    3    3    0    0 -0.22604160103E+02 -0.10773696129E+02  0.17681461964E+02  0.30653787363E+02  0.51100000000E-03 0. -1.
        -11    1    3    3    0    0 -0.45674561811E+01  0.17084799462E+02  0.81516153926E+01  0.19473080454E+02  0.51100000000E-03 0.  1.
        -12    1    3    3    0    0  0.12958698321E+01  0.15651132742E+01 -0.89472482366E+01  0.91750808820E+01  0.00000000000E+00 0.  1.
</event>
<event>
 7    1  0.6184948E-012  0.5930195E+02  0.7816164E-02  0.1266605E+00
        -11   -1    0    0    0    0  0.00000000000E+00  0.00000000000E+00  0.45593999997E+02  0.45594000000E+02  0.51100000000E-03 0.  1.
         11   -1    0    0    0    0 -0.00000000000E+00 -0.00000000000E+00 -0.45593999997E+02  0.45594000000E+02  0.51100000000E-03 0. -1.
    9900012    2    1    2    0    0  0.24944462804E+02 -0.17396762154E+02 -0.95836729650E+01  0.59301947477E+02  0.50000006290E+02 0.  0.
         12    1    1    2    0    0 -0.24944462804E+02  0.17396762154E+02  0.95836729650E+01  0.31886052523E+02  0.00000000000E+00 0. -1.
         11    1    3    3    0    0  0.45794281235E+01  0.65104352828E+01 -0.14913718648E+01  0.80982170760E+01  0.51100000000E-03 0. -1.
        -11    1    3    3    0    0  0.38854608373E+01 -0.23278542806E+01  0.14931896481E+02  0.15603757376E+02  0.51100000000E-03 0.  1.
        -12    1    3    3    0    0  0.16479573843E+02 -0.21579343156E+02 -0.23024197581E+02  0.35599973025E+02  0.00000000000E+00 0.  1.
</event>
<event>
 7    1  0.6184948E-012  0.5930193E+02  0.7816164E-02  0.1266605E+00
        -11   -1    0    0    0    0  0.00000000000E+00  0.00000000000E+00  0.45593999997E+02  0.45594000000E+02  0.51100000000E-03 0.  1.
         11   -1    0    0    0    0 -0.00000000000E+00 -0.00000000000E+00 -0.45593999997E+02  0.45594000000E+02  0.51100000000E-03 0. -1.
    9900012    2    1    2    0    0  0.10219652194E+02 -0.16019476717E+02  0.25605795461E+02  0.59301926450E+02  0.49999967942E+02 0.  0.
         12    1    1    2    0    0 -0.10219652194E+02  0.16019476717E+02 -0.25605795461E+02  0.31886073550E+02  0.00000000000E+00 0. -1.
         11    1    3    3    0    0  0.17637683401E+02 -0.55795105507E+01  0.23771212563E+02  0.30121244342E+02  0.51100000000E-03 0. -1.
        -11    1    3    3    0    0 -0.71422806834E+01 -0.17270120853E+02  0.76617559632E+01  0.20198310631E+02  0.51100000000E-03 0.  1.
         12    1    3    3    0    0 -0.27575052321E+00  0.68301546873E+01 -0.58271730653E+01  0.89823714762E+01  0.00000000000E+00 0. -1.
</event>
<event>
 7    1  0.6184948E-012  0.5930190E+02  0.7816164E-02  0.1266605E+00
        -11   -1    0    0    0    0  0.00000000000E+00  0.00000000000E+00  0.45593999997E+02  0.45594000000E+02  0.51100000000E-03 0.  1.
         11   -1    0    0    0    0 -0.00000000000E+00 -0.00000000000E+00 -0.45593999997E+02  0.45594000000E+02  0.51100000000E-03 0. -1.
    9900012    2    1    2    0    0 -0.17224030480E+02  0.74288565377E+01  0.25785040616E+02  0.59301898718E+02  0.49999917365E+02 0.  0.
         12    1    1    2    0    0  0.17224030480E+02 -0.74288565377E+01 -0.25785040616E+02  0.31886101282E+02  0.00000000000E+00 0. -1.
         11    1    3    3    0    0 -0.10758219634E+02  0.19690905460E+02  0.30307950488E+02  0.37709984229E+02  0.51100000000E-03 0.  1.
        -11    1    3    3    0    0  0.41654400089E+01 -0.28059212473E+01 -0.53521162952E+01  0.73395663096E+01  0.51100000000E-03 0. -1.
        -12    1    3    3    0    0 -0.10631250855E+02 -0.94561276745E+01  0.82920642346E+00  0.14252348179E+02  0.00000000000E+00 0.  1.
</event>
<event>
 7    1  0.6184948E-012  0.5930178E+02  0.7816164E-02  0.1266605E+00
        -11   -1    0    0    0    0  0.00000000000E+00  0.00000000000E+00  0.45593999997E+02  0.45594000000E+02  0.51100000000E-03 0. -1.
         11   -1    0    0    0    0 -0.00000000000E+00 -0.00000000000E+00 -0.45593999997E+02  0.45594000000E+02  0.51100000000E-03 0.  1.
    9900012    2    1    2    0    0 -0.22982643637E+02 -0.21717422283E+02 -0.41088734690E+01  0.59301777578E+02  0.49999696434E+02 0.  0.
         12    1    1    2    0    0  0.22982643637E+02  0.21717422283E+02  0.41088734690E+01  0.31886222422E+02  0.00000000000E+00 0. -1.
         11    1    3    3    0    0 -0.22020458628E+02 -0.13745803424E+02  0.68309670450E+01  0.26842314002E+02  0.51100000000E-03 0.  1.
        -11    1    3    3    0    0 -0.65430440817E+01  0.91891764433E+01 -0.87606234175E+01  0.14282888800E+02  0.51100000000E-03 0. -1.
         12    1    3    3    0    0  0.55808590723E+01 -0.17160795303E+02 -0.21792170966E+01  0.18176574775E+02  0.00000000000E+00 0. -1.
</event>
<event>
 7    1  0.6184948E-012  0.5930165E+02  0.7816164E-02  0.1266606E+00
        -11   -1    0    0    0    0  0.00000000000E+00  0.00000000000E+00  0.45593999997E+02  0.45594000000E+02  0.51100000000E-03 0.  1.
         11   -1    0    0    0    0 -0.00000000000E+00 -0.00000000000E+00 -0.45593999997E+02  0.45594000000E+02  0.51100000000E-03 0. -1.
    9900012    2    1    2    0    0 -0.89173042217E+01  0.49354975741E+01  0.30213604240E+02  0.59301649753E+02  0.49999463310E+02 0.  0.
         12    1    1    2    0    0  0.89173042217E+01 -0.49354975741E+01 -0.30213604240E+02  0.31886350247E+02  0.00000000000E+00 0. -1.
         11    1    3    3    0    0 -0.22620112389E+02  0.11091220952E+02  0.13394869725E+02  0.28532563886E+02  0.51100000000E-03 0. -1.
        -11    1    3    3    0    0 -0.48993916850E+01 -0.37621458754E+01  0.10505635823E+01  0.62658969487E+01  0.51100000000E-03 0.  1.
        -12    1    3    3    0    0  0.18602199852E+02 -0.23935775024E+01  0.15768170933E+02  0.24503188918E+02  0.00000000000E+00 0.  1.
</event>
<event>
 7    1  0.6184948E-012  0.5930194E+02  0.7816164E-02  0.1266605E+00
        -11   -1    0    0    0    0  0.00000000000E+00  0.00000000000E+00  0.45593999997E+02  0.45594000000E+02  0.51100000000E-03 0.  1.
         11   -1    0    0    0    0 -0.00000000000E+00 -0.00000000000E+00 -0.45593999997E+02  0.45594000000E+02  0.51100000000E-03 0. -1.
    9900012    2    1    2    0    0 -0.19874447390E+02 -0.20946285232E+02  0.13527010206E+02  0.59301944596E+02  0.50000001036E+02 0.  0.
         12    1    1    2    0    0  0.19874447390E+02  0.20946285232E+02 -0.13527010206E+02  0.31886055404E+02  0.00000000000E+00 0. -1.
         11    1    3    3    0    0 -0.42722906592E+01 -0.16211456397E+02  0.29709737383E+02  0.34113520510E+02  0.51100000000E-03 0.  1.
        -11    1    3    3    0    0  0.15118477472E+01 -0.60567181995E+00 -0.20127444043E+01  0.25891431522E+01  0.51100000000E-03 0. -1.
        -12    1    3    3    0    0 -0.17114004479E+02 -0.41291570160E+01 -0.14169982772E+02  0.22599280934E+02  0.00000000000E+00 0.  1.
</event>
<event>
 7    1  0.6184948E-012  0.5930197E+02  0.7816164E-02  0.1266605E+00
        -11   -1    0    0    0    0  0.00000000000E+00  0.00000000000E+00  0.45593999997E+02  0.45594000000E+02  0.51100000000E-03 0. -1.
         11   -1    0    0    0    0 -0.00000000000E+00 -0.00000000000E+00 -0.45593999997E+02  0.45594000000E+02  0.51100000000E-03 0.  1.
    9900012    2    1    2    0    0 -0.37131131132E+01 -0.74195062910E+01 -0.30787705765E+02  0.59301966868E+02  0.50000041656E+02 0.  0.
         12    1    1    2    0    0  0.37131131132E+01  0.74195062910E+01  0.30787705765E+02  0.31886033132E+02  0.00000000000E+00 0. -1.
         11    1    3    3    0    0 -0.82260871359E+01  0.10708185761E+01  0.35404920173E-01  0.82955660301E+01  0.51100000000E-03 0. -1.
        -11    1    3    3    0    0  0.58113241653E+01 -0.17899278331E+02 -0.35679804407E+02  0.40338617925E+02  0.51100000000E-03 0.  1.
         12    1    3    3    0    0 -0.12983501426E+01  0.94089534637E+01  0.48566937218E+01  0.10667782913E+02  0.00000000000E+00 0. -1.
</event>
<event>
 7    1  0.6184948E-012  0.5930195E+02  0.7816164E-02  0.1266605E+00
        -11   -1    0    0    0    0  0.00000000000E+00  0.00000000000E+00  0.45593999997E+02  0.45594000000E+02  0.51100000000E-03 0.  1.
         11   -1    0    0    0    0 -0.00000000000E+00 -0.00000000000E+00 -0.45593999997E+02  0.45594000000E+02  0.51100000000E-03 0. -1.
    9900012    2    1    2    0    0  0.18096034681E+02  0.19733752157E+02  0.17315670198E+02  0.59301954780E+02  0.50000019609E+02 0.  0.
         12    1    1    2    0    0 -0.18096034681E+02 -0.19733752157E+02 -0.17315670198E+02  0.31886045220E+02  0.00000000000E+00 0. -1.
         11    1    3    3    0    0 -0.86253106812E+01  0.18816445576E+02 -0.40517205520E+01  0.21091966436E+02  0.51100000000E-03 0. -1.
        -11    1    3    3    0    0  0.31430281230E+01  0.66792922925E+01  0.43742595094E+01  0.85805429797E+01  0.51100000000E-03 0.  1.
         12    1    3    3    0    0  0.23578317240E+02 -0.57619857113E+01  0.16993131241E+02  0.29629445364E+02  0.00000000000E+00 0. -1.
</event>
<event>
 7    1  0.6184948E-012  0.5930202E+02  0.7816164E-02  0.1266604E+00
        -11   -1    0    0    0    0  0.00000000000E+00  0.00000000000E+00  0.45593999997E+02  0.45594000000E+02  0.51100000000E-03 0. -1.
         11   -1    0    0    0    0 -0.00000000000E+00 -0.00000000000E+00 -0.45593999997E+02  0.45594000000E+02  0.51100000000E-03 0.  1.
    9900012    2    1    2    0    0 -0.60456399183E+01 -0.20288482204E+01 -0.31241792341E+02  0.59302022270E+02  0.50000142694E+02 0.  0.
         12    1    1    2    0    0  0.60456399183E+01  0.20288482204E+01  0.31241792341E+02  0.31885977730E+02  0.00000000000E+00 0. -1.
         11    1    3    3    0    0 -0.21978956550E+01 -0.11533830933E+02  0.31694996224E+01  0.12161649946E+02  0.51100000000E-03 0. -1.
        -11    1    3    3    0    0 -0.15906209997E+02 -0.11919726452E+01 -0.19381117386E+02  0.25100916849E+02  0.51100000000E-03 0.  1.
         12    1    3    3    0    0  0.12058465734E+02  0.10696955357E+02 -0.15030174578E+02  0.22039455475E+02  0.00000000000E+00 0. -1.
</event>
<event>
 7    1  0.6184948E-012  0.5930233E+02  0.7816164E-02  0.1266603E+00
        -11   -1    0    0    0    0  0.00000000000E+00  0.00000000000E+00  0.45593999997E+02  0.45594000000E+02  0.51100000000E-03 0.  1.
         11   -1    0    0    0    0 -0.00000000000E+00 -0.00000000000E+00 -0.45593999997E+02  0.45594000000E+02  0.51100000000E-03 0. -1.
    9900012    2    1    2    0    0  0.22605485088E+02  0.54146749684E+01  0.21825880661E+02  0.59302333507E+02  0.50000710312E+02 0.  0.
         12    1    1    2    0    0 -0.22605485088E+02 -0.54146749684E+01 -0.21825880661E+02  0.31885666493E+02  0.00000000000E+00 0. -1.
         11    1    3    3    0    0 -0.11078406609E+02 -0.42968868317E+00  0.12511424970E+02  0.16716802338E+02  0.51100000000E-03 0. -1.
        -11    1    3    3    0    0  0.26059318788E+01 -0.11011834372E+00  0.10599994923E+02  0.10916176054E+02  0.51100000000E-03 0.  1.
         12    1    3    3    0    0  0.31077959818E+02  0.59544819952E+01 -0.12855392330E+01  0.31669355115E+02  0.00000000000E+00 0. -1.
</event>
<event>
 7    1  0.6184948E-012  0.5930193E+02  0.7816164E-02  0.1266605E+00
        -11   -1    0    0    0    0  0.00000000000E+00  0.00000000000E+00  0.45593999997E+02  0.45594000000E+02  0.51100000000E-03 0.  1.
         11   -1    0    0    0    0 -0.00000000000E+00 -0.00000000000E+00 -0.45593999997E+02  0.45594000000E+02  0.51100000000E-03 0. -1.
    9900012    2    1    2    0    0 -0.20825213756E+02  0.11834624685E+02  0.21046942640E+02  0.59301926803E+02  0.49999968586E+02 0.  0.
         12    1    1    2    0    0  0.20825213756E+02 -0.11834624685E+02 -0.21046942640E+02  0.31886073197E+02  0.00000000000E+00 0. -1.
         11    1    3    3    0    0  0.13672360409E+01 -0.72532617887E+01 -0.34879169189E+01  0.81636208670E+01  0.51100000000E-03 0. -1.
        -11    1    3    3    0    0 -0.53591710539E+01  0.14343356518E+01  0.26111773185E+02  0.26694619912E+02  0.51100000000E-03 0.  1.
        -12    1    3    3    0    0 -0.16833278743E+02  0.17653550822E+02 -0.15769136256E+01  0.24443686024E+02  0.00000000000E+00 0.  1.
</event>
<event>
 7    1  0.6184948E-012  0.5930195E+02  0.7816164E-02  0.1266605E+00
        -11   -1    0    0    0    0  0.00000000000E+00  0.00000000000E+00  0.45593999997E+02  0.45594000000E+02  0.51100000000E-03 0.  1.
         11   -1    0    0    0    0 -0.00000000000E+00 -0.00000000000E+00 -0.45593999997E+02  0.45594000000E+02  0.51100000000E-03 0. -1.
    9900012    2    1    2    0    0 -0.79269112439E+01 -0.29257734574E+02  0.98928837794E+01  0.59301951268E+02  0.50000013204E+02 0.  0.
         12    1    1    2    0    0  0.79269112439E+01  0.29257734574E+02 -0.98928837794E+01  0.31886048732E+02  0.00000000000E+00 0. -1.
         11    1    3    3    0    0 -0.37266643180E+01 -0.29016078877E+01  0.12521653741E+02  0.13382793727E+02  0.51100000000E-03 0. -1.
        -11    1    3    3    0    0 -0.37563563430E+01 -0.19605001208E+02  0.16329442315E+02  0.25789861806E+02  0.51100000000E-03 0.  1.
         12    1    3    3    0    0 -0.44389058295E+00 -0.67511254784E+01 -0.18958212277E+02  0.20129295735E+02  0.00000000000E+00 0. -1.
</event>
<event>
 7    1  0.6184948E-012  0.5930194E+02  0.7816164E-02  0.1266605E+00
        -11   -1    0    0    0    0  0.00000000000E+00  0.00000000000E+00  0.45593999997E+02  0.45594000000E+02  0.51100000000E-03 0. -1.
         11   -1    0    0    0    0 -0.00000000000E+00 -0.00000000000E+00 -0.45593999997E+02  0.45594000000E+02  0.51100000000E-03 0.  1.
    9900012    2    1    2    0    0 -0.63331797373E+01 -0.31097531028E+02  0.30911860381E+01  0.59301936701E+02  0.49999986637E+02 0.  0.
         12    1    1    2    0    0  0.63331797373E+01  0.31097531028E+02 -0.30911860381E+01  0.31886063299E+02  0.00000000000E+00 0. -1.
         11    1    3    3    0    0 -0.59167198346E+01 -0.23797953554E+02  0.43078825944E+01  0.24897952118E+02  0.51100000000E-03 0. -1.
        -11    1    3    3    0    0 -0.87044578543E+01 -0.51515792141E+00 -0.14756357506E+02  0.17140100972E+02  0.51100000000E-03 0.  1.
         12    1    3    3    0    0  0.82879979515E+01 -0.67844195526E+01  0.13539660950E+02  0.17263883611E+02  0.00000000000E+00 0. -1.
</event>
<event>
 7    1  0.6184948E-012  0.5930194E+02  0.7816164E-02  0.1266605E+00
        -11   -1    0    0    0    0  0.00000000000E+00  0.00000000000E+00  0.45593999997E+02  0.45594000000E+02  0.51100000000E-03 0. -1.
         11   -1    0    0    0    0 -0.00000000000E+00 -0.00000000000E+00 -0.45593999997E+02  0.45594000000E+02  0.51100000000E-03 0.  1.
    9900012    2    1    2    0    0  0.86391685081E+01  0.23310389001E+02  0.19967762377E+02  0.59301937179E+02  0.49999987509E+02 0.  0.
         12    1    1    2    0    0 -0.86391685081E+01 -0.23310389001E+02 -0.19967762377E+02  0.31886062821E+02  0.00000000000E+00 0. -1.
         11    1    3    3    0    0  0.16091354239E+02 -0.14665098131E+01  0.42943044204E+01  0.16718952808E+02  0.51100000000E-03 0. -1.
        -11    1    3    3    0    0 -0.34522185408E+01  0.26736666647E+02  0.70713977869E+00  0.26967892079E+02  0.51100000000E-03 0.  1.
         12    1    3    3    0    0 -0.39999671902E+01 -0.19597678329E+01  0.14966318178E+02  0.15615092292E+02  0.00000000000E+00 0. -1.
</event>
<event>
 7    1  0.6184948E-012  0.5930193E+02  0.7816164E-02  0.1266605E+00
        -11   -1    0    0    0    0  0.00000000000E+00  0.00000000000E+00  0.45593999997E+02  0.45594000000E+02  0.51100000000E-03 0.  1.
         11   -1    0    0    0    0 -0.00000000000E+00 -0.00000000000E+00 -0.45593999997E+02  0.45594000000E+02  0.51100000000E-03 0. -1.
    9900012    2    1    2    0    0 -0.63052348451E+01 -0.11247976920E+02  0.29162448771E+02  0.59301931105E+02  0.49999976432E+02 0.  0.
         12    1    1    2    0    0  0.63052348451E+01  0.11247976920E+02 -0.29162448771E+02  0.31886068895E+02  0.00000000000E+00 0. -1.
         11    1    3    3    0    0 -0.36116751822E+01 -0.25462565767E+02  0.15737160774E+02  0.30150367868E+02  0.51100000000E-03 0. -1.
        -11    1    3    3    0    0 -0.75567094007E+01 -0.28920400848E+01  0.41158703454E+01  0.90778930254E+01  0.51100000000E-03 0.  1.
        -12    1    3    3    0    0  0.48631497378E+01  0.17106628932E+02  0.93094176515E+01  0.20073670212E+02  0.00000000000E+00 0.  1.
</event>
<event>
 7    1  0.6184948E-012  0.5930188E+02  0.7816164E-02  0.1266605E+00
        -11   -1    0    0    0    0  0.00000000000E+00  0.00000000000E+00  0.45593999997E+02  0.45594000000E+02  0.51100000000E-03 0.  1.
         11   -1    0    0    0    0 -0.00000000000E+00 -0.00000000000E+00 -0.45593999997E+02  0.45594000000E+02  0.51100000000E-03 0. -1.
    9900012    2    1    2    0    0  0.10107930721E+02 -0.64803474487E+01  0.29539118389E+02  0.59301879481E+02  0.49999882283E+02 0.  0.
         12    1    1    2    0    0 -0.10107930721E+02  0.64803474487E+01 -0.29539118389E+02  0.31886120519E+02  0.00000000000E+00 0. -1.
         11    1    3    3    0    0  0.16677415466E+02 -0.46129375814E+01  0.14305128889E+02  0.22451104484E+02  0.51100000000E-03 0. -1.
        -11    1    3    3    0    0 -0.64174882927E+01 -0.10767162394E+02  0.22236089328E+02  0.25525665729E+02  0.51100000000E-03 0.  1.
        -12    1    3    3    0    0 -0.15199645247E+00  0.88997525266E+01 -0.70020998277E+01  0.11325109269E+02  0.00000000000E+00 0.  1.
</event>
<event>
 7    1  0.6184948E-012  0.5930194E+02  0.7816164E-02  0.1266605E+00
        -11   -1    0    0    0    0  0.00000000000E+00  0.00000000000E+00  0.45593999997E+02  0.45594000000E+02  0.51100000000E-03 0.  1.
         11   -1    0    0    0    0 -0.00000000000E+00 -0.00000000000E+00 -0.45593999997E+02  0.45594000000E+02  0.51100000000E-03 0. -1.
    9900012    2    1    2    0    0 -0.12159477919E+00 -0.29546490404E+02  0.11987942482E+02  0.59301942774E+02  0.49999997713E+02 0.  0.
         12    1    1    2    0    0  0.12159477919E+00  0.29546490404E+02 -0.11987942482E+02  0.31886057226E+02  0.00000000000E+00 0. -1.
         11    1    3    3    0    0  0.11050924574E+02  0.13492387421E+00  0.42853016437E+01  0.11853478344E+02  0.51100000000E-03 0. -1.
        -11    1    3    3    0    0  0.22436021215E+01 -0.14779220843E+02 -0.12126049819E+02  0.19248381846E+02  0.51100000000E-03 0.  1.
        -12    1    3    3    0    0 -0.13416121475E+02 -0.14902193435E+02  0.19828690657E+02  0.28200082585E+02  0.00000000000E+00 0.  1.
</event>
<event>
 7    1  0.6184948E-012  0.5930195E+02  0.7816164E-02  0.1266605E+00
        -11   -1    0    0    0    0  0.00000000000E+00  0.00000000000E+00  0.45593999997E+02  0.45594000000E+02  0.51100000000E-03 0.  1.
         11   -1    0    0    0    0 -0.00000000000E+00 -0.00000000000E+00 -0.45593999997E+02  0.45594000000E+02  0.51100000000E-03 0. -1.
    9900012    2    1    2    0    0  0.17893068280E+02 -0.26155318471E+02  0.35294915513E+01  0.59301954661E+02  0.50000019392E+02 0.  0.
         12    1    1    2    0    0 -0.17893068280E+02  0.26155318471E+02 -0.35294915513E+01  0.31886045339E+02  0.00000000000E+00 0. -1.
         11    1    3    3    0    0  0.13611100771E+02 -0.69885502686E+01  0.90769938069E+01  0.17790270259E+02  0.51100000000E-03 0. -1.
        -11    1    3    3    0    0 -0.64512945364E+01 -0.35004568117E+01  0.13023951707E+02  0.14949773156E+02  0.51100000000E-03 0.  1.
         12    1    3    3    0    0  0.10733262045E+02 -0.15666311390E+02 -0.18571453963E+02  0.26561911245E+02  0.00000000000E+00 0. -1.
</event>
<event>
 7    1  0.6184948E-012  0.5930195E+02  0.7816164E-02  0.1266605E+00
        -11   -1    0    0    0    0  0.00000000000E+00  0.00000000000E+00  0.45593999997E+02  0.45594000000E+02  0.51100000000E-03 0. -1.
         11   -1    0    0    0    0 -0.00000000000E+00 -0.00000000000E+00 -0.45593999997E+02  0.45594000000E+02  0.51100000000E-03 0.  1.
    9900012    2    1    2    0    0 -0.20450796682E+02 -0.51945861778E+01 -0.23906092891E+02  0.59301951518E+02  0.50000013660E+02 0.  0.
         12    1    1    2    0    0  0.20450796682E+02  0.51945861778E+01  0.23906092891E+02  0.31886048482E+02  0.00000000000E+00 0. -1.
         11    1    3    3    0    0  0.16770219008E+01  0.64861112240E+01  0.37250338087E+01  0.76653713806E+01  0.51100000000E-03 0. -1.
        -11    1    3    3    0    0  0.14730125458E+01  0.10581482918E+02 -0.10361213104E+02  0.14882616838E+02  0.51100000000E-03 0.  1.
        -12    1    3    3    0    0 -0.23600831129E+02 -0.22262180320E+02 -0.17269913596E+02  0.36753963299E+02  0.00000000000E+00 0.  1.
</event>
<event>
 7    1  0.6184948E-012  0.5930193E+02  0.7816164E-02  0.1266605E+00
        -11   -1    0    0    0    0  0.00000000000E+00  0.00000000000E+00  0.45593999997E+02  0.45594000000E+02  0.51100000000E-03 0.  1.
         11   -1    0    0    0    0 -0.00000000000E+00 -0.00000000000E+00 -0.45593999997E+02  0.45594000000E+02  0.51100000000E-03 0. -1.
    9900012    2    1    2    0    0 -0.28557607764E+02 -0.83964108657E+01  0.11431731319E+02  0.59301934743E+02  0.49999983067E+02 0.  0.
         12    1    1    2    0    0  0.28557607764E+02  0.83964108657E+01 -0.11431731319E+02  0.31886065257E+02  0.00000000000E+00 0. -1.
         11    1    3    3    0    0 -0.98895835900E+01 -0.52833926278E+01 -0.14435351881E+02  0.18278333771E+02  0.51100000000E-03 0. -1.
        -11    1    3    3    0    0  0.53068022698E+01 -0.52836208497E+01  0.39423090828E+01  0.84628955316E+01  0.51100000000E-03 0.  1.
         12    1    3    3    0    0 -0.23974826443E+02  0.21706026118E+01  0.21924774118E+02  0.32560705441E+02  0.00000000000E+00 0. -1.
</event>
<event>
 7    1  0.6184948E-012  0.5930203E+02  0.7816164E-02  0.1266604E+00
        -11   -1    0    0    0    0  0.00000000000E+00  0.00000000000E+00  0.45593999997E+02  0.45594000000E+02  0.51100000000E-03 0.  1.
         11   -1    0    0    0    0 -0.00000000000E+00 -0.00000000000E+00 -0.45593999997E+02  0.45594000000E+02  0.51100000000E-03 0. -1.
    9900012    2    1    2    0    0  0.67870938618E+01  0.21911294627E+02  0.22148266324E+02  0.59302028531E+02  0.50000154114E+02 0.  0.
         12    1    1    2    0    0 -0.67870938618E+01 -0.21911294627E+02 -0.22148266324E+02  0.31885971469E+02  0.00000000000E+00 0. -1.
         11    1    3    3    0    0  0.14430700342E+02  0.14092589429E+02  0.13547610085E+02  0.24297817360E+02  0.51100000000E-03 0.  1.
        -11    1    3    3    0    0 -0.40054546196E+01 -0.61566535187E+01  0.16844128284E+02  0.18375872964E+02  0.51100000000E-03 0. -1.
         12    1    3    3    0    0 -0.36381518606E+01  0.13975358716E+02 -0.82434720443E+01  0.16628338208E+02  0.00000000000E+00 0. -1.
</event>
<event>
 7    1  0.6184948E-012  0.5930195E+02  0.7816164E-02  0.1266605E+00
        -11   -1    0    0    0    0  0.00000000000E+00  0.00000000000E+00  0.45593999997E+02  0.45594000000E+02  0.51100000000E-03 0.  1.
         11   -1    0    0    0    0 -0.00000000000E+00 -0.00000000000E+00 -0.45593999997E+02  0.45594000000E+02  0.51100000000E-03 0. -1.
    9900012    2    1    2    0    0 -0.24452115240E+01  0.15663834857E+02  0.27665604686E+02  0.59301945611E+02  0.50000002888E+02 0.  0.
         12    1    1    2    0    0  0.24452115240E+01 -0.15663834857E+02 -0.27665604686E+02  0.31886054389E+02  0.00000000000E+00 0. -1.
         11    1    3    3    0    0  0.68514005309E+01 -0.29849060411E+01 -0.81629313177E+01  0.11067285181E+02  0.51100000000E-03 0. -1.
        -11    1    3    3    0    0  0.55747195386E+01  0.16103198671E+02  0.16558388782E+02  0.23760697480E+02  0.51100000000E-03 0.  1.
        -12    1    3    3    0    0 -0.14871331594E+02  0.25455422263E+01  0.19270147222E+02  0.24473962951E+02  0.00000000000E+00 0.  1.
</event>
<event>
 7    1  0.6184948E-012  0.5930193E+02  0.7816164E-02  0.1266605E+00
        -11   -1    0    0    0    0  0.00000000000E+00  0.00000000000E+00  0.45593999997E+02  0.45594000000E+02  0.51100000000E-03 0.  1.
         11   -1    0    0    0    0 -0.00000000000E+00 -0.00000000000E+00 -0.45593999997E+02  0.45594000000E+02  0.51100000000E-03 0. -1.
    9900012    2    1    2    0    0 -0.37352280837E+01  0.20551993482E+02  0.24091183602E+02  0.59301929494E+02  0.49999973495E+02 0.  0.
         12    1    1    2    0    0  0.37352280837E+01 -0.20551993482E+02 -0.24091183602E+02  0.31886070506E+02  0.00000000000E+00 0. -1.
         11    1    3    3    0    0 -0.80638877657E+01  0.14305894885E+02  0.56641925724E+01  0.17371470638E+02  0.51100000000E-03 0. -1.
        -11    1    3    3    0    0 -0.56101542215E+01 -0.63183351688E+01 -0.76023628749E+01  0.11366226781E+02  0.51100000000E-03 0.  1.
        -12    1    3    3    0    0  0.99388139035E+01  0.12564433766E+02  0.26029353905E+02  0.30564232076E+02  0.00000000000E+00 0.  1.
</event>
<event>
 7    1  0.6184948E-012  0.5930193E+02  0.7816164E-02  0.1266605E+00
        -11   -1    0    0    0    0  0.00000000000E+00  0.00000000000E+00  0.45593999997E+02  0.45594000000E+02  0.51100000000E-03 0. -1.
         11   -1    0    0    0    0 -0.00000000000E+00 -0.00000000000E+00 -0.45593999997E+02  0.45594000000E+02  0.51100000000E-03 0.  1.
    9900012    2    1    2    0    0  0.12641441937E+02  0.10558986524E+02 -0.27302436453E+02  0.59301932714E+02  0.49999979367E+02 0.  0.
         12    1    1    2    0    0 -0.12641441937E+02 -0.10558986524E+02  0.27302436453E+02  0.31886067286E+02  0.00000000000E+00 0. -1.
         11    1    3    3    0    0  0.51418191867E+01  0.77004560580E+01  0.12110138176E+01  0.93381948350E+01  0.51100000000E-03 0. -1.
        -11    1    3    3    0    0  0.79959804331E+01  0.10400061663E+02 -0.36609048082E+02  0.38888550853E+02  0.51100000000E-03 0.  1.
         12    1    3    3    0    0 -0.49635768242E+00 -0.75415311967E+01  0.80955978120E+01  0.11075187027E+02  0.00000000000E+00 0. -1.
</event>
<event>
 7    1  0.6184948E-012  0.5930197E+02  0.7816164E-02  0.1266605E+00
        -11   -1    0    0    0    0  0.00000000000E+00  0.00000000000E+00  0.45593999997E+02  0.45594000000E+02  0.51100000000E-03 0.  1.
         11   -1    0    0    0    0 -0.00000000000E+00 -0.00000000000E+00 -0.45593999997E+02  0.45594000000E+02  0.51100000000E-03 0. -1.
    9900012    2    1    2    0    0 -0.13454659251E+02  0.89659849287E+01  0.27482762996E+02  0.59301968526E+02  0.50000044678E+02 0.  0.
         12    1    1    2    0    0  0.13454659251E+02 -0.89659849287E+01 -0.27482762996E+02  0.31886031474E+02  0.00000000000E+00 0. -1.
         11    1    3    3    0    0  0.51043396707E+01 -0.58749098789E+01 -0.43603026809E+01  0.89208233527E+01  0.51100000000E-03 0. -1.
        -11    1    3    3    0    0 -0.22206244028E+02  0.65640568717E+01  0.73865141356E+01  0.24305651767E+02  0.51100000000E-03 0.  1.
         12    1    3    3    0    0  0.36472451068E+01  0.82768379359E+01  0.24456551541E+02  0.26075493406E+02  0.00000000000E+00 0. -1.
</event>
<event>
 7    1  0.6184948E-012  0.5930192E+02  0.7816164E-02  0.1266605E+00
        -11   -1    0    0    0    0  0.00000000000E+00  0.00000000000E+00  0.45593999997E+02  0.45594000000E+02  0.51100000000E-03 0.  1.
         11   -1    0    0    0    0 -0.00000000000E+00 -0.00000000000E+00 -0.45593999997E+02  0.45594000000E+02  0.51100000000E-03 0. -1.
    9900012    2    1    2    0    0  0.11104668475E+02  0.29300178176E+02  0.59083003548E+01  0.59301919711E+02  0.49999955653E+02 0.  0.
         12    1    1    2    0    0 -0.11104668475E+02 -0.29300178176E+02 -0.59083003548E+01  0.31886080289E+02  0.00000000000E+00 0. -1.
         11    1    3    3    0    0 -0.23596035733E+01  0.26987772052E+02 -0.41153620923E+00  0.27093854131E+02  0.51100000000E-03 0. -1.
        -11    1    3    3    0    0 -0.64212748930E+01  0.42526405635E+01  0.92256185054E+01  0.12017893330E+02  0.51100000000E-03 0.  1.
        -12    1    3    3    0    0  0.19885546941E+02 -0.19402344397E+01 -0.29057819413E+01  0.20190172251E+02  0.00000000000E+00 0.  1.
</event>
<event>
 7    1  0.6184948E-012  0.5930192E+02  0.7816164E-02  0.1266605E+00
        -11   -1    0    0    0    0  0.00000000000E+00  0.00000000000E+00  0.45593999997E+02  0.45594000000E+02  0.51100000000E-03 0.  1.
         11   -1    0    0    0    0 -0.00000000000E+00 -0.00000000000E+00 -0.45593999997E+02  0.45594000000E+02  0.51100000000E-03 0. -1.
    9900012    2    1    2    0    0  0.10954639840E+02  0.75260991324E+01  0.28984057499E+02  0.59301923238E+02  0.49999962084E+02 0.  0.
         12    1    1    2    0    0 -0.10954639840E+02 -0.75260991324E+01 -0.28984057499E+02  0.31886076762E+02  0.00000000000E+00 0. -1.
         11    1    3    3    0    0  0.16252934183E+02  0.11648701045E+02 -0.13121860658E+01  0.20039259920E+02  0.51100000000E-03 0. -1.
        -11    1    3    3    0    0  0.92831323098E+01 -0.44034007446E+00  0.16053611245E+02  0.18549632857E+02  0.51100000000E-03 0.  1.
        -12    1    3    3    0    0 -0.14581426653E+02 -0.36822618386E+01  0.14242632319E+02  0.20713030461E+02  0.00000000000E+00 0.  1.
</event>
<event>
 7    1  0.6184948E-012  0.5930195E+02  0.7816164E-02  0.1266605E+00
        -11   -1    0    0    0    0  0.00000000000E+00  0.00000000000E+00  0.45593999997E+02  0.45594000000E+02  0.51100000000E-03 0.  1.
         11   -1    0    0    0    0 -0.00000000000E+00 -0.00000000000E+00 -0.45593999997E+02  0.45594000000E+02  0.51100000000E-03 0. -1.
    9900012    2    1    2    0    0  0.16512522113E+02  0.23199166059E+02 -0.14347669932E+02  0.59301947801E+02  0.50000006881E+02 0.  0.
         12    1    1    2    0    0 -0.16512522113E+02 -0.23199166059E+02  0.14347669932E+02  0.31886052199E+02  0.00000000000E+00 0. -1.
         11    1    3    3    0    0 -0.44081422908E+01 -0.26589012644E+01  0.33182121459E+01  0.61247046048E+01  0.51100000000E-03 0. -1.
        -11    1    3    3    0    0  0.12666142742E+02  0.32881027011E+02 -0.35990526167E+01  0.35419574945E+02  0.51100000000E-03 0.  1.
         12    1    3    3    0    0  0.82545216610E+01 -0.70229596874E+01 -0.14066829462E+02  0.17757668251E+02  0.00000000000E+00 0. -1.
</event>
<event>
 7    1  0.6184948E-012  0.5930195E+02  0.7816164E-02  0.1266605E+00
        -11   -1    0    0    0    0  0.00000000000E+00  0.00000000000E+00  0.45593999997E+02  0.45594000000E+02  0.51100000000E-03 0. -1.
         11   -1    0    0    0    0 -0.00000000000E+00 -0.00000000000E+00 -0.45593999997E+02  0.45594000000E+02  0.51100000000E-03 0.  1.
    9900012    2    1    2    0    0 -0.14239231034E+02 -0.24820036454E+02 -0.14068773149E+02  0.59301948379E+02  0.50000007936E+02 0.  0.
         12    1    1    2    0    0  0.14239231034E+02  0.24820036454E+02  0.14068773149E+02  0.31886051621E+02  0.00000000000E+00 0. -1.
         11    1    3    3    0    0 -0.14070438259E+02 -0.26883697616E+02  0.48220613144E+01  0.30723976075E+02  0.51100000000E-03 0. -1.
        -11    1    3    3    0    0  0.35618256781E+01 -0.60112071893E+01  0.73963793938E+00  0.70262563700E+01  0.51100000000E-03 0.  1.
        -12    1    3    3    0    0 -0.37306184533E+01  0.80748683506E+01 -0.19630472403E+02  0.21551715934E+02  0.00000000000E+00 0.  1.
</event>
<event>
 7    1  0.6184948E-012  0.5930195E+02  0.7816164E-02  0.1266605E+00
        -11   -1    0    0    0    0  0.00000000000E+00  0.00000000000E+00  0.45593999997E+02  0.45594000000E+02  0.51100000000E-03 0.  1.
         11   -1    0    0    0    0 -0.00000000000E+00 -0.00000000000E+00 -0.45593999997E+02  0.45594000000E+02  0.51100000000E-03 0. -1.
    9900012    2    1    2    0    0  0.75883817308E-01 -0.44634985680E+01  0.31572006893E+02  0.59301949805E+02  0.50000010536E+02 0.  0.
         12    1    1    2    0    0 -0.75883817308E-01  0.44634985680E+01 -0.31572006893E+02  0.31886050195E+02  0.00000000000E+00 0. -1.
         11    1    3    3    0    0  0.14609004796E+02  0.10883435601E+02  0.59399440690E+01  0.19161292426E+02  0.51100000000E-03 0.  1.
        -11    1    3    3    0    0 -0.10796906186E+02  0.26442251577E+01  0.41340612951E+01  0.11859830223E+02  0.51100000000E-03 0. -1.
        -12    1    3    3    0    0 -0.37362147934E+01 -0.17991159327E+02  0.21498001529E+02  0.28280827156E+02  0.00000000000E+00 0.  1.
</event>
<event>
 7    1  0.6184948E-012  0.5930192E+02  0.7816164E-02  0.1266605E+00
        -11   -1    0    0    0    0  0.00000000000E+00  0.00000000000E+00  0.45593999997E+02  0.45594000000E+02  0.51100000000E-03 0.  1.
         11   -1    0    0    0    0 -0.00000000000E+00 -0.00000000000E+00 -0.45593999997E+02  0.45594000000E+02  0.51100000000E-03 0. -1.
    9900012    2    1    2    0    0  0.23193604670E+02 -0.63565136696E+01  0.20937365441E+02  0.59301924117E+02  0.49999963687E+02 0.  0.
         12    1    1    2    0    0 -0.23193604670E+02  0.63565136696E+01 -0.20937365441E+02  0.31886075883E+02  0.00000000000E+00 0. -1.
         11    1    3    3    0    0  0.83914300478E+01  0.21000978712E+01  0.26766159948E+02  0.28129234400E+02  0.51100000000E-03 0. -1.
        -11    1    3    3    0    0 -0.25261361507E+01  0.62522490499E+01  0.21592787273E+01  0.70805696746E+01  0.51100000000E-03 0.  1.
         12    1    3    3    0    0  0.17328310773E+02 -0.14708860591E+02 -0.79880732345E+01  0.24092120042E+02  0.00000000000E+00 0. -1.
</event>
<event>
 7    1  0.6184948E-012  0.5930191E+02  0.7816164E-02  0.1266605E+00
        -11   -1    0    0    0    0  0.00000000000E+00  0.00000000000E+00  0.45593999997E+02  0.45594000000E+02  0.51100000000E-03 0.  1.
         11   -1    0    0    0    0 -0.00000000000E+00 -0.00000000000E+00 -0.45593999997E+02  0.45594000000E+02  0.51100000000E-03 0. -1.
    9900012    2    1    2    0    0  0.41905615090E+00  0.29053987530E+02  0.13130606162E+02  0.59301911848E+02  0.49999941313E+02 0.  0.
         12    1    1    2    0    0 -0.41905615090E+00 -0.29053987530E+02 -0.13130606162E+02  0.31886088152E+02  0.00000000000E+00 0. -1.
         11    1    3    3    0    0  0.62406259943E+01  0.19940778249E+01  0.44926120579E+01  0.79438858587E+01  0.51100000000E-03 0. -1.
        -11    1    3    3    0    0 -0.18253767280E+02  0.19552638934E+01  0.13678607158E+02  0.22893828226E+02  0.51100000000E-03 0.  1.
         12    1    3    3    0    0  0.12432197436E+02  0.25104645811E+02 -0.50406130533E+01  0.28464197764E+02  0.00000000000E+00 0. -1.
</event>
<event>
 7    1  0.6184948E-012  0.5930192E+02  0.7816164E-02  0.1266605E+00
        -11   -1    0    0    0    0  0.00000000000E+00  0.00000000000E+00  0.45593999997E+02  0.45594000000E+02  0.51100000000E-03 0. -1.
         11   -1    0    0    0    0 -0.00000000000E+00 -0.00000000000E+00 -0.45593999997E+02  0.45594000000E+02  0.51100000000E-03 0.  1.
    9900012    2    1    2    0    0 -0.15132738206E+02 -0.24498086552E+02  0.13695469149E+02  0.59301923328E+02  0.49999962248E+02 0.  0.
         12    1    1    2    0    0  0.15132738206E+02  0.24498086552E+02 -0.13695469149E+02  0.31886076672E+02  0.00000000000E+00 0. -1.
         11    1    3    3    0    0 -0.17897568610E+02 -0.76368892308E+01  0.75062861681E+01  0.20856398816E+02  0.51100000000E-03 0. -1.
        -11    1    3    3    0    0  0.68797544429E+01 -0.24622191053E+02  0.11657981658E+02  0.28097897609E+02  0.51100000000E-03 0.  1.
         12    1    3    3    0    0 -0.41149240391E+01  0.77609937315E+01 -0.54687986772E+01  0.10347626903E+02  0.00000000000E+00 0. -1.
</event>
<event>
 7    1  0.6184948E-012  0.5930191E+02  0.7816164E-02  0.1266605E+00
        -11   -1    0    0    0    0  0.00000000000E+00  0.00000000000E+00  0.45593999997E+02  0.45594000000E+02  0.51100000000E-03 0.  1.
         11   -1    0    0    0    0 -0.00000000000E+00 -0.00000000000E+00 -0.45593999997E+02  0.45594000000E+02  0.51100000000E-03 0. -1.
    9900012    2    1    2    0    0  0.77321529568E+00 -0.28882154872E+01  0.31745599761E+02  0.59301909698E+02  0.49999937390E+02 0.  0.
         12    1    1    2    0    0 -0.77321529568E+00  0.28882154872E+01 -0.31745599761E+02  0.31886090302E+02  0.00000000000E+00 0. -1.
         11    1    3    3    0    0  0.30134384741E+01 -0.46085941176E+01  0.12057627951E+02  0.13255426935E+02  0.51100000000E-03 0. -1.
        -11    1    3    3    0    0 -0.17316121069E+02  0.90358255002E+01  0.21669188479E+02  0.29172725635E+02  0.51100000000E-03 0.  1.
         12    1    3    3    0    0  0.15075897891E+02 -0.73154468699E+01 -0.19812166686E+01  0.16873757128E+02  0.00000000000E+00 0. -1.
</event>
<event>
 7    1  0.6184948E-012  0.5930196E+02  0.7816164E-02  0.1266605E+00
        -11   -1    0    0    0    0  0.00000000000E+00  0.00000000000E+00  0.45593999997E+02  0.45594000000E+02  0.51100000000E-03 0.  1.
         11   -1    0    0    0    0 -0.00000000000E+00 -0.00000000000E+00 -0.45593999997E+02  0.45594000000E+02  0.51100000000E-03 0. -1.
    9900012    2    1    2    0    0  0.23901474647E+02  0.67231502585E+01  0.20005954100E+02  0.59301961689E+02  0.50000032211E+02 0.  0.
         12    1    1    2    0    0 -0.23901474647E+02 -0.67231502585E+01 -0.20005954100E+02  0.31886038311E+02  0.00000000000E+00 0. -1.
         11    1    3    3    0    0  0.34770445826E+01 -0.98900461024E+01  0.37518541577E+01  0.11134597470E+02  0.51100000000E-03 0. -1.
        -11    1    3    3    0    0 -0.66063147018E+01  0.14331450632E+01  0.15774700911E+02  0.17162123639E+02  0.51100000000E-03 0.  1.
         12    1    3    3    0    0  0.27030744766E+02  0.15180051298E+02  0.47939903129E+00  0.31005240580E+02  0.00000000000E+00 0. -1.
</event>
<event>
 7    1  0.6184948E-012  0.5930194E+02  0.7816164E-02  0.1266605E+00
        -11   -1    0    0    0    0  0.00000000000E+00  0.00000000000E+00  0.45593999997E+02  0.45594000000E+02  0.51100000000E-03 0.  1.
         11   -1    0    0    0    0 -0.00000000000E+00 -0.00000000000E+00 -0.45593999997E+02  0.45594000000E+02  0.51100000000E-03 0. -1.
    9900012    2    1    2    0    0  0.13409188867E+01 -0.26138384370E+02  0.18212833567E+02  0.59301944937E+02  0.50000001658E+02 0.  0.
         12    1    1    2    0    0 -0.13409188867E+01  0.26138384370E+02 -0.18212833567E+02  0.31886055063E+02  0.00000000000E+00 0. -1.
         11    1    3    3    0    0  0.54011663417E+01 -0.94516990076E+00  0.12382738953E+02  0.13542457983E+02  0.51100000000E-03 0. -1.
        -11    1    3    3    0    0 -0.14487568465E+02 -0.11168921785E+02  0.17037787488E+02  0.24998413082E+02  0.51100000000E-03 0.  1.
        -12    1    3    3    0    0  0.10427321010E+02 -0.14024292685E+02 -0.11207692874E+02  0.20761073872E+02  0.00000000000E+00 0.  1.
</event>
<event>
 7    1  0.6184948E-012  0.5930197E+02  0.7816164E-02  0.1266605E+00
        -11   -1    0    0    0    0  0.00000000000E+00  0.00000000000E+00  0.45593999997E+02  0.45594000000E+02  0.51100000000E-03 0.  1.
         11   -1    0    0    0    0 -0.00000000000E+00 -0.00000000000E+00 -0.45593999997E+02  0.45594000000E+02  0.51100000000E-03 0. -1.
    9900012    2    1    2    0    0  0.23138252782E+02  0.17457188472E+02  0.13288599450E+02  0.59301967846E+02  0.50000043439E+02 0.  0.
         12    1    1    2    0    0 -0.23138252782E+02 -0.17457188472E+02 -0.13288599450E+02  0.31886032154E+02  0.00000000000E+00 0. -1.
         11    1    3    3    0    0  0.45243508237E+01  0.10644999966E+02  0.30049859028E+01  0.11950552924E+02  0.51100000000E-03 0. -1.
        -11    1    3    3    0    0 -0.60840457526E+01  0.12545898707E+02 -0.80153688731E+01  0.16082951394E+02  0.51100000000E-03 0.  1.
         12    1    3    3    0    0  0.24697947711E+02 -0.57337102013E+01  0.18298982420E+02  0.31268463528E+02  0.00000000000E+00 0. -1.
</event>
<event>
 7    1  0.6184948E-012  0.5930195E+02  0.7816164E-02  0.1266605E+00
        -11   -1    0    0    0    0  0.00000000000E+00  0.00000000000E+00  0.45593999997E+02  0.45594000000E+02  0.51100000000E-03 0.  1.
         11   -1    0    0    0    0 -0.00000000000E+00 -0.00000000000E+00 -0.45593999997E+02  0.45594000000E+02  0.51100000000E-03 0. -1.
    9900012    2    1    2    0    0 -0.22531928769E+02  0.22467770777E+02 -0.20570606244E+01  0.59301952328E+02  0.50000015138E+02 0.  0.
         12    1    1    2    0    0  0.22531928769E+02 -0.22467770777E+02  0.20570606244E+01  0.31886047672E+02  0.00000000000E+00 0. -1.
         11    1    3    3    0    0 -0.25477216508E+02  0.16676690851E+02 -0.14998009414E+02  0.33943200577E+02  0.51100000000E-03 0. -1.
        -11    1    3    3    0    0 -0.23311637507E+01  0.82339931182E+01 -0.24538480117E+01  0.89024905183E+01  0.51100000000E-03 0.  1.
        -12    1    3    3    0    0  0.52764514902E+01 -0.24429131930E+01  0.15394796802E+02  0.16456261233E+02  0.00000000000E+00 0.  1.
</event>
<event>
 7    1  0.6184948E-012  0.5930193E+02  0.7816164E-02  0.1266605E+00
        -11   -1    0    0    0    0  0.00000000000E+00  0.00000000000E+00  0.45593999997E+02  0.45594000000E+02  0.51100000000E-03 0.  1.
         11   -1    0    0    0    0 -0.00000000000E+00 -0.00000000000E+00 -0.45593999997E+02  0.45594000000E+02  0.51100000000E-03 0. -1.
    9900012    2    1    2    0    0 -0.13552999559E+02 -0.53595798500E+01  0.28360408747E+02  0.59301926589E+02  0.49999968197E+02 0.  0.
         12    1    1    2    0    0  0.13552999559E+02  0.53595798500E+01 -0.28360408747E+02  0.31886073411E+02  0.00000000000E+00 0. -1.
         11    1    3    3    0    0  0.12988232585E+02 -0.38373123486E+01 -0.10227096156E+01  0.13581792480E+02  0.51100000000E-03 0. -1.
        -11    1    3    3    0    0 -0.14385378078E+01  0.80275908161E+01  0.74105453843E+01  0.11019427775E+02  0.51100000000E-03 0.  1.
        -12    1    3    3    0    0 -0.25102694336E+02 -0.95498583175E+01  0.21972572979E+02  0.34700706335E+02  0.00000000000E+00 0.  1.
</event>
<event>
 7    1  0.6184948E-012  0.5930195E+02  0.7816164E-02  0.1266605E+00
        -11   -1    0    0    0    0  0.00000000000E+00  0.00000000000E+00  0.45593999997E+02  0.45594000000E+02  0.51100000000E-03 0. -1.
         11   -1    0    0    0    0 -0.00000000000E+00 -0.00000000000E+00 -0.45593999997E+02  0.45594000000E+02  0.51100000000E-03 0.  1.
    9900012    2    1    2    0    0 -0.27106920524E+02 -0.69595384775E+01 -0.15280712461E+02  0.59301945220E+02  0.50000002174E+02 0.  0.
         12    1    1    2    0    0  0.27106920524E+02  0.69595384775E+01  0.15280712461E+02  0.31886054780E+02  0.00000000000E+00 0. -1.
         11    1    3    3    0    0 -0.38881172109E+01  0.14510456605E+01  0.12010649276E+02  0.12707426381E+02  0.51100000000E-03 0. -1.
        -11    1    3    3    0    0 -0.44023630338E+01  0.72012049510E+01  0.17621458837E+01  0.86222567466E+01  0.51100000000E-03 0.  1.
        -12    1    3    3    0    0 -0.18816440279E+02 -0.15611789089E+02 -0.29053507620E+02  0.37972262092E+02  0.00000000000E+00 0.  1.
</event>
<event>
 7    1  0.6184948E-012  0.5930197E+02  0.7816164E-02  0.1266605E+00
        -11   -1    0    0    0    0  0.00000000000E+00  0.00000000000E+00  0.45593999997E+02  0.45594000000E+02  0.51100000000E-03 0.  1.
         11   -1    0    0    0    0 -0.00000000000E+00 -0.00000000000E+00 -0.45593999997E+02  0.45594000000E+02  0.51100000000E-03 0. -1.
    9900012    2    1    2    0    0  0.63534040970E+01 -0.12871136067E+02  0.28472561928E+02  0.59301973750E+02  0.50000054206E+02 0.  0.
         12    1    1    2    0    0 -0.63534040970E+01  0.12871136067E+02 -0.28472561928E+02  0.31886026250E+02  0.00000000000E+00 0. -1.
         11    1    3    3    0    0  0.46704765634E+01 -0.66766442355E+01 -0.74943126209E+01  0.11070485604E+02  0.51100000000E-03 0. -1.
        -11    1    3    3    0    0  0.32382457357E+01 -0.18290544979E+02  0.14587785783E+02  0.23618504724E+02  0.51100000000E-03 0.  1.
        -12    1    3    3    0    0 -0.15553182020E+01  0.12096053148E+02  0.21379088766E+02  0.24612983422E+02  0.00000000000E+00 0.  1.
</event>
<event>
 7    1  0.6184948E-012  0.5930196E+02  0.7816164E-02  0.1266605E+00
        -11   -1    0    0    0    0  0.00000000000E+00  0.00000000000E+00  0.45593999997E+02  0.45594000000E+02  0.51100000000E-03 0.  1.
         11   -1    0    0    0    0 -0.00000000000E+00 -0.00000000000E+00 -0.45593999997E+02  0.45594000000E+02  0.51100000000E-03 0. -1.
    9900012    2    1    2    0    0  0.12970017066E+02  0.26687540324E+02  0.11673630501E+02  0.59301956026E+02  0.50000021882E+02 0.  0.
         12    1    1    2    0    0 -0.12970017066E+02 -0.26687540324E+02 -0.11673630501E+02  0.31886043974E+02  0.00000000000E+00 0. -1.
         11    1    3    3    0    0  0.52282964286E+01  0.25927246776E+02 -0.53447463762E+01  0.26983764063E+02  0.51100000000E-03 0. -1.
        -11    1    3    3    0    0 -0.44157891889E+01  0.75196799562E+01  0.16182898894E+02  0.18382899599E+02  0.51100000000E-03 0.  1.
         12    1    3    3    0    0  0.12157509826E+02 -0.67593864084E+01  0.83547798281E+00  0.13935292363E+02  0.00000000000E+00 0. -1.
</event>
<event>
 7    1  0.6184948E-012  0.5930197E+02  0.7816164E-02  0.1266605E+00
        -11   -1    0    0    0    0  0.00000000000E+00  0.00000000000E+00  0.45593999997E+02  0.45594000000E+02  0.51100000000E-03 0.  1.
         11   -1    0    0    0    0 -0.00000000000E+00 -0.00000000000E+00 -0.45593999997E+02  0.45594000000E+02  0.51100000000E-03 0. -1.
    9900012    2    1    2    0    0  0.10536067076E+02 -0.29870156465E+01  0.29946415020E+02  0.59301972583E+02  0.50000052078E+02 0.  0.
         12    1    1    2    0    0 -0.10536067076E+02  0.29870156465E+01 -0.29946415020E+02  0.31886027417E+02  0.00000000000E+00 0. -1.
         11    1    3    3    0    0  0.15480361515E+02  0.13182160219E+02  0.15454879528E+02  0.25539464407E+02  0.51100000000E-03 0. -1.
        -11    1    3    3    0    0  0.24393816619E+01 -0.56236350427E+01  0.19122817307E+02  0.20081284720E+02  0.51100000000E-03 0.  1.
         12    1    3    3    0    0 -0.73836761004E+01 -0.10545540823E+02 -0.46312818158E+01  0.13681223457E+02  0.00000000000E+00 0. -1.
</event>
<event>
 7    1  0.6184948E-012  0.5930204E+02  0.7816164E-02  0.1266604E+00
        -11   -1    0    0    0    0  0.00000000000E+00  0.00000000000E+00  0.45593999997E+02  0.45594000000E+02  0.51100000000E-03 0. -1.
         11   -1    0    0    0    0 -0.00000000000E+00 -0.00000000000E+00 -0.45593999997E+02  0.45594000000E+02  0.51100000000E-03 0.  1.
    9900012    2    1    2    0    0  0.56043036198E+01  0.27337522022E+02 -0.15426158187E+02  0.59302036226E+02  0.50000168148E+02 0.  0.
         12    1    1    2    0    0 -0.56043036198E+01 -0.27337522022E+02  0.15426158187E+02  0.31885963774E+02  0.00000000000E+00 0. -1.
         11    1    3    3    0    0  0.11508891910E+02  0.77437643192E+01 -0.13620407894E+02  0.19440575873E+02  0.51100000000E-03 0. -1.
        -11    1    3    3    0    0 -0.18467011633E+01  0.29229553820E+02 -0.24228898720E+01  0.29387880449E+02  0.51100000000E-03 0.  1.
         12    1    3    3    0    0 -0.40578871267E+01 -0.96357961171E+01  0.61713957900E+00  0.10473579904E+02  0.00000000000E+00 0. -1.
</event>
<event>
 7    1  0.6184948E-012  0.5930194E+02  0.7816164E-02  0.1266605E+00
        -11   -1    0    0    0    0  0.00000000000E+00  0.00000000000E+00  0.45593999997E+02  0.45594000000E+02  0.51100000000E-03 0.  1.
         11   -1    0    0    0    0 -0.00000000000E+00 -0.00000000000E+00 -0.45593999997E+02  0.45594000000E+02  0.51100000000E-03 0. -1.
    9900012    2    1    2    0    0 -0.14264732502E+01  0.30586075699E+02 -0.88981932674E+01  0.59301941981E+02  0.49999996267E+02 0.  0.
         12    1    1    2    0    0  0.14264732502E+01 -0.30586075699E+02  0.88981932674E+01  0.31886058019E+02  0.00000000000E+00 0. -1.
         11    1    3    3    0    0 -0.48266921236E+01  0.17282734892E+02  0.13803847494E+02  0.22639259884E+02  0.51100000000E-03 0. -1.
        -11    1    3    3    0    0  0.11041574393E+01  0.13513535934E+02  0.28375362249E+00  0.13561538758E+02  0.51100000000E-03 0.  1.
         12    1    3    3    0    0  0.22960614340E+01 -0.21019512754E+00 -0.22985794384E+02  0.23101143339E+02  0.00000000000E+00 0. -1.
</event>
<event>
 7    1  0.6184948E-012  0.5930198E+02  0.7816164E-02  0.1266605E+00
        -11   -1    0    0    0    0  0.00000000000E+00  0.00000000000E+00  0.45593999997E+02  0.45594000000E+02  0.51100000000E-03 0.  1.
         11   -1    0    0    0    0 -0.00000000000E+00 -0.00000000000E+00 -0.45593999997E+02  0.45594000000E+02  0.51100000000E-03 0. -1.
    9900012    2    1    2    0    0 -0.22167828611E+02 -0.22916572538E+02  0.36902139440E+00  0.59301982704E+02  0.50000070536E+02 0.  0.
         12    1    1    2    0    0  0.22167828611E+02  0.22916572538E+02 -0.36902139440E+00  0.31886017296E+02  0.00000000000E+00 0. -1.
         11    1    3    3    0    0  0.47925251480E+00  0.38748550586E+01  0.18475684943E+01  0.43194553245E+01  0.51100000000E-03 0. -1.
        -11    1    3    3    0    0 -0.25986679830E+01 -0.77007793405E+01  0.18922220646E+02  0.20593822184E+02  0.51100000000E-03 0.  1.
         12    1    3    3    0    0 -0.20048413143E+02 -0.19090648256E+02 -0.20400767746E+02  0.34388705195E+02  0.00000000000E+00 0. -1.
</event>
<event>
 7    1  0.6184948E-012  0.5930195E+02  0.7816164E-02  0.1266605E+00
        -11   -1    0    0    0    0  0.00000000000E+00  0.00000000000E+00  0.45593999997E+02  0.45594000000E+02  0.51100000000E-03 0. -1.
         11   -1    0    0    0    0 -0.00000000000E+00 -0.00000000000E+00 -0.45593999997E+02  0.45594000000E+02  0.51100000000E-03 0.  1.
    9900012    2    1    2    0    0 -0.24621593894E+02  0.57365750625E+01 -0.19431643957E+02  0.59301953425E+02  0.50000017138E+02 0.  0.
         12    1    1    2    0    0  0.24621593894E+02 -0.57365750625E+01  0.19431643957E+02  0.31886046575E+02  0.00000000000E+00 0. -1.
         11    1    3    3    0    0 -0.31179172214E+02 -0.32008386471E+01 -0.18282810970E+01  0.31396317619E+02  0.51100000000E-03 0. -1.
        -11    1    3    3    0    0 -0.58342832148E+01 -0.25453709357E+00 -0.73189831401E+01  0.93632881098E+01  0.51100000000E-03 0.  1.
         12    1    3    3    0    0  0.12391861534E+02  0.91919508031E+01 -0.10284379720E+02  0.18542347696E+02  0.00000000000E+00 0. -1.
</event>
<event>
 7    1  0.6184948E-012  0.5930199E+02  0.7816164E-02  0.1266605E+00
        -11   -1    0    0    0    0  0.00000000000E+00  0.00000000000E+00  0.45593999997E+02  0.45594000000E+02  0.51100000000E-03 0.  1.
         11   -1    0    0    0    0 -0.00000000000E+00 -0.00000000000E+00 -0.45593999997E+02  0.45594000000E+02  0.51100000000E-03 0. -1.
    9900012    2    1    2    0    0  0.28161722263E+02  0.93311283011E+01  0.11686107910E+02  0.59301989364E+02  0.50000082682E+02 0.  0.
         12    1    1    2    0    0 -0.28161722263E+02 -0.93311283011E+01 -0.11686107910E+02  0.31886010636E+02  0.00000000000E+00 0. -1.
         11    1    3    3    0    0  0.17956749078E+02  0.29966511753E+01 -0.56591883102E+01  0.19064395304E+02  0.51100000000E-03 0. -1.
        -11    1    3    3    0    0  0.18778749535E+02  0.14035987894E+02  0.63043228408E+01  0.24277456148E+02  0.51100000000E-03 0.  1.
        -12    1    3    3    0    0 -0.85737763491E+01 -0.77015107686E+01  0.11040973379E+02  0.15960137912E+02  0.00000000000E+00 0.  1.
</event>
<event>
 7    1  0.6184948E-012  0.5930197E+02  0.7816164E-02  0.1266605E+00
        -11   -1    0    0    0    0  0.00000000000E+00  0.00000000000E+00  0.45593999997E+02  0.45594000000E+02  0.51100000000E-03 0.  1.
         11   -1    0    0    0    0 -0.00000000000E+00 -0.00000000000E+00 -0.45593999997E+02  0.45594000000E+02  0.51100000000E-03 0. -1.
    9900012    2    1    2    0    0 -0.27935322986E+02 -0.13227078318E+02 -0.78346168429E+01  0.59301967130E+02  0.50000042133E+02 0.  0.
         12    1    1    2    0    0  0.27935322986E+02  0.13227078318E+02  0.78346168429E+01  0.31886032870E+02  0.00000000000E+00 0. -1.
         11    1    3    3    0    0 -0.10284122278E+02 -0.40399100668E+01 -0.48826882021E+01  0.12079929169E+02  0.51100000000E-03 0. -1.
        -11    1    3    3    0    0 -0.45354964099E+01 -0.11800727672E+02 -0.21148765072E+02  0.24639362119E+02  0.51100000000E-03 0.  1.
         12    1    3    3    0    0 -0.13115704298E+02  0.26135594215E+01  0.18196836432E+02  0.22582675842E+02  0.00000000000E+00 0. -1.
</event>
<event>
 7    1  0.6184948E-012  0.5930197E+02  0.7816164E-02  0.1266605E+00
        -11   -1    0    0    0    0  0.00000000000E+00  0.00000000000E+00  0.45593999997E+02  0.45594000000E+02  0.51100000000E-03 0. -1.
         11   -1    0    0    0    0 -0.00000000000E+00 -0.00000000000E+00 -0.45593999997E+02  0.45594000000E+02  0.51100000000E-03 0.  1.
    9900012    2    1    2    0    0 -0.13018035674E+01 -0.19775823229E+02 -0.24978813863E+02  0.59301968279E+02  0.50000044228E+02 0.  0.
         12    1    1    2    0    0  0.13018035674E+01  0.19775823229E+02  0.24978813863E+02  0.31886031721E+02  0.00000000000E+00 0. -1.
         11    1    3    3    0    0 -0.84429009554E+01 -0.22926976107E+02 -0.78375690850E+01  0.25658454735E+02  0.51100000000E-03 0. -1.
        -11    1    3    3    0    0 -0.61701790880E+01 -0.83164100424E+01 -0.10805392796E+02  0.14966305479E+02  0.51100000000E-03 0.  1.
         12    1    3    3    0    0  0.13311276476E+02  0.11467562921E+02 -0.63358519823E+01  0.18677208065E+02  0.00000000000E+00 0. -1.
</event>
<event>
 7    1  0.6184948E-012  0.5930195E+02  0.7816164E-02  0.1266605E+00
        -11   -1    0    0    0    0  0.00000000000E+00  0.00000000000E+00  0.45593999997E+02  0.45594000000E+02  0.51100000000E-03 0. -1.
         11   -1    0    0    0    0 -0.00000000000E+00 -0.00000000000E+00 -0.45593999997E+02  0.45594000000E+02  0.51100000000E-03 0.  1.
    9900012    2    1    2    0    0  0.16606277123E+02 -0.25983399794E+02 -0.81126173110E+01  0.59301951885E+02  0.50000014330E+02 0.  0.
         12    1    1    2    0    0 -0.16606277123E+02  0.25983399794E+02  0.81126173110E+01  0.31886048115E+02  0.00000000000E+00 0. -1.
         11    1    3    3    0    0  0.67099730973E+01 -0.32261606809E+02 -0.31182887551E+01  0.33099225639E+02  0.51100000000E-03 0. -1.
        -11    1    3    3    0    0  0.28025477260E+01  0.96072265972E+00 -0.13557208792E+02  0.13877145682E+02  0.51100000000E-03 0.  1.
        -12    1    3    3    0    0  0.70937562998E+01  0.53174843556E+01  0.85628802358E+01  0.12325580564E+02  0.00000000000E+00 0.  1.
</event>
<event>
 7    1  0.6184948E-012  0.5930194E+02  0.7816164E-02  0.1266605E+00
        -11   -1    0    0    0    0  0.00000000000E+00  0.00000000000E+00  0.45593999997E+02  0.45594000000E+02  0.51100000000E-03 0.  1.
         11   -1    0    0    0    0 -0.00000000000E+00 -0.00000000000E+00 -0.45593999997E+02  0.45594000000E+02  0.51100000000E-03 0. -1.
    9900012    2    1    2    0    0 -0.29400360604E+02 -0.97737163784E+01 -0.75375002215E+01  0.59301942779E+02  0.49999997723E+02 0.  0.
         12    1    1    2    0    0  0.29400360604E+02  0.97737163784E+01  0.75375002215E+01  0.31886057221E+02  0.00000000000E+00 0. -1.
         11    1    3    3    0    0 -0.38370002749E+01 -0.21502188154E+02 -0.74287536258E+01  0.23070610031E+02  0.51100000000E-03 0. -1.
        -11    1    3    3    0    0  0.14137292310E+00 -0.14410812963E+01 -0.64926913732E+01  0.66521983686E+01  0.51100000000E-03 0.  1.
        -12    1    3    3    0    0 -0.25704733253E+02  0.13169553072E+02  0.63839447775E+01  0.29579134379E+02  0.00000000000E+00 0.  1.
</event>
<event>
 7    1  0.6184948E-012  0.5930204E+02  0.7816164E-02  0.1266604E+00
        -11   -1    0    0    0    0  0.00000000000E+00  0.00000000000E+00  0.45593999997E+02  0.45594000000E+02  0.51100000000E-03 0.  1.
         11   -1    0    0    0    0 -0.00000000000E+00 -0.00000000000E+00 -0.45593999997E+02  0.45594000000E+02  0.51100000000E-03 0. -1.
    9900012    2    1    2    0    0  0.17070720057E+02 -0.13188008108E+02  0.23481514516E+02  0.59302038119E+02  0.50000171600E+02 0.  0.
         12    1    1    2    0    0 -0.17070720057E+02  0.13188008108E+02 -0.23481514516E+02  0.31885961881E+02  0.00000000000E+00 0. -1.
         11    1    3    3    0    0  0.20723529752E+02 -0.64272806612E+01  0.34164624788E+01  0.21964672504E+02  0.51100000000E-03 0. -1.
        -11    1    3    3    0    0  0.87743297687E+01 -0.75844820504E+01  0.21867897406E+02  0.24753144610E+02  0.51100000000E-03 0.  1.
         12    1    3    3    0    0 -0.12427139463E+02  0.82375460380E+00 -0.18028453687E+01  0.12584221006E+02  0.00000000000E+00 0. -1.
</event>
<event>
 7    1  0.6184948E-012  0.5930196E+02  0.7816164E-02  0.1266605E+00
        -11   -1    0    0    0    0  0.00000000000E+00  0.00000000000E+00  0.45593999997E+02  0.45594000000E+02  0.51100000000E-03 0.  1.
         11   -1    0    0    0    0 -0.00000000000E+00 -0.00000000000E+00 -0.45593999997E+02  0.45594000000E+02  0.51100000000E-03 0. -1.
    9900012    2    1    2    0    0 -0.64522734302E+01  0.16808342396E+02  0.26316670457E+02  0.59301963080E+02  0.50000034747E+02 0.  0.
         12    1    1    2    0    0  0.64522734302E+01 -0.16808342396E+02 -0.26316670457E+02  0.31886036920E+02  0.00000000000E+00 0. -1.
         11    1    3    3    0    0 -0.65416927118E+01  0.36474423067E+01 -0.30220816309E+01  0.80765436024E+01  0.51100000000E-03 0.  1.
        -11    1    3    3    0    0  0.38942198064E+01  0.37764122597E+01 -0.95808751107E+01  0.11009968465E+02  0.51100000000E-03 0. -1.
         12    1    3    3    0    0 -0.38048005248E+01  0.93844878297E+01  0.38919627199E+02  0.40215451012E+02  0.00000000000E+00 0. -1.
</event>
<event>
 7    1  0.6184948E-012  0.5930195E+02  0.7816164E-02  0.1266605E+00
        -11   -1    0    0    0    0  0.00000000000E+00  0.00000000000E+00  0.45593999997E+02  0.45594000000E+02  0.51100000000E-03 0.  1.
         11   -1    0    0    0    0 -0.00000000000E+00 -0.00000000000E+00 -0.45593999997E+02  0.45594000000E+02  0.51100000000E-03 0. -1.
    9900012    2    1    2    0    0  0.25024228083E+02  0.27204128033E+01  0.19573133071E+02  0.59301950148E+02  0.50000011161E+02 0.  0.
         12    1    1    2    0    0 -0.25024228083E+02 -0.27204128033E+01 -0.19573133071E+02  0.31886049852E+02  0.00000000000E+00 0. -1.
         11    1    3    3    0    0  0.13185988663E+02  0.53263053016E+01  0.19190230155E+02  0.23885241444E+02  0.51100000000E-03 0. -1.
        -11    1    3    3    0    0 -0.23680859523E+01  0.75744448804E+00  0.14735675370E+02  0.14943951355E+02  0.51100000000E-03 0.  1.
         12    1    3    3    0    0  0.14206325373E+02 -0.33633369863E+01 -0.14352772455E+02  0.20472757348E+02  0.00000000000E+00 0. -1.
</event>
<event>
 7    1  0.6184948E-012  0.5930185E+02  0.7816164E-02  0.1266605E+00
        -11   -1    0    0    0    0  0.00000000000E+00  0.00000000000E+00  0.45593999997E+02  0.45594000000E+02  0.51100000000E-03 0. -1.
         11   -1    0    0    0    0 -0.00000000000E+00 -0.00000000000E+00 -0.45593999997E+02  0.45594000000E+02  0.51100000000E-03 0.  1.
    9900012    2    1    2    0    0 -0.16511232202E+02  0.27012510733E+02  0.37986509090E+01  0.59301854519E+02  0.49999836757E+02 0.  0.
         12    1    1    2    0    0  0.16511232202E+02 -0.27012510733E+02 -0.37986509090E+01  0.31886145481E+02  0.00000000000E+00 0. -1.
         11    1    3    3    0    0 -0.75539198657E+01  0.29845136205E+02  0.25689011200E+01  0.30893253530E+02  0.51100000000E-03 0. -1.
        -11    1    3    3    0    0 -0.88964960388E+01 -0.61834200937E+00  0.13368134501E+02  0.16069754475E+02  0.51100000000E-03 0.  1.
        -12    1    3    3    0    0 -0.60816297828E-01 -0.22142834632E+01 -0.12138384712E+02  0.12338846514E+02  0.00000000000E+00 0.  1.
</event>
<event>
 7    1  0.6184948E-012  0.5930195E+02  0.7816164E-02  0.1266605E+00
        -11   -1    0    0    0    0  0.00000000000E+00  0.00000000000E+00  0.45593999997E+02  0.45594000000E+02  0.51100000000E-03 0.  1.
         11   -1    0    0    0    0 -0.00000000000E+00 -0.00000000000E+00 -0.45593999997E+02  0.45594000000E+02  0.51100000000E-03 0. -1.
    9900012    2    1    2    0    0  0.34417303117E+01  0.10432976064E+02  0.29933720936E+02  0.59301950602E+02  0.50000011991E+02 0.  0.
         12    1    1    2    0    0 -0.34417303117E+01 -0.10432976064E+02 -0.29933720936E+02  0.31886049398E+02  0.00000000000E+00 0. -1.
         11    1    3    3    0    0  0.17098633189E+02  0.68775189225E+00  0.48211117390E+01  0.17778621382E+02  0.51100000000E-03 0. -1.
        -11    1    3    3    0    0 -0.26164177946E+01 -0.22671776356E+01 -0.56935339616E+01  0.66634875058E+01  0.51100000000E-03 0.  1.
        -12    1    3    3    0    0 -0.11040485082E+02  0.12012401807E+02  0.30806143159E+02  0.34859841715E+02  0.00000000000E+00 0.  1.
</event>
<event>
 7    1  0.6184948E-012  0.5930183E+02  0.7816164E-02  0.1266605E+00
        -11   -1    0    0    0    0  0.00000000000E+00  0.00000000000E+00  0.45593999997E+02  0.45594000000E+02  0.51100000000E-03 0.  1.
         11   -1    0    0    0    0 -0.00000000000E+00 -0.00000000000E+00 -0.45593999997E+02  0.45594000000E+02  0.51100000000E-03 0. -1.
    9900012    2    1    2    0    0 -0.77018537502E+01 -0.25562246212E+02  0.17435055199E+02  0.59301825372E+02  0.49999783601E+02 0.  0.
         12    1    1    2    0    0  0.77018537502E+01  0.25562246212E+02 -0.17435055199E+02  0.31886174628E+02  0.00000000000E+00 0. -1.
         11    1    3    3    0    0  0.12279634012E+01  0.21643962140E+01  0.11566337273E+02  0.11831004322E+02  0.51100000000E-03 0. -1.
        -11    1    3    3    0    0 -0.17242394934E+02 -0.12315884466E+02  0.16614868450E+02  0.26926474837E+02  0.51100000000E-03 0.  1.
         12    1    3    3    0    0  0.83125777827E+01 -0.15410757960E+02 -0.10746150524E+02  0.20544346214E+02  0.00000000000E+00 0. -1.
</event>
<event>
 7    1  0.6184948E-012  0.5930195E+02  0.7816164E-02  0.1266605E+00
        -11   -1    0    0    0    0  0.00000000000E+00  0.00000000000E+00  0.45593999997E+02  0.45594000000E+02  0.51100000000E-03 0.  1.
         11   -1    0    0    0    0 -0.00000000000E+00 -0.00000000000E+00 -0.45593999997E+02  0.45594000000E+02  0.51100000000E-03 0. -1.
    9900012    2    1    2    0    0 -0.25450576647E+01 -0.10480481484E+02  0.30006707014E+02  0.59301948560E+02  0.50000008265E+02 0.  0.
         12    1    1    2    0    0  0.25450576647E+01  0.10480481484E+02 -0.30006707014E+02  0.31886051440E+02  0.00000000000E+00 0. -1.
         11    1    3    3    0    0  0.15132684419E+02 -0.14852638036E+02  0.53665475795E+01  0.21872330181E+02  0.51100000000E-03 0. -1.
        -11    1    3    3    0    0 -0.27500244897E+01 -0.43523178027E+01 -0.21215437122E+01  0.55683258645E+01  0.51100000000E-03 0.  1.
        -12    1    3    3    0    0 -0.14927717594E+02  0.87244743554E+01  0.26761703146E+02  0.31861292514E+02  0.00000000000E+00 0.  1.
</event>
<event>
 7    1  0.6184948E-012  0.5930196E+02  0.7816164E-02  0.1266605E+00
        -11   -1    0    0    0    0  0.00000000000E+00  0.00000000000E+00  0.45593999997E+02  0.45594000000E+02  0.51100000000E-03 0.  1.
         11   -1    0    0    0    0 -0.00000000000E+00 -0.00000000000E+00 -0.45593999997E+02  0.45594000000E+02  0.51100000000E-03 0. -1.
    9900012    2    1    2    0    0  0.27155860342E+02  0.16102919487E+02  0.44693366148E+01  0.59301957024E+02  0.50000023702E+02 0.  0.
         12    1    1    2    0    0 -0.27155860342E+02 -0.16102919487E+02 -0.44693366148E+01  0.31886042976E+02  0.00000000000E+00 0. -1.
         11    1    3    3    0    0 -0.18265745443E+01  0.74514546658E+01  0.51497627443E+01  0.92401627576E+01  0.51100000000E-03 0. -1.
        -11    1    3    3    0    0  0.12218265666E+02  0.22283086602E+02  0.81969638858E+01  0.26702287947E+02  0.51100000000E-03 0.  1.
         12    1    3    3    0    0  0.16764169220E+02 -0.13631621781E+02 -0.88773900154E+01  0.23359506320E+02  0.00000000000E+00 0. -1.
</event>
<event>
 7    1  0.6184948E-012  0.5930196E+02  0.7816164E-02  0.1266605E+00
        -11   -1    0    0    0    0  0.00000000000E+00  0.00000000000E+00  0.45593999997E+02  0.45594000000E+02  0.51100000000E-03 0. -1.
         11   -1    0    0    0    0 -0.00000000000E+00 -0.00000000000E+00 -0.45593999997E+02  0.45594000000E+02  0.51100000000E-03 0.  1.
    9900012    2    1    2    0    0  0.82739232289E+01 -0.30667670222E+02 -0.27848629125E+01  0.59301964438E+02  0.50000037223E+02 0.  0.
         12    1    1    2    0    0 -0.82739232289E+01  0.30667670222E+02  0.27848629125E+01  0.31886035562E+02  0.00000000000E+00 0. -1.
         11    1    3    3    0    0  0.59014175195E+01  0.30518053582E+01 -0.71396187731E+01  0.97526612352E+01  0.51100000000E-03 0. -1.
        -11    1    3    3    0    0  0.13848586439E+02 -0.15742205469E+02  0.14934174186E+02  0.25741599373E+02  0.51100000000E-03 0.  1.
         12    1    3    3    0    0 -0.11476080730E+02 -0.17977270111E+02 -0.10579418325E+02  0.23807703830E+02  0.00000000000E+00 0. -1.
</event>
<event>
 7    1  0.6184948E-012  0.5930198E+02  0.7816164E-02  0.1266605E+00
        -11   -1    0    0    0    0  0.00000000000E+00  0.00000000000E+00  0.45593999997E+02  0.45594000000E+02  0.51100000000E-03 0.  1.
         11   -1    0    0    0    0 -0.00000000000E+00 -0.00000000000E+00 -0.45593999997E+02  0.45594000000E+02  0.51100000000E-03 0. -1.
    9900012    2    1    2    0    0  0.23313986281E+01  0.94396136800E+01  0.30367354861E+02  0.59301984770E+02  0.50000074304E+02 0.  0.
         12    1    1    2    0    0 -0.23313986281E+01 -0.94396136800E+01 -0.30367354861E+02  0.31886015230E+02  0.00000000000E+00 0. -1.
         11    1    3    3    0    0 -0.45160661417E+01 -0.16612147459E+02  0.37425979079E+01  0.17617188651E+02  0.51100000000E-03 0. -1.
        -11    1    3    3    0    0  0.36654117606E+01 -0.16646053970E+01  0.21059752596E+01  0.45432682683E+01  0.51100000000E-03 0.  1.
        -12    1    3    3    0    0  0.31820530092E+01  0.27716366536E+02  0.24518781694E+02  0.37141527850E+02  0.00000000000E+00 0.  1.
</event>
<event>
 7    1  0.6184948E-012  0.5930196E+02  0.7816164E-02  0.1266605E+00
        -11   -1    0    0    0    0  0.00000000000E+00  0.00000000000E+00  0.45593999997E+02  0.45594000000E+02  0.51100000000E-03 0.  1.
         11   -1    0    0    0    0 -0.00000000000E+00 -0.00000000000E+00 -0.45593999997E+02  0.45594000000E+02  0.51100000000E-03 0. -1.
    9900012    2    1    2    0    0 -0.29336006784E+02 -0.49976911550E+01  0.11451696899E+02  0.59301959594E+02  0.50000028388E+02 0.  0.
         12    1    1    2    0    0  0.29336006784E+02  0.49976911550E+01 -0.11451696899E+02  0.31886040406E+02  0.00000000000E+00 0. -1.
         11    1    3    3    0    0 -0.25495766136E+02  0.18164394576E+02  0.32506528981E+01  0.31472941803E+02  0.51100000000E-03 0. -1.
        -11    1    3    3    0    0 -0.68151605309E+01 -0.83985356217E+01  0.29539020123E+00  0.10819846084E+02  0.51100000000E-03 0.  1.
        -12    1    3    3    0    0  0.29749198826E+01 -0.14763550110E+02  0.79056537996E+01  0.17009171707E+02  0.00000000000E+00 0.  1.
</event>
<event>
 7    1  0.6184948E-012  0.5930193E+02  0.7816164E-02  0.1266605E+00
        -11   -1    0    0    0    0  0.00000000000E+00  0.00000000000E+00  0.45593999997E+02  0.45594000000E+02  0.51100000000E-03 0.  1.
         11   -1    0    0    0    0 -0.00000000000E+00 -0.00000000000E+00 -0.45593999997E+02  0.45594000000E+02  0.51100000000E-03 0. -1.
    9900012    2    1    2    0    0 -0.34682807186E+01 -0.20838704522E+02  0.23883904923E+02  0.59301929504E+02  0.49999973512E+02 0.  0.
         12    1    1    2    0    0  0.34682807186E+01  0.20838704522E+02 -0.23883904923E+02  0.31886070496E+02  0.00000000000E+00 0. -1.
         11    1    3    3    0    0  0.10748047539E+02 -0.12427337804E+02  0.28415256695E+02  0.32823559589E+02  0.51100000000E-03 0. -1.
        -11    1    3    3    0    0 -0.44311583218E+01 -0.68436560637E+01  0.73706609223E+01  0.10990788647E+02  0.51100000000E-03 0.  1.
         12    1    3    3    0    0 -0.97851699356E+01 -0.15677106545E+01 -0.11902012694E+02  0.15487581268E+02  0.00000000000E+00 0. -1.
</event>
<event>
 7    1  0.6184948E-012  0.5930198E+02  0.7816164E-02  0.1266605E+00
        -11   -1    0    0    0    0  0.00000000000E+00  0.00000000000E+00  0.45593999997E+02  0.45594000000E+02  0.51100000000E-03 0.  1.
         11   -1    0    0    0    0 -0.00000000000E+00 -0.00000000000E+00 -0.45593999997E+02  0.45594000000E+02  0.51100000000E-03 0. -1.
    9900012    2    1    2    0    0  0.75283251188E+01  0.47508672331E+01  0.30618167070E+02  0.59301975267E+02  0.50000056973E+02 0.  0.
         12    1    1    2    0    0 -0.75283251188E+01 -0.47508672331E+01 -0.30618167070E+02  0.31886024733E+02  0.00000000000E+00 0. -1.
         11    1    3    3    0    0  0.26708087832E+01 -0.95851235216E+01  0.87392876436E+01  0.13243223220E+02  0.51100000000E-03 0. -1.
        -11    1    3    3    0    0  0.15689650716E+02 -0.31982419048E+01  0.15574258141E-01  0.16012311941E+02  0.51100000000E-03 0.  1.
         12    1    3    3    0    0 -0.10832134380E+02  0.17534232660E+02  0.21863305168E+02  0.30046440106E+02  0.00000000000E+00 0. -1.
</event>
<event>
 7    1  0.6184948E-012  0.5930197E+02  0.7816164E-02  0.1266605E+00
        -11   -1    0    0    0    0  0.00000000000E+00  0.00000000000E+00  0.45593999997E+02  0.45594000000E+02  0.51100000000E-03 0. -1.
         11   -1    0    0    0    0 -0.00000000000E+00 -0.00000000000E+00 -0.45593999997E+02  0.45594000000E+02  0.51100000000E-03 0.  1.
    9900012    2    1    2    0    0  0.19864313353E+02 -0.36218371137E+01 -0.24678138151E+02  0.59301966198E+02  0.50000040432E+02 0.  0.
         12    1    1    2    0    0 -0.19864313353E+02  0.36218371137E+01  0.24678138151E+02  0.31886033802E+02  0.00000000000E+00 0. -1.
         11    1    3    3    0    0 -0.36057011960E+01 -0.41602677343E+01  0.16199797887E+01  0.57387492987E+01  0.51100000000E-03 0. -1.
        -11    1    3    3    0    0  0.10376999870E+02  0.82715767961E+01 -0.34014309212E+02  0.36511290588E+02  0.51100000000E-03 0.  1.
         12    1    3    3    0    0  0.13093014679E+02 -0.77331461755E+01  0.77161912723E+01  0.17051926311E+02  0.00000000000E+00 0. -1.
</event>
<event>
 7    1  0.6184948E-012  0.5930194E+02  0.7816164E-02  0.1266605E+00
        -11   -1    0    0    0    0  0.00000000000E+00  0.00000000000E+00  0.45593999997E+02  0.45594000000E+02  0.51100000000E-03 0.  1.
         11   -1    0    0    0    0 -0.00000000000E+00 -0.00000000000E+00 -0.45593999997E+02  0.45594000000E+02  0.51100000000E-03 0. -1.
    9900012    2    1    2    0    0  0.41243452231E+01 -0.20444539756E+02  0.24119109169E+02  0.59301939465E+02  0.49999991679E+02 0.  0.
         12    1    1    2    0    0 -0.41243452231E+01  0.20444539756E+02 -0.24119109169E+02  0.31886060535E+02  0.00000000000E+00 0. -1.
         11    1    3    3    0    0  0.32017978390E+01  0.19712095965E+01  0.88138901196E+01  0.95823711041E+01  0.51100000000E-03 0. -1.
        -11    1    3    3    0    0 -0.10815440736E+02 -0.54953068212E+01  0.24367642971E+02  0.27220473537E+02  0.51100000000E-03 0.  1.
        -12    1    3    3    0    0  0.11737988120E+02 -0.16920442531E+02 -0.90624239217E+01  0.22499094824E+02  0.00000000000E+00 0.  1.
</event>
<event>
 7    1  0.6184948E-012  0.5930196E+02  0.7816164E-02  0.1266605E+00
        -11   -1    0    0    0    0  0.00000000000E+00  0.00000000000E+00  0.45593999997E+02  0.45594000000E+02  0.51100000000E-03 0. -1.
         11   -1    0    0    0    0 -0.00000000000E+00 -0.00000000000E+00 -0.45593999997E+02  0.45594000000E+02  0.51100000000E-03 0.  1.
    9900012    2    1    2    0    0 -0.29533168961E+02 -0.10442160027E+02  0.59558905254E+01  0.59301962196E+02  0.50000033134E+02 0.  0.
         12    1    1    2    0    0  0.29533168961E+02  0.10442160027E+02 -0.59558905254E+01  0.31886037804E+02  0.00000000000E+00 0. -1.
         11    1    3    3    0    0 -0.11878483630E+02 -0.16692447055E+02  0.42296097236E+01  0.20919506703E+02  0.51100000000E-03 0. -1.
        -11    1    3    3    0    0  0.15829703204E+01 -0.10785217702E+02 -0.47375024492E+01  0.11885732860E+02  0.51100000000E-03 0.  1.
        -12    1    3    3    0    0 -0.19237655651E+02  0.17035504729E+02  0.64637832511E+01  0.26496722632E+02  0.00000000000E+00 0.  1.
</event>
<event>
 7    1  0.6184948E-012  0.5930196E+02  0.7816164E-02  0.1266605E+00
        -11   -1    0    0    0    0  0.00000000000E+00  0.00000000000E+00  0.45593999997E+02  0.45594000000E+02  0.51100000000E-03 0.  1.
         11   -1    0    0    0    0 -0.00000000000E+00 -0.00000000000E+00 -0.45593999997E+02  0.45594000000E+02  0.51100000000E-03 0. -1.
    9900012    2    1    2    0    0 -0.23071374446E+01 -0.20611474452E+02  0.24219075487E+02  0.59301962621E+02  0.50000033910E+02 0.  0.
         12    1    1    2    0    0  0.23071374446E+01  0.20611474452E+02 -0.24219075487E+02  0.31886037379E+02  0.00000000000E+00 0. -1.
         11    1    3    3    0    0 -0.41139755538E+01  0.10774856213E+01 -0.67783909875E+01  0.80020219171E+01  0.51100000000E-03 0. -1.
        -11    1    3    3    0    0  0.17932904854E+02 -0.89108762072E+01  0.12315330132E+02  0.23508724929E+02  0.51100000000E-03 0.  1.
         12    1    3    3    0    0 -0.16126066744E+02 -0.12778083866E+02  0.18682136342E+02  0.27791215775E+02  0.00000000000E+00 0. -1.
</event>
<event>
 7    1  0.6184948E-012  0.5930195E+02  0.7816164E-02  0.1266605E+00
        -11   -1    0    0    0    0  0.00000000000E+00  0.00000000000E+00  0.45593999997E+02  0.45594000000E+02  0.51100000000E-03 0.  1.
         11   -1    0    0    0    0 -0.00000000000E+00 -0.00000000000E+00 -0.45593999997E+02  0.45594000000E+02  0.51100000000E-03 0. -1.
    9900012    2    1    2    0    0 -0.26836171365E+02 -0.10324725111E+02  0.13781874993E+02  0.59301951006E+02  0.50000012726E+02 0.  0.
         12    1    1    2    0    0  0.26836171365E+02  0.10324725111E+02 -0.13781874993E+02  0.31886048994E+02  0.00000000000E+00 0. -1.
         11    1    3    3    0    0 -0.19888341953E+02 -0.12044925742E+02  0.12930709753E+02  0.26605067876E+02  0.51100000000E-03 0. -1.
        -11    1    3    3    0    0 -0.73670215157E+01 -0.54593588765E+01  0.14565429482E+02  0.17211314349E+02  0.51100000000E-03 0.  1.
         12    1    3    3    0    0  0.41919210285E+00  0.71795595074E+01 -0.13714264242E+02  0.15485568780E+02  0.00000000000E+00 0. -1.
</event>
<event>
 7    1  0.7045324E-012  0.5930194E+02  0.7816164E-02  0.1266605E+00
        -11   -1    0    0    0    0  0.00000000000E+00  0.00000000000E+00  0.45593999997E+02  0.45594000000E+02  0.51100000000E-03 0. -1.
         11   -1    0    0    0    0 -0.00000000000E+00 -0.00000000000E+00 -0.45593999997E+02  0.45594000000E+02  0.51100000000E-03 0.  1.
    9900012    2    1    2    0    0 -0.79471979193E+01  0.18739164030E+02 -0.24543976010E+02  0.59301937501E+02  0.49999988096E+02 0.  0.
         12    1    1    2    0    0  0.79471979193E+01 -0.18739164030E+02  0.24543976010E+02  0.31886062499E+02  0.00000000000E+00 0. -1.
         11    1    3    3    0    0 -0.42405373286E+01  0.20638945220E+02 -0.25672702556E+01  0.21225906187E+02  0.51100000000E-03 0. -1.
        -11    1    3    3    0    0 -0.25980489044E+01  0.67362743207E+01 -0.27051313042E+02  0.27998228290E+02  0.51100000000E-03 0.  1.
         12    1    3    3    0    0 -0.11086116863E+01 -0.86360555107E+01  0.50746072874E+01  0.10077803023E+02  0.00000000000E+00 0. -1.
</event>
<event>
 7    1  0.6184948E-012  0.5930187E+02  0.7816164E-02  0.1266605E+00
        -11   -1    0    0    0    0  0.00000000000E+00  0.00000000000E+00  0.45593999997E+02  0.45594000000E+02  0.51100000000E-03 0. -1.
         11   -1    0    0    0    0 -0.00000000000E+00 -0.00000000000E+00 -0.45593999997E+02  0.45594000000E+02  0.51100000000E-03 0.  1.
    9900012    2    1    2    0    0 -0.16457990830E+02  0.10165985049E+02 -0.25347832602E+02  0.59301869288E+02  0.49999863693E+02 0.  0.
         12    1    1    2    0    0  0.16457990830E+02 -0.10165985049E+02  0.25347832602E+02  0.31886130712E+02  0.00000000000E+00 0. -1.
         11    1    3    3    0    0 -0.15214454860E+01  0.16644896103E+02 -0.22214424044E+02  0.27800143858E+02  0.51100000000E-03 0. -1.
        -11    1    3    3    0    0  0.37748462957E+01  0.27891183660E+01  0.68923421366E+01  0.83386465451E+01  0.51100000000E-03 0.  1.
        -12    1    3    3    0    0 -0.18711391640E+02 -0.92680294208E+01 -0.10025750694E+02  0.23163078885E+02  0.00000000000E+00 0.  1.
</event>
<event>
 7    1  0.6184948E-012  0.5930206E+02  0.7816164E-02  0.1266604E+00
        -11   -1    0    0    0    0  0.00000000000E+00  0.00000000000E+00  0.45593999997E+02  0.45594000000E+02  0.51100000000E-03 0.  1.
         11   -1    0    0    0    0 -0.00000000000E+00 -0.00000000000E+00 -0.45593999997E+02  0.45594000000E+02  0.51100000000E-03 0. -1.
    9900012    2    1    2    0    0 -0.27322649752E+02  0.13321352364E+02  0.96295138444E+01  0.59302060228E+02  0.50000211921E+02 0.  0.
         12    1    1    2    0    0  0.27322649752E+02 -0.13321352364E+02 -0.96295138444E+01  0.31885939772E+02  0.00000000000E+00 0. -1.
         11    1    3    3    0    0 -0.22226511320E+02  0.59610771512E+01  0.90361432301E+01  0.24722542972E+02  0.51100000000E-03 0. -1.
        -11    1    3    3    0    0 -0.93112182316E+01  0.88977788083E+01  0.14836360437E+02  0.19646547889E+02  0.51100000000E-03 0.  1.
         12    1    3    3    0    0  0.42150797998E+01 -0.15375035955E+01 -0.14242989823E+02  0.14932969367E+02  0.00000000000E+00 0. -1.
</event>
<event>
 7    1  0.6184948E-012  0.5930194E+02  0.7816164E-02  0.1266605E+00
        -11   -1    0    0    0    0  0.00000000000E+00  0.00000000000E+00  0.45593999997E+02  0.45594000000E+02  0.51100000000E-03 0. -1.
         11   -1    0    0    0    0 -0.00000000000E+00 -0.00000000000E+00 -0.45593999997E+02  0.45594000000E+02  0.51100000000E-03 0.  1.
    9900012    2    1    2    0    0 -0.26057424776E+02 -0.17580410326E+02 -0.53535504652E+01  0.59301941671E+02  0.49999995702E+02 0.  0.
         12    1    1    2    0    0  0.26057424776E+02  0.17580410326E+02  0.53535504652E+01  0.31886058329E+02  0.00000000000E+00 0. -1.
         11    1    3    3    0    0  0.84441910210E+01 -0.14162929369E+02  0.81047043523E+01  0.18373327494E+02  0.51100000000E-03 0. -1.
        -11    1    3    3    0    0 -0.41896263721E+01  0.47003556787E-01  0.39870928233E+01  0.57837779967E+01  0.51100000000E-03 0.  1.
        -12    1    3    3    0    0 -0.30311989425E+02 -0.34644845142E+01 -0.17445347641E+02  0.35144836180E+02  0.00000000000E+00 0.  1.
</event>
<event>
 7    1  0.6184948E-012  0.5930198E+02  0.7816164E-02  0.1266605E+00
        -11   -1    0    0    0    0  0.00000000000E+00  0.00000000000E+00  0.45593999997E+02  0.45594000000E+02  0.51100000000E-03 0.  1.
         11   -1    0    0    0    0 -0.00000000000E+00 -0.00000000000E+00 -0.45593999997E+02  0.45594000000E+02  0.51100000000E-03 0. -1.
    9900012    2    1    2    0    0  0.23456292437E+02  0.11725345231E+02 -0.18139380548E+02  0.59301976379E+02  0.50000059001E+02 0.  0.
         12    1    1    2    0    0 -0.23456292437E+02 -0.11725345231E+02  0.18139380548E+02  0.31886023621E+02  0.00000000000E+00 0. -1.
         11    1    3    3    0    0  0.22421581415E+02  0.19267965834E+02 -0.13302146324E+02  0.32418033833E+02  0.51100000000E-03 0. -1.
        -11    1    3    3    0    0  0.74935103180E+01  0.55775137378E+01  0.35880328165E+01  0.10006764519E+02  0.51100000000E-03 0.  1.
         12    1    3    3    0    0 -0.64587992960E+01 -0.13120134340E+02 -0.84252670407E+01  0.16877178027E+02  0.00000000000E+00 0. -1.
</event>
<event>
 7    1  0.6184948E-012  0.5930195E+02  0.7816164E-02  0.1266605E+00
        -11   -1    0    0    0    0  0.00000000000E+00  0.00000000000E+00  0.45593999997E+02  0.45594000000E+02  0.51100000000E-03 0. -1.
         11   -1    0    0    0    0 -0.00000000000E+00 -0.00000000000E+00 -0.45593999997E+02  0.45594000000E+02  0.51100000000E-03 0.  1.
    9900012    2    1    2    0    0  0.73325473587E+01 -0.62361814040E+01 -0.30398418338E+02  0.59301952162E+02  0.50000014835E+02 0.  0.
         12    1    1    2    0    0 -0.73325473587E+01  0.62361814040E+01  0.30398418338E+02  0.31886047838E+02  0.00000000000E+00 0. -1.
         11    1    3    3    0    0  0.20362068601E+01 -0.14921204650E+02 -0.16464788709E+02  0.22313174451E+02  0.51100000000E-03 0. -1.
        -11    1    3    3    0    0  0.11394217668E+02 -0.93002970983E+01 -0.27914169076E+01  0.14970495349E+02  0.51100000000E-03 0.  1.
         12    1    3    3    0    0 -0.60978771691E+01  0.17985320344E+02 -0.11142212722E+02  0.22018282362E+02  0.00000000000E+00 0. -1.
</event>
<event>
 7    1  0.6184948E-012  0.5930190E+02  0.7816164E-02  0.1266605E+00
        -11   -1    0    0    0    0  0.00000000000E+00  0.00000000000E+00  0.45593999997E+02  0.45594000000E+02  0.51100000000E-03 0.  1.
         11   -1    0    0    0    0 -0.00000000000E+00 -0.00000000000E+00 -0.45593999997E+02  0.45594000000E+02  0.51100000000E-03 0. -1.
    9900012    2    1    2    0    0 -0.16052877565E+02 -0.71187814593E+01  0.26614873997E+02  0.59301898867E+02  0.49999917637E+02 0.  0.
         12    1    1    2    0    0  0.16052877565E+02  0.71187814593E+01 -0.26614873997E+02  0.31886101133E+02  0.00000000000E+00 0. -1.
         11    1    3    3    0    0  0.54186068158E+01  0.67203758811E+01 -0.12885073673E+01  0.87284021049E+01  0.51100000000E-03 0. -1.
        -11    1    3    3    0    0 -0.18203735472E+02 -0.17251153876E+02  0.30374133542E+01  0.25262703246E+02  0.51100000000E-03 0.  1.
         12    1    3    3    0    0 -0.32677489089E+01  0.34119965353E+01  0.24865968011E+02  0.25310793516E+02  0.00000000000E+00 0. -1.
</event>
<event>
 7    1  0.6184948E-012  0.5930196E+02  0.7816164E-02  0.1266605E+00
        -11   -1    0    0    0    0  0.00000000000E+00  0.00000000000E+00  0.45593999997E+02  0.45594000000E+02  0.51100000000E-03 0.  1.
         11   -1    0    0    0    0 -0.00000000000E+00 -0.00000000000E+00 -0.45593999997E+02  0.45594000000E+02  0.51100000000E-03 0. -1.
    9900012    2    1    2    0    0  0.23280664809E+02  0.84673938484E+01  0.20075687170E+02  0.59301963434E+02  0.50000035393E+02 0.  0.
         12    1    1    2    0    0 -0.23280664809E+02 -0.84673938484E+01 -0.20075687170E+02  0.31886036566E+02  0.00000000000E+00 0. -1.
         11    1    3    3    0    0 -0.37405522562E+01 -0.26308400928E+01  0.12241878165E+02  0.13068153352E+02  0.51100000000E-03 0. -1.
        -11    1    3    3    0    0  0.21338094574E+02 -0.18181234535E+00  0.19598117284E+02  0.28972979431E+02  0.51100000000E-03 0.  1.
        -12    1    3    3    0    0  0.56831224918E+01  0.11280046286E+02 -0.11764308279E+02  0.17260830651E+02  0.00000000000E+00 0.  1.
</event>
<event>
 7    1  0.6184948E-012  0.5930194E+02  0.7816164E-02  0.1266605E+00
        -11   -1    0    0    0    0  0.00000000000E+00  0.00000000000E+00  0.45593999997E+02  0.45594000000E+02  0.51100000000E-03 0.  1.
         11   -1    0    0    0    0 -0.00000000000E+00 -0.00000000000E+00 -0.45593999997E+02  0.45594000000E+02  0.51100000000E-03 0. -1.
    9900012    2    1    2    0    0 -0.14866205091E+02 -0.55628443935E+01  0.27654500781E+02  0.59301941840E+02  0.49999996010E+02 0.  0.
         12    1    1    2    0    0  0.14866205091E+02  0.55628443935E+01 -0.27654500781E+02  0.31886058160E+02  0.00000000000E+00 0. -1.
         11    1    3    3    0    0  0.80265143143E+01 -0.79074085218E+00  0.14079943909E+01  0.81873470428E+01  0.51100000000E-03 0. -1.
        -11    1    3    3    0    0 -0.23825760457E+02  0.10362331391E+02  0.75785559906E+01  0.27064354498E+02  0.51100000000E-03 0.  1.
         12    1    3    3    0    0  0.93304105218E+00 -0.15134434932E+02  0.18667950400E+02  0.24050240299E+02  0.00000000000E+00 0. -1.
</event>
<event>
 7    1  0.6184948E-012  0.5930198E+02  0.7816164E-02  0.1266605E+00
        -11   -1    0    0    0    0  0.00000000000E+00  0.00000000000E+00  0.45593999997E+02  0.45594000000E+02  0.51100000000E-03 0.  1.
         11   -1    0    0    0    0 -0.00000000000E+00 -0.00000000000E+00 -0.45593999997E+02  0.45594000000E+02  0.51100000000E-03 0. -1.
    9900012    2    1    2    0    0 -0.20180530397E+02 -0.61340878206E+01  0.23913128024E+02  0.59301975908E+02  0.50000058143E+02 0.  0.
         12    1    1    2    0    0  0.20180530397E+02  0.61340878206E+01 -0.23913128024E+02  0.31886024092E+02  0.00000000000E+00 0. -1.
         11    1    3    3    0    0  0.43494435802E+01  0.52183737698E+01 -0.18045569236E+01  0.70289053351E+01  0.51100000000E-03 0. -1.
        -11    1    3    3    0    0  0.64196675353E+01 -0.11078269840E+02  0.14519736464E+02  0.19358794930E+02  0.51100000000E-03 0.  1.
        -12    1    3    3    0    0 -0.30949641512E+02 -0.27419175016E+00  0.11197948483E+02  0.32914275643E+02  0.00000000000E+00 0.  1.
</event>
<event>
 7    1  0.6184948E-012  0.5930187E+02  0.7816164E-02  0.1266605E+00
        -11   -1    0    0    0    0  0.00000000000E+00  0.00000000000E+00  0.45593999997E+02  0.45594000000E+02  0.51100000000E-03 0. -1.
         11   -1    0    0    0    0 -0.00000000000E+00 -0.00000000000E+00 -0.45593999997E+02  0.45594000000E+02  0.51100000000E-03 0.  1.
    9900012    2    1    2    0    0 -0.11304383607E+02  0.86376946717E+01 -0.28536408320E+02  0.59301867312E+02  0.49999860089E+02 0.  0.
         12    1    1    2    0    0  0.11304383607E+02 -0.86376946717E+01  0.28536408320E+02  0.31886132688E+02  0.00000000000E+00 0. -1.
         11    1    3    3    0    0  0.90567042701E+01  0.17441425697E+02 -0.22085620104E+02  0.29563522087E+02  0.51100000000E-03 0. -1.
        -11    1    3    3    0    0 -0.60906202424E+01 -0.25566159415E+01 -0.11585255977E+02  0.13336045003E+02  0.51100000000E-03 0.  1.
         12    1    3    3    0    0 -0.14270467635E+02 -0.62471150835E+01  0.51344677610E+01  0.16402300222E+02  0.00000000000E+00 0. -1.
</event>
<event>
 7    1  0.6184948E-012  0.5930195E+02  0.7816164E-02  0.1266605E+00
        -11   -1    0    0    0    0  0.00000000000E+00  0.00000000000E+00  0.45593999997E+02  0.45594000000E+02  0.51100000000E-03 0.  1.
         11   -1    0    0    0    0 -0.00000000000E+00 -0.00000000000E+00 -0.45593999997E+02  0.45594000000E+02  0.51100000000E-03 0. -1.
    9900012    2    1    2    0    0  0.57103215905E+01  0.80246090471E+01  0.30326850264E+02  0.59301953366E+02  0.50000017030E+02 0.  0.
         12    1    1    2    0    0 -0.57103215905E+01 -0.80246090471E+01 -0.30326850264E+02  0.31886046634E+02  0.00000000000E+00 0. -1.
         11    1    3    3    0    0  0.13301988037E+02  0.64175050140E+01  0.50763248757E+00  0.14777853272E+02  0.51100000000E-03 0. -1.
        -11    1    3    3    0    0  0.72790540571E+01 -0.51271111285E+01 -0.16664865598E+01  0.90580944025E+01  0.51100000000E-03 0.  1.
        -12    1    3    3    0    0 -0.14870720503E+02  0.67342151615E+01  0.31485704336E+02  0.35466005691E+02  0.00000000000E+00 0.  1.
</event>
<event>
 7    1  0.6184948E-012  0.5930192E+02  0.7816164E-02  0.1266605E+00
        -11   -1    0    0    0    0  0.00000000000E+00  0.00000000000E+00  0.45593999997E+02  0.45594000000E+02  0.51100000000E-03 0.  1.
         11   -1    0    0    0    0 -0.00000000000E+00 -0.00000000000E+00 -0.45593999997E+02  0.45594000000E+02  0.51100000000E-03 0. -1.
    9900012    2    1    2    0    0  0.73787440341E+01 -0.15811877083E+02  0.26688211311E+02  0.59301922421E+02  0.49999960594E+02 0.  0.
         12    1    1    2    0    0 -0.73787440341E+01  0.15811877083E+02 -0.26688211311E+02  0.31886077579E+02  0.00000000000E+00 0. -1.
         11    1    3    3    0    0 -0.14577088431E+02  0.23611227167E+01  0.53075254617E+01  0.15691916212E+02  0.51100000000E-03 0.  1.
        -11    1    3    3    0    0  0.79499819598E+00  0.59017485359E+01  0.34894417004E+01  0.69020911001E+01  0.51100000000E-03 0. -1.
        -12    1    3    3    0    0  0.21160834270E+02 -0.24074748336E+02  0.17891244149E+02  0.36707915108E+02  0.00000000000E+00 0.  1.
</event>
<event>
 7    1  0.6184948E-012  0.5930195E+02  0.7816164E-02  0.1266605E+00
        -11   -1    0    0    0    0  0.00000000000E+00  0.00000000000E+00  0.45593999997E+02  0.45594000000E+02  0.51100000000E-03 0. -1.
         11   -1    0    0    0    0 -0.00000000000E+00 -0.00000000000E+00 -0.45593999997E+02  0.45594000000E+02  0.51100000000E-03 0.  1.
    9900012    2    1    2    0    0 -0.14382288654E+02 -0.11320065427E+02 -0.26109887047E+02  0.59301948037E+02  0.50000007311E+02 0.  0.
         12    1    1    2    0    0  0.14382288654E+02  0.11320065427E+02  0.26109887047E+02  0.31886051963E+02  0.00000000000E+00 0. -1.
         11    1    3    3    0    0  0.17695986618E+01  0.94678016024E+01 -0.20733276207E+01  0.98523821632E+01  0.51100000000E-03 0. -1.
        -11    1    3    3    0    0 -0.12436495056E+02  0.44129195325E+01 -0.19545972543E+02  0.23583581385E+02  0.51100000000E-03 0.  1.
         12    1    3    3    0    0 -0.37153922607E+01 -0.25200786561E+02 -0.44905868839E+01  0.25865984488E+02  0.00000000000E+00 0. -1.
</event>
<event>
 7    1  0.6184948E-012  0.5930195E+02  0.7816164E-02  0.1266605E+00
        -11   -1    0    0    0    0  0.00000000000E+00  0.00000000000E+00  0.45593999997E+02  0.45594000000E+02  0.51100000000E-03 0. -1.
         11   -1    0    0    0    0 -0.00000000000E+00 -0.00000000000E+00 -0.45593999997E+02  0.45594000000E+02  0.51100000000E-03 0.  1.
    9900012    2    1    2    0    0  0.22713994233E+02  0.76182638457E+01 -0.21041785614E+02  0.59301949447E+02  0.50000009884E+02 0.  0.
         12    1    1    2    0    0 -0.22713994233E+02 -0.76182638457E+01  0.21041785614E+02  0.31886050553E+02  0.00000000000E+00 0. -1.
         11    1    3    3    0    0  0.10804977183E+02 -0.94477223891E+01 -0.10274548986E+02  0.17651440378E+02  0.51100000000E-03 0. -1.
        -11    1    3    3    0    0 -0.12193959762E+02  0.65006968399E+01 -0.51051702753E+01  0.14731411266E+02  0.51100000000E-03 0.  1.
         12    1    3    3    0    0  0.24102976812E+02  0.10565289395E+02 -0.56620663525E+01  0.26919097804E+02  0.00000000000E+00 0. -1.
</event>
<event>
 7    1  0.6184948E-012  0.5930195E+02  0.7816164E-02  0.1266605E+00
        -11   -1    0    0    0    0  0.00000000000E+00  0.00000000000E+00  0.45593999997E+02  0.45594000000E+02  0.51100000000E-03 0. -1.
         11   -1    0    0    0    0 -0.00000000000E+00 -0.00000000000E+00 -0.45593999997E+02  0.45594000000E+02  0.51100000000E-03 0.  1.
    9900012    2    1    2    0    0  0.80925956625E+01 -0.23334499517E+02  0.20167585789E+02  0.59301945230E+02  0.50000002192E+02 0.  0.
         12    1    1    2    0    0 -0.80925956625E+01  0.23334499517E+02 -0.20167585789E+02  0.31886054770E+02  0.00000000000E+00 0. -1.
         11    1    3    3    0    0 -0.30915126504E+01 -0.52101458649E+01  0.40017126074E+00  0.60715078605E+01  0.51100000000E-03 0. -1.
        -11    1    3    3    0    0  0.55460337212E+01 -0.21057403246E+02 -0.91522527572E+01  0.23620678490E+02  0.51100000000E-03 0.  1.
        -12    1    3    3    0    0  0.56380745917E+01  0.29330495944E+01  0.28919667285E+02  0.29609758880E+02  0.00000000000E+00 0.  1.
</event>
<event>
 7    1  0.6184948E-012  0.5930177E+02  0.7816164E-02  0.1266605E+00
        -11   -1    0    0    0    0  0.00000000000E+00  0.00000000000E+00  0.45593999997E+02  0.45594000000E+02  0.51100000000E-03 0.  1.
         11   -1    0    0    0    0 -0.00000000000E+00 -0.00000000000E+00 -0.45593999997E+02  0.45594000000E+02  0.51100000000E-03 0. -1.
    9900012    2    1    2    0    0  0.82717689096E+01 -0.75831123871E+01  0.29846375348E+02  0.59301766673E+02  0.49999676547E+02 0.  0.
         12    1    1    2    0    0 -0.82717689096E+01  0.75831123871E+01 -0.29846375348E+02  0.31886233327E+02  0.00000000000E+00 0. -1.
         11    1    3    3    0    0  0.19315357565E+02 -0.13662341797E+02  0.78963594972E+01  0.24941834632E+02  0.51100000000E-03 0. -1.
        -11    1    3    3    0    0  0.44453073078E+01  0.43065116196E+01  0.16859839906E+02  0.17959983332E+02  0.51100000000E-03 0.  1.
         12    1    3    3    0    0 -0.15488895963E+02  0.17727177902E+01  0.50901759448E+01  0.16399948709E+02  0.00000000000E+00 0. -1.
</event>
<event>
 7    1  0.6184948E-012  0.5930196E+02  0.7816164E-02  0.1266605E+00
        -11   -1    0    0    0    0  0.00000000000E+00  0.00000000000E+00  0.45593999997E+02  0.45594000000E+02  0.51100000000E-03 0.  1.
         11   -1    0    0    0    0 -0.00000000000E+00 -0.00000000000E+00 -0.45593999997E+02  0.45594000000E+02  0.51100000000E-03 0. -1.
    9900012    2    1    2    0    0  0.65903293693E+01  0.14098610692E+02  0.27830137988E+02  0.59301955324E+02  0.50000020601E+02 0.  0.
         12    1    1    2    0    0 -0.65903293693E+01 -0.14098610692E+02 -0.27830137988E+02  0.31886044676E+02  0.00000000000E+00 0. -1.
         11    1    3    3    0    0 -0.13308742011E+02  0.95947383318E+01  0.12067530070E+01  0.16451075061E+02  0.51100000000E-03 0. -1.
        -11    1    3    3    0    0 -0.41139427933E+01 -0.48963507578E+00  0.15273343456E+02  0.15825273723E+02  0.51100000000E-03 0.  1.
         12    1    3    3    0    0  0.24013014174E+02  0.49935074362E+01  0.11350041525E+02  0.27025606540E+02  0.00000000000E+00 0. -1.
</event>
<event>
 7    1  0.6184948E-012  0.5930196E+02  0.7816164E-02  0.1266605E+00
        -11   -1    0    0    0    0  0.00000000000E+00  0.00000000000E+00  0.45593999997E+02  0.45594000000E+02  0.51100000000E-03 0. -1.
         11   -1    0    0    0    0 -0.00000000000E+00 -0.00000000000E+00 -0.45593999997E+02  0.45594000000E+02  0.51100000000E-03 0.  1.
    9900012    2    1    2    0    0  0.30054144306E+02  0.99635428122E+00 -0.10605447883E+02  0.59301955457E+02  0.50000020843E+02 0.  0.
         12    1    1    2    0    0 -0.30054144306E+02 -0.99635428122E+00  0.10605447883E+02  0.31886044543E+02  0.00000000000E+00 0. -1.
         11    1    3    3    0    0  0.96382577825E+01  0.81772611729E+01 -0.23655515682E+02  0.26820645701E+02  0.51100000000E-03 0. -1.
        -11    1    3    3    0    0  0.32203554098E+00 -0.65940052249E+01 -0.25073967660E+01  0.70619863069E+01  0.51100000000E-03 0.  1.
         12    1    3    3    0    0  0.20093850983E+02 -0.58690166677E+00  0.15557464565E+02  0.25419323449E+02  0.00000000000E+00 0. -1.
</event>
<event>
 7    1  0.6184948E-012  0.5930197E+02  0.7816164E-02  0.1266605E+00
        -11   -1    0    0    0    0  0.00000000000E+00  0.00000000000E+00  0.45593999997E+02  0.45594000000E+02  0.51100000000E-03 0. -1.
         11   -1    0    0    0    0 -0.00000000000E+00 -0.00000000000E+00 -0.45593999997E+02  0.45594000000E+02  0.51100000000E-03 0.  1.
    9900012    2    1    2    0    0  0.13245701335E+02  0.28991303574E+02  0.88013939430E+00  0.59301969640E+02  0.50000046711E+02 0.  0.
         12    1    1    2    0    0 -0.13245701335E+02 -0.28991303574E+02 -0.88013939430E+00  0.31886030360E+02  0.00000000000E+00 0. -1.
         11    1    3    3    0    0  0.10986380010E+02  0.11396668392E+02 -0.88624784161E+01  0.18141888548E+02  0.51100000000E-03 0. -1.
        -11    1    3    3    0    0 -0.68791879018E+01 -0.92008710485E+01  0.46555329477E+01  0.12395694475E+02  0.51100000000E-03 0.  1.
         12    1    3    3    0    0  0.91385092265E+01  0.26795506231E+02  0.50870848627E+01  0.28764386617E+02  0.00000000000E+00 0. -1.
</event>
<event>
 7    1  0.6184948E-012  0.5930193E+02  0.7816164E-02  0.1266605E+00
        -11   -1    0    0    0    0  0.00000000000E+00  0.00000000000E+00  0.45593999997E+02  0.45594000000E+02  0.51100000000E-03 0.  1.
         11   -1    0    0    0    0 -0.00000000000E+00 -0.00000000000E+00 -0.45593999997E+02  0.45594000000E+02  0.51100000000E-03 0. -1.
    9900012    2    1    2    0    0  0.15228560532E+00 -0.19658394145E+02  0.25104693265E+02  0.59301932898E+02  0.49999979702E+02 0.  0.
         12    1    1    2    0    0 -0.15228560532E+00  0.19658394145E+02 -0.25104693265E+02  0.31886067102E+02  0.00000000000E+00 0. -1.
         11    1    3    3    0    0 -0.33435243413E+01 -0.33784757772E+01 -0.92569165368E+01  0.10405948185E+02  0.51100000000E-03 0. -1.
        -11    1    3    3    0    0  0.55991738401E+00  0.79010199854E+01  0.16158827419E+01  0.80839780791E+01  0.51100000000E-03 0.  1.
         12    1    3    3    0    0  0.29358925626E+01 -0.24180938353E+02  0.32745727060E+02  0.40812006634E+02  0.00000000000E+00 0. -1.
</event>
<event>
 7    1  0.6184948E-012  0.5930212E+02  0.7816164E-02  0.1266604E+00
        -11   -1    0    0    0    0  0.00000000000E+00  0.00000000000E+00  0.45593999997E+02  0.45594000000E+02  0.51100000000E-03 0.  1.
         11   -1    0    0    0    0 -0.00000000000E+00 -0.00000000000E+00 -0.45593999997E+02  0.45594000000E+02  0.51100000000E-03 0. -1.
    9900012    2    1    2    0    0  0.16051408814E+02 -0.25743348600E+02 -0.98153907282E+01  0.59302115706E+02  0.50000313099E+02 0.  0.
         12    1    1    2    0    0 -0.16051408814E+02  0.25743348600E+02  0.98153907282E+01  0.31885884294E+02  0.00000000000E+00 0. -1.
         11    1    3    3    0    0 -0.10113025317E+01 -0.19402960122E+02 -0.13331219349E+02  0.23563085620E+02  0.51100000000E-03 0. -1.
        -11    1    3    3    0    0  0.10157017418E+02 -0.15283585408E+02 -0.76243445675E+01  0.19871678744E+02  0.51100000000E-03 0.  1.
         12    1    3    3    0    0  0.69056939278E+01  0.89431969298E+01  0.11140173189E+02  0.15867351342E+02  0.00000000000E+00 0. -1.
</event>
<event>
 7    1  0.6184948E-012  0.5930196E+02  0.7816164E-02  0.1266605E+00
        -11   -1    0    0    0    0  0.00000000000E+00  0.00000000000E+00  0.45593999997E+02  0.45594000000E+02  0.51100000000E-03 0. -1.
         11   -1    0    0    0    0 -0.00000000000E+00 -0.00000000000E+00 -0.45593999997E+02  0.45594000000E+02  0.51100000000E-03 0.  1.
    9900012    2    1    2    0    0  0.60668428184E+01  0.43578168491E+01 -0.30998749457E+02  0.59301958894E+02  0.50000027113E+02 0.  0.
         12    1    1    2    0    0 -0.60668428184E+01 -0.43578168491E+01  0.30998749457E+02  0.31886041106E+02  0.00000000000E+00 0. -1.
         11    1    3    3    0    0  0.12710279573E+02  0.65591041663E+01 -0.10625783378E+02  0.17817977634E+02  0.51100000000E-03 0. -1.
        -11    1    3    3    0    0  0.12721457915E+02  0.59767419994E+00  0.66608978969E+00  0.12752896996E+02  0.51100000000E-03 0.  1.
        -12    1    3    3    0    0 -0.19364894670E+02 -0.27989615171E+01 -0.21039055869E+02  0.28731084264E+02  0.00000000000E+00 0.  1.
</event>
<event>
 7    1  0.6184948E-012  0.5930194E+02  0.7816164E-02  0.1266605E+00
        -11   -1    0    0    0    0  0.00000000000E+00  0.00000000000E+00  0.45593999997E+02  0.45594000000E+02  0.51100000000E-03 0.  1.
         11   -1    0    0    0    0 -0.00000000000E+00 -0.00000000000E+00 -0.45593999997E+02  0.45594000000E+02  0.51100000000E-03 0. -1.
    9900012    2    1    2    0    0 -0.85177447890E+01 -0.23967939797E+02 -0.19227753567E+02  0.59301943146E+02  0.49999998393E+02 0.  0.
         12    1    1    2    0    0  0.85177447890E+01  0.23967939797E+02  0.19227753567E+02  0.31886056854E+02  0.00000000000E+00 0. -1.
         11    1    3    3    0    0 -0.48328277989E+01 -0.59334574930E+00 -0.89124916575E+01  0.10155825497E+02  0.51100000000E-03 0. -1.
        -11    1    3    3    0    0  0.53297029135E+01  0.92233467743E+01  0.52951230082E+01  0.11895973554E+02  0.51100000000E-03 0.  1.
         12    1    3    3    0    0 -0.90146199036E+01 -0.32597940822E+02 -0.15610384918E+02  0.37250144096E+02  0.00000000000E+00 0. -1.
</event>
<event>
 7    1  0.6184948E-012  0.5930195E+02  0.7816164E-02  0.1266605E+00
        -11   -1    0    0    0    0  0.00000000000E+00  0.00000000000E+00  0.45593999997E+02  0.45594000000E+02  0.51100000000E-03 0. -1.
         11   -1    0    0    0    0 -0.00000000000E+00 -0.00000000000E+00 -0.45593999997E+02  0.45594000000E+02  0.51100000000E-03 0.  1.
    9900012    2    1    2    0    0 -0.26078855982E+02  0.16418636369E+02  0.81879251358E+01  0.59301945563E+02  0.50000002799E+02 0.  0.
         12    1    1    2    0    0  0.26078855982E+02 -0.16418636369E+02 -0.81879251358E+01  0.31886054437E+02  0.00000000000E+00 0. -1.
         11    1    3    3    0    0  0.67864202156E+01  0.52229818526E+01 -0.76428087624E+01  0.11478134204E+02  0.51100000000E-03 0. -1.
        -11    1    3    3    0    0 -0.35057683716E+02  0.16136058248E+02  0.99880276614E+01  0.39864448574E+02  0.51100000000E-03 0.  1.
         12    1    3    3    0    0  0.21924075181E+01 -0.49404037319E+01  0.58427062368E+01  0.79593627841E+01  0.00000000000E+00 0. -1.
</event>
<event>
 7    1  0.6184948E-012  0.5930196E+02  0.7816164E-02  0.1266605E+00
        -11   -1    0    0    0    0  0.00000000000E+00  0.00000000000E+00  0.45593999997E+02  0.45594000000E+02  0.51100000000E-03 0.  1.
         11   -1    0    0    0    0 -0.00000000000E+00 -0.00000000000E+00 -0.45593999997E+02  0.45594000000E+02  0.51100000000E-03 0. -1.
    9900012    2    1    2    0    0  0.12219827141E+02 -0.22365261080E+02  0.19162216652E+02  0.59301958766E+02  0.50000026880E+02 0.  0.
         12    1    1    2    0    0 -0.12219827141E+02  0.22365261080E+02 -0.19162216652E+02  0.31886041234E+02  0.00000000000E+00 0. -1.
         11    1    3    3    0    0 -0.87413603778E+01  0.29982186364E+01 -0.24153647794E+01  0.95516848526E+01  0.51100000000E-03 0. -1.
        -11    1    3    3    0    0  0.22205603799E+02 -0.52048259620E+01  0.43818079726E+01  0.23224540787E+02  0.51100000000E-03 0.  1.
        -12    1    3    3    0    0 -0.12444162805E+01 -0.20158653755E+02  0.17195773459E+02  0.26525733127E+02  0.00000000000E+00 0.  1.
</event>
<event>
 7    1  0.6184948E-012  0.5930194E+02  0.7816164E-02  0.1266605E+00
        -11   -1    0    0    0    0  0.00000000000E+00  0.00000000000E+00  0.45593999997E+02  0.45594000000E+02  0.51100000000E-03 0.  1.
         11   -1    0    0    0    0 -0.00000000000E+00 -0.00000000000E+00 -0.45593999997E+02  0.45594000000E+02  0.51100000000E-03 0. -1.
    9900012    2    1    2    0    0 -0.26747274891E+02  0.15901314004E+02  0.69607915378E+01  0.59301935333E+02  0.49999984142E+02 0.  0.
         12    1    1    2    0    0  0.26747274891E+02 -0.15901314004E+02 -0.69607915378E+01  0.31886064667E+02  0.00000000000E+00 0. -1.
         11    1    3    3    0    0 -0.19000412361E+01 -0.96214516044E+01  0.52356704443E+00  0.98212326307E+01  0.51100000000E-03 0. -1.
        -11    1    3    3    0    0 -0.13474846397E+02 -0.65565474939E+01  0.10563478675E+01  0.15022505501E+02  0.51100000000E-03 0.  1.
        -12    1    3    3    0    0 -0.11372387258E+02  0.32079313102E+02  0.53808766259E+01  0.34458197201E+02  0.00000000000E+00 0.  1.
</event>
<event>
 7    1  0.6184948E-012  0.5930198E+02  0.7816164E-02  0.1266605E+00
        -11   -1    0    0    0    0  0.00000000000E+00  0.00000000000E+00  0.45593999997E+02  0.45594000000E+02  0.51100000000E-03 0. -1.
         11   -1    0    0    0    0 -0.00000000000E+00 -0.00000000000E+00 -0.45593999997E+02  0.45594000000E+02  0.51100000000E-03 0.  1.
    9900012    2    1    2    0    0 -0.44125387568E+01 -0.19784089956E+02 -0.24613772182E+02  0.59301976499E+02  0.50000059220E+02 0.  0.
         12    1    1    2    0    0  0.44125387568E+01  0.19784089956E+02  0.24613772182E+02  0.31886023501E+02  0.00000000000E+00 0. -1.
         11    1    3    3    0    0  0.13645160031E+02 -0.93582877485E+01 -0.98103596303E+01  0.19235672543E+02  0.51100000000E-03 0. -1.
        -11    1    3    3    0    0 -0.52015636253E+01  0.87160917726E+01 -0.13608408347E+02  0.16976904840E+02  0.51100000000E-03 0.  1.
         12    1    3    3    0    0 -0.12856135162E+02 -0.19141893981E+02 -0.11950042042E+01  0.23089399116E+02  0.00000000000E+00 0. -1.
</event>
<event>
 7    1  0.6184948E-012  0.5930186E+02  0.7816164E-02  0.1266605E+00
        -11   -1    0    0    0    0  0.00000000000E+00  0.00000000000E+00  0.45593999997E+02  0.45594000000E+02  0.51100000000E-03 0.  1.
         11   -1    0    0    0    0 -0.00000000000E+00 -0.00000000000E+00 -0.45593999997E+02  0.45594000000E+02  0.51100000000E-03 0. -1.
    9900012    2    1    2    0    0  0.30764741229E+02  0.49853171653E+01  0.67381848131E+01  0.59301861558E+02  0.49999849595E+02 0.  0.
         12    1    1    2    0    0 -0.30764741229E+02 -0.49853171653E+01 -0.67381848131E+01  0.31886138442E+02  0.00000000000E+00 0. -1.
         11    1    3    3    0    0 -0.40961735896E+00  0.15182092334E+01 -0.19741918746E+00  0.15848407661E+01  0.51100000000E-03 0. -1.
        -11    1    3    3    0    0  0.12564031714E+02 -0.78781143340E+01  0.25226997681E+02  0.29262962779E+02  0.51100000000E-03 0.  1.
         12    1    3    3    0    0  0.18610326875E+02  0.11345222266E+02 -0.18291393680E+02  0.28454058013E+02  0.00000000000E+00 0. -1.
</event>
<event>
 7    1  0.6184948E-012  0.5930192E+02  0.7816164E-02  0.1266605E+00
        -11   -1    0    0    0    0  0.00000000000E+00  0.00000000000E+00  0.45593999997E+02  0.45594000000E+02  0.51100000000E-03 0.  1.
         11   -1    0    0    0    0 -0.00000000000E+00 -0.00000000000E+00 -0.45593999997E+02  0.45594000000E+02  0.51100000000E-03 0. -1.
    9900012    2    1    2    0    0 -0.29987962758E+02 -0.17648630834E+01  0.10692508861E+02  0.59301915295E+02  0.49999947599E+02 0.  0.
         12    1    1    2    0    0  0.29987962758E+02  0.17648630834E+01 -0.10692508861E+02  0.31886084705E+02  0.00000000000E+00 0. -1.
         11    1    3    3    0    0 -0.15446048059E+00 -0.83724902130E+01  0.43796370261E+01  0.94500619653E+01  0.51100000000E-03 0. -1.
        -11    1    3    3    0    0 -0.18928779530E+02  0.13475473555E+02  0.20284773118E+02  0.30844109692E+02  0.51100000000E-03 0.  1.
         12    1    3    3    0    0 -0.10904722747E+02 -0.68678464258E+01 -0.13971901283E+02  0.19007743637E+02  0.00000000000E+00 0. -1.
</event>
<event>
 7    1  0.6184948E-012  0.5930195E+02  0.7816164E-02  0.1266605E+00
        -11   -1    0    0    0    0  0.00000000000E+00  0.00000000000E+00  0.45593999997E+02  0.45594000000E+02  0.51100000000E-03 0.  1.
         11   -1    0    0    0    0 -0.00000000000E+00 -0.00000000000E+00 -0.45593999997E+02  0.45594000000E+02  0.51100000000E-03 0. -1.
    9900012    2    1    2    0    0 -0.13793396969E+01 -0.90833960883E+01  0.30533745884E+02  0.59301948188E+02  0.50000007587E+02 0.  0.
         12    1    1    2    0    0  0.13793396969E+01  0.90833960883E+01 -0.30533745884E+02  0.31886051812E+02  0.00000000000E+00 0. -1.
         11    1    3    3    0    0  0.25130995461E+01 -0.37428108884E+01 -0.20645100790E+01  0.49584780732E+01  0.51100000000E-03 0.  1.
        -11    1    3    3    0    0  0.89037881973E+01  0.13121651854E+02  0.14268317641E+01  0.15921401973E+02  0.51100000000E-03 0. -1.
         12    1    3    3    0    0 -0.12796227440E+02 -0.18462237053E+02  0.31171424199E+02  0.38422068142E+02  0.00000000000E+00 0. -1.
</event>
<event>
 7    1  0.6184948E-012  0.5930195E+02  0.7816164E-02  0.1266605E+00
        -11   -1    0    0    0    0  0.00000000000E+00  0.00000000000E+00  0.45593999997E+02  0.45594000000E+02  0.51100000000E-03 0. -1.
         11   -1    0    0    0    0 -0.00000000000E+00 -0.00000000000E+00 -0.45593999997E+02  0.45594000000E+02  0.51100000000E-03 0.  1.
    9900012    2    1    2    0    0 -0.26670173889E+01 -0.25268321063E+02 -0.19264455423E+02  0.59301948601E+02  0.50000008341E+02 0.  0.
         12    1    1    2    0    0  0.26670173889E+01  0.25268321063E+02  0.19264455423E+02  0.31886051399E+02  0.00000000000E+00 0. -1.
         11    1    3    3    0    0 -0.16705180345E+02 -0.10343230001E+02 -0.29436296434E+01  0.19867320226E+02  0.51100000000E-03 0. -1.
        -11    1    3    3    0    0  0.57533204766E+01  0.82059405202E+01 -0.15430391670E+00  0.10023071699E+02  0.51100000000E-03 0.  1.
        -12    1    3    3    0    0  0.82848424800E+01 -0.23131031582E+02 -0.16166521862E+02  0.29411556676E+02  0.00000000000E+00 0.  1.
</event>
<event>
 7    1  0.6184948E-012  0.5930194E+02  0.7816164E-02  0.1266605E+00
        -11   -1    0    0    0    0  0.00000000000E+00  0.00000000000E+00  0.45593999997E+02  0.45594000000E+02  0.51100000000E-03 0. -1.
         11   -1    0    0    0    0 -0.00000000000E+00 -0.00000000000E+00 -0.45593999997E+02  0.45594000000E+02  0.51100000000E-03 0.  1.
    9900012    2    1    2    0    0  0.11665203051E+02 -0.15905153028E+01 -0.29632991244E+02  0.59301939233E+02  0.49999991256E+02 0.  0.
         12    1    1    2    0    0 -0.11665203051E+02  0.15905153028E+01  0.29632991244E+02  0.31886060767E+02  0.00000000000E+00 0. -1.
         11    1    3    3    0    0  0.19230669266E+02 -0.76219643433E+01 -0.17665316490E+02  0.27202507014E+02  0.51100000000E-03 0. -1.
        -11    1    3    3    0    0  0.58504240821E+01  0.11681188367E+01 -0.16160086905E+02  0.17226153738E+02  0.51100000000E-03 0.  1.
        -12    1    3    3    0    0 -0.13415890297E+02  0.48633302038E+01  0.41924121516E+01  0.14873278482E+02  0.00000000000E+00 0.  1.
</event>
<event>
 7    1  0.6184948E-012  0.5930196E+02  0.7816164E-02  0.1266605E+00
        -11   -1    0    0    0    0  0.00000000000E+00  0.00000000000E+00  0.45593999997E+02  0.45594000000E+02  0.51100000000E-03 0.  1.
         11   -1    0    0    0    0 -0.00000000000E+00 -0.00000000000E+00 -0.45593999997E+02  0.45594000000E+02  0.51100000000E-03 0. -1.
    9900012    2    1    2    0    0  0.58579500545E+01 -0.22195943113E+02  0.22130155174E+02  0.59301964851E+02  0.50000037976E+02 0.  0.
         12    1    1    2    0    0 -0.58579500545E+01  0.22195943113E+02 -0.22130155174E+02  0.31886035149E+02  0.00000000000E+00 0. -1.
         11    1    3    3    0    0 -0.93446485016E+01  0.40544397269E+01  0.13324177434E+02  0.16771840736E+02  0.51100000000E-03 0. -1.
        -11    1    3    3    0    0 -0.31212225366E+01 -0.14001556957E+02 -0.64458449943E+01  0.15726873348E+02  0.51100000000E-03 0.  1.
        -12    1    3    3    0    0  0.18323821093E+02 -0.12248825882E+02  0.15251822735E+02  0.26803250767E+02  0.00000000000E+00 0.  1.
</event>
<event>
 7    1  0.6184948E-012  0.5930197E+02  0.7816164E-02  0.1266605E+00
        -11   -1    0    0    0    0  0.00000000000E+00  0.00000000000E+00  0.45593999997E+02  0.45594000000E+02  0.51100000000E-03 0.  1.
         11   -1    0    0    0    0 -0.00000000000E+00 -0.00000000000E+00 -0.45593999997E+02  0.45594000000E+02  0.51100000000E-03 0. -1.
    9900012    2    1    2    0    0 -0.21206242137E+02 -0.23691684949E+02  0.23913007357E+01  0.59301969195E+02  0.50000045899E+02 0.  0.
         12    1    1    2    0    0  0.21206242137E+02  0.23691684949E+02 -0.23913007357E+01  0.31886030805E+02  0.00000000000E+00 0. -1.
         11    1    3    3    0    0 -0.16003395486E+02  0.46203921155E+01 -0.77899839545E+01  0.18388598115E+02  0.51100000000E-03 0. -1.
        -11    1    3    3    0    0  0.68701460651E+01  0.17514949159E+01  0.31695517553E+01  0.77661251591E+01  0.51100000000E-03 0.  1.
         12    1    3    3    0    0 -0.12072992717E+02 -0.30063571980E+02  0.70117329349E+01  0.33147245920E+02  0.00000000000E+00 0. -1.
</event>
<event>
 7    1  0.6184948E-012  0.5930194E+02  0.7816164E-02  0.1266605E+00
        -11   -1    0    0    0    0  0.00000000000E+00  0.00000000000E+00  0.45593999997E+02  0.45594000000E+02  0.51100000000E-03 0. -1.
         11   -1    0    0    0    0 -0.00000000000E+00 -0.00000000000E+00 -0.45593999997E+02  0.45594000000E+02  0.51100000000E-03 0.  1.
    9900012    2    1    2    0    0 -0.71788253596E+01 -0.30859249110E+02 -0.35905633450E+01  0.59301938244E+02  0.49999989452E+02 0.  0.
         12    1    1    2    0    0  0.71788253596E+01  0.30859249110E+02  0.35905633450E+01  0.31886061756E+02  0.00000000000E+00 0. -1.
         11    1    3    3    0    0 -0.10120496993E+02 -0.64977822289E+01  0.75475774979E+01  0.14198998543E+02  0.51100000000E-03 0. -1.
        -11    1    3    3    0    0  0.79823439945E+01  0.77590745370E+01 -0.18147333620E+01  0.11278932164E+02  0.51100000000E-03 0.  1.
        -12    1    3    3    0    0 -0.50406723608E+01 -0.32120541418E+02 -0.93234074808E+01  0.33824007537E+02  0.00000000000E+00 0.  1.
</event>
<event>
 7    1  0.6184948E-012  0.5930192E+02  0.7816164E-02  0.1266605E+00
        -11   -1    0    0    0    0  0.00000000000E+00  0.00000000000E+00  0.45593999997E+02  0.45594000000E+02  0.51100000000E-03 0. -1.
         11   -1    0    0    0    0 -0.00000000000E+00 -0.00000000000E+00 -0.45593999997E+02  0.45594000000E+02  0.51100000000E-03 0.  1.
    9900012    2    1    2    0    0 -0.17036503306E+02 -0.11870945240E+02 -0.24198359029E+02  0.59301915802E+02  0.49999948524E+02 0.  0.
         12    1    1    2    0    0  0.17036503306E+02  0.11870945240E+02  0.24198359029E+02  0.31886084198E+02  0.00000000000E+00 0. -1.
         11    1    3    3    0    0 -0.13386086988E+02 -0.22577148622E+02 -0.16195362516E+02  0.30841607157E+02  0.51100000000E-03 0.  1.
        -11    1    3    3    0    0  0.52570048199E+01 -0.21249847922E+01  0.54357952495E+01  0.78549048562E+01  0.51100000000E-03 0. -1.
         12    1    3    3    0    0 -0.89074211378E+01  0.12831188174E+02 -0.13438791762E+02  0.20605403789E+02  0.00000000000E+00 0. -1.
</event>
<event>
 7    1  0.6184948E-012  0.5930191E+02  0.7816164E-02  0.1266605E+00
        -11   -1    0    0    0    0  0.00000000000E+00  0.00000000000E+00  0.45593999997E+02  0.45594000000E+02  0.51100000000E-03 0. -1.
         11   -1    0    0    0    0 -0.00000000000E+00 -0.00000000000E+00 -0.45593999997E+02  0.45594000000E+02  0.51100000000E-03 0.  1.
    9900012    2    1    2    0    0 -0.21163677361E+02  0.23578396805E+02 -0.35889680618E+01  0.59301910132E+02  0.49999938183E+02 0.  0.
         12    1    1    2    0    0  0.21163677361E+02 -0.23578396805E+02  0.35889680618E+01  0.31886089868E+02  0.00000000000E+00 0. -1.
         11    1    3    3    0    0 -0.69029899334E+01 -0.28840895938E+01 -0.10808926932E+02  0.13145422948E+02  0.51100000000E-03 0. -1.
        -11    1    3    3    0    0 -0.11192961901E+02  0.36962582223E+01 -0.11541257964E+02  0.16496828684E+02  0.51100000000E-03 0.  1.
         12    1    3    3    0    0 -0.30677255259E+01  0.22766228176E+02  0.18761216834E+02  0.29659658500E+02  0.00000000000E+00 0. -1.
</event>
<event>
 7    1  0.6184948E-012  0.5930189E+02  0.7816164E-02  0.1266605E+00
        -11   -1    0    0    0    0  0.00000000000E+00  0.00000000000E+00  0.45593999997E+02  0.45594000000E+02  0.51100000000E-03 0.  1.
         11   -1    0    0    0    0 -0.00000000000E+00 -0.00000000000E+00 -0.45593999997E+02  0.45594000000E+02  0.51100000000E-03 0. -1.
    9900012    2    1    2    0    0 -0.22851256276E+02  0.63006193171E+01  0.21327129952E+02  0.59301887205E+02  0.49999896370E+02 0.  0.
         12    1    1    2    0    0  0.22851256276E+02 -0.63006193171E+01 -0.21327129952E+02  0.31886112795E+02  0.00000000000E+00 0. -1.
         11    1    3    3    0    0  0.61862842940E+01  0.64587122348E+01  0.20113985496E+02  0.22012666578E+02  0.51100000000E-03 0.  1.
        -11    1    3    3    0    0 -0.62479787290E+01  0.10371294281E+02 -0.57211513857E+00  0.12121398403E+02  0.51100000000E-03 0. -1.
        -12    1    3    3    0    0 -0.22789561841E+02 -0.10529387199E+02  0.17852595948E+01  0.25167822224E+02  0.00000000000E+00 0.  1.
</event>
<event>
 7    1  0.6184948E-012  0.5930195E+02  0.7816164E-02  0.1266605E+00
        -11   -1    0    0    0    0  0.00000000000E+00  0.00000000000E+00  0.45593999997E+02  0.45594000000E+02  0.51100000000E-03 0. -1.
         11   -1    0    0    0    0 -0.00000000000E+00 -0.00000000000E+00 -0.45593999997E+02  0.45594000000E+02  0.51100000000E-03 0.  1.
    9900012    2    1    2    0    0 -0.12435667329E+02  0.21274605849E+02 -0.20235256561E+02  0.59301948441E+02  0.50000008049E+02 0.  0.
         12    1    1    2    0    0  0.12435667329E+02 -0.21274605849E+02  0.20235256561E+02  0.31886051559E+02  0.00000000000E+00 0. -1.
         11    1    3    3    0    0 -0.95533190108E+00 -0.91367146102E+00  0.53069345888E+01  0.54690958641E+01  0.51100000000E-03 0. -1.
        -11    1    3    3    0    0  0.98756211212E+01 -0.48712399882E+01 -0.13976250019E+00  0.11012556714E+02  0.51100000000E-03 0.  1.
         12    1    3    3    0    0 -0.21355956549E+02  0.27059517298E+02 -0.25402428650E+02  0.42820295863E+02  0.00000000000E+00 0. -1.
</event>
<event>
 7    1  0.6184948E-012  0.5930195E+02  0.7816164E-02  0.1266605E+00
        -11   -1    0    0    0    0  0.00000000000E+00  0.00000000000E+00  0.45593999997E+02  0.45594000000E+02  0.51100000000E-03 0.  1.
         11   -1    0    0    0    0 -0.00000000000E+00 -0.00000000000E+00 -0.45593999997E+02  0.45594000000E+02  0.51100000000E-03 0. -1.
    9900012    2    1    2    0    0  0.21900419875E+02 -0.59622637122E+01  0.22395157480E+02  0.59301951988E+02  0.50000014518E+02 0.  0.
         12    1    1    2    0    0 -0.21900419875E+02  0.59622637122E+01 -0.22395157480E+02  0.31886048012E+02  0.00000000000E+00 0. -1.
         11    1    3    3    0    0  0.12056533496E+01 -0.75305661232E+01  0.10907135864E+02  0.13308968373E+02  0.51100000000E-03 0. -1.
        -11    1    3    3    0    0 -0.20105214740E+00  0.17006121187E+02 -0.12598614036E+01  0.17053909546E+02  0.51100000000E-03 0.  1.
         12    1    3    3    0    0  0.20895818672E+02 -0.15437818776E+02  0.12747883020E+02  0.28939074070E+02  0.00000000000E+00 0. -1.
</event>
<event>
 7    1  0.6184948E-012  0.5930193E+02  0.7816164E-02  0.1266605E+00
        -11   -1    0    0    0    0  0.00000000000E+00  0.00000000000E+00  0.45593999997E+02  0.45594000000E+02  0.51100000000E-03 0.  1.
         11   -1    0    0    0    0 -0.00000000000E+00 -0.00000000000E+00 -0.45593999997E+02  0.45594000000E+02  0.51100000000E-03 0. -1.
    9900012    2    1    2    0    0 -0.80935809565E+01  0.28283757683E+02 -0.12298146325E+02  0.59301930873E+02  0.49999976008E+02 0.  0.
         12    1    1    2    0    0  0.80935809565E+01 -0.28283757683E+02  0.12298146325E+02  0.31886069127E+02  0.00000000000E+00 0. -1.
         11    1    3    3    0    0 -0.44510739129E+00 -0.35735430927E+01  0.46458277440E+01  0.58780988860E+01  0.51100000000E-03 0. -1.
        -11    1    3    3    0    0 -0.14101853989E+02  0.38085220996E+02 -0.93556644641E+01  0.41675829951E+02  0.51100000000E-03 0.  1.
         12    1    3    3    0    0  0.64533804239E+01 -0.62279202209E+01 -0.75883096054E+01  0.11748002036E+02  0.00000000000E+00 0. -1.
</event>
<event>
 7    1  0.6184948E-012  0.5930197E+02  0.7816164E-02  0.1266605E+00
        -11   -1    0    0    0    0  0.00000000000E+00  0.00000000000E+00  0.45593999997E+02  0.45594000000E+02  0.51100000000E-03 0.  1.
         11   -1    0    0    0    0 -0.00000000000E+00 -0.00000000000E+00 -0.45593999997E+02  0.45594000000E+02  0.51100000000E-03 0. -1.
    9900012    2    1    2    0    0  0.81232367696E-01  0.22185362015E+02  0.22902448923E+02  0.59301967743E+02  0.50000043250E+02 0.  0.
         12    1    1    2    0    0 -0.81232367696E-01 -0.22185362015E+02 -0.22902448923E+02  0.31886032257E+02  0.00000000000E+00 0. -1.
         11    1    3    3    0    0  0.12229107586E+01 -0.30310501824E+01 -0.64330283927E+01  0.72157210655E+01  0.51100000000E-03 0. -1.
        -11    1    3    3    0    0 -0.32432760458E+00  0.24287823746E+02  0.16208325933E+01  0.24344006845E+02  0.51100000000E-03 0.  1.
        -12    1    3    3    0    0 -0.81735078637E+00  0.92858845162E+00  0.27714644722E+02  0.27742239832E+02  0.00000000000E+00 0.  1.
</event>
<event>
 7    1  0.6184948E-012  0.5930201E+02  0.7816164E-02  0.1266605E+00
        -11   -1    0    0    0    0  0.00000000000E+00  0.00000000000E+00  0.45593999997E+02  0.45594000000E+02  0.51100000000E-03 0.  1.
         11   -1    0    0    0    0 -0.00000000000E+00 -0.00000000000E+00 -0.45593999997E+02  0.45594000000E+02  0.51100000000E-03 0. -1.
    9900012    2    1    2    0    0 -0.25970666218E+02  0.17942593445E+02 -0.45060500015E+01  0.59302005426E+02  0.50000111976E+02 0.  0.
         12    1    1    2    0    0  0.25970666218E+02 -0.17942593445E+02  0.45060500015E+01  0.31885994574E+02  0.00000000000E+00 0. -1.
         11    1    3    3    0    0 -0.76003701063E+01 -0.20810770310E+01 -0.98072006539E+01  0.12580846247E+02  0.51100000000E-03 0. -1.
        -11    1    3    3    0    0 -0.11893932727E+02  0.17054616104E+02 -0.14716448410E+02  0.25473504278E+02  0.51100000000E-03 0.  1.
        -12    1    3    3    0    0 -0.64763633852E+01  0.29690543725E+01  0.20017599062E+02  0.21247654901E+02  0.00000000000E+00 0.  1.
</event>
<event>
 7    1  0.6184948E-012  0.5930202E+02  0.7816164E-02  0.1266604E+00
        -11   -1    0    0    0    0  0.00000000000E+00  0.00000000000E+00  0.45593999997E+02  0.45594000000E+02  0.51100000000E-03 0.  1.
         11   -1    0    0    0    0 -0.00000000000E+00 -0.00000000000E+00 -0.45593999997E+02  0.45594000000E+02  0.51100000000E-03 0. -1.
    9900012    2    1    2    0    0  0.35416943660E+01 -0.15697851938E+02  0.27527247550E+02  0.59302023269E+02  0.50000144516E+02 0.  0.
         12    1    1    2    0    0 -0.35416943660E+01  0.15697851938E+02 -0.27527247550E+02  0.31885976731E+02  0.00000000000E+00 0. -1.
         11    1    3    3    0    0  0.89978911203E+00 -0.20505182728E+02 -0.18397435617E+00  0.20525739596E+02  0.51100000000E-03 0. -1.
        -11    1    3    3    0    0  0.82304223710E+01  0.51375230354E+01 -0.78630710868E+00  0.97340779981E+01  0.51100000000E-03 0.  1.
        -12    1    3    3    0    0 -0.55885171170E+01 -0.33019224545E+00  0.28497529015E+02  0.29042205674E+02  0.00000000000E+00 0.  1.
</event>
<event>
 7    1  0.6184948E-012  0.5930194E+02  0.7816164E-02  0.1266605E+00
        -11   -1    0    0    0    0  0.00000000000E+00  0.00000000000E+00  0.45593999997E+02  0.45594000000E+02  0.51100000000E-03 0. -1.
         11   -1    0    0    0    0 -0.00000000000E+00 -0.00000000000E+00 -0.45593999997E+02  0.45594000000E+02  0.51100000000E-03 0.  1.
    9900012    2    1    2    0    0 -0.13408180679E+02  0.26859118786E+02 -0.10748467561E+02  0.59301935238E+02  0.49999983970E+02 0.  0.
         12    1    1    2    0    0  0.13408180679E+02 -0.26859118786E+02  0.10748467561E+02  0.31886064762E+02  0.00000000000E+00 0. -1.
         11    1    3    3    0    0 -0.18468355573E+01 -0.56057201602E+01  0.50438889015E+01  0.77637436590E+01  0.51100000000E-03 0. -1.
        -11    1    3    3    0    0 -0.98911887752E+00  0.67799328218E+01  0.10991660411E+02  0.12952314237E+02  0.51100000000E-03 0.  1.
        -12    1    3    3    0    0 -0.10572226244E+02  0.25684906125E+02 -0.26784016874E+02  0.38585877342E+02  0.00000000000E+00 0.  1.
</event>
<event>
 7    1  0.6184948E-012  0.5930194E+02  0.7816164E-02  0.1266605E+00
        -11   -1    0    0    0    0  0.00000000000E+00  0.00000000000E+00  0.45593999997E+02  0.45594000000E+02  0.51100000000E-03 0. -1.
         11   -1    0    0    0    0 -0.00000000000E+00 -0.00000000000E+00 -0.45593999997E+02  0.45594000000E+02  0.51100000000E-03 0.  1.
    9900012    2    1    2    0    0  0.68519681717E+01 -0.89804487145E+01 -0.29818160624E+02  0.59301943016E+02  0.49999998156E+02 0.  0.
         12    1    1    2    0    0 -0.68519681717E+01  0.89804487145E+01  0.29818160624E+02  0.31886056984E+02  0.00000000000E+00 0. -1.
         11    1    3    3    0    0  0.77128881799E+00 -0.16234887948E+02 -0.17069437641E+01  0.16342586405E+02  0.51100000000E-03 0. -1.
        -11    1    3    3    0    0 -0.73592980091E+01 -0.41910071839E+01  0.13875593676E+01  0.85819071110E+01  0.51100000000E-03 0.  1.
         12    1    3    3    0    0  0.13439977363E+02  0.11445446418E+02 -0.29498776228E+02  0.34377449500E+02  0.00000000000E+00 0. -1.
</event>
<event>
 7    1  0.6184948E-012  0.5930194E+02  0.7816164E-02  0.1266605E+00
        -11   -1    0    0    0    0  0.00000000000E+00  0.00000000000E+00  0.45593999997E+02  0.45594000000E+02  0.51100000000E-03 0.  1.
         11   -1    0    0    0    0 -0.00000000000E+00 -0.00000000000E+00 -0.45593999997E+02  0.45594000000E+02  0.51100000000E-03 0. -1.
    9900012    2    1    2    0    0 -0.20164329967E+02  0.24694960584E+02  0.52848807907E+00  0.59301943785E+02  0.49999999557E+02 0.  0.
         12    1    1    2    0    0  0.20164329967E+02 -0.24694960584E+02 -0.52848807907E+00  0.31886056215E+02  0.00000000000E+00 0. -1.
         11    1    3    3    0    0 -0.57653305093E+01  0.15299001314E+02  0.13468723356E+02  0.21182657675E+02  0.51100000000E-03 0. -1.
        -11    1    3    3    0    0 -0.55277320771E+01  0.12064631077E+02  0.78076812602E+01  0.15397111153E+02  0.51100000000E-03 0.  1.
         12    1    3    3    0    0 -0.88712673809E+01 -0.26686718060E+01 -0.20747916537E+02  0.22722174957E+02  0.00000000000E+00 0. -1.
</event>
<event>
 7    1  0.6184948E-012  0.5930189E+02  0.7816164E-02  0.1266605E+00
        -11   -1    0    0    0    0  0.00000000000E+00  0.00000000000E+00  0.45593999997E+02  0.45594000000E+02  0.51100000000E-03 0. -1.
         11   -1    0    0    0    0 -0.00000000000E+00 -0.00000000000E+00 -0.45593999997E+02  0.45594000000E+02  0.51100000000E-03 0.  1.
    9900012    2    1    2    0    0  0.28831161591E+02  0.41716541848E+01 -0.12964780850E+02  0.59301888292E+02  0.49999898352E+02 0.  0.
         12    1    1    2    0    0 -0.28831161591E+02 -0.41716541848E+01  0.12964780850E+02  0.31886111708E+02  0.00000000000E+00 0. -1.
         11    1    3    3    0    0  0.24711079116E+02 -0.12513620083E+02  0.19886377713E+01  0.27770178233E+02  0.51100000000E-03 0.  1.
        -11    1    3    3    0    0  0.82864880724E+01  0.16638656779E+01  0.18066450791E+01  0.86428178432E+01  0.51100000000E-03 0. -1.
         12    1    3    3    0    0 -0.41664055972E+01  0.15021408590E+02 -0.16760063700E+02  0.22888892216E+02  0.00000000000E+00 0. -1.
</event>
<event>
 7    1  0.6184948E-012  0.5930194E+02  0.7816164E-02  0.1266605E+00
        -11   -1    0    0    0    0  0.00000000000E+00  0.00000000000E+00  0.45593999997E+02  0.45594000000E+02  0.51100000000E-03 0. -1.
         11   -1    0    0    0    0 -0.00000000000E+00 -0.00000000000E+00 -0.45593999997E+02  0.45594000000E+02  0.51100000000E-03 0.  1.
    9900012    2    1    2    0    0 -0.69560236200E+01  0.17304805067E+02 -0.25862681236E+02  0.59301939978E+02  0.49999992614E+02 0.  0.
         12    1    1    2    0    0  0.69560236200E+01 -0.17304805067E+02  0.25862681236E+02  0.31886060022E+02  0.00000000000E+00 0. -1.
         11    1    3    3    0    0  0.79755591968E+01  0.15748720893E+02 -0.15048796130E+02  0.23196939873E+02  0.51100000000E-03 0. -1.
        -11    1    3    3    0    0 -0.20479930588E+01  0.55505504156E+01 -0.19288258659E+02  0.20175227579E+02  0.51100000000E-03 0.  1.
         12    1    3    3    0    0 -0.12883589758E+02 -0.39944662415E+01  0.84743735532E+01  0.15929772526E+02  0.00000000000E+00 0. -1.
</event>
<event>
 7    1  0.6184948E-012  0.5930194E+02  0.7816164E-02  0.1266605E+00
        -11   -1    0    0    0    0  0.00000000000E+00  0.00000000000E+00  0.45593999997E+02  0.45594000000E+02  0.51100000000E-03 0. -1.
         11   -1    0    0    0    0 -0.00000000000E+00 -0.00000000000E+00 -0.45593999997E+02  0.45594000000E+02  0.51100000000E-03 0.  1.
    9900012    2    1    2    0    0  0.13728363804E+01  0.63730423560E+01 -0.31212508128E+02  0.59301937022E+02  0.49999987223E+02 0.  0.
         12    1    1    2    0    0 -0.13728363804E+01 -0.63730423560E+01  0.31212508128E+02  0.31886062978E+02  0.00000000000E+00 0. -1.
         11    1    3    3    0    0  0.15673326698E+01  0.50607013953E+01  0.89834695571E+01  0.10429283573E+02  0.51100000000E-03 0. -1.
        -11    1    3    3    0    0 -0.98666797341E+00  0.14386210244E+02 -0.24510675493E+02  0.28437822917E+02  0.51100000000E-03 0.  1.
        -12    1    3    3    0    0  0.79217168403E+00 -0.13073869283E+02 -0.15685302192E+02  0.20434830531E+02  0.00000000000E+00 0.  1.
</event>
<event>
 7    1  0.6184948E-012  0.5930194E+02  0.7816164E-02  0.1266605E+00
        -11   -1    0    0    0    0  0.00000000000E+00  0.00000000000E+00  0.45593999997E+02  0.45594000000E+02  0.51100000000E-03 0.  1.
         11   -1    0    0    0    0 -0.00000000000E+00 -0.00000000000E+00 -0.45593999997E+02  0.45594000000E+02  0.51100000000E-03 0. -1.
    9900012    2    1    2    0    0  0.13882092916E+02 -0.28185163871E+02 -0.54410184401E+01  0.59301942737E+02  0.49999997645E+02 0.  0.
         12    1    1    2    0    0 -0.13882092916E+02  0.28185163871E+02  0.54410184401E+01  0.31886057263E+02  0.00000000000E+00 0. -1.
         11    1    3    3    0    0 -0.35755300901E+01 -0.73506292933E+01 -0.68732386574E+01  0.10679774171E+02  0.51100000000E-03 0. -1.
        -11    1    3    3    0    0  0.45917598105E+01 -0.31514331473E+02  0.86595660756E-01  0.31847210952E+02  0.51100000000E-03 0.  1.
        -12    1    3    3    0    0  0.12865863195E+02  0.10679796896E+02  0.13456245565E+01  0.16774957614E+02  0.00000000000E+00 0.  1.
</event>
<event>
 7    1  0.6184948E-012  0.5930196E+02  0.7816164E-02  0.1266605E+00
        -11   -1    0    0    0    0  0.00000000000E+00  0.00000000000E+00  0.45593999997E+02  0.45594000000E+02  0.51100000000E-03 0.  1.
         11   -1    0    0    0    0 -0.00000000000E+00 -0.00000000000E+00 -0.45593999997E+02  0.45594000000E+02  0.51100000000E-03 0. -1.
    9900012    2    1    2    0    0  0.22161694107E+02  0.19439844043E+02  0.12152020114E+02  0.59301955796E+02  0.50000021463E+02 0.  0.
         12    1    1    2    0    0 -0.22161694107E+02 -0.19439844043E+02 -0.12152020114E+02  0.31886044204E+02  0.00000000000E+00 0. -1.
         11    1    3    3    0    0  0.72523343268E+01  0.21800594164E+02  0.52500343865E+01  0.23567458930E+02  0.51100000000E-03 0. -1.
        -11    1    3    3    0    0  0.22554913840E+01  0.14097482158E+02  0.21576089783E+01  0.14438889201E+02  0.51100000000E-03 0.  1.
        -12    1    3    3    0    0  0.12653868396E+02 -0.16458232279E+02  0.47443767494E+01  0.21295607666E+02  0.00000000000E+00 0.  1.
</event>
<event>
 7    1  0.6184948E-012  0.5930175E+02  0.7816164E-02  0.1266605E+00
        -11   -1    0    0    0    0  0.00000000000E+00  0.00000000000E+00  0.45593999997E+02  0.45594000000E+02  0.51100000000E-03 0. -1.
         11   -1    0    0    0    0 -0.00000000000E+00 -0.00000000000E+00 -0.45593999997E+02  0.45594000000E+02  0.51100000000E-03 0.  1.
    9900012    2    1    2    0    0  0.24942099137E+02  0.67061062337E+01 -0.18699005624E+02  0.59301749334E+02  0.49999644924E+02 0.  0.
         12    1    1    2    0    0 -0.24942099137E+02 -0.67061062337E+01  0.18699005624E+02  0.31886250666E+02  0.00000000000E+00 0. -1.
         11    1    3    3    0    0  0.10526933467E+02 -0.70213315301E+01 -0.17412547638E+01  0.12772916389E+02  0.51100000000E-03 0. -1.
        -11    1    3    3    0    0  0.52411674259E+01  0.31930252396E+01 -0.28036144271E+02  0.28700011010E+02  0.51100000000E-03 0.  1.
         12    1    3    3    0    0  0.91739982444E+01  0.10534412524E+02  0.11078393410E+02  0.17828821934E+02  0.00000000000E+00 0. -1.
</event>
<event>
 7    1  0.6184948E-012  0.5930193E+02  0.7816164E-02  0.1266605E+00
        -11   -1    0    0    0    0  0.00000000000E+00  0.00000000000E+00  0.45593999997E+02  0.45594000000E+02  0.51100000000E-03 0.  1.
         11   -1    0    0    0    0 -0.00000000000E+00 -0.00000000000E+00 -0.45593999997E+02  0.45594000000E+02  0.51100000000E-03 0. -1.
    9900012    2    1    2    0    0  0.32346969197E+01  0.53290582509E+00  0.31717092572E+02  0.59301933858E+02  0.49999981453E+02 0.  0.
         12    1    1    2    0    0 -0.32346969197E+01 -0.53290582509E+00 -0.31717092572E+02  0.31886066142E+02  0.00000000000E+00 0. -1.
         11    1    3    3    0    0 -0.35578085120E+00 -0.75101494895E+01  0.23347126664E+02  0.24527887171E+02  0.51100000000E-03 0. -1.
        -11    1    3    3    0    0 -0.12835451444E+02  0.35900844375E+01  0.11338169495E+02  0.17498331572E+02  0.51100000000E-03 0.  1.
         12    1    3    3    0    0  0.16425929215E+02  0.44529708771E+01 -0.29682035867E+01  0.17275715115E+02  0.00000000000E+00 0. -1.
</event>
<event>
 7    1  0.6184948E-012  0.5930191E+02  0.7816164E-02  0.1266605E+00
        -11   -1    0    0    0    0  0.00000000000E+00  0.00000000000E+00  0.45593999997E+02  0.45594000000E+02  0.51100000000E-03 0.  1.
         11   -1    0    0    0    0 -0.00000000000E+00 -0.00000000000E+00 -0.45593999997E+02  0.45594000000E+02  0.51100000000E-03 0. -1.
    9900012    2    1    2    0    0 -0.31588878834E+02  0.23673842573E+01  0.36415334589E+01  0.59301913063E+02  0.49999943528E+02 0.  0.
         12    1    1    2    0    0  0.31588878834E+02 -0.23673842573E+01 -0.36415334589E+01  0.31886086937E+02  0.00000000000E+00 0. -1.
         11    1    3    3    0    0 -0.90715412175E+00  0.43019725531E+01  0.97852554787E+01  0.10727586937E+02  0.51100000000E-03 0. -1.
        -11    1    3    3    0    0 -0.28005716489E+02 -0.54506777765E+01  0.11219347651E+02  0.30657850646E+02  0.51100000000E-03 0.  1.
         12    1    3    3    0    0 -0.26760082234E+01  0.35160894807E+01 -0.17363069670E+02  0.17916475480E+02  0.00000000000E+00 0. -1.
</event>
<event>
 7    1  0.6184948E-012  0.5930193E+02  0.7816164E-02  0.1266605E+00
        -11   -1    0    0    0    0  0.00000000000E+00  0.00000000000E+00  0.45593999997E+02  0.45594000000E+02  0.51100000000E-03 0. -1.
         11   -1    0    0    0    0 -0.00000000000E+00 -0.00000000000E+00 -0.45593999997E+02  0.45594000000E+02  0.51100000000E-03 0.  1.
    9900012    2    1    2    0    0  0.74072772174E+01 -0.29715983420E+02 -0.88777388567E+01  0.59301926651E+02  0.49999968309E+02 0.  0.
         12    1    1    2    0    0 -0.74072772174E+01  0.29715983420E+02  0.88777388567E+01  0.31886073349E+02  0.00000000000E+00 0. -1.
         11    1    3    3    0    0  0.33409578237E+00  0.11214409538E+02  0.39878501515E+01  0.11907037850E+02  0.51100000000E-03 0. -1.
        -11    1    3    3    0    0 -0.51511831316E+01 -0.63009401252E+01 -0.58096531985E+01  0.99994302170E+01  0.51100000000E-03 0.  1.
        -12    1    3    3    0    0  0.12224364567E+02 -0.34629452833E+02 -0.70559358097E+01  0.37395458584E+02  0.00000000000E+00 0.  1.
</event>
<event>
 7    1  0.6184948E-012  0.5930201E+02  0.7816164E-02  0.1266605E+00
        -11   -1    0    0    0    0  0.00000000000E+00  0.00000000000E+00  0.45593999997E+02  0.45594000000E+02  0.51100000000E-03 0. -1.
         11   -1    0    0    0    0 -0.00000000000E+00 -0.00000000000E+00 -0.45593999997E+02  0.45594000000E+02  0.51100000000E-03 0.  1.
    9900012    2    1    2    0    0  0.30922283395E+02 -0.33514697640E+01  0.70211292312E+01  0.59302012237E+02  0.50000124397E+02 0.  0.
         12    1    1    2    0    0 -0.30922283395E+02  0.33514697640E+01 -0.70211292312E+01  0.31885987763E+02  0.00000000000E+00 0. -1.
         11    1    3    3    0    0  0.10922234504E+02 -0.90840928755E+01  0.35159271101E+01  0.14634811022E+02  0.51100000000E-03 0. -1.
        -11    1    3    3    0    0  0.33903383511E+01 -0.15785263286E+02 -0.36622322369E+01  0.16555388137E+02  0.51100000000E-03 0.  1.
         12    1    3    3    0    0  0.16609710540E+02  0.21517886398E+02  0.71674343580E+01  0.28111813078E+02  0.00000000000E+00 0. -1.
</event>
<event>
 7    1  0.6184948E-012  0.5930199E+02  0.7816164E-02  0.1266605E+00
        -11   -1    0    0    0    0  0.00000000000E+00  0.00000000000E+00  0.45593999997E+02  0.45594000000E+02  0.51100000000E-03 0.  1.
         11   -1    0    0    0    0 -0.00000000000E+00 -0.00000000000E+00 -0.45593999997E+02  0.45594000000E+02  0.51100000000E-03 0. -1.
    9900012    2    1    2    0    0  0.16872111925E+02 -0.22753718800E+02  0.14639595118E+02  0.59301990132E+02  0.50000084084E+02 0.  0.
         12    1    1    2    0    0 -0.16872111925E+02  0.22753718800E+02 -0.14639595118E+02  0.31886009868E+02  0.00000000000E+00 0. -1.
         11    1    3    3    0    0  0.15623562268E+02 -0.20628741133E+01  0.33212917324E+01  0.16105344659E+02  0.51100000000E-03 0. -1.
        -11    1    3    3    0    0  0.12249737737E+01  0.13950706120E+01 -0.11377655358E+02  0.11528131872E+02  0.51100000000E-03 0.  1.
        -12    1    3    3    0    0  0.23575882856E-01 -0.22085915299E+02  0.22695958744E+02  0.31668513601E+02  0.00000000000E+00 0.  1.
</event>
<event>
 7    1  0.6184948E-012  0.5930191E+02  0.7816164E-02  0.1266605E+00
        -11   -1    0    0    0    0  0.00000000000E+00  0.00000000000E+00  0.45593999997E+02  0.45594000000E+02  0.51100000000E-03 0.  1.
         11   -1    0    0    0    0 -0.00000000000E+00 -0.00000000000E+00 -0.45593999997E+02  0.45594000000E+02  0.51100000000E-03 0. -1.
    9900012    2    1    2    0    0  0.18275063740E+02  0.23797451857E+01 -0.26020796908E+02  0.59301905640E+02  0.49999929989E+02 0.  0.
         12    1    1    2    0    0 -0.18275063740E+02 -0.23797451857E+01  0.26020796908E+02  0.31886094360E+02  0.00000000000E+00 0. -1.
         11    1    3    3    0    0 -0.14765691950E+02  0.27658267272E+01 -0.17285417892E+02  0.22901116309E+02  0.51100000000E-03 0. -1.
        -11    1    3    3    0    0  0.27606363629E+01 -0.39767899043E+01 -0.13799794021E+01  0.50339164159E+01  0.51100000000E-03 0.  1.
        -12    1    3    3    0    0  0.30280119326E+02  0.35907083628E+01 -0.73553996141E+01  0.31366872915E+02  0.00000000000E+00 0.  1.
</event>
<event>
 7    1  0.6184948E-012  0.5930192E+02  0.7816164E-02  0.1266605E+00
        -11   -1    0    0    0    0  0.00000000000E+00  0.00000000000E+00  0.45593999997E+02  0.45594000000E+02  0.51100000000E-03 0. -1.
         11   -1    0    0    0    0 -0.00000000000E+00 -0.00000000000E+00 -0.45593999997E+02  0.45594000000E+02  0.51100000000E-03 0.  1.
    9900012    2    1    2    0    0 -0.25311224487E+01  0.21088903615E+02 -0.23781791390E+02  0.59301920934E+02  0.49999957882E+02 0.  0.
         12    1    1    2    0    0  0.25311224487E+01 -0.21088903615E+02  0.23781791390E+02  0.31886079066E+02  0.00000000000E+00 0. -1.
         11    1    3    3    0    0  0.17809480615E-01  0.49426089523E+00  0.47976499612E+01  0.48230754112E+01  0.51100000000E-03 0. -1.
        -11    1    3    3    0    0  0.25266411346E+01 -0.11825905280E+02 -0.20163418914E+01  0.12259754729E+02  0.51100000000E-03 0.  1.
         12    1    3    3    0    0 -0.50755730639E+01  0.32420548000E+02 -0.26563099459E+02  0.42219090794E+02  0.00000000000E+00 0. -1.
</event>
<event>
 7    1  0.6184948E-012  0.5930195E+02  0.7816164E-02  0.1266605E+00
        -11   -1    0    0    0    0  0.00000000000E+00  0.00000000000E+00  0.45593999997E+02  0.45594000000E+02  0.51100000000E-03 0.  1.
         11   -1    0    0    0    0 -0.00000000000E+00 -0.00000000000E+00 -0.45593999997E+02  0.45594000000E+02  0.51100000000E-03 0. -1.
    9900012    2    1    2    0    0  0.95519183631E+01  0.22138039830E+02  0.20865954314E+02  0.59301952874E+02  0.50000016133E+02 0.  0.
         12    1    1    2    0    0 -0.95519183631E+01 -0.22138039830E+02 -0.20865954314E+02  0.31886047126E+02  0.00000000000E+00 0. -1.
         11    1    3    3    0    0  0.12876671274E+02  0.36282596254E+01  0.81632172448E+01  0.15671982869E+02  0.51100000000E-03 0. -1.
        -11    1    3    3    0    0  0.10325979577E+02  0.92938890239E+01  0.21006412416E+02  0.25184749161E+02  0.51100000000E-03 0.  1.
         12    1    3    3    0    0 -0.13650732488E+02  0.92158911805E+01 -0.83036753473E+01  0.18445220844E+02  0.00000000000E+00 0. -1.
</event>
<event>
 7    1  0.6184948E-012  0.5930194E+02  0.7816164E-02  0.1266605E+00
        -11   -1    0    0    0    0  0.00000000000E+00  0.00000000000E+00  0.45593999997E+02  0.45594000000E+02  0.51100000000E-03 0. -1.
         11   -1    0    0    0    0 -0.00000000000E+00 -0.00000000000E+00 -0.45593999997E+02  0.45594000000E+02  0.51100000000E-03 0.  1.
    9900012    2    1    2    0    0 -0.18989280558E+01 -0.11145941801E+01 -0.31809940217E+02  0.59301944355E+02  0.50000000598E+02 0.  0.
         12    1    1    2    0    0  0.18989280558E+01  0.11145941801E+01  0.31809940217E+02  0.31886055645E+02  0.00000000000E+00 0. -1.
         11    1    3    3    0    0 -0.14911034193E+02  0.69016712249E+00 -0.36615647897E+02  0.39541382658E+02  0.51100000000E-03 0.  1.
        -11    1    3    3    0    0  0.82586339763E-01 -0.25340898423E+01  0.62360160911E+01  0.67317403977E+01  0.51100000000E-03 0. -1.
        -12    1    3    3    0    0  0.12929519797E+02  0.72932853976E+00 -0.14303084114E+01  0.13028821299E+02  0.00000000000E+00 0.  1.
</event>
<event>
 7    1  0.6184948E-012  0.5930193E+02  0.7816164E-02  0.1266605E+00
        -11   -1    0    0    0    0  0.00000000000E+00  0.00000000000E+00  0.45593999997E+02  0.45594000000E+02  0.51100000000E-03 0.  1.
         11   -1    0    0    0    0 -0.00000000000E+00 -0.00000000000E+00 -0.45593999997E+02  0.45594000000E+02  0.51100000000E-03 0. -1.
    9900012    2    1    2    0    0 -0.17841885190E+02 -0.25296752033E+02  0.76460957696E+01  0.59301932337E+02  0.49999978678E+02 0.  0.
         12    1    1    2    0    0  0.17841885190E+02  0.25296752033E+02 -0.76460957696E+01  0.31886067663E+02  0.00000000000E+00 0. -1.
         11    1    3    3    0    0 -0.11305919838E+01 -0.82611647900E+01 -0.11676396289E+02  0.14347937569E+02  0.51100000000E-03 0. -1.
        -11    1    3    3    0    0  0.33440631018E+01 -0.19205334234E+02  0.14268355584E+02  0.24158095794E+02  0.51100000000E-03 0.  1.
        -12    1    3    3    0    0 -0.20055356308E+02  0.21697469912E+01  0.50541364748E+01  0.20795898974E+02  0.00000000000E+00 0.  1.
</event>
<event>
 7    1  0.6184948E-012  0.5930193E+02  0.7816164E-02  0.1266605E+00
        -11   -1    0    0    0    0  0.00000000000E+00  0.00000000000E+00  0.45593999997E+02  0.45594000000E+02  0.51100000000E-03 0. -1.
         11   -1    0    0    0    0 -0.00000000000E+00 -0.00000000000E+00 -0.45593999997E+02  0.45594000000E+02  0.51100000000E-03 0.  1.
    9900012    2    1    2    0    0  0.36764492163E+01  0.24910000091E+02 -0.19562639297E+02  0.59301933456E+02  0.49999980720E+02 0.  0.
         12    1    1    2    0    0 -0.36764492163E+01 -0.24910000091E+02  0.19562639297E+02  0.31886066544E+02  0.00000000000E+00 0. -1.
         11    1    3    3    0    0  0.37026827427E+00  0.50034060838E+01 -0.76280581879E+01  0.91300845020E+01  0.51100000000E-03 0. -1.
        -11    1    3    3    0    0 -0.11841072593E+02  0.28142156089E+02 -0.12326141087E+02  0.32926064203E+02  0.51100000000E-03 0.  1.
         12    1    3    3    0    0  0.15147253535E+02 -0.82355620823E+01  0.39155997801E+00  0.17245784752E+02  0.00000000000E+00 0. -1.
</event>
<event>
 7    1  0.6184948E-012  0.5930194E+02  0.7816164E-02  0.1266605E+00
        -11   -1    0    0    0    0  0.00000000000E+00  0.00000000000E+00  0.45593999997E+02  0.45594000000E+02  0.51100000000E-03 0.  1.
         11   -1    0    0    0    0 -0.00000000000E+00 -0.00000000000E+00 -0.45593999997E+02  0.45594000000E+02  0.51100000000E-03 0. -1.
    9900012    2    1    2    0    0  0.41202066956E+01  0.20352949487E+01  0.31553161201E+02  0.59301944889E+02  0.50000001571E+02 0.  0.
         12    1    1    2    0    0 -0.41202066956E+01 -0.20352949487E+01 -0.31553161201E+02  0.31886055111E+02  0.00000000000E+00 0. -1.
         11    1    3    3    0    0 -0.11974814640E+02  0.29996697546E+01  0.10507703457E+01  0.12389444010E+02  0.51100000000E-03 0. -1.
        -11    1    3    3    0    0  0.14368384027E+02  0.75280873007E+01  0.10986132057E+01  0.16258213591E+02  0.51100000000E-03 0.  1.
        -12    1    3    3    0    0  0.17266373091E+01 -0.84924621065E+01  0.29403777650E+02  0.30654287288E+02  0.00000000000E+00 0.  1.
</event>
<event>
 7    1  0.6184948E-012  0.5930194E+02  0.7816164E-02  0.1266605E+00
        -11   -1    0    0    0    0  0.00000000000E+00  0.00000000000E+00  0.45593999997E+02  0.45594000000E+02  0.51100000000E-03 0. -1.
         11   -1    0    0    0    0 -0.00000000000E+00 -0.00000000000E+00 -0.45593999997E+02  0.45594000000E+02  0.51100000000E-03 0.  1.
    9900012    2    1    2    0    0  0.27852962928E+02  0.13690098443E+02 -0.73153744205E+01  0.59301936552E+02  0.49999986367E+02 0.  0.
         12    1    1    2    0    0 -0.27852962928E+02 -0.13690098443E+02  0.73153744205E+01  0.31886063448E+02  0.00000000000E+00 0. -1.
         11    1    3    3    0    0  0.25565872272E+02  0.23001732622E+02  0.38326114105E+01  0.34603214289E+02  0.51100000000E-03 0. -1.
        -11    1    3    3    0    0  0.74436645976E+01 -0.14671343819E+01 -0.13073742014E+02  0.15115665928E+02  0.51100000000E-03 0.  1.
        -12    1    3    3    0    0 -0.51565739408E+01 -0.78444997966E+01  0.19257561826E+01  0.95830563361E+01  0.00000000000E+00 0.  1.
</event>
<event>
 7    1  0.6184948E-012  0.5930196E+02  0.7816164E-02  0.1266605E+00
        -11   -1    0    0    0    0  0.00000000000E+00  0.00000000000E+00  0.45593999997E+02  0.45594000000E+02  0.51100000000E-03 0.  1.
         11   -1    0    0    0    0 -0.00000000000E+00 -0.00000000000E+00 -0.45593999997E+02  0.45594000000E+02  0.51100000000E-03 0. -1.
    9900012    2    1    2    0    0  0.10883574383E+00  0.29347435142E+02  0.12467396478E+02  0.59301956508E+02  0.50000022761E+02 0.  0.
         12    1    1    2    0    0 -0.10883574383E+00 -0.29347435142E+02 -0.12467396478E+02  0.31886043492E+02  0.00000000000E+00 0. -1.
         11    1    3    3    0    0 -0.13153530981E+02  0.16405747224E+02  0.89143566882E+01  0.22839213530E+02  0.51100000000E-03 0. -1.
        -11    1    3    3    0    0 -0.97026805038E+01  0.48818214247E+01 -0.29797307361E+01  0.11262903041E+02  0.51100000000E-03 0.  1.
         12    1    3    3    0    0  0.22965047229E+02  0.80598664930E+01  0.65327705262E+01  0.25199839937E+02  0.00000000000E+00 0. -1.
</event>
<event>
 7    1  0.6184948E-012  0.5930194E+02  0.7816164E-02  0.1266605E+00
        -11   -1    0    0    0    0  0.00000000000E+00  0.00000000000E+00  0.45593999997E+02  0.45594000000E+02  0.51100000000E-03 0.  1.
         11   -1    0    0    0    0 -0.00000000000E+00 -0.00000000000E+00 -0.45593999997E+02  0.45594000000E+02  0.51100000000E-03 0. -1.
    9900012    2    1    2    0    0 -0.87548531279E+01  0.20620237462E+02  0.22690955703E+02  0.59301935379E+02  0.49999984227E+02 0.  0.
         12    1    1    2    0    0  0.87548531279E+01 -0.20620237462E+02 -0.22690955703E+02  0.31886064621E+02  0.00000000000E+00 0. -1.
         11    1    3    3    0    0  0.10476028399E+02 -0.14416036032E+01 -0.91922768266E+00  0.10614630081E+02  0.51100000000E-03 0. -1.
        -11    1    3    3    0    0  0.73144740361E+00  0.16670335963E+02  0.22456832494E+02  0.27977570344E+02  0.51100000000E-03 0.  1.
        -12    1    3    3    0    0 -0.19962328930E+02  0.53915051019E+01  0.11533508921E+01  0.20709734954E+02  0.00000000000E+00 0.  1.
</event>
<event>
 7    1  0.6184948E-012  0.5930195E+02  0.7816164E-02  0.1266605E+00
        -11   -1    0    0    0    0  0.00000000000E+00  0.00000000000E+00  0.45593999997E+02  0.45594000000E+02  0.51100000000E-03 0.  1.
         11   -1    0    0    0    0 -0.00000000000E+00 -0.00000000000E+00 -0.45593999997E+02  0.45594000000E+02  0.51100000000E-03 0. -1.
    9900012    2    1    2    0    0 -0.11773093688E+01  0.31401634426E+02  0.54103119599E+01  0.59301950111E+02  0.50000011095E+02 0.  0.
         12    1    1    2    0    0  0.11773093688E+01 -0.31401634426E+02 -0.54103119599E+01  0.31886049889E+02  0.00000000000E+00 0. -1.
         11    1    3    3    0    0  0.37882165345E+01  0.24335855940E+02 -0.68777461360E+01  0.25571231120E+02  0.51100000000E-03 0. -1.
        -11    1    3    3    0    0  0.12576705339E+02  0.39757275403E+01  0.79393975062E+01  0.15395257701E+02  0.51100000000E-03 0.  1.
        -12    1    3    3    0    0 -0.17542231242E+02  0.30900509464E+01  0.43486605897E+01  0.18335461290E+02  0.00000000000E+00 0.  1.
</event>
<event>
 7    1  0.6184948E-012  0.5930193E+02  0.7816164E-02  0.1266605E+00
        -11   -1    0    0    0    0  0.00000000000E+00  0.00000000000E+00  0.45593999997E+02  0.45594000000E+02  0.51100000000E-03 0.  1.
         11   -1    0    0    0    0 -0.00000000000E+00 -0.00000000000E+00 -0.45593999997E+02  0.45594000000E+02  0.51100000000E-03 0. -1.
    9900012    2    1    2    0    0  0.18858985872E+02  0.18449906975E+02  0.17907006235E+02  0.59301932701E+02  0.49999979343E+02 0.  0.
         12    1    1    2    0    0 -0.18858985872E+02 -0.18449906975E+02 -0.17907006235E+02  0.31886067299E+02  0.00000000000E+00 0. -1.
         11    1    3    3    0    0 -0.84555290298E+01 -0.65460454692E+01  0.24678948439E+01  0.10974387804E+02  0.51100000000E-03 0. -1.
        -11    1    3    3    0    0 -0.14607063344E+01  0.26203121140E+01 -0.55184184241E+01  0.62811337141E+01  0.51100000000E-03 0.  1.
        -12    1    3    3    0    0  0.28775221237E+02  0.22375640330E+02  0.20957529815E+02  0.42046411182E+02  0.00000000000E+00 0.  1.
</event>
<event>
 7    1  0.6184948E-012  0.5930196E+02  0.7816164E-02  0.1266605E+00
        -11   -1    0    0    0    0  0.00000000000E+00  0.00000000000E+00  0.45593999997E+02  0.45594000000E+02  0.51100000000E-03 0.  1.
         11   -1    0    0    0    0 -0.00000000000E+00 -0.00000000000E+00 -0.45593999997E+02  0.45594000000E+02  0.51100000000E-03 0. -1.
    9900012    2    1    2    0    0  0.18182722818E+02 -0.46132788462E+01  0.25784221409E+02  0.59301955647E+02  0.50000021191E+02 0.  0.
         12    1    1    2    0    0 -0.18182722818E+02  0.46132788462E+01 -0.25784221409E+02  0.31886044353E+02  0.00000000000E+00 0. -1.
         11    1    3    3    0    0  0.23343694000E+01  0.46006923458E+00  0.11487225827E+01  0.26420651070E+01  0.51100000000E-03 0. -1.
        -11    1    3    3    0    0 -0.12477114259E+02  0.51132415720E+01  0.22816961318E+02  0.26503534551E+02  0.51100000000E-03 0.  1.
         12    1    3    3    0    0  0.28325467677E+02 -0.10186589653E+02  0.18185375083E+01  0.30156355989E+02  0.00000000000E+00 0. -1.
</event>
<event>
 7    1  0.6184948E-012  0.5930194E+02  0.7816164E-02  0.1266605E+00
        -11   -1    0    0    0    0  0.00000000000E+00  0.00000000000E+00  0.45593999997E+02  0.45594000000E+02  0.51100000000E-03 0. -1.
         11   -1    0    0    0    0 -0.00000000000E+00 -0.00000000000E+00 -0.45593999997E+02  0.45594000000E+02  0.51100000000E-03 0.  1.
    9900012    2    1    2    0    0  0.18300694620E+02  0.26083514366E+02 -0.12065470095E+01  0.59301938767E+02  0.49999990406E+02 0.  0.
         12    1    1    2    0    0 -0.18300694620E+02 -0.26083514366E+02  0.12065470095E+01  0.31886061233E+02  0.00000000000E+00 0. -1.
         11    1    3    3    0    0  0.15037117702E+02 -0.46414811039E+00 -0.14869256555E+01  0.15117582162E+02  0.51100000000E-03 0. -1.
        -11    1    3    3    0    0  0.18344484965E+02  0.73302531023E+01  0.39731812731E-01  0.19754855556E+02  0.51100000000E-03 0.  1.
        -12    1    3    3    0    0 -0.15080908047E+02  0.19217409374E+02  0.24064683333E+00  0.24429501049E+02  0.00000000000E+00 0.  1.
</event>
<event>
 7    1  0.6184948E-012  0.5930194E+02  0.7816164E-02  0.1266605E+00
        -11   -1    0    0    0    0  0.00000000000E+00  0.00000000000E+00  0.45593999997E+02  0.45594000000E+02  0.51100000000E-03 0.  1.
         11   -1    0    0    0    0 -0.00000000000E+00 -0.00000000000E+00 -0.45593999997E+02  0.45594000000E+02  0.51100000000E-03 0. -1.
    9900012    2    1    2    0    0 -0.23984302246E+00 -0.31809933820E+02 -0.21888821885E+01  0.59301943180E+02  0.49999998454E+02 0.  0.
         12    1    1    2    0    0  0.23984302246E+00  0.31809933820E+02  0.21888821885E+01  0.31886056820E+02  0.00000000000E+00 0. -1.
         11    1    3    3    0    0 -0.10029778405E+02  0.26523220390E+01 -0.44963724881E+01  0.11307016975E+02  0.51100000000E-03 0. -1.
        -11    1    3    3    0    0 -0.41768999584E+01 -0.21225474796E+02  0.13725623328E+02  0.25619523992E+02  0.51100000000E-03 0.  1.
         12    1    3    3    0    0  0.13966835341E+02 -0.13236781063E+02 -0.11418133028E+02  0.22375402213E+02  0.00000000000E+00 0. -1.
</event>
<event>
 7    1  0.6184948E-012  0.5930194E+02  0.7816164E-02  0.1266605E+00
        -11   -1    0    0    0    0  0.00000000000E+00  0.00000000000E+00  0.45593999997E+02  0.45594000000E+02  0.51100000000E-03 0.  1.
         11   -1    0    0    0    0 -0.00000000000E+00 -0.00000000000E+00 -0.45593999997E+02  0.45594000000E+02  0.51100000000E-03 0. -1.
    9900012    2    1    2    0    0  0.52144441951E+01 -0.31446837815E+02 -0.79164778028E+00  0.59301941243E+02  0.49999994922E+02 0.  0.
         12    1    1    2    0    0 -0.52144441951E+01  0.31446837815E+02  0.79164778028E+00  0.31886058757E+02  0.00000000000E+00 0. -1.
         11    1    3    3    0    0  0.16225127469E+01  0.65367242229E+01  0.16678640700E+01  0.69385216003E+01  0.51100000000E-03 0. -1.
        -11    1    3    3    0    0 -0.43478070485E+01 -0.12503869474E+02  0.15356589333E+02  0.20274984936E+02  0.51100000000E-03 0.  1.
        -12    1    3    3    0    0  0.79397384968E+01 -0.25479692564E+02 -0.17816101183E+02  0.32088434707E+02  0.00000000000E+00 0.  1.
</event>
<event>
 7    1  0.6184948E-012  0.5930194E+02  0.7816164E-02  0.1266605E+00
        -11   -1    0    0    0    0  0.00000000000E+00  0.00000000000E+00  0.45593999997E+02  0.45594000000E+02  0.51100000000E-03 0. -1.
         11   -1    0    0    0    0 -0.00000000000E+00 -0.00000000000E+00 -0.45593999997E+02  0.45594000000E+02  0.51100000000E-03 0.  1.
    9900012    2    1    2    0    0 -0.15149662215E+02  0.25759755335E+02 -0.11119507698E+02  0.59301941736E+02  0.49999995821E+02 0.  0.
         12    1    1    2    0    0  0.15149662215E+02 -0.25759755335E+02  0.11119507698E+02  0.31886058264E+02  0.00000000000E+00 0. -1.
         11    1    3    3    0    0 -0.11550586655E+02  0.12990111477E+02 -0.18030881101E+02  0.25045393225E+02  0.51100000000E-03 0. -1.
        -11    1    3    3    0    0  0.21032284589E+00 -0.87927138976E+00 -0.11213391341E+02  0.11249777753E+02  0.51100000000E-03 0.  1.
         12    1    3    3    0    0 -0.38093984055E+01  0.13648915249E+02  0.18124764744E+02  0.23006770758E+02  0.00000000000E+00 0. -1.
</event>
<event>
 7    1  0.6184948E-012  0.5930193E+02  0.7816164E-02  0.1266605E+00
        -11   -1    0    0    0    0  0.00000000000E+00  0.00000000000E+00  0.45593999997E+02  0.45594000000E+02  0.51100000000E-03 0. -1.
         11   -1    0    0    0    0 -0.00000000000E+00 -0.00000000000E+00 -0.45593999997E+02  0.45594000000E+02  0.51100000000E-03 0.  1.
    9900012    2    1    2    0    0 -0.84541041045E+01  0.48508767351E+01 -0.30359815951E+02  0.59301932417E+02  0.49999978825E+02 0.  0.
         12    1    1    2    0    0  0.84541041045E+01 -0.48508767351E+01  0.30359815951E+02  0.31886067583E+02  0.00000000000E+00 0. -1.
         11    1    3    3    0    0 -0.16193462102E+01 -0.85779276969E+01  0.21543358379E+01  0.89913452211E+01  0.51100000000E-03 0. -1.
        -11    1    3    3    0    0 -0.10944140555E+02 -0.91598394682E+01 -0.18671207770E+02  0.23500869588E+02  0.51100000000E-03 0.  1.
         12    1    3    3    0    0  0.41093826603E+01  0.22588643900E+02 -0.13842944019E+02  0.26809717608E+02  0.00000000000E+00 0. -1.
</event>
<event>
 7    1  0.6184948E-012  0.5930192E+02  0.7816164E-02  0.1266605E+00
        -11   -1    0    0    0    0  0.00000000000E+00  0.00000000000E+00  0.45593999997E+02  0.45594000000E+02  0.51100000000E-03 0.  1.
         11   -1    0    0    0    0 -0.00000000000E+00 -0.00000000000E+00 -0.45593999997E+02  0.45594000000E+02  0.51100000000E-03 0. -1.
    9900012    2    1    2    0    0 -0.16349163608E+02 -0.16101735539E+02  0.22139587707E+02  0.59301915544E+02  0.49999948053E+02 0.  0.
         12    1    1    2    0    0  0.16349163608E+02  0.16101735539E+02 -0.22139587707E+02  0.31886084456E+02  0.00000000000E+00 0. -1.
         11    1    3    3    0    0  0.72022091840E+01 -0.99868155866E+01  0.51672443982E+01  0.13353228734E+02  0.51100000000E-03 0.  1.
        -11    1    3    3    0    0 -0.21495315744E+02 -0.19163141159E+02  0.15371324017E+02  0.32642796760E+02  0.51100000000E-03 0. -1.
         12    1    3    3    0    0 -0.20560570479E+01  0.13048221207E+02  0.16010192918E+01  0.13305890050E+02  0.00000000000E+00 0. -1.
</event>
<event>
 7    1  0.6184948E-012  0.5930181E+02  0.7816164E-02  0.1266605E+00
        -11   -1    0    0    0    0  0.00000000000E+00  0.00000000000E+00  0.45593999997E+02  0.45594000000E+02  0.51100000000E-03 0. -1.
         11   -1    0    0    0    0 -0.00000000000E+00 -0.00000000000E+00 -0.45593999997E+02  0.45594000000E+02  0.51100000000E-03 0.  1.
    9900012    2    1    2    0    0 -0.32277491612E+01  0.24489369597E+02 -0.20163862598E+02  0.59301812665E+02  0.49999760425E+02 0.  0.
         12    1    1    2    0    0  0.32277491612E+01 -0.24489369597E+02  0.20163862598E+02  0.31886187335E+02  0.00000000000E+00 0. -1.
         11    1    3    3    0    0 -0.26893650210E+01 -0.83968338002E+01 -0.13162207739E+02  0.15842449776E+02  0.51100000000E-03 0. -1.
        -11    1    3    3    0    0  0.27484560244E+01  0.13959119075E+01 -0.11112597219E+02  0.11532232992E+02  0.51100000000E-03 0.  1.
         12    1    3    3    0    0 -0.32868401645E+01  0.31490291489E+02  0.41109423598E+01  0.31927129897E+02  0.00000000000E+00 0. -1.
</event>
<event>
 7    1  0.6184948E-012  0.5930195E+02  0.7816164E-02  0.1266605E+00
        -11   -1    0    0    0    0  0.00000000000E+00  0.00000000000E+00  0.45593999997E+02  0.45594000000E+02  0.51100000000E-03 0. -1.
         11   -1    0    0    0    0 -0.00000000000E+00 -0.00000000000E+00 -0.45593999997E+02  0.45594000000E+02  0.51100000000E-03 0.  1.
    9900012    2    1    2    0    0 -0.18622981018E+02  0.64445289114E+00 -0.25874495624E+02  0.59301948735E+02  0.50000008585E+02 0.  0.
         12    1    1    2    0    0  0.18622981018E+02 -0.64445289114E+00  0.25874495624E+02  0.31886051265E+02  0.00000000000E+00 0. -1.
         11    1    3    3    0    0 -0.14441403559E+01  0.33556856475E-01  0.64252138056E+01  0.65855933779E+01  0.51100000000E-03 0. -1.
        -11    1    3    3    0    0 -0.18630292088E+02  0.15313898416E+02 -0.10318238389E+02  0.26231075306E+02  0.51100000000E-03 0.  1.
         12    1    3    3    0    0  0.14514514263E+01 -0.14703002382E+02 -0.21981471040E+02  0.26485280051E+02  0.00000000000E+00 0. -1.
</event>
<event>
 7    1  0.6184948E-012  0.5930192E+02  0.7816164E-02  0.1266605E+00
        -11   -1    0    0    0    0  0.00000000000E+00  0.00000000000E+00  0.45593999997E+02  0.45594000000E+02  0.51100000000E-03 0. -1.
         11   -1    0    0    0    0 -0.00000000000E+00 -0.00000000000E+00 -0.45593999997E+02  0.45594000000E+02  0.51100000000E-03 0.  1.
    9900012    2    1    2    0    0  0.55241010609E+01 -0.14596313071E+02 -0.27805644359E+02  0.59301923006E+02  0.49999961662E+02 0.  0.
         12    1    1    2    0    0 -0.55241010609E+01  0.14596313071E+02  0.27805644359E+02  0.31886076994E+02  0.00000000000E+00 0. -1.
         11    1    3    3    0    0  0.88952224973E+01 -0.54152508296E+01  0.70909553391E+01  0.12598871882E+02  0.51100000000E-03 0. -1.
        -11    1    3    3    0    0  0.96321159856E+01  0.43822037509E+01 -0.58011218979E+01  0.12067907176E+02  0.51100000000E-03 0.  1.
        -12    1    3    3    0    0 -0.13003237422E+02 -0.13563265993E+02 -0.29095477801E+02  0.34635143948E+02  0.00000000000E+00 0.  1.
</event>
<event>
 7    1  0.6184948E-012  0.5930195E+02  0.7816164E-02  0.1266605E+00
        -11   -1    0    0    0    0  0.00000000000E+00  0.00000000000E+00  0.45593999997E+02  0.45594000000E+02  0.51100000000E-03 0. -1.
         11   -1    0    0    0    0 -0.00000000000E+00 -0.00000000000E+00 -0.45593999997E+02  0.45594000000E+02  0.51100000000E-03 0.  1.
    9900012    2    1    2    0    0  0.63923711790E+00 -0.31703204397E+02 -0.33493425025E+01  0.59301954646E+02  0.50000019365E+02 0.  0.
         12    1    1    2    0    0 -0.63923711790E+00  0.31703204397E+02  0.33493425025E+01  0.31886045354E+02  0.00000000000E+00 0. -1.
         11    1    3    3    0    0 -0.61026675628E+01 -0.17730424554E+02  0.11829091002E+02  0.22170654037E+02  0.51100000000E-03 0. -1.
        -11    1    3    3    0    0 -0.37709312843E+00  0.87663483936E+01 -0.88835839311E+01  0.12486357640E+02  0.51100000000E-03 0.  1.
         12    1    3    3    0    0  0.71189978091E+01 -0.22739128237E+02 -0.62948495736E+01  0.24644942969E+02  0.00000000000E+00 0. -1.
</event>
<event>
 7    1  0.6184948E-012  0.5930194E+02  0.7816164E-02  0.1266605E+00
        -11   -1    0    0    0    0  0.00000000000E+00  0.00000000000E+00  0.45593999997E+02  0.45594000000E+02  0.51100000000E-03 0.  1.
         11   -1    0    0    0    0 -0.00000000000E+00 -0.00000000000E+00 -0.45593999997E+02  0.45594000000E+02  0.51100000000E-03 0. -1.
    9900012    2    1    2    0    0  0.96674623021E+01 -0.29834839026E+02  0.57570225373E+01  0.59301941047E+02  0.49999994564E+02 0.  0.
         12    1    1    2    0    0 -0.96674623021E+01  0.29834839026E+02 -0.57570225373E+01  0.31886058953E+02  0.00000000000E+00 0. -1.
         11    1    3    3    0    0  0.17443170552E+01  0.23729374149E+01 -0.27901701943E+01  0.40569106397E+01  0.51100000000E-03 0. -1.
        -11    1    3    3    0    0 -0.11487516985E+02  0.49727883083E+01  0.35149255717E+01  0.13001783419E+02  0.51100000000E-03 0.  1.
        -12    1    3    3    0    0  0.19410662232E+02 -0.37180564749E+02  0.50322671599E+01  0.42243246988E+02  0.00000000000E+00 0.  1.
</event>
<event>
 7    1  0.6184948E-012  0.5930195E+02  0.7816164E-02  0.1266605E+00
        -11   -1    0    0    0    0  0.00000000000E+00  0.00000000000E+00  0.45593999997E+02  0.45594000000E+02  0.51100000000E-03 0.  1.
         11   -1    0    0    0    0 -0.00000000000E+00 -0.00000000000E+00 -0.45593999997E+02  0.45594000000E+02  0.51100000000E-03 0. -1.
    9900012    2    1    2    0    0  0.57879156470E+01 -0.31353538009E+02  0.41964229853E+00  0.59301946421E+02  0.50000004364E+02 0.  0.
         12    1    1    2    0    0 -0.57879156470E+01  0.31353538009E+02 -0.41964229853E+00  0.31886053579E+02  0.00000000000E+00 0. -1.
         11    1    3    3    0    0  0.11248926049E+02 -0.89724927656E+01 -0.60165963499E+01  0.15596262231E+02  0.51100000000E-03 0. -1.
        -11    1    3    3    0    0 -0.14864132181E+02 -0.26742970056E+02 -0.15271575315E+01  0.30634312189E+02  0.51100000000E-03 0.  1.
         12    1    3    3    0    0  0.94031217786E+01  0.43619248129E+01  0.79633961799E+01  0.13071372000E+02  0.00000000000E+00 0. -1.
</event>
<event>
 7    1  0.6184948E-012  0.5930192E+02  0.7816164E-02  0.1266605E+00
        -11   -1    0    0    0    0  0.00000000000E+00  0.00000000000E+00  0.45593999997E+02  0.45594000000E+02  0.51100000000E-03 0.  1.
         11   -1    0    0    0    0 -0.00000000000E+00 -0.00000000000E+00 -0.45593999997E+02  0.45594000000E+02  0.51100000000E-03 0. -1.
    9900012    2    1    2    0    0  0.14241193699E+02 -0.24716347912E+02  0.14248240612E+02  0.59301924471E+02  0.49999964333E+02 0.  0.
         12    1    1    2    0    0 -0.14241193699E+02  0.24716347912E+02 -0.14248240612E+02  0.31886075529E+02  0.00000000000E+00 0. -1.
         11    1    3    3    0    0  0.10989365997E+02  0.97776796194E+01  0.12834951105E+02  0.19521914708E+02  0.51100000000E-03 0. -1.
        -11    1    3    3    0    0 -0.78980112043E+01 -0.15728489905E+02  0.31624508766E+01  0.17881976162E+02  0.51100000000E-03 0.  1.
        -12    1    3    3    0    0  0.11149838906E+02 -0.18765537627E+02 -0.17491613689E+01  0.21898033600E+02  0.00000000000E+00 0.  1.
</event>
<event>
 7    1  0.6184948E-012  0.5930194E+02  0.7816164E-02  0.1266605E+00
        -11   -1    0    0    0    0  0.00000000000E+00  0.00000000000E+00  0.45593999997E+02  0.45594000000E+02  0.51100000000E-03 0.  1.
         11   -1    0    0    0    0 -0.00000000000E+00 -0.00000000000E+00 -0.45593999997E+02  0.45594000000E+02  0.51100000000E-03 0. -1.
    9900012    2    1    2    0    0 -0.24529609629E+02  0.17111282213E+02  0.11055468707E+02  0.59301935397E+02  0.49999984260E+02 0.  0.
         12    1    1    2    0    0  0.24529609629E+02 -0.17111282213E+02 -0.11055468707E+02  0.31886064603E+02  0.00000000000E+00 0. -1.
         11    1    3    3    0    0 -0.14186699709E+02  0.16376791720E+02 -0.42362665617E+01  0.22077312117E+02  0.51100000000E-03 0. -1.
        -11    1    3    3    0    0 -0.18064480750E+02  0.10931181695E+02  0.10325626284E+02  0.23503930659E+02  0.51100000000E-03 0.  1.
         12    1    3    3    0    0  0.77215708302E+01 -0.10196691202E+02  0.49661089846E+01  0.13720692621E+02  0.00000000000E+00 0. -1.
</event>
<event>
 7    1  0.6184948E-012  0.5930191E+02  0.7816164E-02  0.1266605E+00
        -11   -1    0    0    0    0  0.00000000000E+00  0.00000000000E+00  0.45593999997E+02  0.45594000000E+02  0.51100000000E-03 0.  1.
         11   -1    0    0    0    0 -0.00000000000E+00 -0.00000000000E+00 -0.45593999997E+02  0.45594000000E+02  0.51100000000E-03 0. -1.
    9900012    2    1    2    0    0 -0.21096374079E+02  0.98815205390E+01  0.21772027347E+02  0.59301911776E+02  0.49999941181E+02 0.  0.
         12    1    1    2    0    0  0.21096374079E+02 -0.98815205390E+01 -0.21772027347E+02  0.31886088224E+02  0.00000000000E+00 0. -1.
         11    1    3    3    0    0 -0.59375425492E+01  0.18159246547E+02  0.25036335582E+02  0.31493344477E+02  0.51100000000E-03 0. -1.
        -11    1    3    3    0    0 -0.11335154127E+01  0.82386615484E+00  0.76921584565E+01  0.78187540320E+01  0.51100000000E-03 0.  1.
        -12    1    3    3    0    0 -0.14025316117E+02 -0.91015921632E+01 -0.10956466692E+02  0.19989813267E+02  0.00000000000E+00 0.  1.
</event>
<event>
 7    1  0.6184948E-012  0.5930194E+02  0.7816164E-02  0.1266605E+00
        -11   -1    0    0    0    0  0.00000000000E+00  0.00000000000E+00  0.45593999997E+02  0.45594000000E+02  0.51100000000E-03 0. -1.
         11   -1    0    0    0    0 -0.00000000000E+00 -0.00000000000E+00 -0.45593999997E+02  0.45594000000E+02  0.51100000000E-03 0.  1.
    9900012    2    1    2    0    0 -0.22876841289E+01 -0.31190191180E+02  0.62176855081E+01  0.59301935057E+02  0.49999983639E+02 0.  0.
         12    1    1    2    0    0  0.22876841289E+01  0.31190191180E+02 -0.62176855081E+01  0.31886064943E+02  0.00000000000E+00 0. -1.
         11    1    3    3    0    0 -0.78701721044E+00 -0.33649000590E+02  0.35727613153E+00  0.33660099277E+02  0.51100000000E-03 0. -1.
        -11    1    3    3    0    0  0.14715126301E+01 -0.77110286516E+01 -0.58943350184E+01  0.98167457875E+01  0.51100000000E-03 0.  1.
         12    1    3    3    0    0 -0.29721795486E+01  0.10169838062E+02  0.11754744395E+02  0.15825089993E+02  0.00000000000E+00 0. -1.
</event>
<event>
 7    1  0.6184948E-012  0.5930194E+02  0.7816164E-02  0.1266605E+00
        -11   -1    0    0    0    0  0.00000000000E+00  0.00000000000E+00  0.45593999997E+02  0.45594000000E+02  0.51100000000E-03 0. -1.
         11   -1    0    0    0    0 -0.00000000000E+00 -0.00000000000E+00 -0.45593999997E+02  0.45594000000E+02  0.51100000000E-03 0.  1.
    9900012    2    1    2    0    0  0.29235950846E+02 -0.95893767990E+01 -0.83680192111E+01  0.59301941687E+02  0.49999995731E+02 0.  0.
         12    1    1    2    0    0 -0.29235950846E+02  0.95893767990E+01  0.83680192111E+01  0.31886058313E+02  0.00000000000E+00 0. -1.
         11    1    3    3    0    0  0.46812721051E+01 -0.47871068223E+01 -0.69728663718E+01  0.96670350134E+01  0.51100000000E-03 0. -1.
        -11    1    3    3    0    0  0.17781858995E+02  0.17517557223E+02 -0.64231731128E+01  0.25774337498E+02  0.51100000000E-03 0.  1.
         12    1    3    3    0    0  0.67728197459E+01 -0.22319827199E+02  0.50280202735E+01  0.23860569176E+02  0.00000000000E+00 0. -1.
</event>
<event>
 7    1  0.6184948E-012  0.5930194E+02  0.7816164E-02  0.1266605E+00
        -11   -1    0    0    0    0  0.00000000000E+00  0.00000000000E+00  0.45593999997E+02  0.45594000000E+02  0.51100000000E-03 0.  1.
         11   -1    0    0    0    0 -0.00000000000E+00 -0.00000000000E+00 -0.45593999997E+02  0.45594000000E+02  0.51100000000E-03 0. -1.
    9900012    2    1    2    0    0 -0.17693422379E+02  0.25748034280E+02  0.63798542386E+01  0.59301937138E+02  0.49999987434E+02 0.  0.
         12    1    1    2    0    0  0.17693422379E+02 -0.25748034280E+02 -0.63798542386E+01  0.31886062862E+02  0.00000000000E+00 0. -1.
         11    1    3    3    0    0 -0.12646073862E+02 -0.58059162479E+01  0.76112998327E+01  0.15860760795E+02  0.51100000000E-03 0.  1.
        -11    1    3    3    0    0  0.12009817938E+02  0.10018605328E+02 -0.29484137607E+01  0.15915442928E+02  0.51100000000E-03 0. -1.
        -12    1    3    3    0    0 -0.17057166455E+02  0.21535345200E+02  0.17169681667E+01  0.27525733415E+02  0.00000000000E+00 0.  1.
</event>
<event>
 7    1  0.6184948E-012  0.5930190E+02  0.7816164E-02  0.1266605E+00
        -11   -1    0    0    0    0  0.00000000000E+00  0.00000000000E+00  0.45593999997E+02  0.45594000000E+02  0.51100000000E-03 0.  1.
         11   -1    0    0    0    0 -0.00000000000E+00 -0.00000000000E+00 -0.45593999997E+02  0.45594000000E+02  0.51100000000E-03 0. -1.
    9900012    2    1    2    0    0 -0.14850813611E+01  0.15743662198E+02  0.27688533615E+02  0.59301901778E+02  0.49999922947E+02 0.  0.
         12    1    1    2    0    0  0.14850813611E+01 -0.15743662198E+02 -0.27688533615E+02  0.31886098222E+02  0.00000000000E+00 0. -1.
         11    1    3    3    0    0 -0.53359454144E+01  0.10916702512E+02  0.12265296751E+02  0.17265115460E+02  0.51100000000E-03 0. -1.
        -11    1    3    3    0    0 -0.14007536229E+02 -0.40636890031E+01  0.16545382706E+02  0.22056163054E+02  0.51100000000E-03 0.  1.
         12    1    3    3    0    0  0.17858400282E+02  0.88906486895E+01 -0.11221458416E+01  0.19980623265E+02  0.00000000000E+00 0. -1.
</event>
<event>
 7    1  0.6184948E-012  0.5930194E+02  0.7816164E-02  0.1266605E+00
        -11   -1    0    0    0    0  0.00000000000E+00  0.00000000000E+00  0.45593999997E+02  0.45594000000E+02  0.51100000000E-03 0. -1.
         11   -1    0    0    0    0 -0.00000000000E+00 -0.00000000000E+00 -0.45593999997E+02  0.45594000000E+02  0.51100000000E-03 0.  1.
    9900012    2    1    2    0    0  0.83100087382E+01 -0.38328490850E+01 -0.30544620636E+02  0.59301939925E+02  0.49999992517E+02 0.  0.
         12    1    1    2    0    0 -0.83100087382E+01  0.38328490850E+01  0.30544620636E+02  0.31886060075E+02  0.00000000000E+00 0. -1.
         11    1    3    3    0    0 -0.15159367074E+01 -0.53128969178E+01  0.53119238197E+01  0.76642985777E+01  0.51100000000E-03 0. -1.
        -11    1    3    3    0    0 -0.92005245412E+01 -0.89333098272E+01 -0.46649837837E+01  0.13646089193E+02  0.51100000000E-03 0.  1.
        -12    1    3    3    0    0  0.19026469987E+02  0.10413357660E+02 -0.31191560672E+02  0.37991552154E+02  0.00000000000E+00 0.  1.
</event>
<event>
 7    1  0.6184948E-012  0.5930194E+02  0.7816164E-02  0.1266605E+00
        -11   -1    0    0    0    0  0.00000000000E+00  0.00000000000E+00  0.45593999997E+02  0.45594000000E+02  0.51100000000E-03 0. -1.
         11   -1    0    0    0    0 -0.00000000000E+00 -0.00000000000E+00 -0.45593999997E+02  0.45594000000E+02  0.51100000000E-03 0.  1.
    9900012    2    1    2    0    0 -0.31192213623E+02 -0.57253549474E+01 -0.33146262712E+01  0.59301943059E+02  0.49999998233E+02 0.  0.
         12    1    1    2    0    0  0.31192213623E+02  0.57253549474E+01  0.33146262712E+01  0.31886056941E+02  0.00000000000E+00 0. -1.
         11    1    3    3    0    0 -0.52916700990E+01  0.12742778722E+02 -0.18768743437E+01  0.13924899983E+02  0.51100000000E-03 0. -1.
        -11    1    3    3    0    0 -0.11018079056E+02 -0.18669784137E+00 -0.14666970089E+02  0.18345379092E+02  0.51100000000E-03 0.  1.
         12    1    3    3    0    0 -0.14882464468E+02 -0.18281435828E+02  0.13229218162E+02  0.27031663984E+02  0.00000000000E+00 0. -1.
</event>
<event>
 7    1  0.6184948E-012  0.5930193E+02  0.7816164E-02  0.1266605E+00
        -11   -1    0    0    0    0  0.00000000000E+00  0.00000000000E+00  0.45593999997E+02  0.45594000000E+02  0.51100000000E-03 0.  1.
         11   -1    0    0    0    0 -0.00000000000E+00 -0.00000000000E+00 -0.45593999997E+02  0.45594000000E+02  0.51100000000E-03 0. -1.
    9900012    2    1    2    0    0  0.57890448609E+01 -0.12538733927E+02  0.28740012125E+02  0.59301934300E+02  0.49999982259E+02 0.  0.
         12    1    1    2    0    0 -0.57890448609E+01  0.12538733927E+02 -0.28740012125E+02  0.31886065700E+02  0.00000000000E+00 0. -1.
         11    1    3    3    0    0  0.17843062315E+01  0.60695505409E+01 -0.30604704747E+01  0.70277786166E+01  0.51100000000E-03 0. -1.
        -11    1    3    3    0    0 -0.16130909547E+02 -0.45636541741E+01  0.10574524990E+02  0.19820538874E+02  0.51100000000E-03 0.  1.
        -12    1    3    3    0    0  0.20135648176E+02 -0.14044630294E+02  0.21225957609E+02  0.32453616809E+02  0.00000000000E+00 0.  1.
</event>
<event>
 7    1  0.6184948E-012  0.5930196E+02  0.7816164E-02  0.1266605E+00
        -11   -1    0    0    0    0  0.00000000000E+00  0.00000000000E+00  0.45593999997E+02  0.45594000000E+02  0.51100000000E-03 0.  1.
         11   -1    0    0    0    0 -0.00000000000E+00 -0.00000000000E+00 -0.45593999997E+02  0.45594000000E+02  0.51100000000E-03 0. -1.
    9900012    2    1    2    0    0  0.96750917096E+01 -0.11900114267E+02  0.27955312300E+02  0.59301959089E+02  0.50000027469E+02 0.  0.
         12    1    1    2    0    0 -0.96750917096E+01  0.11900114267E+02 -0.27955312300E+02  0.31886040911E+02  0.00000000000E+00 0. -1.
         11    1    3    3    0    0  0.17415670436E+02 -0.37678797881E+01  0.10482390307E+01  0.17849406157E+02  0.51100000000E-03 0. -1.
        -11    1    3    3    0    0  0.10099572393E+02 -0.87769264040E+01  0.87374803312E+01  0.15980593307E+02  0.51100000000E-03 0.  1.
        -12    1    3    3    0    0 -0.17840151119E+02  0.64469192556E+00  0.18169592939E+02  0.25471959626E+02  0.00000000000E+00 0.  1.
</event>
<event>
 7    1  0.6184948E-012  0.5930196E+02  0.7816164E-02  0.1266605E+00
        -11   -1    0    0    0    0  0.00000000000E+00  0.00000000000E+00  0.45593999997E+02  0.45594000000E+02  0.51100000000E-03 0. -1.
         11   -1    0    0    0    0 -0.00000000000E+00 -0.00000000000E+00 -0.45593999997E+02  0.45594000000E+02  0.51100000000E-03 0.  1.
    9900012    2    1    2    0    0 -0.22498260441E+02 -0.11950899505E+02 -0.19176123348E+02  0.59301961857E+02  0.50000032516E+02 0.  0.
         12    1    1    2    0    0  0.22498260441E+02  0.11950899505E+02  0.19176123348E+02  0.31886038143E+02  0.00000000000E+00 0. -1.
         11    1    3    3    0    0 -0.90450786366E+01 -0.16020776122E+02 -0.53856967427E+01  0.19169883796E+02  0.51100000000E-03 0. -1.
        -11    1    3    3    0    0 -0.19675067677E+02  0.20780204685E+01 -0.22034539266E+02  0.29613297319E+02  0.51100000000E-03 0.  1.
        -12    1    3    3    0    0  0.62218858734E+01  0.19918561487E+01  0.82441126606E+01  0.10518780742E+02  0.00000000000E+00 0.  1.
</event>
<event>
 7    1  0.6184948E-012  0.5930192E+02  0.7816164E-02  0.1266605E+00
        -11   -1    0    0    0    0  0.00000000000E+00  0.00000000000E+00  0.45593999997E+02  0.45594000000E+02  0.51100000000E-03 0.  1.
         11   -1    0    0    0    0 -0.00000000000E+00 -0.00000000000E+00 -0.45593999997E+02  0.45594000000E+02  0.51100000000E-03 0. -1.
    9900012    2    1    2    0    0 -0.20642109807E+02 -0.23953374207E+02  0.41062180515E+01  0.59301923730E+02  0.49999962982E+02 0.  0.
         12    1    1    2    0    0  0.20642109807E+02  0.23953374207E+02 -0.41062180515E+01  0.31886076270E+02  0.00000000000E+00 0. -1.
         11    1    3    3    0    0 -0.75407465214E+01 -0.21257174426E+02 -0.32962398102E+01  0.22794637962E+02  0.51100000000E-03 0. -1.
        -11    1    3    3    0    0 -0.17357336470E+02 -0.11834746230E+02 -0.38949011288E+01  0.21366061937E+02  0.51100000000E-03 0.  1.
        -12    1    3    3    0    0  0.42559731839E+01  0.91385464488E+01  0.11297358991E+02  0.15141223831E+02  0.00000000000E+00 0.  1.
</event>
<event>
 7    1  0.6184948E-012  0.5930187E+02  0.7816164E-02  0.1266605E+00
        -11   -1    0    0    0    0  0.00000000000E+00  0.00000000000E+00  0.45593999997E+02  0.45594000000E+02  0.51100000000E-03 0.  1.
         11   -1    0    0    0    0 -0.00000000000E+00 -0.00000000000E+00 -0.45593999997E+02  0.45594000000E+02  0.51100000000E-03 0. -1.
    9900012    2    1    2    0    0 -0.21977920279E+02 -0.80957336183E+00  0.23087672195E+02  0.59301874550E+02  0.49999873289E+02 0.  0.
         12    1    1    2    0    0  0.21977920279E+02  0.80957336183E+00 -0.23087672195E+02  0.31886125450E+02  0.00000000000E+00 0. -1.
         11    1    3    3    0    0 -0.36907257696E+01 -0.59023568129E+01 -0.13627988573E+02  0.15302984855E+02  0.51100000000E-03 0. -1.
        -11    1    3    3    0    0 -0.65124349995E+01 -0.54109105419E+01  0.12855816887E+02  0.15393563285E+02  0.51100000000E-03 0.  1.
        -12    1    3    3    0    0 -0.11774759510E+02  0.10503693993E+02  0.23859843881E+02  0.28605326411E+02  0.00000000000E+00 0.  1.
</event>
<event>
 7    1  0.6184948E-012  0.5930194E+02  0.7816164E-02  0.1266605E+00
        -11   -1    0    0    0    0  0.00000000000E+00  0.00000000000E+00  0.45593999997E+02  0.45594000000E+02  0.51100000000E-03 0. -1.
         11   -1    0    0    0    0 -0.00000000000E+00 -0.00000000000E+00 -0.45593999997E+02  0.45594000000E+02  0.51100000000E-03 0.  1.
    9900012    2    1    2    0    0 -0.16538124555E+02 -0.27020912536E+02  0.36168836348E+01  0.59301935248E+02  0.49999983989E+02 0.  0.
         12    1    1    2    0    0  0.16538124555E+02  0.27020912536E+02 -0.36168836348E+01  0.31886064752E+02  0.00000000000E+00 0. -1.
         11    1    3    3    0    0 -0.13333609413E+02  0.88827197932E+01 -0.91390002988E+01  0.18444760168E+02  0.51100000000E-03 0. -1.
        -11    1    3    3    0    0 -0.68966176226E+01 -0.11824137638E+02  0.77720866859E+00  0.13710493029E+02  0.51100000000E-03 0.  1.
        -12    1    3    3    0    0  0.36921024807E+01 -0.24079494692E+02  0.11978675265E+02  0.27146682052E+02  0.00000000000E+00 0.  1.
</event>
<event>
 7    1  0.6184948E-012  0.5930197E+02  0.7816164E-02  0.1266605E+00
        -11   -1    0    0    0    0  0.00000000000E+00  0.00000000000E+00  0.45593999997E+02  0.45594000000E+02  0.51100000000E-03 0. -1.
         11   -1    0    0    0    0 -0.00000000000E+00 -0.00000000000E+00 -0.45593999997E+02  0.45594000000E+02  0.51100000000E-03 0.  1.
    9900012    2    1    2    0    0  0.18226585925E+01 -0.35683743652E+01 -0.31633270446E+02  0.59301965768E+02  0.50000039649E+02 0.  0.
         12    1    1    2    0    0 -0.18226585925E+01  0.35683743652E+01  0.31633270446E+02  0.31886034232E+02  0.00000000000E+00 0. -1.
         11    1    3    3    0    0  0.10525961740E+02  0.23001803023E+01 -0.36756507984E+01  0.11384072603E+02  0.51100000000E-03 0. -1.
        -11    1    3    3    0    0  0.11497053704E+02  0.52899147263E+01 -0.19685620947E+02  0.23402758684E+02  0.51100000000E-03 0.  1.
        -12    1    3    3    0    0 -0.20200356852E+02 -0.11158469394E+02 -0.82719987007E+01  0.24515134482E+02  0.00000000000E+00 0.  1.
</event>
<event>
 7    1  0.6184948E-012  0.5930216E+02  0.7816164E-02  0.1266604E+00
        -11   -1    0    0    0    0  0.00000000000E+00  0.00000000000E+00  0.45593999997E+02  0.45594000000E+02  0.51100000000E-03 0.  1.
         11   -1    0    0    0    0 -0.00000000000E+00 -0.00000000000E+00 -0.45593999997E+02  0.45594000000E+02  0.51100000000E-03 0. -1.
    9900012    2    1    2    0    0  0.12878921403E+01 -0.17310609140E+02  0.26746796379E+02  0.59302157193E+02  0.50000388762E+02 0.  0.
         12    1    1    2    0    0 -0.12878921403E+01  0.17310609140E+02 -0.26746796379E+02  0.31885842807E+02  0.00000000000E+00 0. -1.
         11    1    3    3    0    0  0.69031373104E+01 -0.48644096991E+01 -0.67915000012E+01  0.10836985696E+02  0.51100000000E-03 0.  1.
        -11    1    3    3    0    0 -0.12581422312E+02  0.34525486663E+01  0.30755864899E+01  0.13404160257E+02  0.51100000000E-03 0. -1.
        -12    1    3    3    0    0  0.69661771419E+01 -0.15898748107E+02  0.30462709890E+02  0.35061011240E+02  0.00000000000E+00 0.  1.
</event>
<event>
 7    1  0.6184948E-012  0.5930192E+02  0.7816164E-02  0.1266605E+00
        -11   -1    0    0    0    0  0.00000000000E+00  0.00000000000E+00  0.45593999997E+02  0.45594000000E+02  0.51100000000E-03 0.  1.
         11   -1    0    0    0    0 -0.00000000000E+00 -0.00000000000E+00 -0.45593999997E+02  0.45594000000E+02  0.51100000000E-03 0. -1.
    9900012    2    1    2    0    0 -0.18537894264E+02  0.20721015920E+02  0.15611143169E+02  0.59301924426E+02  0.49999964250E+02 0.  0.
         12    1    1    2    0    0  0.18537894264E+02 -0.20721015920E+02 -0.15611143169E+02  0.31886075574E+02  0.00000000000E+00 0. -1.
         11    1    3    3    0    0 -0.13419423022E+02  0.11114006288E+02 -0.12942517540E+02  0.21705087204E+02  0.51100000000E-03 0. -1.
        -11    1    3    3    0    0 -0.12865945920E+02  0.26650603537E+01  0.20880567410E+02  0.24670492633E+02  0.51100000000E-03 0.  1.
         12    1    3    3    0    0  0.77474746779E+01  0.69419492788E+01  0.76730932980E+01  0.12926344589E+02  0.00000000000E+00 0. -1.
</event>
<event>
 7    1  0.6184948E-012  0.5930194E+02  0.7816164E-02  0.1266605E+00
        -11   -1    0    0    0    0  0.00000000000E+00  0.00000000000E+00  0.45593999997E+02  0.45594000000E+02  0.51100000000E-03 0.  1.
         11   -1    0    0    0    0 -0.00000000000E+00 -0.00000000000E+00 -0.45593999997E+02  0.45594000000E+02  0.51100000000E-03 0. -1.
    9900012    2    1    2    0    0 -0.15593286490E+01 -0.28067894054E+02  0.15049345463E+02  0.59301937507E+02  0.49999988107E+02 0.  0.
         12    1    1    2    0    0  0.15593286490E+01  0.28067894054E+02 -0.15049345463E+02  0.31886062493E+02  0.00000000000E+00 0. -1.
         11    1    3    3    0    0 -0.20135294546E+01  0.57333396207E+01  0.14197820160E+02  0.15443561171E+02  0.51100000000E-03 0. -1.
        -11    1    3    3    0    0 -0.62739541000E+01 -0.10154011397E+02  0.11944416444E+02  0.16885956649E+02  0.51100000000E-03 0.  1.
         12    1    3    3    0    0  0.67281549056E+01 -0.23647222278E+02 -0.11092891141E+02  0.26972419687E+02  0.00000000000E+00 0. -1.
</event>
<event>
 7    1  0.6184948E-012  0.5930195E+02  0.7816164E-02  0.1266605E+00
        -11   -1    0    0    0    0  0.00000000000E+00  0.00000000000E+00  0.45593999997E+02  0.45594000000E+02  0.51100000000E-03 0. -1.
         11   -1    0    0    0    0 -0.00000000000E+00 -0.00000000000E+00 -0.45593999997E+02  0.45594000000E+02  0.51100000000E-03 0.  1.
    9900012    2    1    2    0    0  0.14742083176E+02 -0.28229907070E+02  0.15695525219E+01  0.59301950313E+02  0.50000011463E+02 0.  0.
         12    1    1    2    0    0 -0.14742083176E+02  0.28229907070E+02 -0.15695525219E+01  0.31886049687E+02  0.00000000000E+00 0. -1.
         11    1    3    3    0    0 -0.12085311537E+01  0.22031821812E+01  0.13430367647E+02  0.13663430560E+02  0.51100000000E-03 0. -1.
        -11    1    3    3    0    0  0.16256069958E+02 -0.11199983500E+02  0.46586730224E+01  0.20283063759E+02  0.51100000000E-03 0.  1.
         12    1    3    3    0    0 -0.30545562839E+00 -0.19233105751E+02 -0.16519488147E+02  0.25355455993E+02  0.00000000000E+00 0. -1.
</event>
<event>
 7    1  0.6184948E-012  0.5930196E+02  0.7816164E-02  0.1266605E+00
        -11   -1    0    0    0    0  0.00000000000E+00  0.00000000000E+00  0.45593999997E+02  0.45594000000E+02  0.51100000000E-03 0.  1.
         11   -1    0    0    0    0 -0.00000000000E+00 -0.00000000000E+00 -0.45593999997E+02  0.45594000000E+02  0.51100000000E-03 0. -1.
    9900012    2    1    2    0    0  0.31104592744E+02 -0.65621146618E+01 -0.24823827671E+01  0.59301964455E+02  0.50000037254E+02 0.  0.
         12    1    1    2    0    0 -0.31104592744E+02  0.65621146618E+01  0.24823827671E+01  0.31886035545E+02  0.00000000000E+00 0. -1.
         11    1    3    3    0    0  0.73765255024E+01  0.31817033527E+00  0.75141304209E+01  0.10534539244E+02  0.51100000000E-03 0. -1.
        -11    1    3    3    0    0  0.35164678991E+02 -0.24586770831E+01 -0.94426235084E+01  0.36493326521E+02  0.51100000000E-03 0.  1.
         12    1    3    3    0    0 -0.11436611750E+02 -0.44216079139E+01 -0.55388967956E+00  0.12274098690E+02  0.00000000000E+00 0. -1.
</event>
<event>
 7    1  0.6184948E-012  0.5930194E+02  0.7816164E-02  0.1266605E+00
        -11   -1    0    0    0    0  0.00000000000E+00  0.00000000000E+00  0.45593999997E+02  0.45594000000E+02  0.51100000000E-03 0. -1.
         11   -1    0    0    0    0 -0.00000000000E+00 -0.00000000000E+00 -0.45593999997E+02  0.45594000000E+02  0.51100000000E-03 0.  1.
    9900012    2    1    2    0    0  0.31302681525E+02 -0.14216731584E+01 -0.59027178866E+01  0.59301935588E+02  0.49999984608E+02 0.  0.
         12    1    1    2    0    0 -0.31302681525E+02  0.14216731584E+01  0.59027178866E+01  0.31886064412E+02  0.00000000000E+00 0. -1.
         11    1    3    3    0    0  0.24721309405E+02  0.33188059369E+01 -0.39621051442E+01  0.25255809014E+02  0.51100000000E-03 0. -1.
        -11    1    3    3    0    0  0.10985597086E+02 -0.49600659628E+01 -0.15587654514E+02  0.19704328742E+02  0.51100000000E-03 0.  1.
         12    1    3    3    0    0 -0.44042249653E+01  0.21958686750E+00  0.13647041771E+02  0.14341797832E+02  0.00000000000E+00 0. -1.
</event>
<event>
 7    1  0.6184948E-012  0.5930193E+02  0.7816164E-02  0.1266605E+00
        -11   -1    0    0    0    0  0.00000000000E+00  0.00000000000E+00  0.45593999997E+02  0.45594000000E+02  0.51100000000E-03 0. -1.
         11   -1    0    0    0    0 -0.00000000000E+00 -0.00000000000E+00 -0.45593999997E+02  0.45594000000E+02  0.51100000000E-03 0.  1.
    9900012    2    1    2    0    0  0.22088925990E+02 -0.21740890519E+02 -0.74922907887E+01  0.59301931048E+02  0.49999976328E+02 0.  0.
         12    1    1    2    0    0 -0.22088925990E+02  0.21740890519E+02  0.74922907887E+01  0.31886068952E+02  0.00000000000E+00 0. -1.
         11    1    3    3    0    0  0.26186018941E+01 -0.30679039856E+02 -0.15230908717E+02  0.34351726929E+02  0.51100000000E-03 0.  1.
        -11    1    3    3    0    0  0.12280875604E+02  0.86779257869E+00  0.68908075222E+01  0.14108727729E+02  0.51100000000E-03 0. -1.
        -12    1    3    3    0    0  0.71894484918E+01  0.80703567583E+01  0.84781040653E+00  0.10841476390E+02  0.00000000000E+00 0.  1.
</event>
<event>
 7    1  0.6184948E-012  0.5930196E+02  0.7816164E-02  0.1266605E+00
        -11   -1    0    0    0    0  0.00000000000E+00  0.00000000000E+00  0.45593999997E+02  0.45594000000E+02  0.51100000000E-03 0.  1.
         11   -1    0    0    0    0 -0.00000000000E+00 -0.00000000000E+00 -0.45593999997E+02  0.45594000000E+02  0.51100000000E-03 0. -1.
    9900012    2    1    2    0    0 -0.12455941756E+02  0.59791213922E+01  0.28737069818E+02  0.59301959804E+02  0.50000028772E+02 0.  0.
         12    1    1    2    0    0  0.12455941756E+02 -0.59791213922E+01 -0.28737069818E+02  0.31886040196E+02  0.00000000000E+00 0. -1.
         11    1    3    3    0    0 -0.13204779415E+02 -0.14204330078E+02  0.16762960026E+02  0.25634469401E+02  0.51100000000E-03 0. -1.
        -11    1    3    3    0    0 -0.54764823722E+01  0.63516764871E+01 -0.58781705523E+01  0.10241510761E+02  0.51100000000E-03 0.  1.
         12    1    3    3    0    0  0.62253200308E+01  0.13831774983E+02  0.17852280345E+02  0.23425979642E+02  0.00000000000E+00 0. -1.
</event>
<event>
 7    1  0.6184948E-012  0.5930195E+02  0.7816164E-02  0.1266605E+00
        -11   -1    0    0    0    0  0.00000000000E+00  0.00000000000E+00  0.45593999997E+02  0.45594000000E+02  0.51100000000E-03 0. -1.
         11   -1    0    0    0    0 -0.00000000000E+00 -0.00000000000E+00 -0.45593999997E+02  0.45594000000E+02  0.51100000000E-03 0.  1.
    9900012    2    1    2    0    0 -0.12266764730E+02 -0.19749647282E+02 -0.21821968302E+02  0.59301946853E+02  0.50000005153E+02 0.  0.
         12    1    1    2    0    0  0.12266764730E+02  0.19749647282E+02  0.21821968302E+02  0.31886053147E+02  0.00000000000E+00 0. -1.
         11    1    3    3    0    0 -0.28839999804E+00  0.73588385462E+01 -0.22104859041E+01  0.76890784559E+01  0.51100000000E-03 0.  1.
        -11    1    3    3    0    0  0.11513033346E+02 -0.13829271842E+01  0.78486657114E-01  0.11596059022E+02  0.51100000000E-03 0. -1.
        -12    1    3    3    0    0 -0.23491398077E+02 -0.25725558644E+02 -0.19689969055E+02  0.40016809375E+02  0.00000000000E+00 0.  1.
</event>
<event>
 7    1  0.6184948E-012  0.5930190E+02  0.7816164E-02  0.1266605E+00
        -11   -1    0    0    0    0  0.00000000000E+00  0.00000000000E+00  0.45593999997E+02  0.45594000000E+02  0.51100000000E-03 0. -1.
         11   -1    0    0    0    0 -0.00000000000E+00 -0.00000000000E+00 -0.45593999997E+02  0.45594000000E+02  0.51100000000E-03 0.  1.
    9900012    2    1    2    0    0 -0.31504406901E+02  0.16841268663E+01 -0.46216403889E+01  0.59301898053E+02  0.49999916153E+02 0.  0.
         12    1    1    2    0    0  0.31504406901E+02 -0.16841268663E+01  0.46216403889E+01  0.31886101947E+02  0.00000000000E+00 0. -1.
         11    1    3    3    0    0 -0.50205877261E+00 -0.64672555757E+00  0.17144701166E+02  0.17164238850E+02  0.51100000000E-03 0. -1.
        -11    1    3    3    0    0 -0.52873807854E+01  0.41111611876E+01 -0.13496592145E+02  0.15067051525E+02  0.51100000000E-03 0.  1.
        -12    1    3    3    0    0 -0.25714967343E+02 -0.17803087637E+01 -0.82697494099E+01  0.27070607678E+02  0.00000000000E+00 0.  1.
</event>
<event>
 7    1  0.6184948E-012  0.5930196E+02  0.7816164E-02  0.1266605E+00
        -11   -1    0    0    0    0  0.00000000000E+00  0.00000000000E+00  0.45593999997E+02  0.45594000000E+02  0.51100000000E-03 0. -1.
         11   -1    0    0    0    0 -0.00000000000E+00 -0.00000000000E+00 -0.45593999997E+02  0.45594000000E+02  0.51100000000E-03 0.  1.
    9900012    2    1    2    0    0  0.23629180898E+02  0.21334403703E+02 -0.17956890061E+01  0.59301961202E+02  0.50000031321E+02 0.  0.
         12    1    1    2    0    0 -0.23629180898E+02 -0.21334403703E+02  0.17956890061E+01  0.31886038798E+02  0.00000000000E+00 0. -1.
         11    1    3    3    0    0 -0.39530138375E+01  0.21624540077E+02 -0.23563980582E+01  0.22108814170E+02  0.51100000000E-03 0. -1.
        -11    1    3    3    0    0  0.84035618912E+01  0.11294461454E+02 -0.32941708595E+01  0.14458086800E+02  0.51100000000E-03 0.  1.
        -12    1    3    3    0    0  0.19178632844E+02 -0.11584597829E+02  0.38548799116E+01  0.22735060232E+02  0.00000000000E+00 0.  1.
</event>
<event>
 7    1  0.6184948E-012  0.5930198E+02  0.7816164E-02  0.1266605E+00
        -11   -1    0    0    0    0  0.00000000000E+00  0.00000000000E+00  0.45593999997E+02  0.45594000000E+02  0.51100000000E-03 0. -1.
         11   -1    0    0    0    0 -0.00000000000E+00 -0.00000000000E+00 -0.45593999997E+02  0.45594000000E+02  0.51100000000E-03 0.  1.
    9900012    2    1    2    0    0  0.49560636236E+01  0.10561731837E+02 -0.29675003568E+02  0.59301975118E+02  0.50000056701E+02 0.  0.
         12    1    1    2    0    0 -0.49560636236E+01 -0.10561731837E+02  0.29675003568E+02  0.31886024882E+02  0.00000000000E+00 0. -1.
         11    1    3    3    0    0 -0.14325676740E+02  0.73013659143E+01 -0.22683011116E+01  0.16238231076E+02  0.51100000000E-03 0. -1.
        -11    1    3    3    0    0  0.79103832976E+01 -0.82012518461E+00 -0.29717661660E+02  0.30763390321E+02  0.51100000000E-03 0.  1.
        -12    1    3    3    0    0  0.11371357066E+02  0.40804911078E+01  0.23109592041E+01  0.12300353721E+02  0.00000000000E+00 0.  1.
</event>
<event>
 7    1  0.6184948E-012  0.5930198E+02  0.7816164E-02  0.1266605E+00
        -11   -1    0    0    0    0  0.00000000000E+00  0.00000000000E+00  0.45593999997E+02  0.45594000000E+02  0.51100000000E-03 0.  1.
         11   -1    0    0    0    0 -0.00000000000E+00 -0.00000000000E+00 -0.45593999997E+02  0.45594000000E+02  0.51100000000E-03 0. -1.
    9900012    2    1    2    0    0 -0.26616878147E+02  0.50097893579E+01 -0.16827415445E+02  0.59301982653E+02  0.50000070444E+02 0.  0.
         12    1    1    2    0    0  0.26616878147E+02 -0.50097893579E+01  0.16827415445E+02  0.31886017347E+02  0.00000000000E+00 0. -1.
         11    1    3    3    0    0  0.91892337422E+01  0.50648090237E+01 -0.11331395363E+02  0.15443277772E+02  0.51100000000E-03 0. -1.
        -11    1    3    3    0    0 -0.54117332895E+00 -0.73860182871E+01 -0.19965816645E+01  0.76702329373E+01  0.51100000000E-03 0.  1.
        -12    1    3    3    0    0 -0.35264938560E+02  0.73309986213E+01 -0.34994384177E+01  0.36188471944E+02  0.00000000000E+00 0.  1.
</event>
<event>
 7    1  0.6184948E-012  0.5930195E+02  0.7816164E-02  0.1266605E+00
        -11   -1    0    0    0    0  0.00000000000E+00  0.00000000000E+00  0.45593999997E+02  0.45594000000E+02  0.51100000000E-03 0.  1.
         11   -1    0    0    0    0 -0.00000000000E+00 -0.00000000000E+00 -0.45593999997E+02  0.45594000000E+02  0.51100000000E-03 0. -1.
    9900012    2    1    2    0    0  0.88299544791E+01 -0.18027539016E+02  0.24774182159E+02  0.59301947238E+02  0.50000005855E+02 0.  0.
         12    1    1    2    0    0 -0.88299544791E+01  0.18027539016E+02 -0.24774182159E+02  0.31886052762E+02  0.00000000000E+00 0. -1.
         11    1    3    3    0    0 -0.88238617753E+00  0.60094451575E+01  0.49180545375E+01  0.78153245078E+01  0.51100000000E-03 0.  1.
        -11    1    3    3    0    0  0.78489626696E+00 -0.14932075029E+01 -0.11626936278E+02  0.11748675596E+02  0.51100000000E-03 0. -1.
         12    1    3    3    0    0  0.89274443897E+01 -0.22543776671E+02  0.31483063899E+02  0.39737947134E+02  0.00000000000E+00 0. -1.
</event>
<event>
 7    1  0.6184948E-012  0.5930197E+02  0.7816164E-02  0.1266605E+00
        -11   -1    0    0    0    0  0.00000000000E+00  0.00000000000E+00  0.45593999997E+02  0.45594000000E+02  0.51100000000E-03 0. -1.
         11   -1    0    0    0    0 -0.00000000000E+00 -0.00000000000E+00 -0.45593999997E+02  0.45594000000E+02  0.51100000000E-03 0.  1.
    9900012    2    1    2    0    0 -0.37862439554E+01 -0.31273012279E+02  0.49378272227E+01  0.59301967353E+02  0.50000042539E+02 0.  0.
         12    1    1    2    0    0  0.37862439554E+01  0.31273012279E+02 -0.49378272227E+01  0.31886032647E+02  0.00000000000E+00 0. -1.
         11    1    3    3    0    0 -0.42517868380E+01 -0.31642587052E+02  0.45233555118E+01  0.32245802084E+02  0.51100000000E-03 0. -1.
        -11    1    3    3    0    0 -0.12414538211E+02 -0.25588278463E+01  0.41358320840E+01  0.13333171649E+02  0.51100000000E-03 0.  1.
         12    1    3    3    0    0  0.12880081093E+02  0.29284026192E+01 -0.37213603731E+01  0.13722993620E+02  0.00000000000E+00 0. -1.
</event>
<event>
 7    1  0.6184948E-012  0.5930195E+02  0.7816164E-02  0.1266605E+00
        -11   -1    0    0    0    0  0.00000000000E+00  0.00000000000E+00  0.45593999997E+02  0.45594000000E+02  0.51100000000E-03 0.  1.
         11   -1    0    0    0    0 -0.00000000000E+00 -0.00000000000E+00 -0.45593999997E+02  0.45594000000E+02  0.51100000000E-03 0. -1.
    9900012    2    1    2    0    0  0.74735642654E+00  0.66750141648E+01  0.31170588434E+02  0.59301953851E+02  0.50000017915E+02 0.  0.
         12    1    1    2    0    0 -0.74735642654E+00 -0.66750141648E+01 -0.31170588434E+02  0.31886046149E+02  0.00000000000E+00 0. -1.
         11    1    3    3    0    0  0.34682927658E+01 -0.16371603350E+02  0.11513667043E+02  0.20313123344E+02  0.51100000000E-03 0. -1.
        -11    1    3    3    0    0  0.85526000358E+01  0.25393958463E+01  0.84156186953E+00  0.89612345845E+01  0.51100000000E-03 0.  1.
        -12    1    3    3    0    0 -0.11273536375E+02  0.20507221668E+02  0.18815359521E+02  0.30027595922E+02  0.00000000000E+00 0.  1.
</event>
<event>
 7    1  0.6184948E-012  0.5930194E+02  0.7816164E-02  0.1266605E+00
        -11   -1    0    0    0    0  0.00000000000E+00  0.00000000000E+00  0.45593999997E+02  0.45594000000E+02  0.51100000000E-03 0.  1.
         11   -1    0    0    0    0 -0.00000000000E+00 -0.00000000000E+00 -0.45593999997E+02  0.45594000000E+02  0.51100000000E-03 0. -1.
    9900012    2    1    2    0    0 -0.12217661111E+02 -0.12667445930E+02  0.26589191031E+02  0.59301944912E+02  0.50000001613E+02 0.  0.
         12    1    1    2    0    0  0.12217661111E+02  0.12667445930E+02 -0.26589191031E+02  0.31886055088E+02  0.00000000000E+00 0. -1.
         11    1    3    3    0    0  0.88362636631E+01 -0.18515407181E+02  0.25491534009E+01  0.20673607375E+02  0.51100000000E-03 0. -1.
        -11    1    3    3    0    0  0.42771146642E+01  0.15100309114E+01  0.36874626378E+01  0.58456209397E+01  0.51100000000E-03 0.  1.
         12    1    3    3    0    0 -0.25331039439E+02  0.43379303395E+01  0.20352574992E+02  0.32782716597E+02  0.00000000000E+00 0. -1.
</event>
<event>
 7    1  0.6184948E-012  0.5930203E+02  0.7816164E-02  0.1266604E+00
        -11   -1    0    0    0    0  0.00000000000E+00  0.00000000000E+00  0.45593999997E+02  0.45594000000E+02  0.51100000000E-03 0.  1.
         11   -1    0    0    0    0 -0.00000000000E+00 -0.00000000000E+00 -0.45593999997E+02  0.45594000000E+02  0.51100000000E-03 0. -1.
    9900012    2    1    2    0    0  0.13402107812E+02  0.12743393111E+02  0.25975076498E+02  0.59302028776E+02  0.50000154561E+02 0.  0.
         12    1    1    2    0    0 -0.13402107812E+02 -0.12743393111E+02 -0.25975076498E+02  0.31885971224E+02  0.00000000000E+00 0. -1.
         11    1    3    3    0    0  0.10415151448E+02  0.53026414886E+01  0.21357633301E+02  0.24346291030E+02  0.51100000000E-03 0. -1.
        -11    1    3    3    0    0  0.61013774254E+00  0.12794677299E+02  0.16983508314E+02  0.21272413830E+02  0.51100000000E-03 0.  1.
        -12    1    3    3    0    0  0.23768186213E+01 -0.53539256767E+01 -0.12366065117E+02  0.13683323916E+02  0.00000000000E+00 0.  1.
</event>
<event>
 7    1  0.6184948E-012  0.5930194E+02  0.7816164E-02  0.1266605E+00
        -11   -1    0    0    0    0  0.00000000000E+00  0.00000000000E+00  0.45593999997E+02  0.45594000000E+02  0.51100000000E-03 0.  1.
         11   -1    0    0    0    0 -0.00000000000E+00 -0.00000000000E+00 -0.45593999997E+02  0.45594000000E+02  0.51100000000E-03 0. -1.
    9900012    2    1    2    0    0  0.19381163372E+02 -0.11355633800E+02  0.22630533404E+02  0.59301937922E+02  0.49999988866E+02 0.  0.
         12    1    1    2    0    0 -0.19381163372E+02  0.11355633800E+02 -0.22630533404E+02  0.31886062078E+02  0.00000000000E+00 0. -1.
         11    1    3    3    0    0  0.48644848913E+01  0.11025950204E+02  0.99199167305E+00  0.12092098201E+02  0.51100000000E-03 0. -1.
        -11    1    3    3    0    0 -0.43181995637E+01  0.49235245838E+01  0.10201048320E+02  0.12122265831E+02  0.51100000000E-03 0.  1.
        -12    1    3    3    0    0  0.18834878044E+02 -0.27305108588E+02  0.11437493412E+02  0.35087573890E+02  0.00000000000E+00 0.  1.
</event>
<event>
 7    1  0.6184948E-012  0.5930197E+02  0.7816164E-02  0.1266605E+00
        -11   -1    0    0    0    0  0.00000000000E+00  0.00000000000E+00  0.45593999997E+02  0.45594000000E+02  0.51100000000E-03 0. -1.
         11   -1    0    0    0    0 -0.00000000000E+00 -0.00000000000E+00 -0.45593999997E+02  0.45594000000E+02  0.51100000000E-03 0.  1.
    9900012    2    1    2    0    0  0.18018864462E+02 -0.25983487200E+02 -0.41107020091E+01  0.59301969287E+02  0.50000046067E+02 0.  0.
         12    1    1    2    0    0 -0.18018864462E+02  0.25983487200E+02  0.41107020091E+01  0.31886030713E+02  0.00000000000E+00 0. -1.
         11    1    3    3    0    0 -0.55970099131E+01 -0.14908946128E+02 -0.12778382622E+01  0.15976109211E+02  0.51100000000E-03 0. -1.
        -11    1    3    3    0    0  0.10312790899E+02 -0.74489815132E+01 -0.18502181382E+02  0.22453768010E+02  0.51100000000E-03 0.  1.
        -12    1    3    3    0    0  0.13303083477E+02 -0.36255595590E+01  0.15669317635E+02  0.20872092067E+02  0.00000000000E+00 0.  1.
</event>
<event>
 7    1  0.6184948E-012  0.5930191E+02  0.7816164E-02  0.1266605E+00
        -11   -1    0    0    0    0  0.00000000000E+00  0.00000000000E+00  0.45593999997E+02  0.45594000000E+02  0.51100000000E-03 0.  1.
         11   -1    0    0    0    0 -0.00000000000E+00 -0.00000000000E+00 -0.45593999997E+02  0.45594000000E+02  0.51100000000E-03 0. -1.
    9900012    2    1    2    0    0 -0.23434476231E+02 -0.21477298115E+02  0.25046944467E+01  0.59301913617E+02  0.49999944538E+02 0.  0.
         12    1    1    2    0    0  0.23434476231E+02  0.21477298115E+02 -0.25046944467E+01  0.31886086383E+02  0.00000000000E+00 0. -1.
         11    1    3    3    0    0 -0.26992347824E+02 -0.50432516225E+01  0.52413821953E+01  0.27955201941E+02  0.51100000000E-03 0.  1.
        -11    1    3    3    0    0 -0.83737300123E+01  0.14715094153E+01 -0.47448103490E+01  0.97364223300E+01  0.51100000000E-03 0. -1.
        -12    1    3    3    0    0  0.11931601605E+02 -0.17905555908E+02  0.20081226004E+01  0.21610289346E+02  0.00000000000E+00 0.  1.
</event>
<event>
 7    1  0.6184948E-012  0.5930194E+02  0.7816164E-02  0.1266605E+00
        -11   -1    0    0    0    0  0.00000000000E+00  0.00000000000E+00  0.45593999997E+02  0.45594000000E+02  0.51100000000E-03 0.  1.
         11   -1    0    0    0    0 -0.00000000000E+00 -0.00000000000E+00 -0.45593999997E+02  0.45594000000E+02  0.51100000000E-03 0. -1.
    9900012    2    1    2    0    0 -0.14867189798E+02  0.22126692263E+02  0.17495621770E+02  0.59301943108E+02  0.49999998323E+02 0.  0.
         12    1    1    2    0    0  0.14867189798E+02 -0.22126692263E+02 -0.17495621770E+02  0.31886056892E+02  0.00000000000E+00 0. -1.
         11    1    3    3    0    0  0.36140522968E+01  0.20072264226E+02  0.12241125536E+02  0.23786599585E+02  0.51100000000E-03 0.  1.
        -11    1    3    3    0    0  0.56349417106E+01  0.83219330025E+00  0.94232252271E+01  0.11011007570E+02  0.51100000000E-03 0. -1.
         12    1    3    3    0    0 -0.24116183805E+02  0.12222347373E+01 -0.41687289932E+01  0.24504335953E+02  0.00000000000E+00 0. -1.
</event>
<event>
 7    1  0.6184948E-012  0.5930195E+02  0.7816164E-02  0.1266605E+00
        -11   -1    0    0    0    0  0.00000000000E+00  0.00000000000E+00  0.45593999997E+02  0.45594000000E+02  0.51100000000E-03 0.  1.
         11   -1    0    0    0    0 -0.00000000000E+00 -0.00000000000E+00 -0.45593999997E+02  0.45594000000E+02  0.51100000000E-03 0. -1.
    9900012    2    1    2    0    0  0.28260703845E+02  0.14519761701E+02 -0.26886894345E+01  0.59301954266E+02  0.50000018672E+02 0.  0.
         12    1    1    2    0    0 -0.28260703845E+02 -0.14519761701E+02  0.26886894345E+01  0.31886045734E+02  0.00000000000E+00 0. -1.
         11    1    3    3    0    0  0.18440715093E+02 -0.25862559694E+00 -0.34009329000E+01  0.18753485148E+02  0.51100000000E-03 0. -1.
        -11    1    3    3    0    0  0.54124891097E+01 -0.11308087796E+02  0.54523486068E+01  0.13670990950E+02  0.51100000000E-03 0.  1.
        -12    1    3    3    0    0  0.44074996424E+01  0.26086475094E+02 -0.47401051414E+01  0.26877478168E+02  0.00000000000E+00 0.  1.
</event>
<event>
 7    1  0.6184948E-012  0.5930194E+02  0.7816164E-02  0.1266605E+00
        -11   -1    0    0    0    0  0.00000000000E+00  0.00000000000E+00  0.45593999997E+02  0.45594000000E+02  0.51100000000E-03 0. -1.
         11   -1    0    0    0    0 -0.00000000000E+00 -0.00000000000E+00 -0.45593999997E+02  0.45594000000E+02  0.51100000000E-03 0.  1.
    9900012    2    1    2    0    0  0.29314284691E+02  0.61460326914E+01 -0.10937096019E+02  0.59301936052E+02  0.49999985454E+02 0.  0.
         12    1    1    2    0    0 -0.29314284691E+02 -0.61460326914E+01  0.10937096019E+02  0.31886063948E+02  0.00000000000E+00 0. -1.
         11    1    3    3    0    0  0.27015787411E+02 -0.11441631128E+02 -0.11441332860E+02  0.31490757218E+02  0.51100000000E-03 0. -1.
        -11    1    3    3    0    0  0.88808388055E+01  0.23153938881E-02  0.15058000901E+01  0.90075933203E+01  0.51100000000E-03 0.  1.
         12    1    3    3    0    0 -0.65823415256E+01  0.17585348426E+02 -0.10015632494E+01  0.18803585513E+02  0.00000000000E+00 0. -1.
</event>
<event>
 7    1  0.6184948E-012  0.5930193E+02  0.7816164E-02  0.1266605E+00
        -11   -1    0    0    0    0  0.00000000000E+00  0.00000000000E+00  0.45593999997E+02  0.45594000000E+02  0.51100000000E-03 0.  1.
         11   -1    0    0    0    0 -0.00000000000E+00 -0.00000000000E+00 -0.45593999997E+02  0.45594000000E+02  0.51100000000E-03 0. -1.
    9900012    2    1    2    0    0  0.13256142974E+02 -0.26794839131E+02 -0.11092025939E+02  0.59301925139E+02  0.49999965552E+02 0.  0.
         12    1    1    2    0    0 -0.13256142974E+02  0.26794839131E+02  0.11092025939E+02  0.31886074861E+02  0.00000000000E+00 0. -1.
         11    1    3    3    0    0 -0.60242055358E+01  0.19896642605E+01 -0.28906285461E+01  0.69717680584E+01  0.51100000000E-03 0. -1.
        -11    1    3    3    0    0  0.12586179605E+02 -0.90392949430E+01  0.14700540230E+02  0.21359462854E+02  0.51100000000E-03 0.  1.
        -12    1    3    3    0    0  0.66941689047E+01 -0.19745208449E+02 -0.22901937623E+02  0.30970694227E+02  0.00000000000E+00 0.  1.
</event>
<event>
 7    1  0.6184948E-012  0.5930186E+02  0.7816164E-02  0.1266605E+00
        -11   -1    0    0    0    0  0.00000000000E+00  0.00000000000E+00  0.45593999997E+02  0.45594000000E+02  0.51100000000E-03 0.  1.
         11   -1    0    0    0    0 -0.00000000000E+00 -0.00000000000E+00 -0.45593999997E+02  0.45594000000E+02  0.51100000000E-03 0. -1.
    9900012    2    1    2    0    0  0.20125104818E+02 -0.73640311704E+01  0.23610953222E+02  0.59301860204E+02  0.49999847126E+02 0.  0.
         12    1    1    2    0    0 -0.20125104818E+02  0.73640311704E+01 -0.23610953222E+02  0.31886139796E+02  0.00000000000E+00 0. -1.
         11    1    3    3    0    0  0.14478758157E+02 -0.14056407412E+02  0.20557678442E+02  0.28806859779E+02  0.51100000000E-03 0. -1.
        -11    1    3    3    0    0  0.92434946867E+00 -0.10607927045E+02 -0.37871258098E+01  0.11301542386E+02  0.51100000000E-03 0.  1.
         12    1    3    3    0    0  0.47219971925E+01  0.17300303287E+02  0.68404005893E+01  0.19193458040E+02  0.00000000000E+00 0. -1.
</event>
<event>
 7    1  0.6184948E-012  0.5930190E+02  0.7816164E-02  0.1266605E+00
        -11   -1    0    0    0    0  0.00000000000E+00  0.00000000000E+00  0.45593999997E+02  0.45594000000E+02  0.51100000000E-03 0.  1.
         11   -1    0    0    0    0 -0.00000000000E+00 -0.00000000000E+00 -0.45593999997E+02  0.45594000000E+02  0.51100000000E-03 0. -1.
    9900012    2    1    2    0    0 -0.51187970493E+01 -0.20870882192E+02  0.23556898826E+02  0.59301901321E+02  0.49999922113E+02 0.  0.
         12    1    1    2    0    0  0.51187970493E+01  0.20870882192E+02 -0.23556898826E+02  0.31886098679E+02  0.00000000000E+00 0. -1.
         11    1    3    3    0    0  0.10201519681E+02 -0.89100068694E+01  0.15144867077E+02  0.20318125535E+02  0.51100000000E-03 0. -1.
        -11    1    3    3    0    0 -0.13323866269E+01 -0.21210446210E+02  0.56269274723E+01  0.21984553568E+02  0.51100000000E-03 0.  1.
         12    1    3    3    0    0 -0.13987930103E+02  0.92495708875E+01  0.27851042761E+01  0.16999222218E+02  0.00000000000E+00 0. -1.
</event>
<event>
 7    1  0.6184948E-012  0.5930198E+02  0.7816164E-02  0.1266605E+00
        -11   -1    0    0    0    0  0.00000000000E+00  0.00000000000E+00  0.45593999997E+02  0.45594000000E+02  0.51100000000E-03 0.  1.
         11   -1    0    0    0    0 -0.00000000000E+00 -0.00000000000E+00 -0.45593999997E+02  0.45594000000E+02  0.51100000000E-03 0. -1.
    9900012    2    1    2    0    0  0.13776708211E+02 -0.10699349946E+02  0.26691657614E+02  0.59301978540E+02  0.50000062941E+02 0.  0.
         12    1    1    2    0    0 -0.13776708211E+02  0.10699349946E+02 -0.26691657614E+02  0.31886021460E+02  0.00000000000E+00 0. -1.
         11    1    3    3    0    0  0.68802507283E+01  0.88994109012E+01  0.22091988778E+02  0.24790992979E+02  0.51100000000E-03 0. -1.
        -11    1    3    3    0    0  0.11213728153E+02  0.50148235970E+00  0.78492639107E+01  0.13697084648E+02  0.51100000000E-03 0.  1.
        -12    1    3    3    0    0 -0.43172706710E+01 -0.20100243207E+02 -0.32495950747E+01  0.20813900912E+02  0.00000000000E+00 0.  1.
</event>
<event>
 7    1  0.6184948E-012  0.5930193E+02  0.7816164E-02  0.1266605E+00
        -11   -1    0    0    0    0  0.00000000000E+00  0.00000000000E+00  0.45593999997E+02  0.45594000000E+02  0.51100000000E-03 0.  1.
         11   -1    0    0    0    0 -0.00000000000E+00 -0.00000000000E+00 -0.45593999997E+02  0.45594000000E+02  0.51100000000E-03 0. -1.
    9900012    2    1    2    0    0 -0.12589207426E+02 -0.16631681158E+02  0.24116815173E+02  0.59301925675E+02  0.49999966529E+02 0.  0.
         12    1    1    2    0    0  0.12589207426E+02  0.16631681158E+02 -0.24116815173E+02  0.31886074325E+02  0.00000000000E+00 0. -1.
         11    1    3    3    0    0 -0.13882831401E+02  0.67407051113E+01  0.13248155425E+02  0.20339216690E+02  0.51100000000E-03 0. -1.
        -11    1    3    3    0    0 -0.11052080068E+02 -0.45062881232E+01 -0.32378609048E+01  0.12366844786E+02  0.51100000000E-03 0.  1.
        -12    1    3    3    0    0  0.12345704042E+02 -0.18866098146E+02  0.14106520652E+02  0.26595864199E+02  0.00000000000E+00 0.  1.
</event>
<event>
 7    1  0.6184948E-012  0.5930187E+02  0.7816164E-02  0.1266605E+00
        -11   -1    0    0    0    0  0.00000000000E+00  0.00000000000E+00  0.45593999997E+02  0.45594000000E+02  0.51100000000E-03 0. -1.
         11   -1    0    0    0    0 -0.00000000000E+00 -0.00000000000E+00 -0.45593999997E+02  0.45594000000E+02  0.51100000000E-03 0.  1.
    9900012    2    1    2    0    0 -0.19037918327E+01  0.30072671701E+02 -0.10427623519E+02  0.59301869177E+02  0.49999863491E+02 0.  0.
         12    1    1    2    0    0  0.19037918327E+01 -0.30072671701E+02  0.10427623519E+02  0.31886130823E+02  0.00000000000E+00 0. -1.
         11    1    3    3    0    0  0.15584719996E+02  0.52149431636E+01 -0.93859150511E+01  0.18925499496E+02  0.51100000000E-03 0. -1.
        -11    1    3    3    0    0  0.11742800707E+01  0.20998879916E+02  0.17980072355E+01  0.21108404053E+02  0.51100000000E-03 0.  1.
        -12    1    3    3    0    0 -0.18662791900E+02  0.38588486217E+01 -0.28397157036E+01  0.19267965628E+02  0.00000000000E+00 0.  1.
</event>
<event>
 7    1  0.6184948E-012  0.5930194E+02  0.7816164E-02  0.1266605E+00
        -11   -1    0    0    0    0  0.00000000000E+00  0.00000000000E+00  0.45593999997E+02  0.45594000000E+02  0.51100000000E-03 0. -1.
         11   -1    0    0    0    0 -0.00000000000E+00 -0.00000000000E+00 -0.45593999997E+02  0.45594000000E+02  0.51100000000E-03 0.  1.
    9900012    2    1    2    0    0  0.84673693169E+01 -0.20847249735E+02 -0.22592398824E+02  0.59301942713E+02  0.49999997603E+02 0.  0.
         12    1    1    2    0    0 -0.84673693169E+01  0.20847249735E+02  0.22592398824E+02  0.31886057287E+02  0.00000000000E+00 0. -1.
         11    1    3    3    0    0 -0.67291362953E-01  0.43596725232E+01 -0.10981409224E+02  0.11815355324E+02  0.51100000000E-03 0. -1.
        -11    1    3    3    0    0 -0.14428390347E+02 -0.52754978063E+01 -0.63732827048E+01  0.16632139303E+02  0.51100000000E-03 0.  1.
        -12    1    3    3    0    0  0.22963051027E+02 -0.19931424452E+02 -0.52377068959E+01  0.30854448086E+02  0.00000000000E+00 0.  1.
</event>
<event>
 7    1  0.6184948E-012  0.5930186E+02  0.7816164E-02  0.1266605E+00
        -11   -1    0    0    0    0  0.00000000000E+00  0.00000000000E+00  0.45593999997E+02  0.45594000000E+02  0.51100000000E-03 0. -1.
         11   -1    0    0    0    0 -0.00000000000E+00 -0.00000000000E+00 -0.45593999997E+02  0.45594000000E+02  0.51100000000E-03 0.  1.
    9900012    2    1    2    0    0 -0.11069240726E+02 -0.29900212429E+02 -0.41821360333E+00  0.59301863574E+02  0.49999853271E+02 0.  0.
         12    1    1    2    0    0  0.11069240726E+02  0.29900212429E+02  0.41821360333E+00  0.31886136426E+02  0.00000000000E+00 0. -1.
         11    1    3    3    0    0  0.56774483672E+01  0.35778858769E+01  0.38750406378E+01  0.77492339955E+01  0.51100000000E-03 0. -1.
        -11    1    3    3    0    0 -0.28713343258E+00  0.51705966099E+01 -0.78396262064E+01  0.93955975982E+01  0.51100000000E-03 0.  1.
         12    1    3    3    0    0 -0.16459555660E+02 -0.38648694916E+02  0.35463719653E+01  0.42157031980E+02  0.00000000000E+00 0. -1.
</event>
<event>
 7    1  0.6184948E-012  0.5930212E+02  0.7816164E-02  0.1266604E+00
        -11   -1    0    0    0    0  0.00000000000E+00  0.00000000000E+00  0.45593999997E+02  0.45594000000E+02  0.51100000000E-03 0.  1.
         11   -1    0    0    0    0 -0.00000000000E+00 -0.00000000000E+00 -0.45593999997E+02  0.45594000000E+02  0.51100000000E-03 0. -1.
    9900012    2    1    2    0    0  0.17443774999E+02  0.24247201353E+02  0.11157845492E+02  0.59302116357E+02  0.50000314287E+02 0.  0.
         12    1    1    2    0    0 -0.17443774999E+02 -0.24247201353E+02 -0.11157845492E+02  0.31885883643E+02  0.00000000000E+00 0. -1.
         11    1    3    3    0    0 -0.82282611563E+00 -0.22669706145E+01 -0.52494031090E+01  0.57768877300E+01  0.51100000000E-03 0. -1.
        -11    1    3    3    0    0  0.21129864004E+01 -0.85153897603E+01 -0.42706652781E+01  0.97578253970E+01  0.51100000000E-03 0.  1.
        -12    1    3    3    0    0  0.16153614714E+02  0.35029561727E+02  0.20677913879E+02  0.43767403230E+02  0.00000000000E+00 0.  1.
</event>
<event>
 7    1  0.6184948E-012  0.5930184E+02  0.7816164E-02  0.1266605E+00
        -11   -1    0    0    0    0  0.00000000000E+00  0.00000000000E+00  0.45593999997E+02  0.45594000000E+02  0.51100000000E-03 0.  1.
         11   -1    0    0    0    0 -0.00000000000E+00 -0.00000000000E+00 -0.45593999997E+02  0.45594000000E+02  0.51100000000E-03 0. -1.
    9900012    2    1    2    0    0  0.77106064318E+01 -0.18701548684E+02 -0.24648044628E+02  0.59301835623E+02  0.49999802295E+02 0.  0.
         12    1    1    2    0    0 -0.77106064318E+01  0.18701548684E+02  0.24648044628E+02  0.31886164377E+02  0.00000000000E+00 0. -1.
         11    1    3    3    0    0 -0.16555839521E+01 -0.32002446887E+02 -0.18753814943E+02  0.37129545381E+02  0.51100000000E-03 0. -1.
        -11    1    3    3    0    0  0.21204357714E+01  0.27273467157E+01  0.44974564910E+01  0.56711359636E+01  0.51100000000E-03 0.  1.
        -12    1    3    3    0    0  0.72457546124E+01  0.10573551488E+02 -0.10391686175E+02  0.16501154279E+02  0.00000000000E+00 0.  1.
</event>
<event>
 7    1  0.6184948E-012  0.5930194E+02  0.7816164E-02  0.1266605E+00
        -11   -1    0    0    0    0  0.00000000000E+00  0.00000000000E+00  0.45593999997E+02  0.45594000000E+02  0.51100000000E-03 0. -1.
         11   -1    0    0    0    0 -0.00000000000E+00 -0.00000000000E+00 -0.45593999997E+02  0.45594000000E+02  0.51100000000E-03 0.  1.
    9900012    2    1    2    0    0  0.91476323918E+01  0.18085633734E+02 -0.24616086835E+02  0.59301936320E+02  0.49999985943E+02 0.  0.
         12    1    1    2    0    0 -0.91476323918E+01 -0.18085633734E+02  0.24616086835E+02  0.31886063680E+02  0.00000000000E+00 0. -1.
         11    1    3    3    0    0  0.20905963985E+02  0.88950072788E+00 -0.16986892409E+02  0.26951902636E+02  0.51100000000E-03 0. -1.
        -11    1    3    3    0    0  0.12929922199E+01 -0.10769798258E+01 -0.96577168082E+01  0.98032243999E+01  0.51100000000E-03 0.  1.
        -12    1    3    3    0    0 -0.13051323813E+02  0.18273112832E+02  0.20285223830E+01  0.22546809285E+02  0.00000000000E+00 0.  1.
</event>
<event>
 7    1  0.6184948E-012  0.5930171E+02  0.7816164E-02  0.1266606E+00
        -11   -1    0    0    0    0  0.00000000000E+00  0.00000000000E+00  0.45593999997E+02  0.45594000000E+02  0.51100000000E-03 0.  1.
         11   -1    0    0    0    0 -0.00000000000E+00 -0.00000000000E+00 -0.45593999997E+02  0.45594000000E+02  0.51100000000E-03 0. -1.
    9900012    2    1    2    0    0 -0.68664206761E+00  0.30879404888E+02  0.79200034173E+01  0.59301708625E+02  0.49999570679E+02 0.  0.
         12    1    1    2    0    0  0.68664206761E+00 -0.30879404888E+02 -0.79200034173E+01  0.31886291375E+02  0.00000000000E+00 0. -1.
         11    1    3    3    0    0  0.30309983008E+01 -0.55177775590E+01  0.10602173104E+02  0.12330405292E+02  0.51100000000E-03 0. -1.
        -11    1    3    3    0    0 -0.31477017679E+01  0.17902050169E+02  0.13298347901E+02  0.22521933395E+02  0.51100000000E-03 0.  1.
         12    1    3    3    0    0 -0.56993860052E+00  0.18495132277E+02 -0.15980517588E+02  0.24449369937E+02  0.00000000000E+00 0. -1.
</event>
<event>
 7    1  0.6184948E-012  0.5930194E+02  0.7816164E-02  0.1266605E+00
        -11   -1    0    0    0    0  0.00000000000E+00  0.00000000000E+00  0.45593999997E+02  0.45594000000E+02  0.51100000000E-03 0. -1.
         11   -1    0    0    0    0 -0.00000000000E+00 -0.00000000000E+00 -0.45593999997E+02  0.45594000000E+02  0.51100000000E-03 0.  1.
    9900012    2    1    2    0    0 -0.85710015593E+00 -0.30196178399E+02  0.10206727859E+02  0.59301935580E+02  0.49999984594E+02 0.  0.
         12    1    1    2    0    0  0.85710015593E+00  0.30196178399E+02 -0.10206727859E+02  0.31886064420E+02  0.00000000000E+00 0. -1.
         11    1    3    3    0    0  0.16998873241E+02 -0.10935490496E+02  0.18393286362E+02  0.27328732633E+02  0.51100000000E-03 0. -1.
        -11    1    3    3    0    0 -0.96524714773E+01 -0.19210124521E+00  0.12279207208E-01  0.96543906875E+01  0.51100000000E-03 0.  1.
        -12    1    3    3    0    0 -0.82035019200E+01 -0.19068586658E+02 -0.81988377109E+01  0.22318812260E+02  0.00000000000E+00 0.  1.
</event>
<event>
 7    1  0.6184948E-012  0.5930196E+02  0.7816164E-02  0.1266605E+00
        -11   -1    0    0    0    0  0.00000000000E+00  0.00000000000E+00  0.45593999997E+02  0.45594000000E+02  0.51100000000E-03 0. -1.
         11   -1    0    0    0    0 -0.00000000000E+00 -0.00000000000E+00 -0.45593999997E+02  0.45594000000E+02  0.51100000000E-03 0.  1.
    9900012    2    1    2    0    0 -0.26534097172E+02 -0.13925861434E+02 -0.10896407970E+02  0.59301958602E+02  0.50000026580E+02 0.  0.
         12    1    1    2    0    0  0.26534097172E+02  0.13925861434E+02  0.10896407970E+02  0.31886041398E+02  0.00000000000E+00 0. -1.
         11    1    3    3    0    0 -0.12214422643E+02 -0.81201169123E+01  0.87194140979E+01  0.17063311567E+02  0.51100000000E-03 0. -1.
        -11    1    3    3    0    0 -0.53642715494E+01  0.59385651156E+01  0.77509795370E+01  0.11140899826E+02  0.51100000000E-03 0.  1.
        -12    1    3    3    0    0 -0.89554029793E+01 -0.11744309638E+02 -0.27366801605E+02  0.31097747209E+02  0.00000000000E+00 0.  1.
</event>
<event>
 7    1  0.6184948E-012  0.5930193E+02  0.7816164E-02  0.1266605E+00
        -11   -1    0    0    0    0  0.00000000000E+00  0.00000000000E+00  0.45593999997E+02  0.45594000000E+02  0.51100000000E-03 0. -1.
         11   -1    0    0    0    0 -0.00000000000E+00 -0.00000000000E+00 -0.45593999997E+02  0.45594000000E+02  0.51100000000E-03 0.  1.
    9900012    2    1    2    0    0 -0.18414058044E+02 -0.24071277011E+02 -0.99104709913E+01  0.59301931790E+02  0.49999977682E+02 0.  0.
         12    1    1    2    0    0  0.18414058044E+02  0.24071277011E+02  0.99104709913E+01  0.31886068210E+02  0.00000000000E+00 0. -1.
         11    1    3    3    0    0 -0.13651579912E+02 -0.18602002791E+00  0.10779591465E+02  0.17395396804E+02  0.51100000000E-03 0. -1.
        -11    1    3    3    0    0 -0.26103907409E+01 -0.88152713966E+01  0.61422957447E+01  0.11056715014E+02  0.51100000000E-03 0.  1.
        -12    1    3    3    0    0 -0.21520873908E+01 -0.15069985587E+02 -0.26832358201E+02  0.30849819973E+02  0.00000000000E+00 0.  1.
</event>
<event>
 7    1  0.6184948E-012  0.5930194E+02  0.7816164E-02  0.1266605E+00
        -11   -1    0    0    0    0  0.00000000000E+00  0.00000000000E+00  0.45593999997E+02  0.45594000000E+02  0.51100000000E-03 0. -1.
         11   -1    0    0    0    0 -0.00000000000E+00 -0.00000000000E+00 -0.45593999997E+02  0.45594000000E+02  0.51100000000E-03 0.  1.
    9900012    2    1    2    0    0  0.25906889188E+02  0.96260187613E+01 -0.15902636608E+02  0.59301937281E+02  0.49999987696E+02 0.  0.
         12    1    1    2    0    0 -0.25906889188E+02 -0.96260187613E+01  0.15902636608E+02  0.31886062719E+02  0.00000000000E+00 0. -1.
         11    1    3    3    0    0 -0.88383776476E+01  0.56797912898E+01 -0.70396946100E+01  0.12646511337E+02  0.51100000000E-03 0. -1.
        -11    1    3    3    0    0  0.20535340119E+02 -0.32773987119E+01 -0.18664178773E+02  0.27942675349E+02  0.51100000000E-03 0.  1.
         12    1    3    3    0    0  0.14209926717E+02  0.72236261833E+01  0.98012367749E+01  0.18712750596E+02  0.00000000000E+00 0. -1.
</event>
<event>
 7    1  0.6184948E-012  0.5930202E+02  0.7816164E-02  0.1266605E+00
        -11   -1    0    0    0    0  0.00000000000E+00  0.00000000000E+00  0.45593999997E+02  0.45594000000E+02  0.51100000000E-03 0.  1.
         11   -1    0    0    0    0 -0.00000000000E+00 -0.00000000000E+00 -0.45593999997E+02  0.45594000000E+02  0.51100000000E-03 0. -1.
    9900012    2    1    2    0    0  0.60881935862E+01  0.27334140388E+02  0.15247769973E+02  0.59302018425E+02  0.50000135682E+02 0.  0.
         12    1    1    2    0    0 -0.60881935862E+01 -0.27334140388E+02 -0.15247769973E+02  0.31885981575E+02  0.00000000000E+00 0. -1.
         11    1    3    3    0    0  0.95506773325E+01 -0.46117910113E+00  0.27394439398E-01  0.95618447168E+01  0.51100000000E-03 0. -1.
        -11    1    3    3    0    0  0.45813397937E+01  0.90103490251E+01  0.25087938012E+02  0.27047729994E+02  0.51100000000E-03 0.  1.
         12    1    3    3    0    0 -0.80438235399E+01  0.18784970464E+02 -0.98675624787E+01  0.22692443714E+02  0.00000000000E+00 0. -1.
</event>
<event>
 7    1  0.6184948E-012  0.5930192E+02  0.7816164E-02  0.1266605E+00
        -11   -1    0    0    0    0  0.00000000000E+00  0.00000000000E+00  0.45593999997E+02  0.45594000000E+02  0.51100000000E-03 0.  1.
         11   -1    0    0    0    0 -0.00000000000E+00 -0.00000000000E+00 -0.45593999997E+02  0.45594000000E+02  0.51100000000E-03 0. -1.
    9900012    2    1    2    0    0  0.21223410160E+02  0.15643120463E+02  0.17932695793E+02  0.59301922552E+02  0.49999960834E+02 0.  0.
         12    1    1    2    0    0 -0.21223410160E+02 -0.15643120463E+02 -0.17932695793E+02  0.31886077448E+02  0.00000000000E+00 0. -1.
         11    1    3    3    0    0 -0.45652878160E+01  0.30670896766E+01  0.82725234514E+00  0.55617657835E+01  0.51100000000E-03 0. -1.
        -11    1    3    3    0    0  0.13546164679E+02  0.23025493015E+02  0.24296791173E+02  0.36111022800E+02  0.51100000000E-03 0.  1.
         12    1    3    3    0    0  0.12242533297E+02 -0.10449462229E+02 -0.71913477251E+01  0.17629133969E+02  0.00000000000E+00 0. -1.
</event>
<event>
 7    1  0.6184948E-012  0.5930195E+02  0.7816164E-02  0.1266605E+00
        -11   -1    0    0    0    0  0.00000000000E+00  0.00000000000E+00  0.45593999997E+02  0.45594000000E+02  0.51100000000E-03 0. -1.
         11   -1    0    0    0    0 -0.00000000000E+00 -0.00000000000E+00 -0.45593999997E+02  0.45594000000E+02  0.51100000000E-03 0.  1.
    9900012    2    1    2    0    0 -0.19061528851E+02 -0.18888549666E+02 -0.17222100356E+02  0.59301953972E+02  0.50000018137E+02 0.  0.
         12    1    1    2    0    0  0.19061528851E+02  0.18888549666E+02  0.17222100356E+02  0.31886046028E+02  0.00000000000E+00 0. -1.
         11    1    3    3    0    0 -0.67766415179E+01  0.45307613424E+01 -0.29869618108E+01  0.86817400171E+01  0.51100000000E-03 0. -1.
        -11    1    3    3    0    0 -0.23578575972E+02 -0.37518390711E+01 -0.60002834958E-01  0.23875283074E+02  0.51100000000E-03 0.  1.
        -12    1    3    3    0    0  0.11293688638E+02 -0.19667471937E+02 -0.14175135710E+02  0.26744930881E+02  0.00000000000E+00 0.  1.
</event>
<event>
 7    1  0.6184948E-012  0.5930194E+02  0.7816164E-02  0.1266605E+00
        -11   -1    0    0    0    0  0.00000000000E+00  0.00000000000E+00  0.45593999997E+02  0.45594000000E+02  0.51100000000E-03 0. -1.
         11   -1    0    0    0    0 -0.00000000000E+00 -0.00000000000E+00 -0.45593999997E+02  0.45594000000E+02  0.51100000000E-03 0.  1.
    9900012    2    1    2    0    0  0.25327829762E+01  0.31779330412E+02  0.61631915907E+00  0.59301942226E+02  0.49999996715E+02 0.  0.
         12    1    1    2    0    0 -0.25327829762E+01 -0.31779330412E+02 -0.61631915907E+00  0.31886057774E+02  0.00000000000E+00 0. -1.
         11    1    3    3    0    0 -0.77718765353E+01 -0.50296611077E+01 -0.12870000497E+02  0.15853594823E+02  0.51100000000E-03 0. -1.
        -11    1    3    3    0    0  0.96974800372E+01  0.97466605065E+01  0.77328427281E+01  0.15774516380E+02  0.51100000000E-03 0.  1.
        -12    1    3    3    0    0  0.60717947425E+00  0.27062331013E+02  0.57534769283E+01  0.27673831024E+02  0.00000000000E+00 0.  1.
</event>
<event>
 7    1  0.6184948E-012  0.5930195E+02  0.7816164E-02  0.1266605E+00
        -11   -1    0    0    0    0  0.00000000000E+00  0.00000000000E+00  0.45593999997E+02  0.45594000000E+02  0.51100000000E-03 0.  1.
         11   -1    0    0    0    0 -0.00000000000E+00 -0.00000000000E+00 -0.45593999997E+02  0.45594000000E+02  0.51100000000E-03 0. -1.
    9900012    2    1    2    0    0  0.84706447911E+00 -0.30945472482E+02  0.76406988723E+01  0.59301951882E+02  0.50000014324E+02 0.  0.
         12    1    1    2    0    0 -0.84706447911E+00  0.30945472482E+02 -0.76406988723E+01  0.31886048118E+02  0.00000000000E+00 0. -1.
         11    1    3    3    0    0 -0.12711057974E+02 -0.79734980213E+01  0.35797133113E+01  0.15426017411E+02  0.51100000000E-03 0. -1.
        -11    1    3    3    0    0 -0.64072177395E+01 -0.18908058987E+02  0.10435848645E+02  0.22527185155E+02  0.51100000000E-03 0.  1.
         12    1    3    3    0    0  0.19965340193E+02 -0.40639154737E+01 -0.63748630837E+01  0.21348749316E+02  0.00000000000E+00 0. -1.
</event>
<event>
 7    1  0.6184948E-012  0.5930195E+02  0.7816164E-02  0.1266605E+00
        -11   -1    0    0    0    0  0.00000000000E+00  0.00000000000E+00  0.45593999997E+02  0.45594000000E+02  0.51100000000E-03 0.  1.
         11   -1    0    0    0    0 -0.00000000000E+00 -0.00000000000E+00 -0.45593999997E+02  0.45594000000E+02  0.51100000000E-03 0. -1.
    9900012    2    1    2    0    0  0.11024479761E+02 -0.15901940782E+02  0.25343824344E+02  0.59301948080E+02  0.50000007390E+02 0.  0.
         12    1    1    2    0    0 -0.11024479761E+02  0.15901940782E+02 -0.25343824344E+02  0.31886051920E+02  0.00000000000E+00 0. -1.
         11    1    3    3    0    0  0.71421900752E+01 -0.13071607630E+01 -0.43361475076E+00  0.72737590243E+01  0.51100000000E-03 0. -1.
        -11    1    3    3    0    0 -0.27974531791E+01 -0.18055055196E+02 -0.61102463442E+01  0.19265146588E+02  0.51100000000E-03 0.  1.
        -12    1    3    3    0    0  0.66797428653E+01  0.34602751767E+01  0.31887685439E+02  0.32763042467E+02  0.00000000000E+00 0.  1.
</event>
<event>
 7    1  0.6184948E-012  0.5930192E+02  0.7816164E-02  0.1266605E+00
        -11   -1    0    0    0    0  0.00000000000E+00  0.00000000000E+00  0.45593999997E+02  0.45594000000E+02  0.51100000000E-03 0.  1.
         11   -1    0    0    0    0 -0.00000000000E+00 -0.00000000000E+00 -0.45593999997E+02  0.45594000000E+02  0.51100000000E-03 0. -1.
    9900012    2    1    2    0    0  0.35348446026E+00 -0.29613669713E+02  0.11816424616E+02  0.59301917208E+02  0.49999951087E+02 0.  0.
         12    1    1    2    0    0 -0.35348446026E+00  0.29613669713E+02 -0.11816424616E+02  0.31886082792E+02  0.00000000000E+00 0. -1.
         11    1    3    3    0    0  0.20917551665E+02 -0.15027955171E+02  0.24255419575E+01  0.25870188603E+02  0.51100000000E-03 0. -1.
        -11    1    3    3    0    0 -0.12210376752E+02 -0.11786992718E+01 -0.38102678816E+01  0.12845262706E+02  0.51100000000E-03 0.  1.
        -12    1    3    3    0    0 -0.83536904529E+01 -0.13407015270E+02  0.13201150540E+02  0.20586465899E+02  0.00000000000E+00 0.  1.
</event>
<event>
 7    1  0.6184948E-012  0.5930194E+02  0.7816164E-02  0.1266605E+00
        -11   -1    0    0    0    0  0.00000000000E+00  0.00000000000E+00  0.45593999997E+02  0.45594000000E+02  0.51100000000E-03 0. -1.
         11   -1    0    0    0    0 -0.00000000000E+00 -0.00000000000E+00 -0.45593999997E+02  0.45594000000E+02  0.51100000000E-03 0.  1.
    9900012    2    1    2    0    0 -0.27089358727E+02  0.15220292063E+02 -0.71575074227E+01  0.59301944125E+02  0.50000000178E+02 0.  0.
         12    1    1    2    0    0  0.27089358727E+02 -0.15220292063E+02  0.71575074227E+01  0.31886055875E+02  0.00000000000E+00 0. -1.
         11    1    3    3    0    0 -0.14387625518E+02 -0.80931651081E-02 -0.80416129188E+01  0.16482456496E+02  0.51100000000E-03 0. -1.
        -11    1    3    3    0    0 -0.85933707696E+01  0.13444879580E+02  0.18622947608E+02  0.24523967582E+02  0.51100000000E-03 0.  1.
         12    1    3    3    0    0 -0.41083624395E+01  0.17835056476E+01 -0.17738842112E+02  0.18295520047E+02  0.00000000000E+00 0. -1.
</event>
<event>
 7    1  0.6184948E-012  0.5930200E+02  0.7816164E-02  0.1266605E+00
        -11   -1    0    0    0    0  0.00000000000E+00  0.00000000000E+00  0.45593999997E+02  0.45594000000E+02  0.51100000000E-03 0. -1.
         11   -1    0    0    0    0 -0.00000000000E+00 -0.00000000000E+00 -0.45593999997E+02  0.45594000000E+02  0.51100000000E-03 0.  1.
    9900012    2    1    2    0    0  0.25812378372E+02 -0.15815930608E+02 -0.10014703547E+02  0.59302002677E+02  0.50000106961E+02 0.  0.
         12    1    1    2    0    0 -0.25812378372E+02  0.15815930608E+02  0.10014703547E+02  0.31885997323E+02  0.00000000000E+00 0. -1.
         11    1    3    3    0    0 -0.62909218012E+01 -0.12160562247E+02  0.47466626319E+01  0.14490886021E+02  0.51100000000E-03 0.  1.
        -11    1    3    3    0    0  0.59958304894E+01 -0.95934015555E+01  0.41298035189E+01  0.12043197832E+02  0.51100000000E-03 0. -1.
        -12    1    3    3    0    0  0.26107469683E+02  0.59380331946E+01 -0.18891169698E+02  0.32767918824E+02  0.00000000000E+00 0.  1.
</event>
<event>
 7    1  0.6184948E-012  0.5930189E+02  0.7816164E-02  0.1266605E+00
        -11   -1    0    0    0    0  0.00000000000E+00  0.00000000000E+00  0.45593999997E+02  0.45594000000E+02  0.51100000000E-03 0. -1.
         11   -1    0    0    0    0 -0.00000000000E+00 -0.00000000000E+00 -0.45593999997E+02  0.45594000000E+02  0.51100000000E-03 0.  1.
    9900012    2    1    2    0    0  0.10861575593E+02  0.99257514183E+01 -0.28288325252E+02  0.59301894701E+02  0.49999910040E+02 0.  0.
         12    1    1    2    0    0 -0.10861575593E+02 -0.99257514183E+01  0.28288325252E+02  0.31886105299E+02  0.00000000000E+00 0. -1.
         11    1    3    3    0    0  0.89748687474E+01 -0.12343734189E+02 -0.15054133512E+02  0.21436953580E+02  0.51100000000E-03 0. -1.
        -11    1    3    3    0    0  0.13855942585E+02  0.92042438742E+01 -0.11145687632E+02  0.20023276537E+02  0.51100000000E-03 0.  1.
         12    1    3    3    0    0 -0.11969235739E+02  0.13065241733E+02 -0.20885041081E+01  0.17841664584E+02  0.00000000000E+00 0. -1.
</event>
<event>
 7    1  0.6184948E-012  0.5930193E+02  0.7816164E-02  0.1266605E+00
        -11   -1    0    0    0    0  0.00000000000E+00  0.00000000000E+00  0.45593999997E+02  0.45594000000E+02  0.51100000000E-03 0.  1.
         11   -1    0    0    0    0 -0.00000000000E+00 -0.00000000000E+00 -0.45593999997E+02  0.45594000000E+02  0.51100000000E-03 0. -1.
    9900012    2    1    2    0    0 -0.13465381573E+02 -0.28417042660E+02 -0.52798508197E+01  0.59301927192E+02  0.49999969295E+02 0.  0.
         12    1    1    2    0    0  0.13465381573E+02  0.28417042660E+02  0.52798508197E+01  0.31886072808E+02  0.00000000000E+00 0. -1.
         11    1    3    3    0    0 -0.11701624275E+01  0.77433044991E+01 -0.42111790741E+00  0.78425369126E+01  0.51100000000E-03 0. -1.
        -11    1    3    3    0    0 -0.19834689622E+01 -0.22320140238E+02  0.13581122191E+02  0.26202474876E+02  0.51100000000E-03 0.  1.
        -12    1    3    3    0    0 -0.10311750184E+02 -0.13840206921E+02 -0.18439855103E+02  0.25256915403E+02  0.00000000000E+00 0.  1.
</event>
<event>
 7    1  0.6184948E-012  0.5930193E+02  0.7816164E-02  0.1266605E+00
        -11   -1    0    0    0    0  0.00000000000E+00  0.00000000000E+00  0.45593999997E+02  0.45594000000E+02  0.51100000000E-03 0. -1.
         11   -1    0    0    0    0 -0.00000000000E+00 -0.00000000000E+00 -0.45593999997E+02  0.45594000000E+02  0.51100000000E-03 0.  1.
    9900012    2    1    2    0    0 -0.30762030235E+02  0.17775965033E+01 -0.82011588693E+01  0.59301931564E+02  0.49999977269E+02 0.  0.
         12    1    1    2    0    0  0.30762030235E+02 -0.17775965033E+01  0.82011588693E+01  0.31886068436E+02  0.00000000000E+00 0. -1.
         11    1    3    3    0    0 -0.38966262619E+01 -0.17214160895E+02  0.22860554094E+01  0.17797108786E+02  0.51100000000E-03 0. -1.
        -11    1    3    3    0    0  0.21360042385E+00  0.11917301364E+02 -0.52815147678E+01  0.13036951156E+02  0.51100000000E-03 0.  1.
        -12    1    3    3    0    0 -0.27079004397E+02  0.70744560337E+01 -0.52056995109E+01  0.28467871622E+02  0.00000000000E+00 0.  1.
</event>
<event>
 7    1  0.6184948E-012  0.5930197E+02  0.7816164E-02  0.1266605E+00
        -11   -1    0    0    0    0  0.00000000000E+00  0.00000000000E+00  0.45593999997E+02  0.45594000000E+02  0.51100000000E-03 0.  1.
         11   -1    0    0    0    0 -0.00000000000E+00 -0.00000000000E+00 -0.45593999997E+02  0.45594000000E+02  0.51100000000E-03 0. -1.
    9900012    2    1    2    0    0  0.43782319981E+01 -0.20739995882E+02  0.23820207279E+02  0.59301974544E+02  0.50000055654E+02 0.  0.
         12    1    1    2    0    0 -0.43782319981E+01  0.20739995882E+02 -0.23820207279E+02  0.31886025456E+02  0.00000000000E+00 0. -1.
         11    1    3    3    0    0  0.91735602782E+01 -0.19050168284E+02  0.34598015600E+01  0.21425063522E+02  0.51100000000E-03 0.  1.
        -11    1    3    3    0    0 -0.10304581609E+01  0.10660452691E+02  0.22377938882E+02  0.24808854154E+02  0.51100000000E-03 0. -1.
         12    1    3    3    0    0 -0.37648701192E+01 -0.12350280289E+02 -0.20175331630E+01  0.13068056867E+02  0.00000000000E+00 0. -1.
</event>
<event>
 7    1  0.6184948E-012  0.5930179E+02  0.7816164E-02  0.1266605E+00
        -11   -1    0    0    0    0  0.00000000000E+00  0.00000000000E+00  0.45593999997E+02  0.45594000000E+02  0.51100000000E-03 0. -1.
         11   -1    0    0    0    0 -0.00000000000E+00 -0.00000000000E+00 -0.45593999997E+02  0.45594000000E+02  0.51100000000E-03 0.  1.
    9900012    2    1    2    0    0  0.70253577223E+01  0.88567263896E+01 -0.29814984100E+02  0.59301787771E+02  0.49999715024E+02 0.  0.
         12    1    1    2    0    0 -0.70253577223E+01 -0.88567263896E+01  0.29814984100E+02  0.31886212229E+02  0.00000000000E+00 0. -1.
         11    1    3    3    0    0 -0.30206513928E+01  0.67509116597E+00  0.15592855152E+01  0.34657545352E+01  0.51100000000E-03 0. -1.
        -11    1    3    3    0    0  0.19528403428E+02  0.13717983606E+02 -0.13911639467E+01  0.23905584118E+02  0.51100000000E-03 0.  1.
        -12    1    3    3    0    0 -0.94823943126E+01 -0.55363483823E+01 -0.29983105668E+02  0.31930449117E+02  0.00000000000E+00 0.  1.
</event>
<event>
 7    1  0.6184948E-012  0.5930224E+02  0.7816164E-02  0.1266604E+00
        -11   -1    0    0    0    0  0.00000000000E+00  0.00000000000E+00  0.45593999997E+02  0.45594000000E+02  0.51100000000E-03 0.  1.
         11   -1    0    0    0    0 -0.00000000000E+00 -0.00000000000E+00 -0.45593999997E+02  0.45594000000E+02  0.51100000000E-03 0. -1.
    9900012    2    1    2    0    0 -0.11556006222E+02  0.29587716898E+02  0.27798171702E+01  0.59302240568E+02  0.50000540815E+02 0.  0.
         12    1    1    2    0    0  0.11556006222E+02 -0.29587716898E+02 -0.27798171702E+01  0.31885759432E+02  0.00000000000E+00 0. -1.
         11    1    3    3    0    0 -0.14196629149E+02  0.22603369256E+02 -0.18963279328E+02  0.32742366195E+02  0.51100000000E-03 0. -1.
        -11    1    3    3    0    0 -0.21929066756E+01 -0.16837426938E+01  0.11934239122E+00  0.27673221739E+01  0.51100000000E-03 0.  1.
         12    1    3    3    0    0  0.48335296023E+01  0.86680903359E+01  0.21623754106E+02  0.23792552199E+02  0.00000000000E+00 0. -1.
</event>
<event>
 7    1  0.6184948E-012  0.5930191E+02  0.7816164E-02  0.1266605E+00
        -11   -1    0    0    0    0  0.00000000000E+00  0.00000000000E+00  0.45593999997E+02  0.45594000000E+02  0.51100000000E-03 0.  1.
         11   -1    0    0    0    0 -0.00000000000E+00 -0.00000000000E+00 -0.45593999997E+02  0.45594000000E+02  0.51100000000E-03 0. -1.
    9900012    2    1    2    0    0  0.19531685711E+02 -0.13435572301E+02 -0.21324198860E+02  0.59301908882E+02  0.49999935902E+02 0.  0.
         12    1    1    2    0    0 -0.19531685711E+02  0.13435572301E+02  0.21324198860E+02  0.31886091118E+02  0.00000000000E+00 0. -1.
         11    1    3    3    0    0  0.84602587771E+01  0.10615446456E+02  0.76280870200E+01  0.15570850776E+02  0.51100000000E-03 0. -1.
        -11    1    3    3    0    0 -0.25383611904E+01 -0.14296335384E+01  0.16235146014E+01  0.33351056219E+01  0.51100000000E-03 0.  1.
         12    1    3    3    0    0  0.13609788125E+02 -0.22621385219E+02 -0.30575800481E+02  0.40395952484E+02  0.00000000000E+00 0. -1.
</event>
<event>
 7    1  0.6184948E-012  0.5930194E+02  0.7816164E-02  0.1266605E+00
        -11   -1    0    0    0    0  0.00000000000E+00  0.00000000000E+00  0.45593999997E+02  0.45594000000E+02  0.51100000000E-03 0.  1.
         11   -1    0    0    0    0 -0.00000000000E+00 -0.00000000000E+00 -0.45593999997E+02  0.45594000000E+02  0.51100000000E-03 0. -1.
    9900012    2    1    2    0    0 -0.12032352870E+02 -0.12332554021E+02  0.26830044554E+02  0.59301941996E+02  0.49999996295E+02 0.  0.
         12    1    1    2    0    0  0.12032352870E+02  0.12332554021E+02 -0.26830044554E+02  0.31886058004E+02  0.00000000000E+00 0. -1.
         11    1    3    3    0    0 -0.20180279330E+02 -0.57591280242E+00  0.96738848683E+01  0.22386589693E+02  0.51100000000E-03 0. -1.
        -11    1    3    3    0    0 -0.19989325133E+01 -0.19633126929E+02  0.11837327278E+02  0.23012555737E+02  0.51100000000E-03 0.  1.
         12    1    3    3    0    0  0.10146858973E+02  0.78764857111E+01  0.53188324071E+01  0.13902796566E+02  0.00000000000E+00 0. -1.
</event>
<event>
 7    1  0.6184948E-012  0.5930195E+02  0.7816164E-02  0.1266605E+00
        -11   -1    0    0    0    0  0.00000000000E+00  0.00000000000E+00  0.45593999997E+02  0.45594000000E+02  0.51100000000E-03 0.  1.
         11   -1    0    0    0    0 -0.00000000000E+00 -0.00000000000E+00 -0.45593999997E+02  0.45594000000E+02  0.51100000000E-03 0. -1.
    9900012    2    1    2    0    0  0.22847621352E+02 -0.19616920055E+02  0.10482509730E+02  0.59301947185E+02  0.50000005758E+02 0.  0.
         12    1    1    2    0    0 -0.22847621352E+02  0.19616920055E+02 -0.10482509730E+02  0.31886052815E+02  0.00000000000E+00 0. -1.
         11    1    3    3    0    0 -0.61262181983E+01  0.42301549922E+01 -0.54864356513E+01  0.92480126021E+01  0.51100000000E-03 0. -1.
        -11    1    3    3    0    0  0.14027389951E+02 -0.21992670628E+02 -0.25202459951E+01  0.26206809617E+02  0.51100000000E-03 0.  1.
        -12    1    3    3    0    0  0.14946449600E+02 -0.18544044190E+01  0.18489191376E+02  0.23847124966E+02  0.00000000000E+00 0.  1.
</event>
<event>
 7    1  0.6184948E-012  0.5930195E+02  0.7816164E-02  0.1266605E+00
        -11   -1    0    0    0    0  0.00000000000E+00  0.00000000000E+00  0.45593999997E+02  0.45594000000E+02  0.51100000000E-03 0. -1.
         11   -1    0    0    0    0 -0.00000000000E+00 -0.00000000000E+00 -0.45593999997E+02  0.45594000000E+02  0.51100000000E-03 0.  1.
    9900012    2    1    2    0    0  0.23831833875E+01  0.27634677903E+02 -0.15727852483E+02  0.59301947727E+02  0.50000006746E+02 0.  0.
         12    1    1    2    0    0 -0.23831833875E+01 -0.27634677903E+02  0.15727852483E+02  0.31886052273E+02  0.00000000000E+00 0. -1.
         11    1    3    3    0    0 -0.18070059279E+02  0.19019789948E+01 -0.38201604599E+01  0.18567126667E+02  0.51100000000E-03 0. -1.
        -11    1    3    3    0    0  0.67359024578E+01  0.46134463282E+01 -0.13197511831E+02  0.15518717336E+02  0.51100000000E-03 0.  1.
        -12    1    3    3    0    0  0.13717340209E+02  0.21119252580E+02  0.12898198082E+01  0.25216103725E+02  0.00000000000E+00 0.  1.
</event>
<event>
 7    1  0.6184948E-012  0.5930195E+02  0.7816164E-02  0.1266605E+00
        -11   -1    0    0    0    0  0.00000000000E+00  0.00000000000E+00  0.45593999997E+02  0.45594000000E+02  0.51100000000E-03 0.  1.
         11   -1    0    0    0    0 -0.00000000000E+00 -0.00000000000E+00 -0.45593999997E+02  0.45594000000E+02  0.51100000000E-03 0. -1.
    9900012    2    1    2    0    0 -0.22824959668E+02  0.12165091691E+02  0.18648100324E+02  0.59301954692E+02  0.50000019449E+02 0.  0.
         12    1    1    2    0    0  0.22824959668E+02 -0.12165091691E+02 -0.18648100324E+02  0.31886045308E+02  0.00000000000E+00 0. -1.
         11    1    3    3    0    0  0.52091133168E+01  0.37801283497E+01  0.37817478262E+01  0.74649748003E+01  0.51100000000E-03 0. -1.
        -11    1    3    3    0    0 -0.11771648925E+02  0.12678497707E+02  0.26313488979E+02  0.31491518303E+02  0.51100000000E-03 0.  1.
        -12    1    3    3    0    0 -0.16262424060E+02 -0.42935343652E+01 -0.11447136481E+02  0.20345461589E+02  0.00000000000E+00 0.  1.
</event>
<event>
 7    1  0.6184948E-012  0.5930195E+02  0.7816164E-02  0.1266605E+00
        -11   -1    0    0    0    0  0.00000000000E+00  0.00000000000E+00  0.45593999997E+02  0.45594000000E+02  0.51100000000E-03 0.  1.
         11   -1    0    0    0    0 -0.00000000000E+00 -0.00000000000E+00 -0.45593999997E+02  0.45594000000E+02  0.51100000000E-03 0. -1.
    9900012    2    1    2    0    0  0.28979060507E+00 -0.17150764609E+02  0.26879128700E+02  0.59301948740E+02  0.50000008594E+02 0.  0.
         12    1    1    2    0    0 -0.28979060507E+00  0.17150764609E+02 -0.26879128700E+02  0.31886051260E+02  0.00000000000E+00 0. -1.
         11    1    3    3    0    0 -0.69942110331E+01 -0.20562503917E+02  0.77120198288E+01  0.23048010877E+02  0.51100000000E-03 0. -1.
        -11    1    3    3    0    0  0.66797377970E+01  0.13565354889E+01  0.27147979310E+02  0.27990567455E+02  0.51100000000E-03 0.  1.
        -12    1    3    3    0    0  0.60426384116E+00  0.20552038185E+01 -0.79808704391E+01  0.82633704075E+01  0.00000000000E+00 0.  1.
</event>
<event>
 7    1  0.6184948E-012  0.5930192E+02  0.7816164E-02  0.1266605E+00
        -11   -1    0    0    0    0  0.00000000000E+00  0.00000000000E+00  0.45593999997E+02  0.45594000000E+02  0.51100000000E-03 0. -1.
         11   -1    0    0    0    0 -0.00000000000E+00 -0.00000000000E+00 -0.45593999997E+02  0.45594000000E+02  0.51100000000E-03 0.  1.
    9900012    2    1    2    0    0 -0.19553931371E+02 -0.10189448942E+02 -0.23033477187E+02  0.59301918818E+02  0.49999954023E+02 0.  0.
         12    1    1    2    0    0  0.19553931371E+02  0.10189448942E+02  0.23033477187E+02  0.31886081182E+02  0.00000000000E+00 0. -1.
         11    1    3    3    0    0 -0.96938991354E+01  0.15219708096E+01 -0.84780649841E+01  0.12967870362E+02  0.51100000000E-03 0. -1.
        -11    1    3    3    0    0 -0.13205021897E+02 -0.21046233279E+02 -0.22583387945E+02  0.33575674973E+02  0.51100000000E-03 0.  1.
         12    1    3    3    0    0  0.33449896606E+01  0.93348135275E+01  0.80279757419E+01  0.12758373483E+02  0.00000000000E+00 0. -1.
</event>
<event>
 7    1  0.6184948E-012  0.5930195E+02  0.7816164E-02  0.1266605E+00
        -11   -1    0    0    0    0  0.00000000000E+00  0.00000000000E+00  0.45593999997E+02  0.45594000000E+02  0.51100000000E-03 0. -1.
         11   -1    0    0    0    0 -0.00000000000E+00 -0.00000000000E+00 -0.45593999997E+02  0.45594000000E+02  0.51100000000E-03 0.  1.
    9900012    2    1    2    0    0 -0.20080625149E+02 -0.92975295056E+01 -0.22957445965E+02  0.59301954674E+02  0.50000019416E+02 0.  0.
         12    1    1    2    0    0  0.20080625149E+02  0.92975295056E+01  0.22957445965E+02  0.31886045326E+02  0.00000000000E+00 0. -1.
         11    1    3    3    0    0 -0.53171293671E+01 -0.85822743863E+01  0.42708380496E+01  0.10962087222E+02  0.51100000000E-03 0. -1.
        -11    1    3    3    0    0  0.36557694762E+01  0.22769069984E+01  0.76524685211E+01  0.87811861767E+01  0.51100000000E-03 0.  1.
        -12    1    3    3    0    0 -0.18419265258E+02 -0.29921621177E+01 -0.34880752536E+02  0.39558681276E+02  0.00000000000E+00 0.  1.
</event>
<event>
 7    1  0.6184948E-012  0.5930191E+02  0.7816164E-02  0.1266605E+00
        -11   -1    0    0    0    0  0.00000000000E+00  0.00000000000E+00  0.45593999997E+02  0.45594000000E+02  0.51100000000E-03 0.  1.
         11   -1    0    0    0    0 -0.00000000000E+00 -0.00000000000E+00 -0.45593999997E+02  0.45594000000E+02  0.51100000000E-03 0. -1.
    9900012    2    1    2    0    0 -0.25437591845E+02  0.98901906360E+01  0.16487440747E+02  0.59301911308E+02  0.49999940328E+02 0.  0.
         12    1    1    2    0    0  0.25437591845E+02 -0.98901906360E+01 -0.16487440747E+02  0.31886088692E+02  0.00000000000E+00 0. -1.
         11    1    3    3    0    0 -0.65066397651E+01 -0.12851460424E+02 -0.99308320895E+01  0.17496223087E+02  0.51100000000E-03 0. -1.
        -11    1    3    3    0    0 -0.36491436960E+00  0.26302038959E+01 -0.12072101001E+01  0.29169318672E+01  0.51100000000E-03 0.  1.
        -12    1    3    3    0    0 -0.18566037710E+02  0.20111447164E+02  0.27625482936E+02  0.38888756354E+02  0.00000000000E+00 0.  1.
</event>
<event>
 7    1  0.6184948E-012  0.5930198E+02  0.7816164E-02  0.1266605E+00
        -11   -1    0    0    0    0  0.00000000000E+00  0.00000000000E+00  0.45593999997E+02  0.45594000000E+02  0.51100000000E-03 0. -1.
         11   -1    0    0    0    0 -0.00000000000E+00 -0.00000000000E+00 -0.45593999997E+02  0.45594000000E+02  0.51100000000E-03 0.  1.
    9900012    2    1    2    0    0  0.50660240356E+01  0.61503325363E+01 -0.30874378411E+02  0.59301977480E+02  0.50000061010E+02 0.  0.
         12    1    1    2    0    0 -0.50660240356E+01 -0.61503325363E+01  0.30874378411E+02  0.31886022520E+02  0.00000000000E+00 0. -1.
         11    1    3    3    0    0 -0.19615197850E+01 -0.12918492802E+02  0.66099726476E+00  0.13083269232E+02  0.51100000000E-03 0. -1.
        -11    1    3    3    0    0 -0.12471496256E+01 -0.34768413290E+01 -0.18555056517E+02  0.18919141905E+02  0.51100000000E-03 0.  1.
         12    1    3    3    0    0  0.82746934462E+01  0.22545666667E+02 -0.12980319159E+02  0.27299566344E+02  0.00000000000E+00 0. -1.
</event>
<event>
 7    1  0.6184948E-012  0.5930192E+02  0.7816164E-02  0.1266605E+00
        -11   -1    0    0    0    0  0.00000000000E+00  0.00000000000E+00  0.45593999997E+02  0.45594000000E+02  0.51100000000E-03 0. -1.
         11   -1    0    0    0    0 -0.00000000000E+00 -0.00000000000E+00 -0.45593999997E+02  0.45594000000E+02  0.51100000000E-03 0.  1.
    9900012    2    1    2    0    0  0.21733154882E+02  0.20705686635E+02 -0.10754843776E+02  0.59301919263E+02  0.49999954834E+02 0.  0.
         12    1    1    2    0    0 -0.21733154882E+02 -0.20705686635E+02  0.10754843776E+02  0.31886080737E+02  0.00000000000E+00 0. -1.
         11    1    3    3    0    0  0.19159450427E+02  0.14415219622E+02  0.11413107439E+02  0.26554512217E+02  0.51100000000E-03 0.  1.
        -11    1    3    3    0    0 -0.76183634876E+01  0.87520882050E+01 -0.50086939040E+01  0.12638256409E+02  0.51100000000E-03 0. -1.
        -12    1    3    3    0    0  0.10192067943E+02 -0.24616211927E+01 -0.17159257311E+02  0.20109150636E+02  0.00000000000E+00 0.  1.
</event>
<event>
 7    1  0.6184948E-012  0.5930202E+02  0.7816164E-02  0.1266605E+00
        -11   -1    0    0    0    0  0.00000000000E+00  0.00000000000E+00  0.45593999997E+02  0.45594000000E+02  0.51100000000E-03 0.  1.
         11   -1    0    0    0    0 -0.00000000000E+00 -0.00000000000E+00 -0.45593999997E+02  0.45594000000E+02  0.51100000000E-03 0. -1.
    9900012    2    1    2    0    0 -0.97022665054E+01  0.73804301409E+00  0.30365067299E+02  0.59302015698E+02  0.50000130709E+02 0.  0.
         12    1    1    2    0    0  0.97022665054E+01 -0.73804301409E+00 -0.30365067299E+02  0.31885984302E+02  0.00000000000E+00 0. -1.
         11    1    3    3    0    0 -0.60465089264E+01  0.41750803817E+01 -0.59608034248E+01  0.94616459520E+01  0.51100000000E-03 0. -1.
        -11    1    3    3    0    0 -0.12375741347E+02 -0.88930420255E+01  0.37711607477E+01  0.15699261893E+02  0.51100000000E-03 0.  1.
        -12    1    3    3    0    0  0.87199837680E+01  0.54560046578E+01  0.32554709976E+02  0.34141107852E+02  0.00000000000E+00 0.  1.
</event>
<event>
 7    1  0.6184948E-012  0.5930194E+02  0.7816164E-02  0.1266605E+00
        -11   -1    0    0    0    0  0.00000000000E+00  0.00000000000E+00  0.45593999997E+02  0.45594000000E+02  0.51100000000E-03 0. -1.
         11   -1    0    0    0    0 -0.00000000000E+00 -0.00000000000E+00 -0.45593999997E+02  0.45594000000E+02  0.51100000000E-03 0.  1.
    9900012    2    1    2    0    0  0.13699024560E+02  0.24839466634E+02 -0.14562237185E+02  0.59301935201E+02  0.49999983902E+02 0.  0.
         12    1    1    2    0    0 -0.13699024560E+02 -0.24839466634E+02  0.14562237185E+02  0.31886064799E+02  0.00000000000E+00 0. -1.
         11    1    3    3    0    0 -0.28910863863E+01  0.15628506731E+02 -0.40671518022E+01  0.16405801631E+02  0.51100000000E-03 0. -1.
        -11    1    3    3    0    0  0.20009543399E+02  0.21042913187E+02 -0.52444963890E+01  0.29507469649E+02  0.51100000000E-03 0.  1.
         12    1    3    3    0    0 -0.34194324530E+01 -0.11831953284E+02 -0.52505889934E+01  0.13388663921E+02  0.00000000000E+00 0. -1.
</event>
<event>
 7    1  0.6184948E-012  0.5930196E+02  0.7816164E-02  0.1266605E+00
        -11   -1    0    0    0    0  0.00000000000E+00  0.00000000000E+00  0.45593999997E+02  0.45594000000E+02  0.51100000000E-03 0. -1.
         11   -1    0    0    0    0 -0.00000000000E+00 -0.00000000000E+00 -0.45593999997E+02  0.45594000000E+02  0.51100000000E-03 0.  1.
    9900012    2    1    2    0    0  0.17899060008E+02 -0.12845312623E+02 -0.23050841304E+02  0.59301957750E+02  0.50000025026E+02 0.  0.
         12    1    1    2    0    0 -0.17899060008E+02  0.12845312623E+02  0.23050841304E+02  0.31886042250E+02  0.00000000000E+00 0. -1.
         11    1    3    3    0    0 -0.19522178651E+01 -0.87648123639E+01 -0.77906848687E+01  0.11888139524E+02  0.51100000000E-03 0. -1.
        -11    1    3    3    0    0  0.14054509117E+02 -0.14596687623E+02 -0.24837244098E+02  0.32054347766E+02  0.51100000000E-03 0.  1.
        -12    1    3    3    0    0  0.57967687564E+01  0.10516187364E+02  0.95770876628E+01  0.15359470460E+02  0.00000000000E+00 0.  1.
</event>
<event>
 7    1  0.6184948E-012  0.5930197E+02  0.7816164E-02  0.1266605E+00
        -11   -1    0    0    0    0  0.00000000000E+00  0.00000000000E+00  0.45593999997E+02  0.45594000000E+02  0.51100000000E-03 0.  1.
         11   -1    0    0    0    0 -0.00000000000E+00 -0.00000000000E+00 -0.45593999997E+02  0.45594000000E+02  0.51100000000E-03 0. -1.
    9900012    2    1    2    0    0 -0.12462300786E+02  0.25244728672E+00  0.29348701879E+02  0.59301969007E+02  0.50000045556E+02 0.  0.
         12    1    1    2    0    0  0.12462300786E+02 -0.25244728672E+00 -0.29348701879E+02  0.31886030993E+02  0.00000000000E+00 0. -1.
         11    1    3    3    0    0  0.16546163434E+01 -0.88827784046E+01 -0.66773475741E+00  0.90602084632E+01  0.51100000000E-03 0. -1.
        -11    1    3    3    0    0 -0.13469217900E+02 -0.11491931352E+02  0.62749956429E+01  0.18784565143E+02  0.51100000000E-03 0.  1.
         12    1    3    3    0    0 -0.64769922944E+00  0.20627157044E+02  0.23741440993E+02  0.31457195400E+02  0.00000000000E+00 0. -1.
</event>
<event>
 7    1  0.6184948E-012  0.5930191E+02  0.7816164E-02  0.1266605E+00
        -11   -1    0    0    0    0  0.00000000000E+00  0.00000000000E+00  0.45593999997E+02  0.45594000000E+02  0.51100000000E-03 0.  1.
         11   -1    0    0    0    0 -0.00000000000E+00 -0.00000000000E+00 -0.45593999997E+02  0.45594000000E+02  0.51100000000E-03 0. -1.
    9900012    2    1    2    0    0  0.19893440575E+02  0.21351479785E+02  0.12848663516E+02  0.59301908658E+02  0.49999935494E+02 0.  0.
         12    1    1    2    0    0 -0.19893440575E+02 -0.21351479785E+02 -0.12848663516E+02  0.31886091342E+02  0.00000000000E+00 0. -1.
         11    1    3    3    0    0  0.22694822349E+02  0.83824185062E+01  0.14458320090E+02  0.28184444674E+02  0.51100000000E-03 0. -1.
        -11    1    3    3    0    0  0.11266977180E+02  0.12678602487E+02 -0.16939362758E+01  0.17045854516E+02  0.51100000000E-03 0.  1.
         12    1    3    3    0    0 -0.14068358954E+02  0.29045879100E+00  0.84279701794E-01  0.14071609469E+02  0.00000000000E+00 0. -1.
</event>
<event>
 7    1  0.6184948E-012  0.5930193E+02  0.7816164E-02  0.1266605E+00
        -11   -1    0    0    0    0  0.00000000000E+00  0.00000000000E+00  0.45593999997E+02  0.45594000000E+02  0.51100000000E-03 0. -1.
         11   -1    0    0    0    0 -0.00000000000E+00 -0.00000000000E+00 -0.45593999997E+02  0.45594000000E+02  0.51100000000E-03 0.  1.
    9900012    2    1    2    0    0 -0.23600531292E+02 -0.15544644684E+02 -0.14768214062E+02  0.59301934043E+02  0.49999981791E+02 0.  0.
         12    1    1    2    0    0  0.23600531292E+02  0.15544644684E+02  0.14768214062E+02  0.31886065957E+02  0.00000000000E+00 0. -1.
         11    1    3    3    0    0 -0.22715265520E+02  0.74909095772E+01 -0.15031498590E+02  0.28249654229E+02  0.51100000000E-03 0. -1.
        -11    1    3    3    0    0 -0.51179294865E+01  0.17047450117E+01  0.23121865646E+01  0.58690343970E+01  0.51100000000E-03 0.  1.
        -12    1    3    3    0    0  0.42326637140E+01 -0.24740299273E+02 -0.20489020362E+01  0.25183245418E+02  0.00000000000E+00 0.  1.
</event>
<event>
 7    1  0.6184948E-012  0.5930195E+02  0.7816164E-02  0.1266605E+00
        -11   -1    0    0    0    0  0.00000000000E+00  0.00000000000E+00  0.45593999997E+02  0.45594000000E+02  0.51100000000E-03 0.  1.
         11   -1    0    0    0    0 -0.00000000000E+00 -0.00000000000E+00 -0.45593999997E+02  0.45594000000E+02  0.51100000000E-03 0. -1.
    9900012    2    1    2    0    0  0.88850259869E+01 -0.17326255324E+02  0.25250289461E+02  0.59301954021E+02  0.50000018225E+02 0.  0.
         12    1    1    2    0    0 -0.88850259869E+01  0.17326255324E+02 -0.25250289461E+02  0.31886045979E+02  0.00000000000E+00 0. -1.
         11    1    3    3    0    0  0.51593415230E+01  0.39667984819E+01 -0.58797106587E+01  0.87707065188E+01  0.51100000000E-03 0. -1.
        -11    1    3    3    0    0 -0.31205926493E+01 -0.49652218093E+01  0.32261380931E+02  0.32790062915E+02  0.51100000000E-03 0.  1.
        -12    1    3    3    0    0  0.68462771132E+01 -0.16327831997E+02 -0.11313808121E+01  0.17741184587E+02  0.00000000000E+00 0.  1.
</event>
<event>
 7    1  0.6184948E-012  0.5930195E+02  0.7816164E-02  0.1266605E+00
        -11   -1    0    0    0    0  0.00000000000E+00  0.00000000000E+00  0.45593999997E+02  0.45594000000E+02  0.51100000000E-03 0.  1.
         11   -1    0    0    0    0 -0.00000000000E+00 -0.00000000000E+00 -0.45593999997E+02  0.45594000000E+02  0.51100000000E-03 0. -1.
    9900012    2    1    2    0    0  0.20856329479E+02 -0.95255226515E+01  0.22158476148E+02  0.59301950914E+02  0.50000012558E+02 0.  0.
         12    1    1    2    0    0 -0.20856329479E+02  0.95255226515E+01 -0.22158476148E+02  0.31886049086E+02  0.00000000000E+00 0. -1.
         11    1    3    3    0    0 -0.10400569611E+01 -0.10644162428E+02 -0.11334815456E+02  0.15583900473E+02  0.51100000000E-03 0. -1.
        -11    1    3    3    0    0  0.42275419723E+01  0.38189790206E+01 -0.63929344983E-01  0.56974379426E+01  0.51100000000E-03 0.  1.
        -12    1    3    3    0    0  0.17668844468E+02 -0.27003392439E+01  0.33557220949E+02  0.38020612498E+02  0.00000000000E+00 0.  1.
</event>
<event>
 7    1  0.6184948E-012  0.5930189E+02  0.7816164E-02  0.1266605E+00
        -11   -1    0    0    0    0  0.00000000000E+00  0.00000000000E+00  0.45593999997E+02  0.45594000000E+02  0.51100000000E-03 0.  1.
         11   -1    0    0    0    0 -0.00000000000E+00 -0.00000000000E+00 -0.45593999997E+02  0.45594000000E+02  0.51100000000E-03 0. -1.
    9900012    2    1    2    0    0  0.60532901643E+01  0.28370595984E+01  0.31177439365E+02  0.59301890888E+02  0.49999903086E+02 0.  0.
         12    1    1    2    0    0 -0.60532901643E+01 -0.28370595984E+01 -0.31177439365E+02  0.31886109112E+02  0.00000000000E+00 0. -1.
         11    1    3    3    0    0  0.12291079804E+02 -0.47606435925E+01 -0.77704183642E+01  0.15300776843E+02  0.51100000000E-03 0. -1.
        -11    1    3    3    0    0 -0.11375290066E+01  0.28399481450E+01 -0.11745090751E+01  0.32770031333E+01  0.51100000000E-03 0.  1.
        -12    1    3    3    0    0 -0.51002606336E+01  0.47577550459E+01  0.40122366804E+02  0.40724110912E+02  0.00000000000E+00 0.  1.
</event>
<event>
 7    1  0.6184948E-012  0.5930199E+02  0.7816164E-02  0.1266605E+00
        -11   -1    0    0    0    0  0.00000000000E+00  0.00000000000E+00  0.45593999997E+02  0.45594000000E+02  0.51100000000E-03 0.  1.
         11   -1    0    0    0    0 -0.00000000000E+00 -0.00000000000E+00 -0.45593999997E+02  0.45594000000E+02  0.51100000000E-03 0. -1.
    9900012    2    1    2    0    0 -0.20825836270E+02 -0.13337092285E+02  0.20127700164E+02  0.59301987379E+02  0.50000079062E+02 0.  0.
         12    1    1    2    0    0  0.20825836270E+02  0.13337092285E+02 -0.20127700164E+02  0.31886012621E+02  0.00000000000E+00 0. -1.
         11    1    3    3    0    0 -0.16578134197E+01 -0.14367052130E+02  0.13249168609E+02  0.19613796199E+02  0.51100000000E-03 0. -1.
        -11    1    3    3    0    0 -0.12860059853E+02 -0.71665954469E+01  0.18817477917E+02  0.23892231062E+02  0.51100000000E-03 0.  1.
         12    1    3    3    0    0 -0.63079629981E+01  0.81965552917E+01 -0.11938946361E+02  0.15795960118E+02  0.00000000000E+00 0. -1.
</event>
<event>
 7    1  0.6184948E-012  0.5930197E+02  0.7816164E-02  0.1266605E+00
        -11   -1    0    0    0    0  0.00000000000E+00  0.00000000000E+00  0.45593999997E+02  0.45594000000E+02  0.51100000000E-03 0. -1.
         11   -1    0    0    0    0 -0.00000000000E+00 -0.00000000000E+00 -0.45593999997E+02  0.45594000000E+02  0.51100000000E-03 0.  1.
    9900012    2    1    2    0    0 -0.21468471413E+02 -0.13470823389E+02  0.19348400035E+02  0.59301969650E+02  0.50000046729E+02 0.  0.
         12    1    1    2    0    0  0.21468471413E+02  0.13470823389E+02 -0.19348400035E+02  0.31886030350E+02  0.00000000000E+00 0. -1.
         11    1    3    3    0    0  0.34231252878E+01 -0.13413730805E+02  0.14645833370E+02  0.20153074113E+02  0.51100000000E-03 0. -1.
        -11    1    3    3    0    0 -0.58620435731E+01  0.11184210482E+02  0.10361237665E+02  0.16334177823E+02  0.51100000000E-03 0.  1.
        -12    1    3    3    0    0 -0.19029553127E+02 -0.11241303066E+02 -0.56586709997E+01  0.22814717713E+02  0.00000000000E+00 0.  1.
</event>
<event>
 7    1  0.6184948E-012  0.5930192E+02  0.7816164E-02  0.1266605E+00
        -11   -1    0    0    0    0  0.00000000000E+00  0.00000000000E+00  0.45593999997E+02  0.45594000000E+02  0.51100000000E-03 0. -1.
         11   -1    0    0    0    0 -0.00000000000E+00 -0.00000000000E+00 -0.45593999997E+02  0.45594000000E+02  0.51100000000E-03 0.  1.
    9900012    2    1    2    0    0  0.23211504457E+02 -0.20835528991E+02  0.66203179275E+01  0.59301924404E+02  0.49999964211E+02 0.  0.
         12    1    1    2    0    0 -0.23211504457E+02  0.20835528991E+02 -0.66203179275E+01  0.31886075596E+02  0.00000000000E+00 0. -1.
         11    1    3    3    0    0 -0.99196441015E+01 -0.28339011355E+01 -0.12360203892E+01  0.10390287841E+02  0.51100000000E-03 0. -1.
        -11    1    3    3    0    0  0.17999093920E+02 -0.11903940877E+02 -0.10797544681E+02  0.24130026144E+02  0.51100000000E-03 0.  1.
         12    1    3    3    0    0  0.15132054638E+02 -0.60976869786E+01  0.18653882998E+02  0.24781610419E+02  0.00000000000E+00 0. -1.
</event>
<event>
 7    1  0.6184948E-012  0.5930191E+02  0.7816164E-02  0.1266605E+00
        -11   -1    0    0    0    0  0.00000000000E+00  0.00000000000E+00  0.45593999997E+02  0.45594000000E+02  0.51100000000E-03 0.  1.
         11   -1    0    0    0    0 -0.00000000000E+00 -0.00000000000E+00 -0.45593999997E+02  0.45594000000E+02  0.51100000000E-03 0. -1.
    9900012    2    1    2    0    0 -0.28580868449E+02  0.14868754247E+01  0.14058652632E+02  0.59301912852E+02  0.49999943142E+02 0.  0.
         12    1    1    2    0    0  0.28580868449E+02 -0.14868754247E+01 -0.14058652632E+02  0.31886087148E+02  0.00000000000E+00 0. -1.
         11    1    3    3    0    0 -0.15835626576E+02 -0.17535113151E+01 -0.67403387512E+01  0.17299538656E+02  0.51100000000E-03 0. -1.
        -11    1    3    3    0    0 -0.43414208211E-01 -0.10992599526E+02 -0.31018299516E+01  0.11421929716E+02  0.51100000000E-03 0.  1.
        -12    1    3    3    0    0 -0.12701827665E+02  0.14232986266E+02  0.23900821334E+02  0.30580444479E+02  0.00000000000E+00 0.  1.
</event>
<event>
 7    1  0.6184948E-012  0.5930198E+02  0.7816164E-02  0.1266605E+00
        -11   -1    0    0    0    0  0.00000000000E+00  0.00000000000E+00  0.45593999997E+02  0.45594000000E+02  0.51100000000E-03 0.  1.
         11   -1    0    0    0    0 -0.00000000000E+00 -0.00000000000E+00 -0.45593999997E+02  0.45594000000E+02  0.51100000000E-03 0. -1.
    9900012    2    1    2    0    0  0.24227998286E+02  0.11692607680E+02  0.17117396146E+02  0.59301980711E+02  0.50000066901E+02 0.  0.
         12    1    1    2    0    0 -0.24227998286E+02 -0.11692607680E+02 -0.17117396146E+02  0.31886019289E+02  0.00000000000E+00 0. -1.
         11    1    3    3    0    0  0.19207705925E+02  0.12458569980E+01 -0.23569679278E+01  0.19391839125E+02  0.51100000000E-03 0. -1.
        -11    1    3    3    0    0  0.14104149793E+02 -0.41329287331E+01  0.17133240974E+02  0.22573349061E+02  0.51100000000E-03 0.  1.
        -12    1    3    3    0    0 -0.90838574323E+01  0.14579679415E+02  0.23411230996E+01  0.17336792525E+02  0.00000000000E+00 0.  1.
</event>
<event>
 7    1  0.6184948E-012  0.5930194E+02  0.7816164E-02  0.1266605E+00
        -11   -1    0    0    0    0  0.00000000000E+00  0.00000000000E+00  0.45593999997E+02  0.45594000000E+02  0.51100000000E-03 0. -1.
         11   -1    0    0    0    0 -0.00000000000E+00 -0.00000000000E+00 -0.45593999997E+02  0.45594000000E+02  0.51100000000E-03 0.  1.
    9900012    2    1    2    0    0  0.19132315018E+02  0.24221430417E+02 -0.79998445121E+01  0.59301942206E+02  0.49999996678E+02 0.  0.
         12    1    1    2    0    0 -0.19132315018E+02 -0.24221430417E+02  0.79998445121E+01  0.31886057794E+02  0.00000000000E+00 0. -1.
         11    1    3    3    0    0 -0.47208151504E+01 -0.65022278030E+00 -0.16216179810E+02  0.16901874844E+02  0.51100000000E-03 0.  1.
        -11    1    3    3    0    0  0.59272113774E+01  0.22098888468E+02  0.80667285642E+01  0.24260354825E+02  0.51100000000E-03 0. -1.
        -12    1    3    3    0    0  0.17925918791E+02  0.27727647294E+01  0.14960673394E+00  0.18139712537E+02  0.00000000000E+00 0.  1.
</event>
<event>
 7    1  0.6184948E-012  0.5930194E+02  0.7816164E-02  0.1266605E+00
        -11   -1    0    0    0    0  0.00000000000E+00  0.00000000000E+00  0.45593999997E+02  0.45594000000E+02  0.51100000000E-03 0. -1.
         11   -1    0    0    0    0 -0.00000000000E+00 -0.00000000000E+00 -0.45593999997E+02  0.45594000000E+02  0.51100000000E-03 0.  1.
    9900012    2    1    2    0    0  0.70036265360E+01  0.31089805248E+02 -0.10459686463E+01  0.59301939951E+02  0.49999992565E+02 0.  0.
         12    1    1    2    0    0 -0.70036265360E+01 -0.31089805248E+02  0.10459686463E+01  0.31886060049E+02  0.00000000000E+00 0. -1.
         11    1    3    3    0    0  0.42488526291E+01  0.50028013645E+01  0.16548947015E+02  0.17803045181E+02  0.51100000000E-03 0. -1.
        -11    1    3    3    0    0 -0.73579483357E+01  0.18348424306E+02  0.13195357321E-01  0.19768769628E+02  0.51100000000E-03 0.  1.
        -12    1    3    3    0    0  0.10112722243E+02  0.77385795779E+01 -0.17608111019E+02  0.21730125142E+02  0.00000000000E+00 0.  1.
</event>
<event>
 7    1  0.6184948E-012  0.5930195E+02  0.7816164E-02  0.1266605E+00
        -11   -1    0    0    0    0  0.00000000000E+00  0.00000000000E+00  0.45593999997E+02  0.45594000000E+02  0.51100000000E-03 0. -1.
         11   -1    0    0    0    0 -0.00000000000E+00 -0.00000000000E+00 -0.45593999997E+02  0.45594000000E+02  0.51100000000E-03 0.  1.
    9900012    2    1    2    0    0 -0.12215859452E+02 -0.28744849175E+02  0.64208035023E+01  0.59301948287E+02  0.50000007768E+02 0.  0.
         12    1    1    2    0    0  0.12215859452E+02  0.28744849175E+02 -0.64208035023E+01  0.31886051713E+02  0.00000000000E+00 0. -1.
         11    1    3    3    0    0 -0.49159054795E+01  0.15886991719E+01 -0.86675898262E+01  0.10090451199E+02  0.51100000000E-03 0. -1.
        -11    1    3    3    0    0  0.12018452824E+02 -0.15602297444E+02 -0.15661468651E+01  0.19756713038E+02  0.51100000000E-03 0.  1.
        -12    1    3    3    0    0 -0.19318406797E+02 -0.14731250903E+02  0.16654540194E+02  0.29454784049E+02  0.00000000000E+00 0.  1.
</event>
<event>
 7    1  0.6184948E-012  0.5930181E+02  0.7816164E-02  0.1266605E+00
        -11   -1    0    0    0    0  0.00000000000E+00  0.00000000000E+00  0.45593999997E+02  0.45594000000E+02  0.51100000000E-03 0.  1.
         11   -1    0    0    0    0 -0.00000000000E+00 -0.00000000000E+00 -0.45593999997E+02  0.45594000000E+02  0.51100000000E-03 0. -1.
    9900012    2    1    2    0    0  0.13281299238E+02 -0.19683766188E+02  0.21281107169E+02  0.59301810464E+02  0.49999756411E+02 0.  0.
         12    1    1    2    0    0 -0.13281299238E+02  0.19683766188E+02 -0.21281107169E+02  0.31886189536E+02  0.00000000000E+00 0. -1.
         11    1    3    3    0    0  0.14990217547E+02 -0.67949285049E+01  0.18041889690E+02  0.24421045419E+02  0.51100000000E-03 0. -1.
        -11    1    3    3    0    0  0.12761400476E+02 -0.12899785296E+02  0.77390882813E+01  0.19726917916E+02  0.51100000000E-03 0.  1.
         12    1    3    3    0    0 -0.14470318784E+02  0.10947612732E-01 -0.44998708023E+01  0.15153847129E+02  0.00000000000E+00 0. -1.
</event>
<event>
 7    1  0.6184948E-012  0.5930199E+02  0.7816164E-02  0.1266605E+00
        -11   -1    0    0    0    0  0.00000000000E+00  0.00000000000E+00  0.45593999997E+02  0.45594000000E+02  0.51100000000E-03 0. -1.
         11   -1    0    0    0    0 -0.00000000000E+00 -0.00000000000E+00 -0.45593999997E+02  0.45594000000E+02  0.51100000000E-03 0.  1.
    9900012    2    1    2    0    0  0.12840474332E+02 -0.35014333636E+00 -0.29184193215E+02  0.59301991861E+02  0.50000087236E+02 0.  0.
         12    1    1    2    0    0 -0.12840474332E+02  0.35014333636E+00  0.29184193215E+02  0.31886008139E+02  0.00000000000E+00 0. -1.
         11    1    3    3    0    0  0.95776140055E+01 -0.15017133122E+01  0.82081869192E+01  0.12702762128E+02  0.51100000000E-03 0. -1.
        -11    1    3    3    0    0  0.14955256537E+02  0.16030808130E+01 -0.14511916043E+02  0.20900365396E+02  0.51100000000E-03 0.  1.
        -12    1    3    3    0    0 -0.11692396211E+02 -0.45151083724E+00 -0.22880464092E+02  0.25698864337E+02  0.00000000000E+00 0.  1.
</event>
<event>
 7    1  0.6184948E-012  0.5930195E+02  0.7816164E-02  0.1266605E+00
        -11   -1    0    0    0    0  0.00000000000E+00  0.00000000000E+00  0.45593999997E+02  0.45594000000E+02  0.51100000000E-03 0.  1.
         11   -1    0    0    0    0 -0.00000000000E+00 -0.00000000000E+00 -0.45593999997E+02  0.45594000000E+02  0.51100000000E-03 0. -1.
    9900012    2    1    2    0    0 -0.16045454343E+01 -0.27732249156E+02 -0.15654651510E+02  0.59301947826E+02  0.50000006927E+02 0.  0.
         12    1    1    2    0    0  0.16045454343E+01  0.27732249156E+02  0.15654651510E+02  0.31886052174E+02  0.00000000000E+00 0. -1.
         11    1    3    3    0    0  0.10397353682E+02 -0.85880385219E+01 -0.72506004755E+01  0.15311125914E+02  0.51100000000E-03 0. -1.
        -11    1    3    3    0    0  0.40396305513E+01 -0.19180677962E+02 -0.16861874641E+02  0.25856137352E+02  0.51100000000E-03 0.  1.
        -12    1    3    3    0    0 -0.16041529668E+02  0.36467327944E-01  0.84578236058E+01  0.18134684560E+02  0.00000000000E+00 0.  1.
</event>
<event>
 7    1  0.6184948E-012  0.5930197E+02  0.7816164E-02  0.1266605E+00
        -11   -1    0    0    0    0  0.00000000000E+00  0.00000000000E+00  0.45593999997E+02  0.45594000000E+02  0.51100000000E-03 0.  1.
         11   -1    0    0    0    0 -0.00000000000E+00 -0.00000000000E+00 -0.45593999997E+02  0.45594000000E+02  0.51100000000E-03 0. -1.
    9900012    2    1    2    0    0 -0.96316630126E+01  0.29756288830E+02 -0.62059244451E+01  0.59301966137E+02  0.50000040322E+02 0.  0.
         12    1    1    2    0    0  0.96316630126E+01 -0.29756288830E+02  0.62059244451E+01  0.31886033863E+02  0.00000000000E+00 0. -1.
         11    1    3    3    0    0 -0.20938923680E+02  0.20317724720E+01  0.70398120390E+01  0.22183903581E+02  0.51100000000E-03 0. -1.
        -11    1    3    3    0    0 -0.44414417868E+01  0.58546752982E+01 -0.51658611645E+01  0.89827473428E+01  0.51100000000E-03 0.  1.
        -12    1    3    3    0    0  0.15748702455E+02  0.21869841059E+02 -0.80798753197E+01  0.28135315213E+02  0.00000000000E+00 0.  1.
</event>
<event>
 7    1  0.6184948E-012  0.5930194E+02  0.7816164E-02  0.1266605E+00
        -11   -1    0    0    0    0  0.00000000000E+00  0.00000000000E+00  0.45593999997E+02  0.45594000000E+02  0.51100000000E-03 0. -1.
         11   -1    0    0    0    0 -0.00000000000E+00 -0.00000000000E+00 -0.45593999997E+02  0.45594000000E+02  0.51100000000E-03 0.  1.
    9900012    2    1    2    0    0  0.23906525536E+02  0.72305780904E+01 -0.19822147710E+02  0.59301940937E+02  0.49999994364E+02 0.  0.
         12    1    1    2    0    0 -0.23906525536E+02 -0.72305780904E+01  0.19822147710E+02  0.31886059063E+02  0.00000000000E+00 0. -1.
         11    1    3    3    0    0  0.98404648037E+01 -0.51502542978E+01 -0.21418865728E+02  0.24127322193E+02  0.51100000000E-03 0.  1.
        -11    1    3    3    0    0 -0.33727986813E+01  0.10817724676E+02 -0.92075575671E+01  0.14600618300E+02  0.51100000000E-03 0. -1.
         12    1    3    3    0    0  0.17438859413E+02  0.15631077119E+01  0.10804275585E+02  0.20574000444E+02  0.00000000000E+00 0. -1.
</event>
<event>
 7    1  0.6184948E-012  0.5930194E+02  0.7816164E-02  0.1266605E+00
        -11   -1    0    0    0    0  0.00000000000E+00  0.00000000000E+00  0.45593999997E+02  0.45594000000E+02  0.51100000000E-03 0.  1.
         11   -1    0    0    0    0 -0.00000000000E+00 -0.00000000000E+00 -0.45593999997E+02  0.45594000000E+02  0.51100000000E-03 0. -1.
    9900012    2    1    2    0    0  0.72830907639E+01  0.16787181818E+02  0.26112597214E+02  0.59301943209E+02  0.49999998506E+02 0.  0.
         12    1    1    2    0    0 -0.72830907639E+01 -0.16787181818E+02 -0.26112597214E+02  0.31886056791E+02  0.00000000000E+00 0. -1.
         11    1    3    3    0    0  0.28357247120E+01  0.13632595748E+01 -0.10730416631E+02  0.11182202495E+02  0.51100000000E-03 0. -1.
        -11    1    3    3    0    0 -0.42296062451E+01  0.15665587697E+02  0.81811410866E+01  0.18172266689E+02  0.51100000000E-03 0.  1.
        -12    1    3    3    0    0  0.86769722969E+01 -0.24166545437E+00  0.28661872758E+02  0.29947474024E+02  0.00000000000E+00 0.  1.
</event>
<event>
 7    1  0.6184948E-012  0.5930196E+02  0.7816164E-02  0.1266605E+00
        -11   -1    0    0    0    0  0.00000000000E+00  0.00000000000E+00  0.45593999997E+02  0.45594000000E+02  0.51100000000E-03 0. -1.
         11   -1    0    0    0    0 -0.00000000000E+00 -0.00000000000E+00 -0.45593999997E+02  0.45594000000E+02  0.51100000000E-03 0.  1.
    9900012    2    1    2    0    0 -0.10800542720E+02  0.28460900156E+02  0.94891934616E+01  0.59301963036E+02  0.50000034666E+02 0.  0.
         12    1    1    2    0    0  0.10800542720E+02 -0.28460900156E+02 -0.94891934616E+01  0.31886036964E+02  0.00000000000E+00 0. -1.
         11    1    3    3    0    0 -0.17832843346E+02  0.27986654531E+02  0.66507053044E-01  0.33185351544E+02  0.51100000000E-03 0. -1.
        -11    1    3    3    0    0  0.10831092205E+01 -0.76081499724E+01 -0.45367354147E+01  0.89240708239E+01  0.51100000000E-03 0.  1.
        -12    1    3    3    0    0  0.59491914054E+01  0.80823955973E+01  0.13959421823E+02  0.17192540668E+02  0.00000000000E+00 0.  1.
</event>
<event>
 7    1  0.6184948E-012  0.5930193E+02  0.7816164E-02  0.1266605E+00
        -11   -1    0    0    0    0  0.00000000000E+00  0.00000000000E+00  0.45593999997E+02  0.45594000000E+02  0.51100000000E-03 0. -1.
         11   -1    0    0    0    0 -0.00000000000E+00 -0.00000000000E+00 -0.45593999997E+02  0.45594000000E+02  0.51100000000E-03 0.  1.
    9900012    2    1    2    0    0  0.89314275126E+01  0.12002370159E+02 -0.28158377887E+02  0.59301928870E+02  0.49999972357E+02 0.  0.
         12    1    1    2    0    0 -0.89314275126E+01 -0.12002370159E+02  0.28158377887E+02  0.31886071130E+02  0.00000000000E+00 0. -1.
         11    1    3    3    0    0 -0.13455943153E+02  0.20106330456E+02 -0.16459076615E+02  0.29261376143E+02  0.51100000000E-03 0. -1.
        -11    1    3    3    0    0  0.12144011491E+01 -0.12386210705E+01 -0.71042972135E+01  0.73130015360E+01  0.51100000000E-03 0.  1.
        -12    1    3    3    0    0  0.21172969516E+02 -0.68653392265E+01 -0.45950040590E+01  0.22727551191E+02  0.00000000000E+00 0.  1.
</event>
<event>
 7    1  0.6184948E-012  0.5930192E+02  0.7816164E-02  0.1266605E+00
        -11   -1    0    0    0    0  0.00000000000E+00  0.00000000000E+00  0.45593999997E+02  0.45594000000E+02  0.51100000000E-03 0. -1.
         11   -1    0    0    0    0 -0.00000000000E+00 -0.00000000000E+00 -0.45593999997E+02  0.45594000000E+02  0.51100000000E-03 0.  1.
    9900012    2    1    2    0    0  0.27651321020E+02  0.14786491098E+02 -0.57867071416E+01  0.59301923843E+02  0.49999963188E+02 0.  0.
         12    1    1    2    0    0 -0.27651321020E+02 -0.14786491098E+02  0.57867071416E+01  0.31886076157E+02  0.00000000000E+00 0. -1.
         11    1    3    3    0    0  0.21423855419E+02 -0.20478987869E+01  0.58567910541E+01  0.22304203016E+02  0.51100000000E-03 0. -1.
        -11    1    3    3    0    0  0.15663593737E+02  0.14987452808E+02 -0.15487397942E+02  0.26642661386E+02  0.51100000000E-03 0.  1.
        -12    1    3    3    0    0 -0.94361281365E+01  0.18469370770E+01  0.38438997463E+01  0.10355059441E+02  0.00000000000E+00 0.  1.
</event>
<event>
 7    1  0.6184948E-012  0.5930195E+02  0.7816164E-02  0.1266605E+00
        -11   -1    0    0    0    0  0.00000000000E+00  0.00000000000E+00  0.45593999997E+02  0.45594000000E+02  0.51100000000E-03 0. -1.
         11   -1    0    0    0    0 -0.00000000000E+00 -0.00000000000E+00 -0.45593999997E+02  0.45594000000E+02  0.51100000000E-03 0.  1.
    9900012    2    1    2    0    0  0.37369167678E+01  0.65918769967E+01 -0.30972611876E+02  0.59301951708E+02  0.50000014007E+02 0.  0.
         12    1    1    2    0    0 -0.37369167678E+01 -0.65918769967E+01  0.30972611876E+02  0.31886048292E+02  0.00000000000E+00 0. -1.
         11    1    3    3    0    0  0.18412339400E+02  0.14889556957E+02 -0.86680168171E+01  0.25216019995E+02  0.51100000000E-03 0. -1.
        -11    1    3    3    0    0 -0.21968697345E+01 -0.12014901692E+02 -0.73403202031E+01  0.14250066675E+02  0.51100000000E-03 0.  1.
        -12    1    3    3    0    0 -0.12478552898E+02  0.37172217317E+01 -0.14964274856E+02  0.19835865038E+02  0.00000000000E+00 0.  1.
</event>
<event>
 7    1  0.6184948E-012  0.5930195E+02  0.7816164E-02  0.1266605E+00
        -11   -1    0    0    0    0  0.00000000000E+00  0.00000000000E+00  0.45593999997E+02  0.45594000000E+02  0.51100000000E-03 0.  1.
         11   -1    0    0    0    0 -0.00000000000E+00 -0.00000000000E+00 -0.45593999997E+02  0.45594000000E+02  0.51100000000E-03 0. -1.
    9900012    2    1    2    0    0 -0.26725201038E+02 -0.14899328164E+02  0.89718226394E+01  0.59301953652E+02  0.50000017552E+02 0.  0.
         12    1    1    2    0    0  0.26725201038E+02  0.14899328164E+02 -0.89718226394E+01  0.31886046348E+02  0.00000000000E+00 0. -1.
         11    1    3    3    0    0 -0.54637165971E+01 -0.84299033767E+01 -0.11517514651E+02  0.15282951743E+02  0.51100000000E-03 0.  1.
        -11    1    3    3    0    0 -0.21304111477E+02 -0.92301375295E+01 -0.12757598990E+00  0.23218029213E+02  0.51100000000E-03 0. -1.
        -12    1    3    3    0    0  0.42627036132E-01  0.27607127426E+01  0.20616913280E+02  0.20800972696E+02  0.00000000000E+00 0.  1.
</event>
<event>
 7    1  0.6184948E-012  0.5930207E+02  0.7816164E-02  0.1266604E+00
        -11   -1    0    0    0    0  0.00000000000E+00  0.00000000000E+00  0.45593999997E+02  0.45594000000E+02  0.51100000000E-03 0.  1.
         11   -1    0    0    0    0 -0.00000000000E+00 -0.00000000000E+00 -0.45593999997E+02  0.45594000000E+02  0.51100000000E-03 0. -1.
    9900012    2    1    2    0    0 -0.13402903711E+02 -0.24943534550E+02  0.14659282060E+02  0.59302073728E+02  0.50000236541E+02 0.  0.
         12    1    1    2    0    0  0.13402903711E+02  0.24943534550E+02 -0.14659282060E+02  0.31885926272E+02  0.00000000000E+00 0. -1.
         11    1    3    3    0    0  0.72748084733E+01 -0.52179649708E+00 -0.36345574299E+00  0.73025482022E+01  0.51100000000E-03 0. -1.
        -11    1    3    3    0    0  0.82054794499E+01 -0.29161464047E+01  0.13364434778E+02  0.15951235690E+02  0.51100000000E-03 0.  1.
        -12    1    3    3    0    0 -0.28883191634E+02 -0.21505591648E+02  0.16583030250E+01  0.36048289835E+02  0.00000000000E+00 0.  1.
</event>
<event>
 7    1  0.6184948E-012  0.5930191E+02  0.7816164E-02  0.1266605E+00
        -11   -1    0    0    0    0  0.00000000000E+00  0.00000000000E+00  0.45593999997E+02  0.45594000000E+02  0.51100000000E-03 0.  1.
         11   -1    0    0    0    0 -0.00000000000E+00 -0.00000000000E+00 -0.45593999997E+02  0.45594000000E+02  0.51100000000E-03 0. -1.
    9900012    2    1    2    0    0  0.29258968342E+01  0.18625020341E+01  0.31696890608E+02  0.59301911179E+02  0.49999940091E+02 0.  0.
         12    1    1    2    0    0 -0.29258968342E+01 -0.18625020341E+01 -0.31696890608E+02  0.31886088821E+02  0.00000000000E+00 0. -1.
         11    1    3    3    0    0 -0.12275098585E+02 -0.11946745566E+02  0.97321315783E+01  0.19700689333E+02  0.51100000000E-03 0. -1.
        -11    1    3    3    0    0  0.24158399240E+01 -0.29145835452E+01 -0.44382190571E+01  0.58334268179E+01  0.51100000000E-03 0.  1.
         12    1    3    3    0    0  0.12785155495E+02  0.16723831145E+02  0.26402978087E+02  0.33767795028E+02  0.00000000000E+00 0. -1.
</event>
<event>
 7    1  0.6184948E-012  0.5930187E+02  0.7816164E-02  0.1266605E+00
        -11   -1    0    0    0    0  0.00000000000E+00  0.00000000000E+00  0.45593999997E+02  0.45594000000E+02  0.51100000000E-03 0.  1.
         11   -1    0    0    0    0 -0.00000000000E+00 -0.00000000000E+00 -0.45593999997E+02  0.45594000000E+02  0.51100000000E-03 0. -1.
    9900012    2    1    2    0    0 -0.26418730511E+02 -0.17451817442E+01 -0.17768793754E+02  0.59301874293E+02  0.49999872821E+02 0.  0.
         12    1    1    2    0    0  0.26418730511E+02  0.17451817442E+01  0.17768793754E+02  0.31886125707E+02  0.00000000000E+00 0. -1.
         11    1    3    3    0    0  0.27985202269E+01 -0.48087328622E+01  0.40210493824E+01  0.68647261851E+01  0.51100000000E-03 0. -1.
        -11    1    3    3    0    0 -0.29830020077E+02 -0.66637331828E+01 -0.23068035040E+01  0.30652190467E+02  0.51100000000E-03 0.  1.
         12    1    3    3    0    0  0.61276933934E+00  0.97272843007E+01 -0.19483039632E+02  0.21784957641E+02  0.00000000000E+00 0. -1.
</event>
<event>
 7    1  0.6184948E-012  0.5930192E+02  0.7816164E-02  0.1266605E+00
        -11   -1    0    0    0    0  0.00000000000E+00  0.00000000000E+00  0.45593999997E+02  0.45594000000E+02  0.51100000000E-03 0. -1.
         11   -1    0    0    0    0 -0.00000000000E+00 -0.00000000000E+00 -0.45593999997E+02  0.45594000000E+02  0.51100000000E-03 0.  1.
    9900012    2    1    2    0    0 -0.27272493134E+02 -0.15618666760E+02 -0.53842825105E+01  0.59301919475E+02  0.49999955221E+02 0.  0.
         12    1    1    2    0    0  0.27272493134E+02  0.15618666760E+02  0.53842825105E+01  0.31886080525E+02  0.00000000000E+00 0. -1.
         11    1    3    3    0    0 -0.11054178513E+02 -0.11373865892E+02 -0.16882784355E+02  0.23164371257E+02  0.51100000000E-03 0. -1.
        -11    1    3    3    0    0 -0.16800475451E+02 -0.12723462575E+02  0.16055932115E+02  0.26494064083E+02  0.51100000000E-03 0.  1.
         12    1    3    3    0    0  0.58216083000E+00  0.84786617066E+01 -0.45574302710E+01  0.96434841340E+01  0.00000000000E+00 0. -1.
</event>
<event>
 7    1  0.6184948E-012  0.5930193E+02  0.7816164E-02  0.1266605E+00
        -11   -1    0    0    0    0  0.00000000000E+00  0.00000000000E+00  0.45593999997E+02  0.45594000000E+02  0.51100000000E-03 0.  1.
         11   -1    0    0    0    0 -0.00000000000E+00 -0.00000000000E+00 -0.45593999997E+02  0.45594000000E+02  0.51100000000E-03 0. -1.
    9900012    2    1    2    0    0 -0.23823185158E+01  0.25971032624E+02  0.18345333779E+02  0.59301933317E+02  0.49999980466E+02 0.  0.
         12    1    1    2    0    0  0.23823185158E+01 -0.25971032624E+02 -0.18345333779E+02  0.31886066683E+02  0.00000000000E+00 0. -1.
         11    1    3    3    0    0 -0.76449980498E+01 -0.34268510595E+01  0.24473810737E+01  0.87280569285E+01  0.51100000000E-03 0. -1.
        -11    1    3    3    0    0  0.12225277032E+01 -0.85515541011E+01 -0.12608598212E+01  0.87300297410E+01  0.51100000000E-03 0.  1.
        -12    1    3    3    0    0  0.40401518308E+01  0.37949437784E+02  0.17158812526E+02  0.41843846648E+02  0.00000000000E+00 0.  1.
</event>
<event>
 7    1  0.6184948E-012  0.5930188E+02  0.7816164E-02  0.1266605E+00
        -11   -1    0    0    0    0  0.00000000000E+00  0.00000000000E+00  0.45593999997E+02  0.45594000000E+02  0.51100000000E-03 0.  1.
         11   -1    0    0    0    0 -0.00000000000E+00 -0.00000000000E+00 -0.45593999997E+02  0.45594000000E+02  0.51100000000E-03 0. -1.
    9900012    2    1    2    0    0 -0.17001710254E+02  0.69458437134E+01  0.26065714432E+02  0.59301884443E+02  0.49999891332E+02 0.  0.
         12    1    1    2    0    0  0.17001710254E+02 -0.69458437134E+01 -0.26065714432E+02  0.31886115557E+02  0.00000000000E+00 0. -1.
         11    1    3    3    0    0 -0.76033852465E+00 -0.12701182735E+00 -0.12721967508E+02  0.12745301260E+02  0.51100000000E-03 0. -1.
        -11    1    3    3    0    0  0.31510498215E+01  0.35414310873E+01  0.14623007494E+02  0.15372156568E+02  0.51100000000E-03 0.  1.
        -12    1    3    3    0    0 -0.19392421551E+02  0.35314244535E+01  0.24164674446E+02  0.31184426616E+02  0.00000000000E+00 0.  1.
</event>
<event>
 7    1  0.6184948E-012  0.5930192E+02  0.7816164E-02  0.1266605E+00
        -11   -1    0    0    0    0  0.00000000000E+00  0.00000000000E+00  0.45593999997E+02  0.45594000000E+02  0.51100000000E-03 0. -1.
         11   -1    0    0    0    0 -0.00000000000E+00 -0.00000000000E+00 -0.45593999997E+02  0.45594000000E+02  0.51100000000E-03 0.  1.
    9900012    2    1    2    0    0  0.18826805065E+02  0.23792221971E+02 -0.98083633084E+01  0.59301915166E+02  0.49999947363E+02 0.  0.
         12    1    1    2    0    0 -0.18826805065E+02 -0.23792221971E+02  0.98083633084E+01  0.31886084834E+02  0.00000000000E+00 0. -1.
         11    1    3    3    0    0 -0.50567888100E+01 -0.15410264703E+01 -0.68859971667E+01  0.86811769301E+01  0.51100000000E-03 0. -1.
        -11    1    3    3    0    0 -0.25957144157E+01  0.23773158475E+02  0.17658480139E+00  0.23915099408E+02  0.51100000000E-03 0.  1.
        -12    1    3    3    0    0  0.26479308291E+02  0.15600899658E+01 -0.30989509430E+01  0.26705638828E+02  0.00000000000E+00 0.  1.
</event>
<event>
 7    1  0.6184948E-012  0.5930190E+02  0.7816164E-02  0.1266605E+00
        -11   -1    0    0    0    0  0.00000000000E+00  0.00000000000E+00  0.45593999997E+02  0.45594000000E+02  0.51100000000E-03 0.  1.
         11   -1    0    0    0    0 -0.00000000000E+00 -0.00000000000E+00 -0.45593999997E+02  0.45594000000E+02  0.51100000000E-03 0. -1.
    9900012    2    1    2    0    0 -0.24279294710E+02  0.12274863648E+02  0.16630294950E+02  0.59301903668E+02  0.49999926393E+02 0.  0.
         12    1    1    2    0    0  0.24279294710E+02 -0.12274863648E+02 -0.16630294950E+02  0.31886096332E+02  0.00000000000E+00 0. -1.
         11    1    3    3    0    0 -0.49732646050E+01  0.12522068740E+01  0.73323226532E+01  0.89478678263E+01  0.51100000000E-03 0. -1.
        -11    1    3    3    0    0 -0.22326696029E+02 -0.11319079653E+02  0.11793931017E+02  0.27671279856E+02  0.51100000000E-03 0.  1.
         12    1    3    3    0    0  0.30206659247E+01  0.22341736426E+02 -0.24959587197E+01  0.22682755986E+02  0.00000000000E+00 0. -1.
</event>
<event>
 7    1  0.6184948E-012  0.5930199E+02  0.7816164E-02  0.1266605E+00
        -11   -1    0    0    0    0  0.00000000000E+00  0.00000000000E+00  0.45593999997E+02  0.45594000000E+02  0.51100000000E-03 0.  1.
         11   -1    0    0    0    0 -0.00000000000E+00 -0.00000000000E+00 -0.45593999997E+02  0.45594000000E+02  0.51100000000E-03 0. -1.
    9900012    2    1    2    0    0 -0.27197324569E+02  0.73064595319E+01  0.14954555335E+02  0.59301991472E+02  0.50000086527E+02 0.  0.
         12    1    1    2    0    0  0.27197324569E+02 -0.73064595319E+01 -0.14954555335E+02  0.31886008528E+02  0.00000000000E+00 0. -1.
         11    1    3    3    0    0 -0.35043659993E+02 -0.56632635362E+01  0.56682635656E+01  0.35948016242E+02  0.51100000000E-03 0.  1.
        -11    1    3    3    0    0 -0.45227376223E+01  0.36270622244E+01  0.36979469908E+01  0.68764488065E+01  0.51100000000E-03 0. -1.
        -12    1    3    3    0    0  0.12369073047E+02  0.93426608437E+01  0.55883447786E+01  0.16477526424E+02  0.00000000000E+00 0.  1.
</event>
<event>
 7    1  0.6184948E-012  0.5930222E+02  0.7816164E-02  0.1266604E+00
        -11   -1    0    0    0    0  0.00000000000E+00  0.00000000000E+00  0.45593999997E+02  0.45594000000E+02  0.51100000000E-03 0.  1.
         11   -1    0    0    0    0 -0.00000000000E+00 -0.00000000000E+00 -0.45593999997E+02  0.45594000000E+02  0.51100000000E-03 0. -1.
    9900012    2    1    2    0    0 -0.20187271967E+01  0.24899345245E+02  0.19815408917E+02  0.59302218158E+02  0.50000499945E+02 0.  0.
         12    1    1    2    0    0  0.20187271967E+01 -0.24899345245E+02 -0.19815408917E+02  0.31885781842E+02  0.00000000000E+00 0. -1.
         11    1    3    3    0    0  0.10290897187E+02  0.10208019723E+02 -0.42237005933E+01  0.15097876623E+02  0.51100000000E-03 0. -1.
        -11    1    3    3    0    0  0.84065304211E+00  0.20194657638E+02  0.21878906276E+02  0.29786195373E+02  0.51100000000E-03 0.  1.
         12    1    3    3    0    0 -0.13150277426E+02 -0.55033321156E+01  0.21602032336E+01  0.14418146162E+02  0.00000000000E+00 0. -1.
</event>
<event>
 7    1  0.6184948E-012  0.5930199E+02  0.7816164E-02  0.1266605E+00
        -11   -1    0    0    0    0  0.00000000000E+00  0.00000000000E+00  0.45593999997E+02  0.45594000000E+02  0.51100000000E-03 0.  1.
         11   -1    0    0    0    0 -0.00000000000E+00 -0.00000000000E+00 -0.45593999997E+02  0.45594000000E+02  0.51100000000E-03 0. -1.
    9900012    2    1    2    0    0  0.12524023277E+02  0.12176011471E+02  0.26676036871E+02  0.59301994331E+02  0.50000091740E+02 0.  0.
         12    1    1    2    0    0 -0.12524023277E+02 -0.12176011471E+02 -0.26676036871E+02  0.31886005669E+02  0.00000000000E+00 0. -1.
         11    1    3    3    0    0  0.59305518531E+01  0.56485956631E+01 -0.54872249849E+01  0.98583830593E+01  0.51100000000E-03 0. -1.
        -11    1    3    3    0    0 -0.10903473078E+02  0.91991543452E+01  0.19099084198E+01  0.14392981493E+02  0.51100000000E-03 0.  1.
        -12    1    3    3    0    0  0.17496944502E+02 -0.26717385372E+01  0.30253353436E+02  0.35050629778E+02  0.00000000000E+00 0.  1.
</event>
<event>
 7    1  0.6184948E-012  0.5930227E+02  0.7816164E-02  0.1266604E+00
        -11   -1    0    0    0    0  0.00000000000E+00  0.00000000000E+00  0.45593999997E+02  0.45594000000E+02  0.51100000000E-03 0. -1.
         11   -1    0    0    0    0 -0.00000000000E+00 -0.00000000000E+00 -0.45593999997E+02  0.45594000000E+02  0.51100000000E-03 0.  1.
    9900012    2    1    2    0    0 -0.15089390889E+02  0.24054491605E+02 -0.14504882230E+02  0.59302268203E+02  0.50000591214E+02 0.  0.
         12    1    1    2    0    0  0.15089390889E+02 -0.24054491605E+02  0.14504882230E+02  0.31885731797E+02  0.00000000000E+00 0. -1.
         11    1    3    3    0    0 -0.15380243482E+02  0.10194708932E+02 -0.17521127083E+01  0.18535206473E+02  0.51100000000E-03 0. -1.
        -11    1    3    3    0    0 -0.15778011154E+02  0.11205060809E+02 -0.14785732523E+02  0.24353991668E+02  0.51100000000E-03 0.  1.
         12    1    3    3    0    0  0.16068863747E+02  0.26547218638E+01  0.20329630016E+01  0.16413070062E+02  0.00000000000E+00 0. -1.
</event>
<event>
 7    1  0.6184948E-012  0.5930193E+02  0.7816164E-02  0.1266605E+00
        -11   -1    0    0    0    0  0.00000000000E+00  0.00000000000E+00  0.45593999997E+02  0.45594000000E+02  0.51100000000E-03 0.  1.
         11   -1    0    0    0    0 -0.00000000000E+00 -0.00000000000E+00 -0.45593999997E+02  0.45594000000E+02  0.51100000000E-03 0. -1.
    9900012    2    1    2    0    0 -0.29574759120E+02  0.57199421452E+01  0.10456437640E+02  0.59301934027E+02  0.49999981761E+02 0.  0.
         12    1    1    2    0    0  0.29574759120E+02 -0.57199421452E+01 -0.10456437640E+02  0.31886065973E+02  0.00000000000E+00 0. -1.
         11    1    3    3    0    0 -0.81737104995E+01  0.13202795559E+02 -0.43993177978E+01  0.16139310742E+02  0.51100000000E-03 0. -1.
        -11    1    3    3    0    0 -0.10485575575E+02  0.89982723882E+01  0.18470554516E+02  0.23066807007E+02  0.51100000000E-03 0.  1.
         12    1    3    3    0    0 -0.10915473045E+02 -0.16481125802E+02 -0.36147990782E+01  0.20095816278E+02  0.00000000000E+00 0. -1.
</event>
<event>
 7    1  0.6184948E-012  0.5930195E+02  0.7816164E-02  0.1266605E+00
        -11   -1    0    0    0    0  0.00000000000E+00  0.00000000000E+00  0.45593999997E+02  0.45594000000E+02  0.51100000000E-03 0. -1.
         11   -1    0    0    0    0 -0.00000000000E+00 -0.00000000000E+00 -0.45593999997E+02  0.45594000000E+02  0.51100000000E-03 0.  1.
    9900012    2    1    2    0    0  0.53864914736E+01 -0.26499200683E+02 -0.16896685752E+02  0.59301954202E+02  0.50000018555E+02 0.  0.
         12    1    1    2    0    0 -0.53864914736E+01  0.26499200683E+02  0.16896685752E+02  0.31886045798E+02  0.00000000000E+00 0. -1.
         11    1    3    3    0    0  0.54933031221E+00 -0.24193379151E+02 -0.16164842088E+02  0.29101949738E+02  0.51100000000E-03 0. -1.
        -11    1    3    3    0    0 -0.23469803802E+00  0.26042531101E+01 -0.14496658877E+02  0.14730591851E+02  0.51100000000E-03 0.  1.
         12    1    3    3    0    0  0.50718591994E+01 -0.49100746419E+01  0.13764815213E+02  0.15469412613E+02  0.00000000000E+00 0. -1.
</event>
<event>
 7    1  0.6184948E-012  0.5930195E+02  0.7816164E-02  0.1266605E+00
        -11   -1    0    0    0    0  0.00000000000E+00  0.00000000000E+00  0.45593999997E+02  0.45594000000E+02  0.51100000000E-03 0. -1.
         11   -1    0    0    0    0 -0.00000000000E+00 -0.00000000000E+00 -0.45593999997E+02  0.45594000000E+02  0.51100000000E-03 0.  1.
    9900012    2    1    2    0    0  0.13963315180E+01  0.18792516897E+02 -0.25721816430E+02  0.59301948606E+02  0.50000008350E+02 0.  0.
         12    1    1    2    0    0 -0.13963315180E+01 -0.18792516897E+02  0.25721816430E+02  0.31886051394E+02  0.00000000000E+00 0. -1.
         11    1    3    3    0    0  0.46607920300E+00 -0.59057721074E+01  0.22849114469E+01  0.63495034915E+01  0.51100000000E-03 0. -1.
        -11    1    3    3    0    0 -0.86293729294E+00 -0.21055325770E+01 -0.25907035015E+02  0.26006775881E+02  0.51100000000E-03 0.  1.
         12    1    3    3    0    0  0.17931896079E+01  0.26803821581E+02 -0.20996928621E+01  0.26945669234E+02  0.00000000000E+00 0. -1.
</event>
<event>
 7    1  0.6184948E-012  0.5930195E+02  0.7816164E-02  0.1266605E+00
        -11   -1    0    0    0    0  0.00000000000E+00  0.00000000000E+00  0.45593999997E+02  0.45594000000E+02  0.51100000000E-03 0.  1.
         11   -1    0    0    0    0 -0.00000000000E+00 -0.00000000000E+00 -0.45593999997E+02  0.45594000000E+02  0.51100000000E-03 0. -1.
    9900012    2    1    2    0    0  0.16134349749E+02  0.47231430527E+01  0.27094188337E+02  0.59301947191E+02  0.50000005769E+02 0.  0.
         12    1    1    2    0    0 -0.16134349749E+02 -0.47231430527E+01 -0.27094188337E+02  0.31886052809E+02  0.00000000000E+00 0. -1.
         11    1    3    3    0    0 -0.10904018249E+02  0.11250147410E+02  0.30397138225E+01  0.15959426403E+02  0.51100000000E-03 0. -1.
        -11    1    3    3    0    0  0.10343786306E+02  0.44658199088E+01 -0.97744447544E+00  0.11308972569E+02  0.51100000000E-03 0.  1.
        -12    1    3    3    0    0  0.16694581692E+02 -0.10992824266E+02  0.25031918990E+02  0.32033548219E+02  0.00000000000E+00 0.  1.
</event>
<event>
 7    1  0.6184948E-012  0.5930195E+02  0.7816164E-02  0.1266605E+00
        -11   -1    0    0    0    0  0.00000000000E+00  0.00000000000E+00  0.45593999997E+02  0.45594000000E+02  0.51100000000E-03 0. -1.
         11   -1    0    0    0    0 -0.00000000000E+00 -0.00000000000E+00 -0.45593999997E+02  0.45594000000E+02  0.51100000000E-03 0.  1.
    9900012    2    1    2    0    0 -0.26523925916E+02 -0.46494639878E+01 -0.17075838946E+02  0.59301946041E+02  0.50000003671E+02 0.  0.
         12    1    1    2    0    0  0.26523925916E+02  0.46494639878E+01  0.17075838946E+02  0.31886053959E+02  0.00000000000E+00 0. -1.
         11    1    3    3    0    0 -0.46811477372E+01 -0.13208835998E+01 -0.12115475626E+02  0.13055367767E+02  0.51100000000E-03 0. -1.
        -11    1    3    3    0    0 -0.86976197636E+01 -0.98174275964E+01 -0.20846982695E+02  0.24629802311E+02  0.51100000000E-03 0.  1.
         12    1    3    3    0    0 -0.13145158415E+02  0.64888472084E+01  0.15886619374E+02  0.21616775962E+02  0.00000000000E+00 0. -1.
</event>
<event>
 7    1  0.6184948E-012  0.5930195E+02  0.7816164E-02  0.1266605E+00
        -11   -1    0    0    0    0  0.00000000000E+00  0.00000000000E+00  0.45593999997E+02  0.45594000000E+02  0.51100000000E-03 0.  1.
         11   -1    0    0    0    0 -0.00000000000E+00 -0.00000000000E+00 -0.45593999997E+02  0.45594000000E+02  0.51100000000E-03 0. -1.
    9900012    2    1    2    0    0 -0.14064678731E+02 -0.21477102497E+02 -0.18911347986E+02  0.59301949726E+02  0.50000010392E+02 0.  0.
         12    1    1    2    0    0  0.14064678731E+02  0.21477102497E+02  0.18911347986E+02  0.31886050274E+02  0.00000000000E+00 0. -1.
         11    1    3    3    0    0 -0.74218226060E+01  0.12347030266E+02 -0.79041732069E+01  0.16431937242E+02  0.51100000000E-03 0. -1.
        -11    1    3    3    0    0 -0.76465862247E+01 -0.54676071805E-01 -0.18817920039E+01  0.78749229692E+01  0.51100000000E-03 0.  1.
         12    1    3    3    0    0  0.10037300996E+01 -0.33769456691E+02 -0.91253827748E+01  0.34995089514E+02  0.00000000000E+00 0. -1.
</event>
<event>
 7    1  0.6184948E-012  0.5930196E+02  0.7816164E-02  0.1266605E+00
        -11   -1    0    0    0    0  0.00000000000E+00  0.00000000000E+00  0.45593999997E+02  0.45594000000E+02  0.51100000000E-03 0. -1.
         11   -1    0    0    0    0 -0.00000000000E+00 -0.00000000000E+00 -0.45593999997E+02  0.45594000000E+02  0.51100000000E-03 0.  1.
    9900012    2    1    2    0    0 -0.27271945600E+02 -0.11656954156E+02 -0.11707946909E+02  0.59301958888E+02  0.50000027102E+02 0.  0.
         12    1    1    2    0    0  0.27271945600E+02  0.11656954156E+02  0.11707946909E+02  0.31886041112E+02  0.00000000000E+00 0. -1.
         11    1    3    3    0    0  0.10055767778E+01 -0.50776571362E+01 -0.13688761068E+02  0.14634752013E+02  0.51100000000E-03 0. -1.
        -11    1    3    3    0    0  0.51860771086E+01 -0.92031953817E+01 -0.23517786428E+01  0.10822433370E+02  0.51100000000E-03 0.  1.
         12    1    3    3    0    0 -0.33463599486E+02  0.26238983623E+01  0.43325928018E+01  0.33844773504E+02  0.00000000000E+00 0. -1.
</event>
<event>
 7    1  0.6184948E-012  0.5930194E+02  0.7816164E-02  0.1266605E+00
        -11   -1    0    0    0    0  0.00000000000E+00  0.00000000000E+00  0.45593999997E+02  0.45594000000E+02  0.51100000000E-03 0.  1.
         11   -1    0    0    0    0 -0.00000000000E+00 -0.00000000000E+00 -0.45593999997E+02  0.45594000000E+02  0.51100000000E-03 0. -1.
    9900012    2    1    2    0    0  0.89644362958E+00 -0.15088077645E+02  0.28076096909E+02  0.59301938533E+02  0.49999989980E+02 0.  0.
         12    1    1    2    0    0 -0.89644362958E+00  0.15088077645E+02 -0.28076096909E+02  0.31886061467E+02  0.00000000000E+00 0. -1.
         11    1    3    3    0    0 -0.15200418331E+02 -0.68826819188E+01  0.10824835343E+01  0.16721118345E+02  0.51100000000E-03 0. -1.
        -11    1    3    3    0    0  0.18193710559E+01 -0.46801782370E+01 -0.51745553436E+01  0.72104231939E+01  0.51100000000E-03 0.  1.
        -12    1    3    3    0    0  0.14277490905E+02 -0.35252174888E+01  0.32168168719E+02  0.35370396995E+02  0.00000000000E+00 0.  1.
</event>
<event>
 7    1  0.6184948E-012  0.5930196E+02  0.7816164E-02  0.1266605E+00
        -11   -1    0    0    0    0  0.00000000000E+00  0.00000000000E+00  0.45593999997E+02  0.45594000000E+02  0.51100000000E-03 0.  1.
         11   -1    0    0    0    0 -0.00000000000E+00 -0.00000000000E+00 -0.45593999997E+02  0.45594000000E+02  0.51100000000E-03 0. -1.
    9900012    2    1    2    0    0 -0.16546970478E+02  0.22363496268E+02  0.15581772817E+02  0.59301955381E+02  0.50000020705E+02 0.  0.
         12    1    1    2    0    0  0.16546970478E+02 -0.22363496268E+02 -0.15581772817E+02  0.31886044619E+02  0.00000000000E+00 0. -1.
         11    1    3    3    0    0 -0.22860908328E+02  0.29136916927E+02 -0.90153916262E+00  0.37045834189E+02  0.51100000000E-03 0.  1.
        -11    1    3    3    0    0  0.55455706795E+01  0.16710951859E+01  0.10099053669E+02  0.11642027253E+02  0.51100000000E-03 0. -1.
        -12    1    3    3    0    0  0.76836717055E+00 -0.84445158451E+01  0.63842583110E+01  0.10614093939E+02  0.00000000000E+00 0.  1.
</event>
<event>
 7    1  0.6184948E-012  0.5930194E+02  0.7816164E-02  0.1266605E+00
        -11   -1    0    0    0    0  0.00000000000E+00  0.00000000000E+00  0.45593999997E+02  0.45594000000E+02  0.51100000000E-03 0. -1.
         11   -1    0    0    0    0 -0.00000000000E+00 -0.00000000000E+00 -0.45593999997E+02  0.45594000000E+02  0.51100000000E-03 0.  1.
    9900012    2    1    2    0    0  0.17602124383E+02 -0.44993958310E+00 -0.26583526385E+02  0.59301935591E+02  0.49999984614E+02 0.  0.
         12    1    1    2    0    0 -0.17602124383E+02  0.44993958310E+00  0.26583526385E+02  0.31886064409E+02  0.00000000000E+00 0. -1.
         11    1    3    3    0    0  0.18426847411E+01 -0.23738207984E+01 -0.39172780197E+01  0.49371631108E+01  0.51100000000E-03 0. -1.
        -11    1    3    3    0    0  0.31688515246E+02  0.38772242120E+01 -0.86970440820E+01  0.33088267439E+02  0.51100000000E-03 0.  1.
         12    1    3    3    0    0 -0.15929075605E+02 -0.19533429967E+01 -0.13969204283E+02  0.21276505042E+02  0.00000000000E+00 0. -1.
</event>
<event>
 7    1  0.6184948E-012  0.5930195E+02  0.7816164E-02  0.1266605E+00
        -11   -1    0    0    0    0  0.00000000000E+00  0.00000000000E+00  0.45593999997E+02  0.45594000000E+02  0.51100000000E-03 0. -1.
         11   -1    0    0    0    0 -0.00000000000E+00 -0.00000000000E+00 -0.45593999997E+02  0.45594000000E+02  0.51100000000E-03 0.  1.
    9900012    2    1    2    0    0 -0.12132360884E+02 -0.74306027814E+01 -0.28536157455E+02  0.59301947868E+02  0.50000007003E+02 0.  0.
         12    1    1    2    0    0  0.12132360884E+02  0.74306027814E+01  0.28536157455E+02  0.31886052132E+02  0.00000000000E+00 0. -1.
         11    1    3    3    0    0 -0.40734323811E+01  0.35005439228E+01  0.15212330982E+01  0.55821868044E+01  0.51100000000E-03 0. -1.
        -11    1    3    3    0    0  0.19255908540E+01  0.66013570065E+01 -0.32660294613E+02  0.33376348796E+02  0.51100000000E-03 0.  1.
         12    1    3    3    0    0 -0.99845193564E+01 -0.17532503711E+02  0.26029040598E+01  0.20343412268E+02  0.00000000000E+00 0. -1.
</event>
<event>
 7    1  0.6184948E-012  0.5930193E+02  0.7816164E-02  0.1266605E+00
        -11   -1    0    0    0    0  0.00000000000E+00  0.00000000000E+00  0.45593999997E+02  0.45594000000E+02  0.51100000000E-03 0.  1.
         11   -1    0    0    0    0 -0.00000000000E+00 -0.00000000000E+00 -0.45593999997E+02  0.45594000000E+02  0.51100000000E-03 0. -1.
    9900012    2    1    2    0    0 -0.31682239522E+02 -0.14254468710E+01  0.33053409306E+01  0.59301929709E+02  0.49999973887E+02 0.  0.
         12    1    1    2    0    0  0.31682239522E+02  0.14254468710E+01 -0.33053409306E+01  0.31886070291E+02  0.00000000000E+00 0. -1.
         11    1    3    3    0    0 -0.64727427683E+01  0.59715085888E+01 -0.15587075720E+02  0.17902855737E+02  0.51100000000E-03 0. -1.
        -11    1    3    3    0    0 -0.18610268259E+02 -0.18726576453E+01 -0.19928301038E+01  0.18810111733E+02  0.51100000000E-03 0.  1.
        -12    1    3    3    0    0 -0.65992284952E+01 -0.55242978146E+01  0.20885246754E+02  0.22588962240E+02  0.00000000000E+00 0.  1.
</event>
<event>
 7    1  0.6184948E-012  0.5930192E+02  0.7816164E-02  0.1266605E+00
        -11   -1    0    0    0    0  0.00000000000E+00  0.00000000000E+00  0.45593999997E+02  0.45594000000E+02  0.51100000000E-03 0. -1.
         11   -1    0    0    0    0 -0.00000000000E+00 -0.00000000000E+00 -0.45593999997E+02  0.45594000000E+02  0.51100000000E-03 0.  1.
    9900012    2    1    2    0    0 -0.78280861393E+01 -0.15910113903E+02 -0.26501160312E+02  0.59301919104E+02  0.49999954545E+02 0.  0.
         12    1    1    2    0    0  0.78280861393E+01  0.15910113903E+02  0.26501160312E+02  0.31886080896E+02  0.00000000000E+00 0. -1.
         11    1    3    3    0    0 -0.42022941704E+01 -0.21021432520E+02 -0.31049718310E+02  0.37731219287E+02  0.51100000000E-03 0. -1.
        -11    1    3    3    0    0 -0.63451576266E+01  0.10553850148E+00 -0.65347441300E+01  0.91090638809E+01  0.51100000000E-03 0.  1.
         12    1    3    3    0    0  0.27193656576E+01  0.50057801154E+01  0.11083302128E+02  0.12461635936E+02  0.00000000000E+00 0. -1.
</event>
<event>
 7    1  0.6184948E-012  0.5930194E+02  0.7816164E-02  0.1266605E+00
        -11   -1    0    0    0    0  0.00000000000E+00  0.00000000000E+00  0.45593999997E+02  0.45594000000E+02  0.51100000000E-03 0.  1.
         11   -1    0    0    0    0 -0.00000000000E+00 -0.00000000000E+00 -0.45593999997E+02  0.45594000000E+02  0.51100000000E-03 0. -1.
    9900012    2    1    2    0    0 -0.23700233235E+02 -0.19011462181E+02  0.96738926519E+01  0.59301938019E+02  0.49999989041E+02 0.  0.
         12    1    1    2    0    0  0.23700233235E+02  0.19011462181E+02 -0.96738926519E+01  0.31886061981E+02  0.00000000000E+00 0. -1.
         11    1    3    3    0    0 -0.63331420235E+01 -0.13126483142E+02 -0.91306503255E+01  0.17198314545E+02  0.51100000000E-03 0. -1.
        -11    1    3    3    0    0 -0.17187771561E+02 -0.18385611938E+02  0.12447669190E+02  0.28078366871E+02  0.51100000000E-03 0.  1.
         12    1    3    3    0    0 -0.17931965011E+00  0.12500632900E+02  0.63568737870E+01  0.14025256603E+02  0.00000000000E+00 0. -1.
</event>
<event>
 7    1  0.6184948E-012  0.5930197E+02  0.7816164E-02  0.1266605E+00
        -11   -1    0    0    0    0  0.00000000000E+00  0.00000000000E+00  0.45593999997E+02  0.45594000000E+02  0.51100000000E-03 0.  1.
         11   -1    0    0    0    0 -0.00000000000E+00 -0.00000000000E+00 -0.45593999997E+02  0.45594000000E+02  0.51100000000E-03 0. -1.
    9900012    2    1    2    0    0  0.20474157863E+02  0.24444251560E+02 -0.77734423103E-01  0.59301974579E+02  0.50000055719E+02 0.  0.
         12    1    1    2    0    0 -0.20474157863E+02 -0.24444251560E+02  0.77734423103E-01  0.31886025421E+02  0.00000000000E+00 0. -1.
         11    1    3    3    0    0  0.26005166630E+01  0.77195499291E+01 -0.13811315082E+02  0.16034542793E+02  0.51100000000E-03 0. -1.
        -11    1    3    3    0    0 -0.50569134338E+01  0.16356557212E+02  0.12737530612E+01  0.17167754205E+02  0.51100000000E-03 0.  1.
        -12    1    3    3    0    0  0.22930554633E+02  0.36814441838E+00  0.12459827598E+02  0.26099677582E+02  0.00000000000E+00 0.  1.
</event>
<event>
 7    1  0.6184948E-012  0.5930195E+02  0.7816164E-02  0.1266605E+00
        -11   -1    0    0    0    0  0.00000000000E+00  0.00000000000E+00  0.45593999997E+02  0.45594000000E+02  0.51100000000E-03 0.  1.
         11   -1    0    0    0    0 -0.00000000000E+00 -0.00000000000E+00 -0.45593999997E+02  0.45594000000E+02  0.51100000000E-03 0. -1.
    9900012    2    1    2    0    0 -0.83690502585E+01 -0.23753924356E+02  0.19555825713E+02  0.59301949071E+02  0.50000009198E+02 0.  0.
         12    1    1    2    0    0  0.83690502585E+01  0.23753924356E+02 -0.19555825713E+02  0.31886050929E+02  0.00000000000E+00 0. -1.
         11    1    3    3    0    0 -0.10481678899E+02 -0.28214663316E+02 -0.26100783692E+01  0.30211675358E+02  0.51100000000E-03 0. -1.
        -11    1    3    3    0    0 -0.23595242064E+00  0.20989692030E+01 -0.30198587350E+01  0.36852262211E+01  0.51100000000E-03 0.  1.
        -12    1    3    3    0    0  0.23485810606E+01  0.23617697571E+01  0.25185762817E+02  0.25405047492E+02  0.00000000000E+00 0.  1.
</event>
<event>
 7    1  0.6184948E-012  0.5930200E+02  0.7816164E-02  0.1266605E+00
        -11   -1    0    0    0    0  0.00000000000E+00  0.00000000000E+00  0.45593999997E+02  0.45594000000E+02  0.51100000000E-03 0.  1.
         11   -1    0    0    0    0 -0.00000000000E+00 -0.00000000000E+00 -0.45593999997E+02  0.45594000000E+02  0.51100000000E-03 0. -1.
    9900012    2    1    2    0    0  0.23016415060E+02  0.21997209935E+02  0.17563287853E+01  0.59301995265E+02  0.50000093445E+02 0.  0.
         12    1    1    2    0    0 -0.23016415060E+02 -0.21997209935E+02 -0.17563287853E+01  0.31886004735E+02  0.00000000000E+00 0. -1.
         11    1    3    3    0    0  0.12295353051E+02  0.24736182865E+01  0.27062976499E+01  0.12830375728E+02  0.51100000000E-03 0. -1.
        -11    1    3    3    0    0  0.92070871041E+01 -0.11873677168E+02 -0.59189281632E-01  0.15025250949E+02  0.51100000000E-03 0.  1.
         12    1    3    3    0    0  0.15139749041E+01  0.31397268817E+02 -0.89077958303E+00  0.31446368589E+02  0.00000000000E+00 0. -1.
</event>
<event>
 7    1  0.6184948E-012  0.5930197E+02  0.7816164E-02  0.1266605E+00
        -11   -1    0    0    0    0  0.00000000000E+00  0.00000000000E+00  0.45593999997E+02  0.45594000000E+02  0.51100000000E-03 0.  1.
         11   -1    0    0    0    0 -0.00000000000E+00 -0.00000000000E+00 -0.45593999997E+02  0.45594000000E+02  0.51100000000E-03 0. -1.
    9900012    2    1    2    0    0  0.83771158574E+01  0.37320479478E+01  0.30538742424E+02  0.59301967935E+02  0.50000043602E+02 0.  0.
         12    1    1    2    0    0 -0.83771158574E+01 -0.37320479478E+01 -0.30538742424E+02  0.31886032065E+02  0.00000000000E+00 0. -1.
         11    1    3    3    0    0  0.22702328755E+01 -0.77133161720E+01  0.40199713277E+01  0.89894033960E+01  0.51100000000E-03 0. -1.
        -11    1    3    3    0    0 -0.19884147946E+01 -0.10607013534E+02  0.24455571449E+02  0.26730834343E+02  0.51100000000E-03 0.  1.
         12    1    3    3    0    0  0.80952977765E+01  0.22052377654E+02  0.20631996472E+01  0.23581730196E+02  0.00000000000E+00 0. -1.
</event>
<event>
 7    1  0.6184948E-012  0.5930191E+02  0.7816164E-02  0.1266605E+00
        -11   -1    0    0    0    0  0.00000000000E+00  0.00000000000E+00  0.45593999997E+02  0.45594000000E+02  0.51100000000E-03 0. -1.
         11   -1    0    0    0    0 -0.00000000000E+00 -0.00000000000E+00 -0.45593999997E+02  0.45594000000E+02  0.51100000000E-03 0.  1.
    9900012    2    1    2    0    0  0.12420132433E+02  0.25776545844E+02 -0.14072405617E+02  0.59301912043E+02  0.49999941668E+02 0.  0.
         12    1    1    2    0    0 -0.12420132433E+02 -0.25776545844E+02  0.14072405617E+02  0.31886087957E+02  0.00000000000E+00 0. -1.
         11    1    3    3    0    0 -0.20762308773E+01  0.55284083156E+01 -0.20256555334E+02  0.21099812023E+02  0.51100000000E-03 0. -1.
        -11    1    3    3    0    0  0.11480989278E+02  0.20529456160E+01 -0.86603640799E+01  0.14526858117E+02  0.51100000000E-03 0.  1.
         12    1    3    3    0    0  0.30153740323E+01  0.18195191913E+02  0.14844513797E+02  0.23675241903E+02  0.00000000000E+00 0. -1.
</event>
<event>
 7    1  0.6184948E-012  0.5930195E+02  0.7816164E-02  0.1266605E+00
        -11   -1    0    0    0    0  0.00000000000E+00  0.00000000000E+00  0.45593999997E+02  0.45594000000E+02  0.51100000000E-03 0.  1.
         11   -1    0    0    0    0 -0.00000000000E+00 -0.00000000000E+00 -0.45593999997E+02  0.45594000000E+02  0.51100000000E-03 0. -1.
    9900012    2    1    2    0    0  0.24064535142E+02  0.11482721701E+02  0.17486153467E+02  0.59301947997E+02  0.50000007239E+02 0.  0.
         12    1    1    2    0    0 -0.24064535142E+02 -0.11482721701E+02 -0.17486153467E+02  0.31886052003E+02  0.00000000000E+00 0. -1.
         11    1    3    3    0    0  0.96439305066E+01  0.38367075596E+01 -0.10984111132E+02  0.15112128180E+02  0.51100000000E-03 0. -1.
        -11    1    3    3    0    0  0.22414221671E+02  0.82434720525E+01  0.14096494926E+02  0.27731991167E+02  0.51100000000E-03 0.  1.
        -12    1    3    3    0    0 -0.79936170358E+01 -0.59745791130E+00  0.14373769673E+02  0.16457828650E+02  0.00000000000E+00 0.  1.
</event>
<event>
 7    1  0.6184948E-012  0.5930192E+02  0.7816164E-02  0.1266605E+00
        -11   -1    0    0    0    0  0.00000000000E+00  0.00000000000E+00  0.45593999997E+02  0.45594000000E+02  0.51100000000E-03 0. -1.
         11   -1    0    0    0    0 -0.00000000000E+00 -0.00000000000E+00 -0.45593999997E+02  0.45594000000E+02  0.51100000000E-03 0.  1.
    9900012    2    1    2    0    0 -0.13281350614E+02  0.83164993711E+01 -0.27769838010E+02  0.59301916217E+02  0.49999949280E+02 0.  0.
         12    1    1    2    0    0  0.13281350614E+02 -0.83164993711E+01  0.27769838010E+02  0.31886083783E+02  0.00000000000E+00 0. -1.
         11    1    3    3    0    0  0.27141563322E+01 -0.58864553541E+01  0.71547056723E+00  0.65214185286E+01  0.51100000000E-03 0. -1.
        -11    1    3    3    0    0 -0.26741044564E+02  0.11176542116E+01 -0.12672483291E+02  0.29612910163E+02  0.51100000000E-03 0.  1.
         12    1    3    3    0    0  0.10745537618E+02  0.13085300514E+02 -0.15812825285E+02  0.23167587525E+02  0.00000000000E+00 0. -1.
</event>
<event>
 7    1  0.6184948E-012  0.5930193E+02  0.7816164E-02  0.1266605E+00
        -11   -1    0    0    0    0  0.00000000000E+00  0.00000000000E+00  0.45593999997E+02  0.45594000000E+02  0.51100000000E-03 0. -1.
         11   -1    0    0    0    0 -0.00000000000E+00 -0.00000000000E+00 -0.45593999997E+02  0.45594000000E+02  0.51100000000E-03 0.  1.
    9900012    2    1    2    0    0 -0.10169589816E+02  0.25334131838E+02  0.16476737358E+02  0.59301926755E+02  0.49999968499E+02 0.  0.
         12    1    1    2    0    0  0.10169589816E+02 -0.25334131838E+02 -0.16476737358E+02  0.31886073245E+02  0.00000000000E+00 0. -1.
         11    1    3    3    0    0 -0.97775602425E+01  0.51195310772E+01 -0.38114856976E+00  0.11043349005E+02  0.51100000000E-03 0. -1.
        -11    1    3    3    0    0 -0.32433225607E+01  0.23565487688E+02  0.27727008754E+02  0.36532702691E+02  0.51100000000E-03 0.  1.
         12    1    3    3    0    0  0.28512929868E+01 -0.33508869276E+01 -0.10869122826E+02  0.11725875059E+02  0.00000000000E+00 0. -1.
</event>
<event>
 7    1  0.6184948E-012  0.5930196E+02  0.7816164E-02  0.1266605E+00
        -11   -1    0    0    0    0  0.00000000000E+00  0.00000000000E+00  0.45593999997E+02  0.45594000000E+02  0.51100000000E-03 0.  1.
         11   -1    0    0    0    0 -0.00000000000E+00 -0.00000000000E+00 -0.45593999997E+02  0.45594000000E+02  0.51100000000E-03 0. -1.
    9900012    2    1    2    0    0  0.17015400053E+01 -0.29651341332E+02  0.11602671787E+02  0.59301964283E+02  0.50000036940E+02 0.  0.
         12    1    1    2    0    0 -0.17015400053E+01  0.29651341332E+02 -0.11602671787E+02  0.31886035717E+02  0.00000000000E+00 0. -1.
         11    1    3    3    0    0  0.37836802310E+01 -0.12403792200E+01  0.85946953424E+01  0.94722523715E+01  0.51100000000E-03 0. -1.
        -11    1    3    3    0    0 -0.11775374845E+02 -0.10324358726E+02  0.18411773829E+02  0.24171165707E+02  0.51100000000E-03 0.  1.
         12    1    3    3    0    0  0.96932346196E+01 -0.18086603386E+02 -0.15403797384E+02  0.25658546204E+02  0.00000000000E+00 0. -1.
</event>
<event>
 7    1  0.6184948E-012  0.5930195E+02  0.7816164E-02  0.1266605E+00
        -11   -1    0    0    0    0  0.00000000000E+00  0.00000000000E+00  0.45593999997E+02  0.45594000000E+02  0.51100000000E-03 0.  1.
         11   -1    0    0    0    0 -0.00000000000E+00 -0.00000000000E+00 -0.45593999997E+02  0.45594000000E+02  0.51100000000E-03 0. -1.
    9900012    2    1    2    0    0 -0.12964861738E+00  0.15522426051E+02  0.27852427568E+02  0.59301949120E+02  0.50000009287E+02 0.  0.
         12    1    1    2    0    0  0.12964861738E+00 -0.15522426051E+02 -0.27852427568E+02  0.31886050880E+02  0.00000000000E+00 0. -1.
         11    1    3    3    0    0  0.27227622405E+01 -0.96533891676E+00  0.11286400331E+02  0.11650242321E+02  0.51100000000E-03 0. -1.
        -11    1    3    3    0    0  0.74768399565E+01 -0.34506723414E+01  0.22887409019E+02  0.24323728481E+02  0.51100000000E-03 0.  1.
         12    1    3    3    0    0 -0.10329250814E+02  0.19938437310E+02 -0.63213817825E+01  0.23327978317E+02  0.00000000000E+00 0. -1.
</event>
<event>
 7    1  0.6184948E-012  0.5930195E+02  0.7816164E-02  0.1266605E+00
        -11   -1    0    0    0    0  0.00000000000E+00  0.00000000000E+00  0.45593999997E+02  0.45594000000E+02  0.51100000000E-03 0. -1.
         11   -1    0    0    0    0 -0.00000000000E+00 -0.00000000000E+00 -0.45593999997E+02  0.45594000000E+02  0.51100000000E-03 0.  1.
    9900012    2    1    2    0    0  0.15452334459E+02 -0.12613152467E+02 -0.24876770279E+02  0.59301953602E+02  0.50000017461E+02 0.  0.
         12    1    1    2    0    0 -0.15452334459E+02  0.12613152467E+02  0.24876770279E+02  0.31886046398E+02  0.00000000000E+00 0. -1.
         11    1    3    3    0    0 -0.57092132339E+01 -0.17872297173E+01  0.61194079530E+01  0.85578303190E+01  0.51100000000E-03 0. -1.
        -11    1    3    3    0    0  0.44667825117E+01 -0.51757560740E+01  0.64238150352E+01  0.93811511454E+01  0.51100000000E-03 0.  1.
        -12    1    3    3    0    0  0.16694765181E+02 -0.56501666753E+01 -0.37419993267E+02  0.41362972138E+02  0.00000000000E+00 0.  1.
</event>
<event>
 7    1  0.6184948E-012  0.5930188E+02  0.7816164E-02  0.1266605E+00
        -11   -1    0    0    0    0  0.00000000000E+00  0.00000000000E+00  0.45593999997E+02  0.45594000000E+02  0.51100000000E-03 0.  1.
         11   -1    0    0    0    0 -0.00000000000E+00 -0.00000000000E+00 -0.45593999997E+02  0.45594000000E+02  0.51100000000E-03 0. -1.
    9900012    2    1    2    0    0 -0.76929450549E+01 -0.39980215747E+01  0.30684830365E+02  0.59301883983E+02  0.49999890492E+02 0.  0.
         12    1    1    2    0    0  0.76929450549E+01  0.39980215747E+01 -0.30684830365E+02  0.31886116017E+02  0.00000000000E+00 0. -1.
         11    1    3    3    0    0 -0.94960656244E+00 -0.12489339691E+02 -0.71979543103E+01  0.14446311122E+02  0.51100000000E-03 0. -1.
        -11    1    3    3    0    0  0.13414868343E+01 -0.52311435573E+01  0.20842911229E+02  0.21531172718E+02  0.51100000000E-03 0.  1.
        -12    1    3    3    0    0 -0.80848253268E+01  0.13722461673E+02  0.17039873446E+02  0.23324400142E+02  0.00000000000E+00 0.  1.
</event>
<event>
 7    1  0.6184948E-012  0.5930182E+02  0.7816164E-02  0.1266605E+00
        -11   -1    0    0    0    0  0.00000000000E+00  0.00000000000E+00  0.45593999997E+02  0.45594000000E+02  0.51100000000E-03 0.  1.
         11   -1    0    0    0    0 -0.00000000000E+00 -0.00000000000E+00 -0.45593999997E+02  0.45594000000E+02  0.51100000000E-03 0. -1.
    9900012    2    1    2    0    0 -0.13051581423E+02  0.27642682246E+02  0.90700970628E+01  0.59301822429E+02  0.49999778232E+02 0.  0.
         12    1    1    2    0    0  0.13051581423E+02 -0.27642682246E+02 -0.90700970628E+01  0.31886177571E+02  0.00000000000E+00 0. -1.
         11    1    3    3    0    0 -0.46605337295E+01  0.25817963417E+02  0.16794014460E+02  0.31150067923E+02  0.51100000000E-03 0. -1.
        -11    1    3    3    0    0 -0.88056795259E+01 -0.16958634741E+01  0.80096714484E+01  0.12023759055E+02  0.51100000000E-03 0.  1.
         12    1    3    3    0    0  0.41463183264E+00  0.35205823024E+01 -0.15733588846E+02  0.16127995451E+02  0.00000000000E+00 0. -1.
</event>
<event>
 7    1  0.6184948E-012  0.5930194E+02  0.7816164E-02  0.1266605E+00
        -11   -1    0    0    0    0  0.00000000000E+00  0.00000000000E+00  0.45593999997E+02  0.45594000000E+02  0.51100000000E-03 0. -1.
         11   -1    0    0    0    0 -0.00000000000E+00 -0.00000000000E+00 -0.45593999997E+02  0.45594000000E+02  0.51100000000E-03 0.  1.
    9900012    2    1    2    0    0  0.31018100782E+02  0.57309105613E+01 -0.46641846808E+01  0.59301944572E+02  0.50000000993E+02 0.  0.
         12    1    1    2    0    0 -0.31018100782E+02 -0.57309105613E+01  0.46641846808E+01  0.31886055428E+02  0.00000000000E+00 0. -1.
         11    1    3    3    0    0  0.93600329201E+01 -0.98166028998E+01 -0.85876399805E+01  0.16053768077E+02  0.51100000000E-03 0. -1.
        -11    1    3    3    0    0  0.11173064416E+02 -0.90356123020E+01 -0.47758097115E+01  0.15142259302E+02  0.51100000000E-03 0.  1.
        -12    1    3    3    0    0  0.10485003446E+02  0.24583125763E+02  0.86992650113E+01  0.28105917194E+02  0.00000000000E+00 0.  1.
</event>
<event>
 7    1  0.6184948E-012  0.5930195E+02  0.7816164E-02  0.1266605E+00
        -11   -1    0    0    0    0  0.00000000000E+00  0.00000000000E+00  0.45593999997E+02  0.45594000000E+02  0.51100000000E-03 0. -1.
         11   -1    0    0    0    0 -0.00000000000E+00 -0.00000000000E+00 -0.45593999997E+02  0.45594000000E+02  0.51100000000E-03 0.  1.
    9900012    2    1    2    0    0 -0.30695336529E+02  0.52146478360E+01 -0.68792293156E+01  0.59301952382E+02  0.50000015237E+02 0.  0.
         12    1    1    2    0    0  0.30695336529E+02 -0.52146478360E+01  0.68792293156E+01  0.31886047618E+02  0.00000000000E+00 0. -1.
         11    1    3    3    0    0 -0.78197640448E+01 -0.97019964400E+01  0.15874247960E+02  0.20180911604E+02  0.51100000000E-03 0. -1.
        -11    1    3    3    0    0 -0.16119000950E+02  0.54420405174E+01 -0.47141424136E+01  0.17653926916E+02  0.51100000000E-03 0.  1.
        -12    1    3    3    0    0 -0.67565715349E+01  0.94746037586E+01 -0.18039334862E+02  0.21467113862E+02  0.00000000000E+00 0.  1.
</event>
<event>
 7    1  0.6184948E-012  0.5930191E+02  0.7816164E-02  0.1266605E+00
        -11   -1    0    0    0    0  0.00000000000E+00  0.00000000000E+00  0.45593999997E+02  0.45594000000E+02  0.51100000000E-03 0. -1.
         11   -1    0    0    0    0 -0.00000000000E+00 -0.00000000000E+00 -0.45593999997E+02  0.45594000000E+02  0.51100000000E-03 0.  1.
    9900012    2    1    2    0    0 -0.26908743563E+02  0.11889573567E+02 -0.12299595772E+02  0.59301913758E+02  0.49999944794E+02 0.  0.
         12    1    1    2    0    0  0.26908743563E+02 -0.11889573567E+02  0.12299595772E+02  0.31886086242E+02  0.00000000000E+00 0. -1.
         11    1    3    3    0    0 -0.27623056803E+02  0.59262688265E+01 -0.15863773265E+02  0.32400821468E+02  0.51100000000E-03 0. -1.
        -11    1    3    3    0    0 -0.64578425669E+00 -0.32347654558E+01 -0.99582841252E+01  0.10490384542E+02  0.51100000000E-03 0.  1.
         12    1    3    3    0    0  0.13600974970E+01  0.91980701958E+01  0.13522461619E+02  0.16410707747E+02  0.00000000000E+00 0. -1.
</event>
<event>
 7    1  0.6184948E-012  0.5930197E+02  0.7816164E-02  0.1266605E+00
        -11   -1    0    0    0    0  0.00000000000E+00  0.00000000000E+00  0.45593999997E+02  0.45594000000E+02  0.51100000000E-03 0. -1.
         11   -1    0    0    0    0 -0.00000000000E+00 -0.00000000000E+00 -0.45593999997E+02  0.45594000000E+02  0.51100000000E-03 0.  1.
    9900012    2    1    2    0    0 -0.55976318744E+01 -0.24402577584E+02 -0.19745882263E+02  0.59301966354E+02  0.50000040718E+02 0.  0.
         12    1    1    2    0    0  0.55976318744E+01  0.24402577584E+02  0.19745882263E+02  0.31886033646E+02  0.00000000000E+00 0. -1.
         11    1    3    3    0    0 -0.18694192866E+02 -0.18513339542E+02 -0.62967170166E+01  0.27053007843E+02  0.51100000000E-03 0. -1.
        -11    1    3    3    0    0  0.11017491711E+02 -0.14442797520E+02 -0.27151444858E+01  0.18367131884E+02  0.51100000000E-03 0.  1.
        -12    1    3    3    0    0  0.20790692803E+01  0.85535594784E+01 -0.10734020760E+02  0.13881826627E+02  0.00000000000E+00 0.  1.
</event>
<event>
 7    1  0.6184948E-012  0.5930196E+02  0.7816164E-02  0.1266605E+00
        -11   -1    0    0    0    0  0.00000000000E+00  0.00000000000E+00  0.45593999997E+02  0.45594000000E+02  0.51100000000E-03 0. -1.
         11   -1    0    0    0    0 -0.00000000000E+00 -0.00000000000E+00 -0.45593999997E+02  0.45594000000E+02  0.51100000000E-03 0.  1.
    9900012    2    1    2    0    0  0.12096471002E+02  0.23934285639E+02 -0.17249495021E+02  0.59301957314E+02  0.50000024230E+02 0.  0.
         12    1    1    2    0    0 -0.12096471002E+02 -0.23934285639E+02  0.17249495021E+02  0.31886042686E+02  0.00000000000E+00 0. -1.
         11    1    3    3    0    0  0.18546246669E+02 -0.94276542723E+00 -0.27283917595E+01  0.18769554977E+02  0.51100000000E-03 0. -1.
        -11    1    3    3    0    0  0.77599303524E+01  0.28988000106E+01  0.32489225866E+01  0.88980367953E+01  0.51100000000E-03 0.  1.
        -12    1    3    3    0    0 -0.14209706020E+02  0.21978251055E+02 -0.17770025848E+02  0.31634365542E+02  0.00000000000E+00 0.  1.
</event>
<event>
 7    1  0.6184948E-012  0.5930195E+02  0.7816164E-02  0.1266605E+00
        -11   -1    0    0    0    0  0.00000000000E+00  0.00000000000E+00  0.45593999997E+02  0.45594000000E+02  0.51100000000E-03 0. -1.
         11   -1    0    0    0    0 -0.00000000000E+00 -0.00000000000E+00 -0.45593999997E+02  0.45594000000E+02  0.51100000000E-03 0.  1.
    9900012    2    1    2    0    0  0.75968020758E+01 -0.12138230014E+01 -0.30944066963E+02  0.59301952138E+02  0.50000014791E+02 0.  0.
         12    1    1    2    0    0 -0.75968020758E+01  0.12138230014E+01  0.30944066963E+02  0.31886047862E+02  0.00000000000E+00 0. -1.
         11    1    3    3    0    0  0.23725270947E+01 -0.14264159059E+02 -0.15087613846E+02  0.20898114993E+02  0.51100000000E-03 0. -1.
        -11    1    3    3    0    0  0.83932168862E+01 -0.91703163587E+01 -0.42704912680E+01  0.13144500285E+02  0.51100000000E-03 0.  1.
        -12    1    3    3    0    0 -0.31689419051E+01  0.22220652416E+02 -0.11585961849E+02  0.25259336859E+02  0.00000000000E+00 0.  1.
</event>
<event>
 7    1  0.6184948E-012  0.5930195E+02  0.7816164E-02  0.1266605E+00
        -11   -1    0    0    0    0  0.00000000000E+00  0.00000000000E+00  0.45593999997E+02  0.45594000000E+02  0.51100000000E-03 0.  1.
         11   -1    0    0    0    0 -0.00000000000E+00 -0.00000000000E+00 -0.45593999997E+02  0.45594000000E+02  0.51100000000E-03 0. -1.
    9900012    2    1    2    0    0 -0.38613437964E+01 -0.14059882769E+02  0.28357181416E+02  0.59301952624E+02  0.50000015678E+02 0.  0.
         12    1    1    2    0    0  0.38613437964E+01  0.14059882769E+02 -0.28357181416E+02  0.31886047376E+02  0.00000000000E+00 0. -1.
         11    1    3    3    0    0  0.36127664890E+01 -0.45505560201E+01 -0.65220091671E+01  0.87347722142E+01  0.51100000000E-03 0. -1.
        -11    1    3    3    0    0 -0.10387010901E+02  0.10792271555E+02  0.21032325571E+02  0.25820957379E+02  0.51100000000E-03 0.  1.
         12    1    3    3    0    0  0.29129006156E+01 -0.20301598304E+02  0.13846865011E+02  0.24746223031E+02  0.00000000000E+00 0. -1.
</event>
<event>
 7    1  0.6184948E-012  0.5930197E+02  0.7816164E-02  0.1266605E+00
        -11   -1    0    0    0    0  0.00000000000E+00  0.00000000000E+00  0.45593999997E+02  0.45594000000E+02  0.51100000000E-03 0. -1.
         11   -1    0    0    0    0 -0.00000000000E+00 -0.00000000000E+00 -0.45593999997E+02  0.45594000000E+02  0.51100000000E-03 0.  1.
    9900012    2    1    2    0    0 -0.31279762032E+02  0.31293156099E+01  0.53388269945E+01  0.59301965398E+02  0.50000038974E+02 0.  0.
         12    1    1    2    0    0  0.31279762032E+02 -0.31293156099E+01 -0.53388269945E+01  0.31886034602E+02  0.00000000000E+00 0. -1.
         11    1    3    3    0    0 -0.22762242580E+02  0.22458049621E+02 -0.29361105325E+01  0.32110814773E+02  0.51100000000E-03 0. -1.
        -11    1    3    3    0    0 -0.61595102363E+01 -0.54676583943E+01  0.10078427166E+02  0.13015742356E+02  0.51100000000E-03 0.  1.
        -12    1    3    3    0    0 -0.23580092155E+01 -0.13861075617E+02 -0.18034896392E+01  0.14175408269E+02  0.00000000000E+00 0.  1.
</event>
<event>
 7    1  0.6184948E-012  0.5930191E+02  0.7816164E-02  0.1266605E+00
        -11   -1    0    0    0    0  0.00000000000E+00  0.00000000000E+00  0.45593999997E+02  0.45594000000E+02  0.51100000000E-03 0.  1.
         11   -1    0    0    0    0 -0.00000000000E+00 -0.00000000000E+00 -0.45593999997E+02  0.45594000000E+02  0.51100000000E-03 0. -1.
    9900012    2    1    2    0    0  0.15465716066E+02  0.21991814071E+02  0.17143354296E+02  0.59301908109E+02  0.49999934493E+02 0.  0.
         12    1    1    2    0    0 -0.15465716066E+02 -0.21991814071E+02 -0.17143354296E+02  0.31886091891E+02  0.00000000000E+00 0. -1.
         11    1    3    3    0    0 -0.28640498987E+01  0.14676229607E+02  0.88867404227E+01  0.17394500651E+02  0.51100000000E-03 0. -1.
        -11    1    3    3    0    0  0.24404571362E+01  0.10357643855E+02  0.19494221598E+02  0.22209486559E+02  0.51100000000E-03 0.  1.
         12    1    3    3    0    0  0.15889308828E+02 -0.30420593902E+01 -0.11237607725E+02  0.19697920899E+02  0.00000000000E+00 0. -1.
</event>
<event>
 7    1  0.6184948E-012  0.5930198E+02  0.7816164E-02  0.1266605E+00
        -11   -1    0    0    0    0  0.00000000000E+00  0.00000000000E+00  0.45593999997E+02  0.45594000000E+02  0.51100000000E-03 0. -1.
         11   -1    0    0    0    0 -0.00000000000E+00 -0.00000000000E+00 -0.45593999997E+02  0.45594000000E+02  0.51100000000E-03 0.  1.
    9900012    2    1    2    0    0  0.82998218119E+01 -0.25260939155E+02  0.17598753723E+02  0.59301980780E+02  0.50000067028E+02 0.  0.
         12    1    1    2    0    0 -0.82998218119E+01  0.25260939155E+02 -0.17598753723E+02  0.31886019220E+02  0.00000000000E+00 0. -1.
         11    1    3    3    0    0 -0.47455040978E+01 -0.10057211930E+02  0.57332563326E+01  0.12511496688E+02  0.51100000000E-03 0. -1.
        -11    1    3    3    0    0 -0.61297856459E+01 -0.14596320628E+02 -0.91902764103E+01  0.18305409820E+02  0.51100000000E-03 0.  1.
         12    1    3    3    0    0  0.19175111556E+02 -0.60740659720E+00  0.21055773800E+02  0.28485074272E+02  0.00000000000E+00 0. -1.
</event>
<event>
 7    1  0.6184948E-012  0.5930185E+02  0.7816164E-02  0.1266605E+00
        -11   -1    0    0    0    0  0.00000000000E+00  0.00000000000E+00  0.45593999997E+02  0.45594000000E+02  0.51100000000E-03 0. -1.
         11   -1    0    0    0    0 -0.00000000000E+00 -0.00000000000E+00 -0.45593999997E+02  0.45594000000E+02  0.51100000000E-03 0.  1.
    9900012    2    1    2    0    0  0.13761694644E+02  0.26113821596E+02 -0.12058622950E+02  0.59301854023E+02  0.49999835853E+02 0.  0.
         12    1    1    2    0    0 -0.13761694644E+02 -0.26113821596E+02  0.12058622950E+02  0.31886145977E+02  0.00000000000E+00 0. -1.
         11    1    3    3    0    0 -0.17255190296E+02  0.14277281482E+02 -0.29378580626E+01  0.22587903155E+02  0.51100000000E-03 0. -1.
        -11    1    3    3    0    0  0.13789731208E+02  0.93873989223E+00  0.11847137215E+01  0.13872327354E+02  0.51100000000E-03 0.  1.
        -12    1    3    3    0    0  0.17227153732E+02  0.10897800222E+02 -0.10305478609E+02  0.22841623514E+02  0.00000000000E+00 0.  1.
</event>
<event>
 7    1  0.6184948E-012  0.5930174E+02  0.7816164E-02  0.1266605E+00
        -11   -1    0    0    0    0  0.00000000000E+00  0.00000000000E+00  0.45593999997E+02  0.45594000000E+02  0.51100000000E-03 0.  1.
         11   -1    0    0    0    0 -0.00000000000E+00 -0.00000000000E+00 -0.45593999997E+02  0.45594000000E+02  0.51100000000E-03 0. -1.
    9900012    2    1    2    0    0  0.17078518136E+02  0.26906330958E+02  0.10522182765E+01  0.59301739783E+02  0.49999627505E+02 0.  0.
         12    1    1    2    0    0 -0.17078518136E+02 -0.26906330958E+02 -0.10522182765E+01  0.31886260217E+02  0.00000000000E+00 0. -1.
         11    1    3    3    0    0  0.75919018956E+01  0.19123796785E+02  0.47044433634E+01  0.21106595307E+02  0.51100000000E-03 0. -1.
        -11    1    3    3    0    0  0.18832988669E+02  0.12004594873E+02  0.70032971924E+01  0.23405937966E+02  0.51100000000E-03 0.  1.
         12    1    3    3    0    0 -0.93463724284E+01 -0.42220606993E+01 -0.10655522279E+02  0.14789206509E+02  0.00000000000E+00 0. -1.
</event>
<event>
 7    1  0.6184948E-012  0.5930191E+02  0.7816164E-02  0.1266605E+00
        -11   -1    0    0    0    0  0.00000000000E+00  0.00000000000E+00  0.45593999997E+02  0.45594000000E+02  0.51100000000E-03 0. -1.
         11   -1    0    0    0    0 -0.00000000000E+00 -0.00000000000E+00 -0.45593999997E+02  0.45594000000E+02  0.51100000000E-03 0.  1.
    9900012    2    1    2    0    0  0.81402949304E+01  0.86011661511E+01 -0.29605371219E+02  0.59301914230E+02  0.49999945657E+02 0.  0.
         12    1    1    2    0    0 -0.81402949304E+01 -0.86011661511E+01  0.29605371219E+02  0.31886085770E+02  0.00000000000E+00 0. -1.
         11    1    3    3    0    0 -0.30768124462E+01 -0.96293816307E+01 -0.32523875377E+01  0.10619312142E+02  0.51100000000E-03 0. -1.
        -11    1    3    3    0    0 -0.57548334389E+01  0.22263331935E+02 -0.11208182795E+02  0.25581192674E+02  0.51100000000E-03 0.  1.
         12    1    3    3    0    0  0.16971940815E+02 -0.40327841535E+01 -0.15144800885E+02  0.23101409414E+02  0.00000000000E+00 0. -1.
</event>
<event>
 7    1  0.6184948E-012  0.5930193E+02  0.7816164E-02  0.1266605E+00
        -11   -1    0    0    0    0  0.00000000000E+00  0.00000000000E+00  0.45593999997E+02  0.45594000000E+02  0.51100000000E-03 0. -1.
         11   -1    0    0    0    0 -0.00000000000E+00 -0.00000000000E+00 -0.45593999997E+02  0.45594000000E+02  0.51100000000E-03 0.  1.
    9900012    2    1    2    0    0  0.77574435512E+01  0.30628525840E+02  0.42938356623E+01  0.59301928585E+02  0.49999971836E+02 0.  0.
         12    1    1    2    0    0 -0.77574435512E+01 -0.30628525840E+02 -0.42938356623E+01  0.31886071415E+02  0.00000000000E+00 0. -1.
         11    1    3    3    0    0  0.35724305112E+01 -0.50133898236E+01  0.93350754121E+01  0.11182127279E+02  0.51100000000E-03 0. -1.
        -11    1    3    3    0    0  0.89195306889E+01  0.40170597439E+02 -0.56711710228E+01  0.41537899650E+02  0.51100000000E-03 0.  1.
         12    1    3    3    0    0 -0.47345176489E+01 -0.45286817757E+01  0.62993127293E+00  0.65819016554E+01  0.00000000000E+00 0. -1.
</event>
<event>
 7    1  0.6184948E-012  0.5930192E+02  0.7816164E-02  0.1266605E+00
        -11   -1    0    0    0    0  0.00000000000E+00  0.00000000000E+00  0.45593999997E+02  0.45594000000E+02  0.51100000000E-03 0. -1.
         11   -1    0    0    0    0 -0.00000000000E+00 -0.00000000000E+00 -0.45593999997E+02  0.45594000000E+02  0.51100000000E-03 0.  1.
    9900012    2    1    2    0    0 -0.31053082702E+02 -0.24068068025E+01  0.68290342435E+01  0.59301915685E+02  0.49999948309E+02 0.  0.
         12    1    1    2    0    0  0.31053082702E+02  0.24068068025E+01 -0.68290342435E+01  0.31886084315E+02  0.00000000000E+00 0. -1.
         11    1    3    3    0    0 -0.26718887098E+01 -0.13386895477E+02 -0.72420846109E+01  0.15453017490E+02  0.51100000000E-03 0.  1.
        -11    1    3    3    0    0 -0.22181375136E+01 -0.29781873618E+01  0.13698498539E+02  0.14192906555E+02  0.51100000000E-03 0. -1.
         12    1    3    3    0    0 -0.26163056478E+02  0.13958276036E+02  0.37262031525E+00  0.29655991639E+02  0.00000000000E+00 0. -1.
</event>
<event>
 7    1  0.6184948E-012  0.5930194E+02  0.7816164E-02  0.1266605E+00
        -11   -1    0    0    0    0  0.00000000000E+00  0.00000000000E+00  0.45593999997E+02  0.45594000000E+02  0.51100000000E-03 0.  1.
         11   -1    0    0    0    0 -0.00000000000E+00 -0.00000000000E+00 -0.45593999997E+02  0.45594000000E+02  0.51100000000E-03 0. -1.
    9900012    2    1    2    0    0  0.17067708300E+02 -0.14788318975E+02  0.22510431817E+02  0.59301943716E+02  0.49999999432E+02 0.  0.
         12    1    1    2    0    0 -0.17067708300E+02  0.14788318975E+02 -0.22510431817E+02  0.31886056284E+02  0.00000000000E+00 0. -1.
         11    1    3    3    0    0 -0.50461141574E+01 -0.35507134675E+01  0.47952317630E+01  0.78144150222E+01  0.51100000000E-03 0. -1.
        -11    1    3    3    0    0  0.88429098477E+01 -0.67668506061E+01  0.30535033110E+02  0.32501931773E+02  0.51100000000E-03 0.  1.
        -12    1    3    3    0    0  0.13270912609E+02 -0.44707549018E+01 -0.12819833056E+02  0.18985596921E+02  0.00000000000E+00 0.  1.
</event>
<event>
 7    1  0.6184948E-012  0.5930195E+02  0.7816164E-02  0.1266605E+00
        -11   -1    0    0    0    0  0.00000000000E+00  0.00000000000E+00  0.45593999997E+02  0.45594000000E+02  0.51100000000E-03 0.  1.
         11   -1    0    0    0    0 -0.00000000000E+00 -0.00000000000E+00 -0.45593999997E+02  0.45594000000E+02  0.51100000000E-03 0. -1.
    9900012    2    1    2    0    0  0.79627700008E+01 -0.25777657168E+02  0.16994897807E+02  0.59301954986E+02  0.50000019985E+02 0.  0.
         12    1    1    2    0    0 -0.79627700008E+01  0.25777657168E+02 -0.16994897807E+02  0.31886045014E+02  0.00000000000E+00 0. -1.
         11    1    3    3    0    0 -0.22181875178E+01  0.23611445453E+01 -0.33229023167E+01  0.46408016006E+01  0.51100000000E-03 0. -1.
        -11    1    3    3    0    0  0.90429940890E+01 -0.11380619258E+02  0.31356428297E+02  0.34561826234E+02  0.51100000000E-03 0.  1.
         12    1    3    3    0    0  0.11379634296E+01 -0.16758182456E+02 -0.11038628173E+02  0.20099327151E+02  0.00000000000E+00 0. -1.
</event>
<event>
 7    1  0.6184948E-012  0.5930197E+02  0.7816164E-02  0.1266605E+00
        -11   -1    0    0    0    0  0.00000000000E+00  0.00000000000E+00  0.45593999997E+02  0.45594000000E+02  0.51100000000E-03 0. -1.
         11   -1    0    0    0    0 -0.00000000000E+00 -0.00000000000E+00 -0.45593999997E+02  0.45594000000E+02  0.51100000000E-03 0.  1.
    9900012    2    1    2    0    0  0.20046093370E+02 -0.24782162399E+02  0.84698358392E+00  0.59301971496E+02  0.50000050096E+02 0.  0.
         12    1    1    2    0    0 -0.20046093370E+02  0.24782162399E+02 -0.84698358392E+00  0.31886028504E+02  0.00000000000E+00 0. -1.
         11    1    3    3    0    0  0.13262613514E+02 -0.47127878368E+01  0.19648254409E+02  0.24169426720E+02  0.51100000000E-03 0. -1.
        -11    1    3    3    0    0  0.11651409074E+02 -0.49103713488E+01 -0.36647717389E+01  0.13164255860E+02  0.51100000000E-03 0.  1.
        -12    1    3    3    0    0 -0.48679292191E+01 -0.15159003213E+02 -0.15136499086E+02  0.21968288916E+02  0.00000000000E+00 0.  1.
</event>
<event>
 7    1  0.6184948E-012  0.5930188E+02  0.7816164E-02  0.1266605E+00
        -11   -1    0    0    0    0  0.00000000000E+00  0.00000000000E+00  0.45593999997E+02  0.45594000000E+02  0.51100000000E-03 0. -1.
         11   -1    0    0    0    0 -0.00000000000E+00 -0.00000000000E+00 -0.45593999997E+02  0.45594000000E+02  0.51100000000E-03 0.  1.
    9900012    2    1    2    0    0 -0.11056996321E+02  0.29457090716E+02 -0.51717719215E+01  0.59301880984E+02  0.49999885024E+02 0.  0.
         12    1    1    2    0    0  0.11056996321E+02 -0.29457090716E+02  0.51717719215E+01  0.31886119016E+02  0.00000000000E+00 0. -1.
         11    1    3    3    0    0  0.10230921190E+02 -0.71687578499E+00  0.80750588207E+01  0.13053437651E+02  0.51100000000E-03 0. -1.
        -11    1    3    3    0    0 -0.67347530464E+01 -0.32353319977E+01  0.72350308690E-02  0.74715677296E+01  0.51100000000E-03 0.  1.
         12    1    3    3    0    0 -0.14553164465E+02  0.33409298498E+02 -0.13254065773E+02  0.38776875604E+02  0.00000000000E+00 0. -1.
</event>
<event>
 7    1  0.6184948E-012  0.5930195E+02  0.7816164E-02  0.1266605E+00
        -11   -1    0    0    0    0  0.00000000000E+00  0.00000000000E+00  0.45593999997E+02  0.45594000000E+02  0.51100000000E-03 0.  1.
         11   -1    0    0    0    0 -0.00000000000E+00 -0.00000000000E+00 -0.45593999997E+02  0.45594000000E+02  0.51100000000E-03 0. -1.
    9900012    2    1    2    0    0  0.11583737174E+02 -0.22696000507E+02  0.19168439191E+02  0.59301945573E+02  0.50000002818E+02 0.  0.
         12    1    1    2    0    0 -0.11583737174E+02  0.22696000507E+02 -0.19168439191E+02  0.31886054427E+02  0.00000000000E+00 0. -1.
         11    1    3    3    0    0  0.37713739761E+01  0.10680549677E+02  0.31816262896E+01  0.11765209270E+02  0.51100000000E-03 0. -1.
        -11    1    3    3    0    0 -0.11004061260E+02 -0.12421325407E+02  0.54452625680E+01  0.17465095871E+02  0.51100000000E-03 0.  1.
         12    1    3    3    0    0  0.18816424458E+02 -0.20955224777E+02  0.10541550333E+02  0.30071640432E+02  0.00000000000E+00 0. -1.
</event>
<event>
 7    1  0.6184948E-012  0.5930205E+02  0.7816164E-02  0.1266604E+00
        -11   -1    0    0    0    0  0.00000000000E+00  0.00000000000E+00  0.45593999997E+02  0.45594000000E+02  0.51100000000E-03 0. -1.
         11   -1    0    0    0    0 -0.00000000000E+00 -0.00000000000E+00 -0.45593999997E+02  0.45594000000E+02  0.51100000000E-03 0.  1.
    9900012    2    1    2    0    0  0.11336027763E+02 -0.22822608717E+02  0.19166030729E+02  0.59302051246E+02  0.50000195539E+02 0.  0.
         12    1    1    2    0    0 -0.11336027763E+02  0.22822608717E+02 -0.19166030729E+02  0.31885948754E+02  0.00000000000E+00 0. -1.
         11    1    3    3    0    0  0.12884058280E+02 -0.15867727006E+02  0.17152518332E+02  0.26683189530E+02  0.51100000000E-03 0. -1.
        -11    1    3    3    0    0  0.58415621517E+01  0.82637067467E+01  0.97170314357E+01  0.14029732633E+02  0.51100000000E-03 0.  1.
         12    1    3    3    0    0 -0.73895926690E+01 -0.15218588458E+02 -0.77035190394E+01  0.18589129083E+02  0.00000000000E+00 0. -1.
</event>
<event>
 7    1  0.6184948E-012  0.5930196E+02  0.7816164E-02  0.1266605E+00
        -11   -1    0    0    0    0  0.00000000000E+00  0.00000000000E+00  0.45593999997E+02  0.45594000000E+02  0.51100000000E-03 0.  1.
         11   -1    0    0    0    0 -0.00000000000E+00 -0.00000000000E+00 -0.45593999997E+02  0.45594000000E+02  0.51100000000E-03 0. -1.
    9900012    2    1    2    0    0  0.29606732208E+02  0.88621296106E+01  0.78500650527E+01  0.59301961447E+02  0.50000031768E+02 0.  0.
         12    1    1    2    0    0 -0.29606732208E+02 -0.88621296106E+01 -0.78500650527E+01  0.31886038553E+02  0.00000000000E+00 0. -1.
         11    1    3    3    0    0  0.18110493545E+02  0.46819266485E+01  0.18085773496E+02  0.26019331598E+02  0.51100000000E-03 0.  1.
        -11    1    3    3    0    0 -0.62117114217E+01 -0.61380168653E+01  0.25859921453E+01  0.91075773651E+01  0.51100000000E-03 0. -1.
        -12    1    3    3    0    0  0.17707950084E+02  0.10318219827E+02 -0.12821700589E+02  0.24175052484E+02  0.00000000000E+00 0.  1.
</event>
<event>
 7    1  0.6184948E-012  0.5930196E+02  0.7816164E-02  0.1266605E+00
        -11   -1    0    0    0    0  0.00000000000E+00  0.00000000000E+00  0.45593999997E+02  0.45594000000E+02  0.51100000000E-03 0.  1.
         11   -1    0    0    0    0 -0.00000000000E+00 -0.00000000000E+00 -0.45593999997E+02  0.45594000000E+02  0.51100000000E-03 0. -1.
    9900012    2    1    2    0    0 -0.68840223464E+01  0.65248740896E+01  0.30442666083E+02  0.59301958167E+02  0.50000025786E+02 0.  0.
         12    1    1    2    0    0  0.68840223464E+01 -0.65248740896E+01 -0.30442666083E+02  0.31886041833E+02  0.00000000000E+00 0. -1.
         11    1    3    3    0    0  0.94530820416E+01  0.42118371410E+01 -0.40175276766E+01  0.11101390052E+02  0.51100000000E-03 0. -1.
        -11    1    3    3    0    0  0.81218861044E+01  0.18375074289E+01  0.14088625545E+02  0.16365538104E+02  0.51100000000E-03 0.  1.
        -12    1    3    3    0    0 -0.24458990492E+02  0.47552951968E+00  0.20371568215E+02  0.31835030011E+02  0.00000000000E+00 0.  1.
</event>
<event>
 7    1  0.6184948E-012  0.5930195E+02  0.7816164E-02  0.1266605E+00
        -11   -1    0    0    0    0  0.00000000000E+00  0.00000000000E+00  0.45593999997E+02  0.45594000000E+02  0.51100000000E-03 0.  1.
         11   -1    0    0    0    0 -0.00000000000E+00 -0.00000000000E+00 -0.45593999997E+02  0.45594000000E+02  0.51100000000E-03 0. -1.
    9900012    2    1    2    0    0 -0.53181164405E+01 -0.30197064938E+02  0.87507123812E+01  0.59301951946E+02  0.50000014441E+02 0.  0.
         12    1    1    2    0    0  0.53181164405E+01  0.30197064938E+02 -0.87507123812E+01  0.31886048054E+02  0.00000000000E+00 0. -1.
         11    1    3    3    0    0  0.32335436555E+01  0.39562784966E+01 -0.12081538168E+02  0.13117603016E+02  0.51100000000E-03 0. -1.
        -11    1    3    3    0    0  0.55911245672E+01 -0.45552865862E+01 -0.20492159042E+00  0.72147974973E+01  0.51100000000E-03 0.  1.
        -12    1    3    3    0    0 -0.14142784663E+02 -0.29598056848E+02  0.21037172140E+02  0.38969551433E+02  0.00000000000E+00 0.  1.
</event>
<event>
 7    1  0.6184948E-012  0.5930189E+02  0.7816164E-02  0.1266605E+00
        -11   -1    0    0    0    0  0.00000000000E+00  0.00000000000E+00  0.45593999997E+02  0.45594000000E+02  0.51100000000E-03 0. -1.
         11   -1    0    0    0    0 -0.00000000000E+00 -0.00000000000E+00 -0.45593999997E+02  0.45594000000E+02  0.51100000000E-03 0.  1.
    9900012    2    1    2    0    0  0.17714349543E+02 -0.18514623606E+01 -0.26448019266E+02  0.59301893062E+02  0.49999907050E+02 0.  0.
         12    1    1    2    0    0 -0.17714349543E+02  0.18514623606E+01  0.26448019266E+02  0.31886106938E+02  0.00000000000E+00 0. -1.
         11    1    3    3    0    0 -0.86472249018E+01  0.22667162733E+01  0.37014562612E+01  0.96753955929E+01  0.51100000000E-03 0. -1.
        -11    1    3    3    0    0  0.25548420041E+01  0.10945350406E+02 -0.90079115805E+01  0.14403832284E+02  0.51100000000E-03 0.  1.
        -12    1    3    3    0    0  0.23806732440E+02 -0.15063529040E+02 -0.21141563946E+02  0.35222665185E+02  0.00000000000E+00 0.  1.
</event>
<event>
 7    1  0.6184948E-012  0.5930192E+02  0.7816164E-02  0.1266605E+00
        -11   -1    0    0    0    0  0.00000000000E+00  0.00000000000E+00  0.45593999997E+02  0.45594000000E+02  0.51100000000E-03 0. -1.
         11   -1    0    0    0    0 -0.00000000000E+00 -0.00000000000E+00 -0.45593999997E+02  0.45594000000E+02  0.51100000000E-03 0.  1.
    9900012    2    1    2    0    0 -0.70565207594E+01 -0.20318949351E+02 -0.23538647171E+02  0.59301919987E+02  0.49999956155E+02 0.  0.
         12    1    1    2    0    0  0.70565207594E+01  0.20318949351E+02  0.23538647171E+02  0.31886080013E+02  0.00000000000E+00 0. -1.
         11    1    3    3    0    0 -0.52340883987E+01 -0.39835867789E+01  0.10663290804E+02  0.12528783501E+02  0.51100000000E-03 0. -1.
        -11    1    3    3    0    0  0.31227825890E+01  0.64496176036E+01 -0.14789864304E+02  0.16434397608E+02  0.51100000000E-03 0.  1.
         12    1    3    3    0    0 -0.49452149497E+01 -0.22784980176E+02 -0.19412073671E+02  0.30338738878E+02  0.00000000000E+00 0. -1.
</event>
<event>
 7    1  0.6184948E-012  0.5930193E+02  0.7816164E-02  0.1266605E+00
        -11   -1    0    0    0    0  0.00000000000E+00  0.00000000000E+00  0.45593999997E+02  0.45594000000E+02  0.51100000000E-03 0.  1.
         11   -1    0    0    0    0 -0.00000000000E+00 -0.00000000000E+00 -0.45593999997E+02  0.45594000000E+02  0.51100000000E-03 0. -1.
    9900012    2    1    2    0    0 -0.21992603176E+02  0.11947456695E+02  0.19756136152E+02  0.59301933582E+02  0.49999980949E+02 0.  0.
         12    1    1    2    0    0  0.21992603176E+02 -0.11947456695E+02 -0.19756136152E+02  0.31886066418E+02  0.00000000000E+00 0. -1.
         11    1    3    3    0    0 -0.47479834688E+01 -0.25888037203E+01 -0.10540338766E+02  0.11846687017E+02  0.51100000000E-03 0. -1.
        -11    1    3    3    0    0 -0.17592297278E+02 -0.34126694917E+01  0.10668181461E+02  0.20855343021E+02  0.51100000000E-03 0.  1.
         12    1    3    3    0    0  0.34767757051E+00  0.17948929907E+02  0.19628293457E+02  0.26599903544E+02  0.00000000000E+00 0. -1.
</event>
<event>
 7    1  0.6184948E-012  0.5930193E+02  0.7816164E-02  0.1266605E+00
        -11   -1    0    0    0    0  0.00000000000E+00  0.00000000000E+00  0.45593999997E+02  0.45594000000E+02  0.51100000000E-03 0.  1.
         11   -1    0    0    0    0 -0.00000000000E+00 -0.00000000000E+00 -0.45593999997E+02  0.45594000000E+02  0.51100000000E-03 0. -1.
    9900012    2    1    2    0    0  0.17209150937E+02 -0.25272376931E+02  0.90483992295E+01  0.59301930310E+02  0.49999974981E+02 0.  0.
         12    1    1    2    0    0 -0.17209150937E+02  0.25272376931E+02 -0.90483992295E+01  0.31886069690E+02  0.00000000000E+00 0. -1.
         11    1    3    3    0    0 -0.15280634679E+01 -0.33355896482E+00 -0.95591868281E+01  0.96862940602E+01  0.51100000000E-03 0. -1.
        -11    1    3    3    0    0  0.22530814530E+01 -0.18948804663E+02 -0.54484232990E+01  0.19844870644E+02  0.51100000000E-03 0.  1.
        -12    1    3    3    0    0  0.16484132951E+02 -0.59900133031E+01  0.24056009357E+02  0.29770765605E+02  0.00000000000E+00 0.  1.
</event>
<event>
 7    1  0.6184948E-012  0.5930196E+02  0.7816164E-02  0.1266605E+00
        -11   -1    0    0    0    0  0.00000000000E+00  0.00000000000E+00  0.45593999997E+02  0.45594000000E+02  0.51100000000E-03 0.  1.
         11   -1    0    0    0    0 -0.00000000000E+00 -0.00000000000E+00 -0.45593999997E+02  0.45594000000E+02  0.51100000000E-03 0. -1.
    9900012    2    1    2    0    0 -0.14893645731E+02 -0.19211618452E+02  0.20635231729E+02  0.59301956733E+02  0.50000023172E+02 0.  0.
         12    1    1    2    0    0  0.14893645731E+02  0.19211618452E+02 -0.20635231729E+02  0.31886043267E+02  0.00000000000E+00 0. -1.
         11    1    3    3    0    0  0.19647232062E+01 -0.15417786425E+01 -0.64107759151E+01  0.68800629905E+01  0.51100000000E-03 0. -1.
        -11    1    3    3    0    0 -0.43907225347E+01 -0.19167463402E+02 -0.29682279827E+01  0.19886690908E+02  0.51100000000E-03 0.  1.
        -12    1    3    3    0    0 -0.12467646403E+02  0.14976235925E+01  0.30014235627E+02  0.32535202835E+02  0.00000000000E+00 0.  1.
</event>
<event>
 7    1  0.6184948E-012  0.5930195E+02  0.7816164E-02  0.1266605E+00
        -11   -1    0    0    0    0  0.00000000000E+00  0.00000000000E+00  0.45593999997E+02  0.45594000000E+02  0.51100000000E-03 0.  1.
         11   -1    0    0    0    0 -0.00000000000E+00 -0.00000000000E+00 -0.45593999997E+02  0.45594000000E+02  0.51100000000E-03 0. -1.
    9900012    2    1    2    0    0 -0.48662504154E+01 -0.29031517336E+02  0.12256064184E+02  0.59301945035E+02  0.50000001837E+02 0.  0.
         12    1    1    2    0    0  0.48662504154E+01  0.29031517336E+02 -0.12256064184E+02  0.31886054965E+02  0.00000000000E+00 0. -1.
         11    1    3    3    0    0 -0.17131903525E+02 -0.91239638557E+01  0.30712810564E+01  0.19651503821E+02  0.51100000000E-03 0. -1.
        -11    1    3    3    0    0 -0.73768846536E+01  0.33574799690E+01  0.14290074023E+01  0.82300158780E+01  0.51100000000E-03 0.  1.
        -12    1    3    3    0    0  0.19642537764E+02 -0.23265033449E+02  0.77557757254E+01  0.31420425336E+02  0.00000000000E+00 0.  1.
</event>
<event>
 7    1  0.6184948E-012  0.5930194E+02  0.7816164E-02  0.1266605E+00
        -11   -1    0    0    0    0  0.00000000000E+00  0.00000000000E+00  0.45593999997E+02  0.45594000000E+02  0.51100000000E-03 0.  1.
         11   -1    0    0    0    0 -0.00000000000E+00 -0.00000000000E+00 -0.45593999997E+02  0.45594000000E+02  0.51100000000E-03 0. -1.
    9900012    2    1    2    0    0 -0.12007439274E+02 -0.19648078720E+02  0.22056632770E+02  0.59301942789E+02  0.49999997741E+02 0.  0.
         12    1    1    2    0    0  0.12007439274E+02  0.19648078720E+02 -0.22056632770E+02  0.31886057211E+02  0.00000000000E+00 0. -1.
         11    1    3    3    0    0 -0.75522407690E+01 -0.11918219902E+02 -0.42835882557E+00  0.14116082949E+02  0.51100000000E-03 0. -1.
        -11    1    3    3    0    0  0.66729199588E+00 -0.17155132795E+02  0.28212261863E+02  0.33025377810E+02  0.51100000000E-03 0.  1.
        -12    1    3    3    0    0 -0.51224905009E+01  0.94252739771E+01 -0.57272702678E+01  0.12160482030E+02  0.00000000000E+00 0.  1.
</event>
<event>
 7    1  0.6184948E-012  0.5930193E+02  0.7816164E-02  0.1266605E+00
        -11   -1    0    0    0    0  0.00000000000E+00  0.00000000000E+00  0.45593999997E+02  0.45594000000E+02  0.51100000000E-03 0. -1.
         11   -1    0    0    0    0 -0.00000000000E+00 -0.00000000000E+00 -0.45593999997E+02  0.45594000000E+02  0.51100000000E-03 0.  1.
    9900012    2    1    2    0    0 -0.19652361924E+02 -0.14251565445E+02 -0.20673632698E+02  0.59301928813E+02  0.49999972253E+02 0.  0.
         12    1    1    2    0    0  0.19652361924E+02  0.14251565445E+02  0.20673632698E+02  0.31886071187E+02  0.00000000000E+00 0. -1.
         11    1    3    3    0    0 -0.15472585663E+02 -0.30518591286E+01 -0.16937092954E+02  0.23142598584E+02  0.51100000000E-03 0. -1.
        -11    1    3    3    0    0 -0.31657680864E+01 -0.10255345518E+02 -0.18469383567E+02  0.21361468322E+02  0.51100000000E-03 0.  1.
         12    1    3    3    0    0 -0.10140081743E+01 -0.94436079799E+00  0.14732843823E+02  0.14797861907E+02  0.00000000000E+00 0. -1.
</event>
<event>
 7    1  0.6184948E-012  0.5930195E+02  0.7816164E-02  0.1266605E+00
        -11   -1    0    0    0    0  0.00000000000E+00  0.00000000000E+00  0.45593999997E+02  0.45594000000E+02  0.51100000000E-03 0.  1.
         11   -1    0    0    0    0 -0.00000000000E+00 -0.00000000000E+00 -0.45593999997E+02  0.45594000000E+02  0.51100000000E-03 0. -1.
    9900012    2    1    2    0    0 -0.20125724111E+02 -0.18277815596E+02  0.16661238979E+02  0.59301949786E+02  0.50000010501E+02 0.  0.
         12    1    1    2    0    0  0.20125724111E+02  0.18277815596E+02 -0.16661238979E+02  0.31886050214E+02  0.00000000000E+00 0. -1.
         11    1    3    3    0    0 -0.17198156429E+02 -0.85522387777E+01  0.16602294404E+02  0.25388059249E+02  0.51100000000E-03 0. -1.
        -11    1    3    3    0    0 -0.90465816121E+01  0.42453694543E+01  0.11211872769E+02  0.15018984384E+02  0.51100000000E-03 0.  1.
         12    1    3    3    0    0  0.61190139309E+01 -0.13970946273E+02 -0.11152928194E+02  0.18894906153E+02  0.00000000000E+00 0. -1.
</event>
<event>
 7    1  0.6184948E-012  0.5930194E+02  0.7816164E-02  0.1266605E+00
        -11   -1    0    0    0    0  0.00000000000E+00  0.00000000000E+00  0.45593999997E+02  0.45594000000E+02  0.51100000000E-03 0.  1.
         11   -1    0    0    0    0 -0.00000000000E+00 -0.00000000000E+00 -0.45593999997E+02  0.45594000000E+02  0.51100000000E-03 0. -1.
    9900012    2    1    2    0    0 -0.13058320556E+02 -0.26339780645E+02  0.12345741054E+02  0.59301935609E+02  0.49999984645E+02 0.  0.
         12    1    1    2    0    0  0.13058320556E+02  0.26339780645E+02 -0.12345741054E+02  0.31886064391E+02  0.00000000000E+00 0. -1.
         11    1    3    3    0    0  0.31880324168E+01 -0.74506880816E+00 -0.11651543395E+02  0.12102774143E+02  0.51100000000E-03 0. -1.
        -11    1    3    3    0    0 -0.39489276231E+00  0.89512377143E+00  0.15017383375E+02  0.15049218935E+02  0.51100000000E-03 0.  1.
         12    1    3    3    0    0 -0.15851460211E+02 -0.26489835609E+02  0.89799010734E+01  0.32149942530E+02  0.00000000000E+00 0. -1.
</event>
<event>
 7    1  0.6184948E-012  0.5930191E+02  0.7816164E-02  0.1266605E+00
        -11   -1    0    0    0    0  0.00000000000E+00  0.00000000000E+00  0.45593999997E+02  0.45594000000E+02  0.51100000000E-03 0.  1.
         11   -1    0    0    0    0 -0.00000000000E+00 -0.00000000000E+00 -0.45593999997E+02  0.45594000000E+02  0.51100000000E-03 0. -1.
    9900012    2    1    2    0    0  0.27544956926E+02 -0.12958794572E+02  0.94903902398E+01  0.59301913447E+02  0.49999944228E+02 0.  0.
         12    1    1    2    0    0 -0.27544956926E+02  0.12958794572E+02 -0.94903902398E+01  0.31886086553E+02  0.00000000000E+00 0. -1.
         11    1    3    3    0    0 -0.15824532221E+01 -0.45963273796E+01 -0.89587619680E+01  0.10192634588E+02  0.51100000000E-03 0. -1.
        -11    1    3    3    0    0 -0.72174844077E+01 -0.54203805974E+01  0.42764164469E+01  0.99880100563E+01  0.51100000000E-03 0.  1.
        -12    1    3    3    0    0  0.36344894555E+02 -0.29420865945E+01  0.14172735761E+02  0.39121268803E+02  0.00000000000E+00 0.  1.
</event>
<event>
 7    1  0.6184948E-012  0.5930195E+02  0.7816164E-02  0.1266605E+00
        -11   -1    0    0    0    0  0.00000000000E+00  0.00000000000E+00  0.45593999997E+02  0.45594000000E+02  0.51100000000E-03 0. -1.
         11   -1    0    0    0    0 -0.00000000000E+00 -0.00000000000E+00 -0.45593999997E+02  0.45594000000E+02  0.51100000000E-03 0.  1.
    9900012    2    1    2    0    0  0.20286066689E+02  0.24563106358E+02 -0.13599316444E+01  0.59301951174E+02  0.50000013033E+02 0.  0.
         12    1    1    2    0    0 -0.20286066689E+02 -0.24563106358E+02  0.13599316444E+01  0.31886048826E+02  0.00000000000E+00 0. -1.
         11    1    3    3    0    0  0.99152358371E+01  0.28946867456E+02  0.76358045572E+01  0.31536305249E+02  0.51100000000E-03 0. -1.
        -11    1    3    3    0    0  0.10127253357E+02  0.67470391653E+01  0.17477627834E+01  0.12293838825E+02  0.51100000000E-03 0.  1.
        -12    1    3    3    0    0  0.24357749500E+00 -0.11130800264E+02 -0.10743498985E+02  0.15471807100E+02  0.00000000000E+00 0.  1.
</event>
<event>
 7    1  0.6184948E-012  0.5930195E+02  0.7816164E-02  0.1266605E+00
        -11   -1    0    0    0    0  0.00000000000E+00  0.00000000000E+00  0.45593999997E+02  0.45594000000E+02  0.51100000000E-03 0. -1.
         11   -1    0    0    0    0 -0.00000000000E+00 -0.00000000000E+00 -0.45593999997E+02  0.45594000000E+02  0.51100000000E-03 0.  1.
    9900012    2    1    2    0    0  0.65031894800E+01  0.21203974658E+02 -0.22908957707E+02  0.59301947282E+02  0.50000005935E+02 0.  0.
         12    1    1    2    0    0 -0.65031894800E+01 -0.21203974658E+02  0.22908957707E+02  0.31886052718E+02  0.00000000000E+00 0. -1.
         11    1    3    3    0    0 -0.67743539725E-01  0.28904715572E+01  0.59327561836E+01  0.65997735722E+01  0.51100000000E-03 0. -1.
        -11    1    3    3    0    0 -0.12374474928E+02  0.17679467327E+02 -0.48370486756E+01  0.22115339356E+02  0.51100000000E-03 0.  1.
        -12    1    3    3    0    0  0.18945407948E+02  0.63403577444E+00 -0.24004665215E+02  0.30586834353E+02  0.00000000000E+00 0.  1.
</event>
<event>
 7    1  0.6184948E-012  0.5930196E+02  0.7816164E-02  0.1266605E+00
        -11   -1    0    0    0    0  0.00000000000E+00  0.00000000000E+00  0.45593999997E+02  0.45594000000E+02  0.51100000000E-03 0.  1.
         11   -1    0    0    0    0 -0.00000000000E+00 -0.00000000000E+00 -0.45593999997E+02  0.45594000000E+02  0.51100000000E-03 0. -1.
    9900012    2    1    2    0    0 -0.13869538110E+02  0.38390504546E+01  0.28453769114E+02  0.59301962734E+02  0.50000034115E+02 0.  0.
         12    1    1    2    0    0  0.13869538110E+02 -0.38390504546E+01 -0.28453769114E+02  0.31886037266E+02  0.00000000000E+00 0. -1.
         11    1    3    3    0    0  0.77141202063E+01  0.96886991435E+01  0.26497719317E+02  0.29249062736E+02  0.51100000000E-03 0. -1.
        -11    1    3    3    0    0 -0.18524802951E+01 -0.27395524894E+01  0.84297598085E+01  0.90552571347E+01  0.51100000000E-03 0.  1.
         12    1    3    3    0    0 -0.19731178021E+02 -0.31100961995E+01 -0.64737100120E+01  0.20997642863E+02  0.00000000000E+00 0. -1.
</event>
<event>
 7    1  0.6184948E-012  0.5930193E+02  0.7816164E-02  0.1266605E+00
        -11   -1    0    0    0    0  0.00000000000E+00  0.00000000000E+00  0.45593999997E+02  0.45594000000E+02  0.51100000000E-03 0.  1.
         11   -1    0    0    0    0 -0.00000000000E+00 -0.00000000000E+00 -0.45593999997E+02  0.45594000000E+02  0.51100000000E-03 0. -1.
    9900012    2    1    2    0    0 -0.28055849038E+02  0.23822564447E+01 -0.14963817409E+02  0.59301927140E+02  0.49999969201E+02 0.  0.
         12    1    1    2    0    0  0.28055849038E+02 -0.23822564447E+01  0.14963817409E+02  0.31886072860E+02  0.00000000000E+00 0. -1.
         11    1    3    3    0    0 -0.17136883721E+02  0.29660226211E+01 -0.19477793226E+02  0.26112343883E+02  0.51100000000E-03 0. -1.
        -11    1    3    3    0    0 -0.19660227445E+01  0.54773148277E+01 -0.12065939707E+02  0.13396011512E+02  0.51100000000E-03 0.  1.
        -12    1    3    3    0    0 -0.89529425725E+01 -0.60610810041E+01  0.16579915524E+02  0.19793571745E+02  0.00000000000E+00 0.  1.
</event>
<event>
 7    1  0.6184948E-012  0.5930192E+02  0.7816164E-02  0.1266605E+00
        -11   -1    0    0    0    0  0.00000000000E+00  0.00000000000E+00  0.45593999997E+02  0.45594000000E+02  0.51100000000E-03 0. -1.
         11   -1    0    0    0    0 -0.00000000000E+00 -0.00000000000E+00 -0.45593999997E+02  0.45594000000E+02  0.51100000000E-03 0.  1.
    9900012    2    1    2    0    0  0.76147216250E+01  0.29565011746E+02 -0.92004508274E+01  0.59301918390E+02  0.49999953243E+02 0.  0.
         12    1    1    2    0    0 -0.76147216250E+01 -0.29565011746E+02  0.92004508274E+01  0.31886081610E+02  0.00000000000E+00 0. -1.
         11    1    3    3    0    0  0.17071615812E+02 -0.55431341956E+01 -0.31790304661E+01  0.18228347103E+02  0.51100000000E-03 0. -1.
        -11    1    3    3    0    0  0.50571858268E+01  0.84839052214E+01 -0.40854351413E+01  0.10688430982E+02  0.51100000000E-03 0.  1.
         12    1    3    3    0    0 -0.14514080014E+02  0.26624240721E+02 -0.19359852201E+01  0.30385140305E+02  0.00000000000E+00 0. -1.
</event>
<event>
 7    1  0.6184948E-012  0.5930194E+02  0.7816164E-02  0.1266605E+00
        -11   -1    0    0    0    0  0.00000000000E+00  0.00000000000E+00  0.45593999997E+02  0.45594000000E+02  0.51100000000E-03 0.  1.
         11   -1    0    0    0    0 -0.00000000000E+00 -0.00000000000E+00 -0.45593999997E+02  0.45594000000E+02  0.51100000000E-03 0. -1.
    9900012    2    1    2    0    0 -0.29451391836E+02  0.12219348001E+02 -0.15455409691E+00  0.59301939823E+02  0.49999992331E+02 0.  0.
         12    1    1    2    0    0  0.29451391836E+02 -0.12219348001E+02  0.15455409691E+00  0.31886060177E+02  0.00000000000E+00 0. -1.
         11    1    3    3    0    0  0.25301649845E+01 -0.35697720257E+01  0.85643809657E+01  0.96173607997E+01  0.51100000000E-03 0. -1.
        -11    1    3    3    0    0 -0.28742039332E+02 -0.10296126498E+01 -0.13686347672E+02  0.31850918983E+02  0.51100000000E-03 0.  1.
         12    1    3    3    0    0 -0.32395174885E+01  0.16818732676E+02  0.49674126096E+01  0.17833660040E+02  0.00000000000E+00 0. -1.
</event>
<event>
 7    1  0.6184948E-012  0.5930197E+02  0.7816164E-02  0.1266605E+00
        -11   -1    0    0    0    0  0.00000000000E+00  0.00000000000E+00  0.45593999997E+02  0.45594000000E+02  0.51100000000E-03 0. -1.
         11   -1    0    0    0    0 -0.00000000000E+00 -0.00000000000E+00 -0.45593999997E+02  0.45594000000E+02  0.51100000000E-03 0.  1.
    9900012    2    1    2    0    0 -0.96579409843E+01 -0.26840878092E+02 -0.14248176829E+02  0.59301966948E+02  0.50000041802E+02 0.  0.
         12    1    1    2    0    0  0.96579409843E+01  0.26840878092E+02  0.14248176829E+02  0.31886033052E+02  0.00000000000E+00 0. -1.
         11    1    3    3    0    0 -0.10014729794E+02 -0.39177565691E+01  0.54427577067E+01  0.12052686053E+02  0.51100000000E-03 0. -1.
        -11    1    3    3    0    0 -0.51845217469E+01 -0.30369523391E+02 -0.21786379852E+02  0.37733719192E+02  0.51100000000E-03 0.  1.
         12    1    3    3    0    0  0.55413105562E+01  0.74464018684E+01  0.20954453156E+01  0.95155617037E+01  0.00000000000E+00 0. -1.
</event>
<event>
 7    1  0.6184948E-012  0.5930195E+02  0.7816164E-02  0.1266605E+00
        -11   -1    0    0    0    0  0.00000000000E+00  0.00000000000E+00  0.45593999997E+02  0.45594000000E+02  0.51100000000E-03 0. -1.
         11   -1    0    0    0    0 -0.00000000000E+00 -0.00000000000E+00 -0.45593999997E+02  0.45594000000E+02  0.51100000000E-03 0.  1.
    9900012    2    1    2    0    0 -0.17569133277E+02 -0.26342531029E+02 -0.37572389480E+01  0.59301949294E+02  0.50000009605E+02 0.  0.
         12    1    1    2    0    0  0.17569133277E+02  0.26342531029E+02  0.37572389480E+01  0.31886050706E+02  0.00000000000E+00 0. -1.
         11    1    3    3    0    0  0.10886780763E+02 -0.99135296457E+01 -0.20577085441E+00  0.14725569847E+02  0.51100000000E-03 0. -1.
        -11    1    3    3    0    0 -0.56596971750E+01 -0.15742011560E+02  0.85188148880E+01  0.18772674488E+02  0.51100000000E-03 0.  1.
         12    1    3    3    0    0 -0.22796216865E+02 -0.68698982264E+00 -0.12070282982E+02  0.25803704959E+02  0.00000000000E+00 0. -1.
</event>
<event>
 7    1  0.6184948E-012  0.5930182E+02  0.7816164E-02  0.1266605E+00
        -11   -1    0    0    0    0  0.00000000000E+00  0.00000000000E+00  0.45593999997E+02  0.45594000000E+02  0.51100000000E-03 0. -1.
         11   -1    0    0    0    0 -0.00000000000E+00 -0.00000000000E+00 -0.45593999997E+02  0.45594000000E+02  0.51100000000E-03 0.  1.
    9900012    2    1    2    0    0 -0.19070167696E+02  0.60535974369E+01 -0.24827630426E+02  0.59301818503E+02  0.49999771072E+02 0.  0.
         12    1    1    2    0    0  0.19070167696E+02 -0.60535974369E+01  0.24827630426E+02  0.31886181497E+02  0.00000000000E+00 0. -1.
         11    1    3    3    0    0 -0.37721170895E+01  0.69939260859E+01 -0.71274353048E+01  0.10674465032E+02  0.51100000000E-03 0. -1.
        -11    1    3    3    0    0 -0.26727658764E+02  0.91791681565E+01 -0.17730656120E+02  0.33361670188E+02  0.51100000000E-03 0.  1.
         12    1    3    3    0    0  0.11429608157E+02 -0.10119496805E+02  0.30460998833E-01  0.15265683283E+02  0.00000000000E+00 0. -1.
</event>
<event>
 7    1  0.6184948E-012  0.5930194E+02  0.7816164E-02  0.1266605E+00
        -11   -1    0    0    0    0  0.00000000000E+00  0.00000000000E+00  0.45593999997E+02  0.45594000000E+02  0.51100000000E-03 0.  1.
         11   -1    0    0    0    0 -0.00000000000E+00 -0.00000000000E+00 -0.45593999997E+02  0.45594000000E+02  0.51100000000E-03 0. -1.
    9900012    2    1    2    0    0 -0.22202527131E+02  0.16510734192E+02  0.15848156280E+02  0.59301943298E+02  0.49999998668E+02 0.  0.
         12    1    1    2    0    0  0.22202527131E+02 -0.16510734192E+02 -0.15848156280E+02  0.31886056702E+02  0.00000000000E+00 0. -1.
         11    1    3    3    0    0 -0.14185396144E+02  0.92638856028E+01 -0.24752050132E+01  0.17122256870E+02  0.51100000000E-03 0. -1.
        -11    1    3    3    0    0  0.84488741467E+01  0.86972724577E+01 -0.53934630145E+01  0.13270850240E+02  0.51100000000E-03 0.  1.
        -12    1    3    3    0    0 -0.16466005134E+02 -0.14504238682E+01  0.23716824307E+02  0.28908836187E+02  0.00000000000E+00 0.  1.
</event>
<event>
 7    1  0.6184948E-012  0.5930194E+02  0.7816164E-02  0.1266605E+00
        -11   -1    0    0    0    0  0.00000000000E+00  0.00000000000E+00  0.45593999997E+02  0.45594000000E+02  0.51100000000E-03 0.  1.
         11   -1    0    0    0    0 -0.00000000000E+00 -0.00000000000E+00 -0.45593999997E+02  0.45594000000E+02  0.51100000000E-03 0. -1.
    9900012    2    1    2    0    0  0.18485235973E+02 -0.11445366147E+02  0.23324242211E+02  0.59301943017E+02  0.49999998157E+02 0.  0.
         12    1    1    2    0    0 -0.18485235973E+02  0.11445366147E+02 -0.23324242211E+02  0.31886056983E+02  0.00000000000E+00 0. -1.
         11    1    3    3    0    0 -0.36496041361E+01  0.41668085445E+01 -0.21367383811E+01  0.59369651311E+01  0.51100000000E-03 0. -1.
        -11    1    3    3    0    0  0.25953956084E+02  0.44839649490E+01  0.16095722342E+02  0.30867232724E+02  0.51100000000E-03 0.  1.
        -12    1    3    3    0    0 -0.38191159753E+01 -0.20096139640E+02  0.93652582500E+01  0.22497745162E+02  0.00000000000E+00 0.  1.
</event>
<event>
 7    1  0.6184948E-012  0.5930194E+02  0.7816164E-02  0.1266605E+00
        -11   -1    0    0    0    0  0.00000000000E+00  0.00000000000E+00  0.45593999997E+02  0.45594000000E+02  0.51100000000E-03 0.  1.
         11   -1    0    0    0    0 -0.00000000000E+00 -0.00000000000E+00 -0.45593999997E+02  0.45594000000E+02  0.51100000000E-03 0. -1.
    9900012    2    1    2    0    0 -0.24393098866E+02 -0.23070636261E+01  0.20405272322E+02  0.59301937944E+02  0.49999988906E+02 0.  0.
         12    1    1    2    0    0  0.24393098866E+02  0.23070636261E+01 -0.20405272322E+02  0.31886062056E+02  0.00000000000E+00 0. -1.
         11    1    3    3    0    0 -0.26081639860E+01  0.12677542886E+02 -0.38133210461E+01  0.13493110489E+02  0.51100000000E-03 0. -1.
        -11    1    3    3    0    0  0.50760396704E+01  0.10683861542E+01  0.10357771142E+02  0.11584086110E+02  0.51100000000E-03 0.  1.
        -12    1    3    3    0    0 -0.26860974551E+02 -0.16052992667E+02  0.13860822226E+02  0.34224741345E+02  0.00000000000E+00 0.  1.
</event>
<event>
 7    1  0.6184948E-012  0.5930194E+02  0.7816164E-02  0.1266605E+00
        -11   -1    0    0    0    0  0.00000000000E+00  0.00000000000E+00  0.45593999997E+02  0.45594000000E+02  0.51100000000E-03 0. -1.
         11   -1    0    0    0    0 -0.00000000000E+00 -0.00000000000E+00 -0.45593999997E+02  0.45594000000E+02  0.51100000000E-03 0.  1.
    9900012    2    1    2    0    0  0.12814714020E+02  0.26283453487E+02 -0.12715508549E+02  0.59301937523E+02  0.49999988138E+02 0.  0.
         12    1    1    2    0    0 -0.12814714020E+02 -0.26283453487E+02  0.12715508549E+02  0.31886062477E+02  0.00000000000E+00 0. -1.
         11    1    3    3    0    0  0.49916111914E+01  0.23696074770E+02 -0.12529660370E+02  0.27265592439E+02  0.51100000000E-03 0. -1.
        -11    1    3    3    0    0 -0.11489005374E+02 -0.37794351039E-02  0.38895596334E+01  0.12129547938E+02  0.51100000000E-03 0.  1.
         12    1    3    3    0    0  0.19312108203E+02  0.25911581522E+01 -0.40754078123E+01  0.19906797147E+02  0.00000000000E+00 0. -1.
</event>
<event>
 7    1  0.6184948E-012  0.5930192E+02  0.7816164E-02  0.1266605E+00
        -11   -1    0    0    0    0  0.00000000000E+00  0.00000000000E+00  0.45593999997E+02  0.45594000000E+02  0.51100000000E-03 0.  1.
         11   -1    0    0    0    0 -0.00000000000E+00 -0.00000000000E+00 -0.45593999997E+02  0.45594000000E+02  0.51100000000E-03 0. -1.
    9900012    2    1    2    0    0 -0.15386858206E+02 -0.10834117970E+02  0.25740790369E+02  0.59301924568E+02  0.49999964509E+02 0.  0.
         12    1    1    2    0    0  0.15386858206E+02  0.10834117970E+02 -0.25740790369E+02  0.31886075432E+02  0.00000000000E+00 0. -1.
         11    1    3    3    0    0 -0.17123799113E+02  0.27845587038E+01  0.11671649255E+02  0.20909463404E+02  0.51100000000E-03 0. -1.
        -11    1    3    3    0    0 -0.65029940277E+01  0.82900836304E+00  0.19755663321E+02  0.20814956635E+02  0.51100000000E-03 0.  1.
         12    1    3    3    0    0  0.82399349346E+01 -0.14447685037E+02 -0.56865222071E+01  0.17577504529E+02  0.00000000000E+00 0. -1.
</event>
<event>
 7    1  0.6184948E-012  0.5930194E+02  0.7816164E-02  0.1266605E+00
        -11   -1    0    0    0    0  0.00000000000E+00  0.00000000000E+00  0.45593999997E+02  0.45594000000E+02  0.51100000000E-03 0. -1.
         11   -1    0    0    0    0 -0.00000000000E+00 -0.00000000000E+00 -0.45593999997E+02  0.45594000000E+02  0.51100000000E-03 0.  1.
    9900012    2    1    2    0    0 -0.63572672034E+01  0.86825076701E+00 -0.31233825111E+02  0.59301944478E+02  0.50000000822E+02 0.  0.
         12    1    1    2    0    0  0.63572672034E+01 -0.86825076701E+00  0.31233825111E+02  0.31886055522E+02  0.00000000000E+00 0. -1.
         11    1    3    3    0    0  0.17286176074E+01 -0.85449159889E+01  0.88672472535E+01  0.12435102823E+02  0.51100000000E-03 0. -1.
        -11    1    3    3    0    0 -0.56334070586E+01 -0.23737135931E+01 -0.13119266313E+01  0.62522750305E+01  0.51100000000E-03 0.  1.
        -12    1    3    3    0    0 -0.24524777522E+01  0.11786880349E+02 -0.38789145733E+02  0.40614566625E+02  0.00000000000E+00 0.  1.
</event>
<event>
 7    1  0.6184948E-012  0.5930196E+02  0.7816164E-02  0.1266605E+00
        -11   -1    0    0    0    0  0.00000000000E+00  0.00000000000E+00  0.45593999997E+02  0.45594000000E+02  0.51100000000E-03 0.  1.
         11   -1    0    0    0    0 -0.00000000000E+00 -0.00000000000E+00 -0.45593999997E+02  0.45594000000E+02  0.51100000000E-03 0. -1.
    9900012    2    1    2    0    0  0.68769957397E+01  0.30441155267E+02  0.65393222501E+01  0.59301956973E+02  0.50000023610E+02 0.  0.
         12    1    1    2    0    0 -0.68769957397E+01 -0.30441155267E+02 -0.65393222501E+01  0.31886043027E+02  0.00000000000E+00 0. -1.
         11    1    3    3    0    0  0.12317344524E+02  0.11346347261E+02  0.11017116467E+01  0.16783037303E+02  0.51100000000E-03 0. -1.
        -11    1    3    3    0    0  0.14045126989E+02  0.17210948604E+02  0.49096395360E-01  0.22214516756E+02  0.51100000000E-03 0.  1.
         12    1    3    3    0    0 -0.19485475773E+02  0.18838594018E+01  0.53885142080E+01  0.20304402915E+02  0.00000000000E+00 0. -1.
</event>
<event>
 7    1  0.6184948E-012  0.5930195E+02  0.7816164E-02  0.1266605E+00
        -11   -1    0    0    0    0  0.00000000000E+00  0.00000000000E+00  0.45593999997E+02  0.45594000000E+02  0.51100000000E-03 0.  1.
         11   -1    0    0    0    0 -0.00000000000E+00 -0.00000000000E+00 -0.45593999997E+02  0.45594000000E+02  0.51100000000E-03 0. -1.
    9900012    2    1    2    0    0  0.13610156799E+02  0.20144785976E+02  0.20631811249E+02  0.59301946536E+02  0.50000004574E+02 0.  0.
         12    1    1    2    0    0 -0.13610156799E+02 -0.20144785976E+02 -0.20631811249E+02  0.31886053464E+02  0.00000000000E+00 0. -1.
         11    1    3    3    0    0  0.28941091171E+01  0.58377433376E+01 -0.70402198616E+01  0.95926957013E+01  0.51100000000E-03 0. -1.
        -11    1    3    3    0    0 -0.15799097624E+01  0.19586583281E+02  0.77278451224E+00  0.19665389791E+02  0.51100000000E-03 0.  1.
        -12    1    3    3    0    0  0.12295957444E+02 -0.52795406422E+01  0.26899246598E+02  0.30043861043E+02  0.00000000000E+00 0.  1.
</event>
<event>
 7    1  0.6184948E-012  0.5930194E+02  0.7816164E-02  0.1266605E+00
        -11   -1    0    0    0    0  0.00000000000E+00  0.00000000000E+00  0.45593999997E+02  0.45594000000E+02  0.51100000000E-03 0. -1.
         11   -1    0    0    0    0 -0.00000000000E+00 -0.00000000000E+00 -0.45593999997E+02  0.45594000000E+02  0.51100000000E-03 0.  1.
    9900012    2    1    2    0    0 -0.25960627228E+02 -0.10046491938E+02 -0.15551027905E+02  0.59301942933E+02  0.49999998004E+02 0.  0.
         12    1    1    2    0    0  0.25960627228E+02  0.10046491938E+02  0.15551027905E+02  0.31886057067E+02  0.00000000000E+00 0. -1.
         11    1    3    3    0    0 -0.10085013096E+02  0.47680986865E+01  0.79771851127E+01  0.13714143678E+02  0.51100000000E-03 0. -1.
        -11    1    3    3    0    0 -0.24861309333E+02 -0.16124705762E+02 -0.20431605813E+02  0.35993629353E+02  0.51100000000E-03 0.  1.
         12    1    3    3    0    0  0.89856952012E+01  0.13101151378E+01 -0.30966072050E+01  0.95941699018E+01  0.00000000000E+00 0. -1.
</event>
<event>
 7    1  0.6184948E-012  0.5930192E+02  0.7816164E-02  0.1266605E+00
        -11   -1    0    0    0    0  0.00000000000E+00  0.00000000000E+00  0.45593999997E+02  0.45594000000E+02  0.51100000000E-03 0.  1.
         11   -1    0    0    0    0 -0.00000000000E+00 -0.00000000000E+00 -0.45593999997E+02  0.45594000000E+02  0.51100000000E-03 0. -1.
    9900012    2    1    2    0    0  0.10647106460E+02 -0.29533566449E+02  0.55794203526E+01  0.59301915972E+02  0.49999948833E+02 0.  0.
         12    1    1    2    0    0 -0.10647106460E+02  0.29533566449E+02 -0.55794203526E+01  0.31886084028E+02  0.00000000000E+00 0. -1.
         11    1    3    3    0    0 -0.85883937680E+01  0.38861253178E+01 -0.12985484257E+02  0.16046347845E+02  0.51100000000E-03 0. -1.
        -11    1    3    3    0    0 -0.37473742368E+00 -0.78284574238E+00 -0.58264390465E-01  0.86986814713E+00  0.51100000000E-03 0.  1.
        -12    1    3    3    0    0  0.19610237652E+02 -0.32636846025E+02  0.18623169000E+02  0.42385699980E+02  0.00000000000E+00 0.  1.
</event>
<event>
 7    1  0.6184948E-012  0.5930198E+02  0.7816164E-02  0.1266605E+00
        -11   -1    0    0    0    0  0.00000000000E+00  0.00000000000E+00  0.45593999997E+02  0.45594000000E+02  0.51100000000E-03 0. -1.
         11   -1    0    0    0    0 -0.00000000000E+00 -0.00000000000E+00 -0.45593999997E+02  0.45594000000E+02  0.51100000000E-03 0.  1.
    9900012    2    1    2    0    0 -0.16867120807E+02 -0.17515602877E+02 -0.20625767827E+02  0.59301977876E+02  0.50000061730E+02 0.  0.
         12    1    1    2    0    0  0.16867120807E+02  0.17515602877E+02  0.20625767827E+02  0.31886022124E+02  0.00000000000E+00 0. -1.
         11    1    3    3    0    0 -0.15724007354E+02  0.64628313676E+00 -0.10115086813E+02  0.18707674111E+02  0.51100000000E-03 0. -1.
        -11    1    3    3    0    0 -0.59497723386E+01  0.75130082190E+01  0.43690706469E+01  0.10532514513E+02  0.51100000000E-03 0.  1.
         12    1    3    3    0    0  0.48066588856E+01 -0.25674894233E+02 -0.14879751661E+02  0.30061789251E+02  0.00000000000E+00 0. -1.
</event>
<event>
 7    1  0.6184948E-012  0.5930196E+02  0.7816164E-02  0.1266605E+00
        -11   -1    0    0    0    0  0.00000000000E+00  0.00000000000E+00  0.45593999997E+02  0.45594000000E+02  0.51100000000E-03 0. -1.
         11   -1    0    0    0    0 -0.00000000000E+00 -0.00000000000E+00 -0.45593999997E+02  0.45594000000E+02  0.51100000000E-03 0.  1.
    9900012    2    1    2    0    0 -0.34181805569E+01 -0.23603686118E+02 -0.21163684150E+02  0.59301960994E+02  0.50000030943E+02 0.  0.
         12    1    1    2    0    0  0.34181805569E+01  0.23603686118E+02  0.21163684150E+02  0.31886039006E+02  0.00000000000E+00 0. -1.
         11    1    3    3    0    0 -0.13858200688E+01  0.42767531582E+01 -0.39546387123E+01  0.59875105382E+01  0.51100000000E-03 0. -1.
        -11    1    3    3    0    0 -0.15089838501E+02 -0.23539651030E+00  0.45796455277E+01  0.15771233018E+02  0.51100000000E-03 0.  1.
        -12    1    3    3    0    0  0.13057478013E+02 -0.27645042766E+02 -0.21788690965E+02  0.37543217438E+02  0.00000000000E+00 0.  1.
</event>
<event>
 7    1  0.6184948E-012  0.5930193E+02  0.7816164E-02  0.1266605E+00
        -11   -1    0    0    0    0  0.00000000000E+00  0.00000000000E+00  0.45593999997E+02  0.45594000000E+02  0.51100000000E-03 0.  1.
         11   -1    0    0    0    0 -0.00000000000E+00 -0.00000000000E+00 -0.45593999997E+02  0.45594000000E+02  0.51100000000E-03 0. -1.
    9900012    2    1    2    0    0  0.11258855284E+01  0.27244865111E+02  0.16527898370E+02  0.59301925960E+02  0.49999967049E+02 0.  0.
         12    1    1    2    0    0 -0.11258855284E+01 -0.27244865111E+02 -0.16527898370E+02  0.31886074040E+02  0.00000000000E+00 0. -1.
         11    1    3    3    0    0  0.51028099023E+01  0.69671010340E+01  0.83922356868E+01  0.12041959384E+02  0.51100000000E-03 0. -1.
        -11    1    3    3    0    0 -0.87132330897E+01  0.16518166162E+02  0.23925804734E+02  0.30351513581E+02  0.51100000000E-03 0.  1.
         12    1    3    3    0    0  0.47363087157E+01  0.37595979143E+01 -0.15790142050E+02  0.16908452995E+02  0.00000000000E+00 0. -1.
</event>
<event>
 7    1  0.6184948E-012  0.5930197E+02  0.7816164E-02  0.1266605E+00
        -11   -1    0    0    0    0  0.00000000000E+00  0.00000000000E+00  0.45593999997E+02  0.45594000000E+02  0.51100000000E-03 0.  1.
         11   -1    0    0    0    0 -0.00000000000E+00 -0.00000000000E+00 -0.45593999997E+02  0.45594000000E+02  0.51100000000E-03 0. -1.
    9900012    2    1    2    0    0  0.67175646117E+01  0.12465486180E+02 -0.28569304504E+02  0.59301965755E+02  0.50000039625E+02 0.  0.
         12    1    1    2    0    0 -0.67175646117E+01 -0.12465486180E+02  0.28569304504E+02  0.31886034245E+02  0.00000000000E+00 0. -1.
         11    1    3    3    0    0  0.11088810953E+02  0.41930399747E+01 -0.18973537357E+02  0.22372716256E+02  0.51100000000E-03 0.  1.
        -11    1    3    3    0    0 -0.48743121370E+01  0.19580112331E+02 -0.14238066595E+02  0.24695389415E+02  0.51100000000E-03 0. -1.
         12    1    3    3    0    0  0.50306579541E+00 -0.11307666126E+02  0.46422994472E+01  0.12233860084E+02  0.00000000000E+00 0. -1.
</event>
<event>
 7    1  0.6184948E-012  0.5930195E+02  0.7816164E-02  0.1266605E+00
        -11   -1    0    0    0    0  0.00000000000E+00  0.00000000000E+00  0.45593999997E+02  0.45594000000E+02  0.51100000000E-03 0. -1.
         11   -1    0    0    0    0 -0.00000000000E+00 -0.00000000000E+00 -0.45593999997E+02  0.45594000000E+02  0.51100000000E-03 0.  1.
    9900012    2    1    2    0    0  0.22163230556E+01 -0.29898761521E+02 -0.10856906990E+02  0.59301945717E+02  0.50000003080E+02 0.  0.
         12    1    1    2    0    0 -0.22163230556E+01  0.29898761521E+02  0.10856906990E+02  0.31886054283E+02  0.00000000000E+00 0. -1.
         11    1    3    3    0    0  0.67590942095E+01  0.51274716307E+01  0.34718167619E+01  0.91667787006E+01  0.51100000000E-03 0. -1.
        -11    1    3    3    0    0  0.15554529670E+01 -0.18106299369E+02 -0.23691484155E+02  0.29858732935E+02  0.51100000000E-03 0.  1.
         12    1    3    3    0    0 -0.60982241209E+01 -0.16919933783E+02  0.93627604038E+01  0.20276434081E+02  0.00000000000E+00 0. -1.
</event>
<event>
 7    1  0.6184948E-012  0.5930203E+02  0.7816164E-02  0.1266604E+00
        -11   -1    0    0    0    0  0.00000000000E+00  0.00000000000E+00  0.45593999997E+02  0.45594000000E+02  0.51100000000E-03 0. -1.
         11   -1    0    0    0    0 -0.00000000000E+00 -0.00000000000E+00 -0.45593999997E+02  0.45594000000E+02  0.51100000000E-03 0.  1.
    9900012    2    1    2    0    0  0.73057036666E+01 -0.58795711889E+01 -0.30475766928E+02  0.59302030777E+02  0.50000158210E+02 0.  0.
         12    1    1    2    0    0 -0.73057036666E+01  0.58795711889E+01  0.30475766928E+02  0.31885969223E+02  0.00000000000E+00 0. -1.
         11    1    3    3    0    0  0.48362675264E+01 -0.59908265210E+01  0.15126605547E+01  0.78465042029E+01  0.51100000000E-03 0. -1.
        -11    1    3    3    0    0  0.12387359308E+02 -0.98864893702E+01  0.69816894772E+00  0.15864324216E+02  0.51100000000E-03 0.  1.
        -12    1    3    3    0    0 -0.99179231674E+01  0.99977447023E+01 -0.32686596431E+02  0.35591202358E+02  0.00000000000E+00 0.  1.
</event>
<event>
 7    1  0.6184948E-012  0.5930192E+02  0.7816164E-02  0.1266605E+00
        -11   -1    0    0    0    0  0.00000000000E+00  0.00000000000E+00  0.45593999997E+02  0.45594000000E+02  0.51100000000E-03 0. -1.
         11   -1    0    0    0    0 -0.00000000000E+00 -0.00000000000E+00 -0.45593999997E+02  0.45594000000E+02  0.51100000000E-03 0.  1.
    9900012    2    1    2    0    0 -0.54394190828E+01 -0.27277320088E+02  0.15591097138E+02  0.59301924965E+02  0.49999965235E+02 0.  0.
         12    1    1    2    0    0  0.54394190828E+01  0.27277320088E+02 -0.15591097138E+02  0.31886075035E+02  0.00000000000E+00 0. -1.
         11    1    3    3    0    0 -0.10463650474E+02 -0.32624673820E+02  0.21418343660E+01  0.34328483477E+02  0.51100000000E-03 0. -1.
        -11    1    3    3    0    0 -0.64210857272E+01 -0.14604070939E+01  0.84786850952E+00  0.66394285949E+01  0.51100000000E-03 0.  1.
        -12    1    3    3    0    0  0.11445317119E+02  0.68077608262E+01  0.12601394263E+02  0.18334012893E+02  0.00000000000E+00 0.  1.
</event>
<event>
 7    1  0.6184948E-012  0.5930195E+02  0.7816164E-02  0.1266605E+00
        -11   -1    0    0    0    0  0.00000000000E+00  0.00000000000E+00  0.45593999997E+02  0.45594000000E+02  0.51100000000E-03 0.  1.
         11   -1    0    0    0    0 -0.00000000000E+00 -0.00000000000E+00 -0.45593999997E+02  0.45594000000E+02  0.51100000000E-03 0. -1.
    9900012    2    1    2    0    0  0.17393569690E+02  0.23089490781E+02  0.13455839790E+02  0.59301945438E+02  0.50000002571E+02 0.  0.
         12    1    1    2    0    0 -0.17393569690E+02 -0.23089490781E+02 -0.13455839790E+02  0.31886054562E+02  0.00000000000E+00 0. -1.
         11    1    3    3    0    0  0.23080156124E+00 -0.54158655828E+01 -0.14607111566E+02  0.15580519180E+02  0.51100000000E-03 0. -1.
        -11    1    3    3    0    0  0.26411541728E+01  0.70562985581E+01  0.50276041625E+01  0.90578059475E+01  0.51100000000E-03 0.  1.
        -12    1    3    3    0    0  0.14521613956E+02  0.21449057805E+02  0.23035347194E+02  0.34663620310E+02  0.00000000000E+00 0.  1.
</event>
<event>
 7    1  0.6184948E-012  0.5930197E+02  0.7816164E-02  0.1266605E+00
        -11   -1    0    0    0    0  0.00000000000E+00  0.00000000000E+00  0.45593999997E+02  0.45594000000E+02  0.51100000000E-03 0. -1.
         11   -1    0    0    0    0 -0.00000000000E+00 -0.00000000000E+00 -0.45593999997E+02  0.45594000000E+02  0.51100000000E-03 0.  1.
    9900012    2    1    2    0    0  0.22183879278E+02 -0.37303124906E+01 -0.22598215665E+02  0.59301967285E+02  0.50000042415E+02 0.  0.
         12    1    1    2    0    0 -0.22183879278E+02  0.37303124906E+01  0.22598215665E+02  0.31886032715E+02  0.00000000000E+00 0. -1.
         11    1    3    3    0    0 -0.37907161187E+01  0.31091897681E+01  0.76368402144E+01  0.90751263588E+01  0.51100000000E-03 0. -1.
        -11    1    3    3    0    0  0.13738706406E+02  0.10441102593E+02 -0.65505294351E+01  0.18457467682E+02  0.51100000000E-03 0.  1.
         12    1    3    3    0    0  0.12235888990E+02 -0.17280604852E+02 -0.23684526444E+02  0.31769373244E+02  0.00000000000E+00 0. -1.
</event>
<event>
 7    1  0.6184948E-012  0.5930198E+02  0.7816164E-02  0.1266605E+00
        -11   -1    0    0    0    0  0.00000000000E+00  0.00000000000E+00  0.45593999997E+02  0.45594000000E+02  0.51100000000E-03 0.  1.
         11   -1    0    0    0    0 -0.00000000000E+00 -0.00000000000E+00 -0.45593999997E+02  0.45594000000E+02  0.51100000000E-03 0. -1.
    9900012    2    1    2    0    0 -0.70418515022E-01  0.10397039924E+02  0.30143238525E+02  0.59301980701E+02  0.50000066884E+02 0.  0.
         12    1    1    2    0    0  0.70418515022E-01 -0.10397039924E+02 -0.30143238525E+02  0.31886019299E+02  0.00000000000E+00 0. -1.
         11    1    3    3    0    0  0.21817902305E+01 -0.25104810594E+01  0.53926247513E+01  0.63358602990E+01  0.51100000000E-03 0.  1.
        -11    1    3    3    0    0  0.15343785556E+02 -0.21237392975E+01 -0.40587168041E+01  0.16012969935E+02  0.51100000000E-03 0. -1.
         12    1    3    3    0    0 -0.17595994302E+02  0.15031260281E+02  0.28809330578E+02  0.36953150467E+02  0.00000000000E+00 0. -1.
</event>
<event>
 7    1  0.6184948E-012  0.5930224E+02  0.7816164E-02  0.1266604E+00
        -11   -1    0    0    0    0  0.00000000000E+00  0.00000000000E+00  0.45593999997E+02  0.45594000000E+02  0.51100000000E-03 0. -1.
         11   -1    0    0    0    0 -0.00000000000E+00 -0.00000000000E+00 -0.45593999997E+02  0.45594000000E+02  0.51100000000E-03 0.  1.
    9900012    2    1    2    0    0 -0.78970565114E+01 -0.12018770947E+02 -0.28458517336E+02  0.59302241964E+02  0.50000543361E+02 0.  0.
         12    1    1    2    0    0  0.78970565114E+01  0.12018770947E+02  0.28458517336E+02  0.31885758036E+02  0.00000000000E+00 0. -1.
         11    1    3    3    0    0 -0.66791501770E+01 -0.10742838278E+02  0.22313169852E+01  0.12845170186E+02  0.51100000000E-03 0. -1.
        -11    1    3    3    0    0 -0.46542837429E+00 -0.17671735449E+02 -0.10988718364E+02  0.20814869418E+02  0.51100000000E-03 0.  1.
        -12    1    3    3    0    0 -0.75247796006E+00  0.16395802781E+02 -0.19701115957E+02  0.25642202359E+02  0.00000000000E+00 0.  1.
</event>
<event>
 7    1  0.6184948E-012  0.5930199E+02  0.7816164E-02  0.1266605E+00
        -11   -1    0    0    0    0  0.00000000000E+00  0.00000000000E+00  0.45593999997E+02  0.45594000000E+02  0.51100000000E-03 0. -1.
         11   -1    0    0    0    0 -0.00000000000E+00 -0.00000000000E+00 -0.45593999997E+02  0.45594000000E+02  0.51100000000E-03 0.  1.
    9900012    2    1    2    0    0 -0.28166018922E+02 -0.44312113815E+01 -0.14274354464E+02  0.59301992856E+02  0.50000089052E+02 0.  0.
         12    1    1    2    0    0  0.28166018922E+02  0.44312113815E+01  0.14274354464E+02  0.31886007144E+02  0.00000000000E+00 0. -1.
         11    1    3    3    0    0 -0.46698562080E+01 -0.12906248799E+02 -0.75037681484E+01  0.15642421544E+02  0.51100000000E-03 0. -1.
        -11    1    3    3    0    0 -0.24135051240E+02  0.21615226301E+01 -0.18390300597E+02  0.30419993997E+02  0.51100000000E-03 0.  1.
         12    1    3    3    0    0  0.63888852618E+00  0.63135147873E+01  0.11619714282E+02  0.13239577316E+02  0.00000000000E+00 0. -1.
</event>
<event>
 7    1  0.6184948E-012  0.5930177E+02  0.7816164E-02  0.1266605E+00
        -11   -1    0    0    0    0  0.00000000000E+00  0.00000000000E+00  0.45593999997E+02  0.45594000000E+02  0.51100000000E-03 0.  1.
         11   -1    0    0    0    0 -0.00000000000E+00 -0.00000000000E+00 -0.45593999997E+02  0.45594000000E+02  0.51100000000E-03 0. -1.
    9900012    2    1    2    0    0  0.29332682515E+01  0.13381273972E+02  0.28793557916E+02  0.59301772045E+02  0.49999686344E+02 0.  0.
         12    1    1    2    0    0 -0.29332682515E+01 -0.13381273972E+02 -0.28793557916E+02  0.31886227955E+02  0.00000000000E+00 0. -1.
         11    1    3    3    0    0 -0.10391039320E+02 -0.12841640947E+02  0.12475628139E+01  0.16566165929E+02  0.51100000000E-03 0. -1.
        -11    1    3    3    0    0 -0.16567236605E+01  0.35336085831E+01 -0.17499991975E+00  0.39066287434E+01  0.51100000000E-03 0.  1.
        -12    1    3    3    0    0  0.14981031232E+02  0.22689306336E+02  0.27720995021E+02  0.38828977372E+02  0.00000000000E+00 0.  1.
</event>
<event>
 7    1  0.6184948E-012  0.5930191E+02  0.7816164E-02  0.1266605E+00
        -11   -1    0    0    0    0  0.00000000000E+00  0.00000000000E+00  0.45593999997E+02  0.45594000000E+02  0.51100000000E-03 0.  1.
         11   -1    0    0    0    0 -0.00000000000E+00 -0.00000000000E+00 -0.45593999997E+02  0.45594000000E+02  0.51100000000E-03 0. -1.
    9900012    2    1    2    0    0 -0.29878444227E+02 -0.72609737376E+01  0.84427109075E+01  0.59301913120E+02  0.49999943632E+02 0.  0.
         12    1    1    2    0    0  0.29878444227E+02  0.72609737376E+01 -0.84427109075E+01  0.31886086880E+02  0.00000000000E+00 0. -1.
         11    1    3    3    0    0 -0.24510868801E+02 -0.11104576845E+02 -0.10565659357E+02  0.28908951454E+02  0.51100000000E-03 0. -1.
        -11    1    3    3    0    0  0.27075289323E+00 -0.38866450999E+01 -0.39331514482E+01  0.55361537043E+01  0.51100000000E-03 0.  1.
        -12    1    3    3    0    0 -0.56383283196E+01  0.77302482073E+01  0.22941521712E+02  0.24856807962E+02  0.00000000000E+00 0.  1.
</event>
<event>
 7    1  0.6184948E-012  0.5930202E+02  0.7816164E-02  0.1266604E+00
        -11   -1    0    0    0    0  0.00000000000E+00  0.00000000000E+00  0.45593999997E+02  0.45594000000E+02  0.51100000000E-03 0.  1.
         11   -1    0    0    0    0 -0.00000000000E+00 -0.00000000000E+00 -0.45593999997E+02  0.45594000000E+02  0.51100000000E-03 0. -1.
    9900012    2    1    2    0    0  0.69391421759E+01  0.13144729118E+02  0.28209572827E+02  0.59302021941E+02  0.50000142094E+02 0.  0.
         12    1    1    2    0    0 -0.69391421759E+01 -0.13144729118E+02 -0.28209572827E+02  0.31885978059E+02  0.00000000000E+00 0. -1.
         11    1    3    3    0    0 -0.90036857943E+00  0.13550893095E+02  0.82320315687E+01  0.15880922872E+02  0.51100000000E-03 0. -1.
        -11    1    3    3    0    0  0.66483210566E+01  0.13562889829E+02  0.24420372006E+02  0.28714225091E+02  0.51100000000E-03 0.  1.
         12    1    3    3    0    0  0.11911896987E+01 -0.13969053806E+02 -0.44428307480E+01  0.14706873978E+02  0.00000000000E+00 0. -1.
</event>
<event>
 7    1  0.6184948E-012  0.5930193E+02  0.7816164E-02  0.1266605E+00
        -11   -1    0    0    0    0  0.00000000000E+00  0.00000000000E+00  0.45593999997E+02  0.45594000000E+02  0.51100000000E-03 0.  1.
         11   -1    0    0    0    0 -0.00000000000E+00 -0.00000000000E+00 -0.45593999997E+02  0.45594000000E+02  0.51100000000E-03 0. -1.
    9900012    2    1    2    0    0 -0.13391889305E+02 -0.25332804346E+02  0.13986692482E+02  0.59301933422E+02  0.49999980658E+02 0.  0.
         12    1    1    2    0    0  0.13391889305E+02  0.25332804346E+02 -0.13986692482E+02  0.31886066578E+02  0.00000000000E+00 0. -1.
         11    1    3    3    0    0 -0.84463189453E+01  0.14615316713E+01  0.23266110714E+02  0.24794924613E+02  0.51100000000E-03 0.  1.
        -11    1    3    3    0    0 -0.48895507837E+01 -0.76853597544E+01  0.52391581236E+01  0.10508151099E+02  0.51100000000E-03 0. -1.
         12    1    3    3    0    0 -0.56019576132E-01 -0.19108976263E+02 -0.14518576355E+02  0.23998857710E+02  0.00000000000E+00 0. -1.
</event>
<event>
 7    1  0.6184948E-012  0.5930191E+02  0.7816164E-02  0.1266605E+00
        -11   -1    0    0    0    0  0.00000000000E+00  0.00000000000E+00  0.45593999997E+02  0.45594000000E+02  0.51100000000E-03 0. -1.
         11   -1    0    0    0    0 -0.00000000000E+00 -0.00000000000E+00 -0.45593999997E+02  0.45594000000E+02  0.51100000000E-03 0.  1.
    9900012    2    1    2    0    0  0.23457380878E+00 -0.20435890441E+02 -0.24475330845E+02  0.59301914274E+02  0.49999945736E+02 0.  0.
         12    1    1    2    0    0 -0.23457380878E+00  0.20435890441E+02  0.24475330845E+02  0.31886085726E+02  0.00000000000E+00 0. -1.
         11    1    3    3    0    0 -0.17538948408E+02 -0.32598404996E+01 -0.47253107428E+01  0.18454534218E+02  0.51100000000E-03 0. -1.
        -11    1    3    3    0    0 -0.25827666991E+01 -0.14312171956E+02 -0.44080013914E+01  0.15196691299E+02  0.51100000000E-03 0.  1.
         12    1    3    3    0    0  0.20356288916E+02 -0.28638779852E+01 -0.15342018711E+02  0.25650688756E+02  0.00000000000E+00 0. -1.
</event>
<event>
 7    1  0.6184948E-012  0.5930194E+02  0.7816164E-02  0.1266605E+00
        -11   -1    0    0    0    0  0.00000000000E+00  0.00000000000E+00  0.45593999997E+02  0.45594000000E+02  0.51100000000E-03 0. -1.
         11   -1    0    0    0    0 -0.00000000000E+00 -0.00000000000E+00 -0.45593999997E+02  0.45594000000E+02  0.51100000000E-03 0.  1.
    9900012    2    1    2    0    0  0.50423354137E+00  0.27314420182E+02 -0.16443500480E+02  0.59301944907E+02  0.50000001604E+02 0.  0.
         12    1    1    2    0    0 -0.50423354137E+00 -0.27314420182E+02  0.16443500480E+02  0.31886055093E+02  0.00000000000E+00 0. -1.
         11    1    3    3    0    0 -0.10541174182E+02  0.14805873510E+02  0.10237029929E+02  0.20859698597E+02  0.51100000000E-03 0. -1.
        -11    1    3    3    0    0 -0.40239500333E+01  0.11676901025E+02 -0.95542599726E+01  0.15614931165E+02  0.51100000000E-03 0.  1.
        -12    1    3    3    0    0  0.15069357757E+02  0.83164564723E+00 -0.17126270436E+02  0.22827315145E+02  0.00000000000E+00 0.  1.
</event>
<event>
 7    1  0.6184948E-012  0.5930193E+02  0.7816164E-02  0.1266605E+00
        -11   -1    0    0    0    0  0.00000000000E+00  0.00000000000E+00  0.45593999997E+02  0.45594000000E+02  0.51100000000E-03 0. -1.
         11   -1    0    0    0    0 -0.00000000000E+00 -0.00000000000E+00 -0.45593999997E+02  0.45594000000E+02  0.51100000000E-03 0.  1.
    9900012    2    1    2    0    0 -0.23472101464E+01 -0.16595344723E+02 -0.27125754822E+02  0.59301930368E+02  0.49999975087E+02 0.  0.
         12    1    1    2    0    0  0.23472101464E+01  0.16595344723E+02  0.27125754822E+02  0.31886069632E+02  0.00000000000E+00 0. -1.
         11    1    3    3    0    0 -0.39913774686E+01 -0.11724070758E+02 -0.70548258600E+01  0.14253262694E+02  0.51100000000E-03 0.  1.
        -11    1    3    3    0    0 -0.45706905258E+01  0.16523294316E+02 -0.13499404825E+02  0.21820733210E+02  0.51100000000E-03 0. -1.
         12    1    3    3    0    0  0.62148578480E+01 -0.21394568281E+02 -0.65715241361E+01  0.23227934464E+02  0.00000000000E+00 0. -1.
</event>
<event>
 7    1  0.6184948E-012  0.5930193E+02  0.7816164E-02  0.1266605E+00
        -11   -1    0    0    0    0  0.00000000000E+00  0.00000000000E+00  0.45593999997E+02  0.45594000000E+02  0.51100000000E-03 0.  1.
         11   -1    0    0    0    0 -0.00000000000E+00 -0.00000000000E+00 -0.45593999997E+02  0.45594000000E+02  0.51100000000E-03 0. -1.
    9900012    2    1    2    0    0  0.25698971911E+02 -0.10579037335E+02 -0.15632282492E+02  0.59301930250E+02  0.49999974873E+02 0.  0.
         12    1    1    2    0    0 -0.25698971911E+02  0.10579037335E+02  0.15632282492E+02  0.31886069750E+02  0.00000000000E+00 0. -1.
         11    1    3    3    0    0  0.65926025159E+01 -0.14435150173E+02 -0.88213032765E+01  0.18156303595E+02  0.51100000000E-03 0. -1.
        -11    1    3    3    0    0 -0.30457757693E+01 -0.12474327595E+02 -0.20240142706E+00  0.12842373830E+02  0.51100000000E-03 0.  1.
        -12    1    3    3    0    0  0.22152145164E+02  0.16330440434E+02 -0.66085777880E+01  0.28303252826E+02  0.00000000000E+00 0.  1.
</event>
<event>
 7    1  0.6184948E-012  0.5930195E+02  0.7816164E-02  0.1266605E+00
        -11   -1    0    0    0    0  0.00000000000E+00  0.00000000000E+00  0.45593999997E+02  0.45594000000E+02  0.51100000000E-03 0.  1.
         11   -1    0    0    0    0 -0.00000000000E+00 -0.00000000000E+00 -0.45593999997E+02  0.45594000000E+02  0.51100000000E-03 0. -1.
    9900012    2    1    2    0    0 -0.29998661858E+02  0.24772376967E+01  0.10519678525E+02  0.59301952015E+02  0.50000014566E+02 0.  0.
         12    1    1    2    0    0  0.29998661858E+02 -0.24772376967E+01 -0.10519678525E+02  0.31886047985E+02  0.00000000000E+00 0. -1.
         11    1    3    3    0    0 -0.13492389262E+02 -0.16192213165E+02 -0.68279770429E+01  0.22155216224E+02  0.51100000000E-03 0. -1.
        -11    1    3    3    0    0  0.49289306256E+01  0.11033602612E+01  0.36587330857E+01  0.62368332535E+01  0.51100000000E-03 0.  1.
        -12    1    3    3    0    0 -0.21435203222E+02  0.17566090600E+02  0.13688922482E+02  0.30909902537E+02  0.00000000000E+00 0.  1.
</event>
<event>
 7    1  0.6184948E-012  0.5930195E+02  0.7816164E-02  0.1266605E+00
        -11   -1    0    0    0    0  0.00000000000E+00  0.00000000000E+00  0.45593999997E+02  0.45594000000E+02  0.51100000000E-03 0. -1.
         11   -1    0    0    0    0 -0.00000000000E+00 -0.00000000000E+00 -0.45593999997E+02  0.45594000000E+02  0.51100000000E-03 0.  1.
    9900012    2    1    2    0    0  0.31068727666E+02 -0.36279064582E+01 -0.61880880110E+01  0.59301953251E+02  0.50000016821E+02 0.  0.
         12    1    1    2    0    0 -0.31068727666E+02  0.36279064582E+01  0.61880880110E+01  0.31886046749E+02  0.00000000000E+00 0. -1.
         11    1    3    3    0    0 -0.12583420542E+02 -0.51444884442E+01 -0.46851704841E+01  0.14379118771E+02  0.51100000000E-03 0. -1.
        -11    1    3    3    0    0  0.10130656956E+02 -0.28969507753E+01 -0.33644539973E+01  0.11060835642E+02  0.51100000000E-03 0.  1.
        -12    1    3    3    0    0  0.33521491253E+02  0.44135327613E+01  0.18615364704E+01  0.33861998838E+02  0.00000000000E+00 0.  1.
</event>
<event>
 7    1  0.6184948E-012  0.5930154E+02  0.7816164E-02  0.1266606E+00
        -11   -1    0    0    0    0  0.00000000000E+00  0.00000000000E+00  0.45593999997E+02  0.45594000000E+02  0.51100000000E-03 0.  1.
         11   -1    0    0    0    0 -0.00000000000E+00 -0.00000000000E+00 -0.45593999997E+02  0.45594000000E+02  0.51100000000E-03 0. -1.
    9900012    2    1    2    0    0 -0.27843716654E+02  0.13592888061E+02  0.75304316611E+01  0.59301536353E+02  0.49999256493E+02 0.  0.
         12    1    1    2    0    0  0.27843716654E+02 -0.13592888061E+02 -0.75304316611E+01  0.31886463647E+02  0.00000000000E+00 0. -1.
         11    1    3    3    0    0 -0.61404556760E+00 -0.62900386673E+00  0.96435449903E+01  0.96835250847E+01  0.51100000000E-03 0. -1.
        -11    1    3    3    0    0 -0.85296882612E+01  0.25592962220E+02 -0.53257656971E+01  0.27497619489E+02  0.51100000000E-03 0.  1.
         12    1    3    3    0    0 -0.18699982825E+02 -0.11371070292E+02  0.32126523679E+01  0.22120391779E+02  0.00000000000E+00 0. -1.
</event>
<event>
 7    1  0.6184948E-012  0.5930196E+02  0.7816164E-02  0.1266605E+00
        -11   -1    0    0    0    0  0.00000000000E+00  0.00000000000E+00  0.45593999997E+02  0.45594000000E+02  0.51100000000E-03 0. -1.
         11   -1    0    0    0    0 -0.00000000000E+00 -0.00000000000E+00 -0.45593999997E+02  0.45594000000E+02  0.51100000000E-03 0.  1.
    9900012    2    1    2    0    0  0.20906161640E+02 -0.92513776555E+01 -0.22227544149E+02  0.59301963841E+02  0.50000036135E+02 0.  0.
         12    1    1    2    0    0 -0.20906161640E+02  0.92513776555E+01  0.22227544149E+02  0.31886036159E+02  0.00000000000E+00 0. -1.
         11    1    3    3    0    0  0.72960237137E+01 -0.22954504002E+02  0.51391040400E+01  0.24628268445E+02  0.51100000000E-03 0. -1.
        -11    1    3    3    0    0  0.37512033562E+01  0.98852139034E+01 -0.11655659147E+02  0.15736688691E+02  0.51100000000E-03 0.  1.
        -12    1    3    3    0    0  0.98589345704E+01  0.38179124429E+01 -0.15710989042E+02  0.18937006705E+02  0.00000000000E+00 0.  1.
</event>
<event>
 7    1  0.6184948E-012  0.5930194E+02  0.7816164E-02  0.1266605E+00
        -11   -1    0    0    0    0  0.00000000000E+00  0.00000000000E+00  0.45593999997E+02  0.45594000000E+02  0.51100000000E-03 0.  1.
         11   -1    0    0    0    0 -0.00000000000E+00 -0.00000000000E+00 -0.45593999997E+02  0.45594000000E+02  0.51100000000E-03 0. -1.
    9900012    2    1    2    0    0  0.60884717584E+00 -0.27137312835E+02  0.16730708100E+02  0.59301936645E+02  0.49999986535E+02 0.  0.
         12    1    1    2    0    0 -0.60884717584E+00  0.27137312835E+02 -0.16730708100E+02  0.31886063355E+02  0.00000000000E+00 0. -1.
         11    1    3    3    0    0  0.95857438778E+01 -0.10069014119E+02  0.43421041206E+01  0.14564525378E+02  0.51100000000E-03 0. -1.
        -11    1    3    3    0    0  0.41724055336E+01 -0.23899623101E+02  0.16523371838E+02  0.29353411547E+02  0.51100000000E-03 0.  1.
        -12    1    3    3    0    0 -0.13149302236E+02  0.68313243853E+01 -0.41347678581E+01  0.15383999720E+02  0.00000000000E+00 0.  1.
</event>
<event>
 7    1  0.6184948E-012  0.5930195E+02  0.7816164E-02  0.1266605E+00
        -11   -1    0    0    0    0  0.00000000000E+00  0.00000000000E+00  0.45593999997E+02  0.45594000000E+02  0.51100000000E-03 0. -1.
         11   -1    0    0    0    0 -0.00000000000E+00 -0.00000000000E+00 -0.45593999997E+02  0.45594000000E+02  0.51100000000E-03 0.  1.
    9900012    2    1    2    0    0 -0.12990918657E+02  0.21294477439E+02  0.19862057782E+02  0.59301951698E+02  0.50000013989E+02 0.  0.
         12    1    1    2    0    0  0.12990918657E+02 -0.21294477439E+02 -0.19862057782E+02  0.31886048302E+02  0.00000000000E+00 0. -1.
         11    1    3    3    0    0 -0.60389586971E+01 -0.75236459289E+01 -0.44279442111E+01  0.10615128845E+02  0.51100000000E-03 0.  1.
        -11    1    3    3    0    0 -0.12316238874E+02  0.16067501467E+01  0.14916400891E+02  0.19410574485E+02  0.51100000000E-03 0. -1.
         12    1    3    3    0    0  0.53642789136E+01  0.27211373222E+02  0.93736011019E+01  0.29276248368E+02  0.00000000000E+00 0. -1.
</event>
<event>
 7    1  0.6184948E-012  0.5930196E+02  0.7816164E-02  0.1266605E+00
        -11   -1    0    0    0    0  0.00000000000E+00  0.00000000000E+00  0.45593999997E+02  0.45594000000E+02  0.51100000000E-03 0. -1.
         11   -1    0    0    0    0 -0.00000000000E+00 -0.00000000000E+00 -0.45593999997E+02  0.45594000000E+02  0.51100000000E-03 0.  1.
    9900012    2    1    2    0    0  0.97473993533E+01  0.23692146543E+02 -0.18983938448E+02  0.59301960407E+02  0.50000029871E+02 0.  0.
         12    1    1    2    0    0 -0.97473993533E+01 -0.23692146543E+02  0.18983938448E+02  0.31886039593E+02  0.00000000000E+00 0. -1.
         11    1    3    3    0    0  0.33351889738E+00 -0.32272261215E+01  0.90259962741E+01  0.95913936576E+01  0.51100000000E-03 0. -1.
        -11    1    3    3    0    0 -0.51414709698E+01  0.46796102727E+01  0.40654754136E+01  0.80536678996E+01  0.51100000000E-03 0.  1.
        -12    1    3    3    0    0  0.14555351426E+02  0.22239762391E+02 -0.32075410136E+02  0.41656898849E+02  0.00000000000E+00 0.  1.
</event>
<event>
 7    1  0.6184948E-012  0.5930195E+02  0.7816164E-02  0.1266605E+00
        -11   -1    0    0    0    0  0.00000000000E+00  0.00000000000E+00  0.45593999997E+02  0.45594000000E+02  0.51100000000E-03 0. -1.
         11   -1    0    0    0    0 -0.00000000000E+00 -0.00000000000E+00 -0.45593999997E+02  0.45594000000E+02  0.51100000000E-03 0.  1.
    9900012    2    1    2    0    0 -0.18742601403E+02  0.15060748456E+02  0.20942994264E+02  0.59301948816E+02  0.50000008732E+02 0.  0.
         12    1    1    2    0    0  0.18742601403E+02 -0.15060748456E+02 -0.20942994264E+02  0.31886051184E+02  0.00000000000E+00 0. -1.
         11    1    3    3    0    0 -0.87461859846E+01  0.16516133418E+02  0.96794712746E+01  0.21046866673E+02  0.51100000000E-03 0. -1.
        -11    1    3    3    0    0 -0.21072762004E+02  0.73829991382E+01  0.79556768964E+01  0.23703644655E+02  0.51100000000E-03 0.  1.
         12    1    3    3    0    0  0.11076346586E+02 -0.88383841000E+01  0.33078460926E+01  0.14551437488E+02  0.00000000000E+00 0. -1.
</event>
<event>
 7    1  0.6184948E-012  0.5930197E+02  0.7816164E-02  0.1266605E+00
        -11   -1    0    0    0    0  0.00000000000E+00  0.00000000000E+00  0.45593999997E+02  0.45594000000E+02  0.51100000000E-03 0.  1.
         11   -1    0    0    0    0 -0.00000000000E+00 -0.00000000000E+00 -0.45593999997E+02  0.45594000000E+02  0.51100000000E-03 0. -1.
    9900012    2    1    2    0    0  0.30917246621E+02  0.65943811506E+01 -0.41661335166E+01  0.59301973752E+02  0.50000054211E+02 0.  0.
         12    1    1    2    0    0 -0.30917246621E+02 -0.65943811506E+01  0.41661335166E+01  0.31886026248E+02  0.00000000000E+00 0. -1.
         11    1    3    3    0    0 -0.17626410098E+01  0.15714877532E+02 -0.74428549460E+01  0.17477424558E+02  0.51100000000E-03 0. -1.
        -11    1    3    3    0    0  0.20654238054E+02  0.58941185975E+01  0.62260553229E+01  0.22362959303E+02  0.51100000000E-03 0.  1.
        -12    1    3    3    0    0  0.12025649576E+02 -0.15014614979E+02 -0.29493338935E+01  0.19461589892E+02  0.00000000000E+00 0.  1.
</event>
<event>
 7    1  0.6184948E-012  0.5930210E+02  0.7816164E-02  0.1266604E+00
        -11   -1    0    0    0    0  0.00000000000E+00  0.00000000000E+00  0.45593999997E+02  0.45594000000E+02  0.51100000000E-03 0.  1.
         11   -1    0    0    0    0 -0.00000000000E+00 -0.00000000000E+00 -0.45593999997E+02  0.45594000000E+02  0.51100000000E-03 0. -1.
    9900012    2    1    2    0    0 -0.73335497964E+01  0.26017622980E+02  0.16911910583E+02  0.59302103780E+02  0.50000291350E+02 0.  0.
         12    1    1    2    0    0  0.73335497964E+01 -0.26017622980E+02 -0.16911910583E+02  0.31885896220E+02  0.00000000000E+00 0. -1.
         11    1    3    3    0    0 -0.40741002864E+01  0.21126293510E+02  0.97847661135E+01  0.23635994135E+02  0.51100000000E-03 0. -1.
        -11    1    3    3    0    0 -0.91439326890E+01 -0.12299999406E+02  0.83517884072E+01  0.17454336432E+02  0.51100000000E-03 0.  1.
         12    1    3    3    0    0  0.58844831791E+01  0.17191328876E+02 -0.12246439374E+01  0.18211773213E+02  0.00000000000E+00 0. -1.
</event>
<event>
 7    1  0.6184948E-012  0.5930194E+02  0.7816164E-02  0.1266605E+00
        -11   -1    0    0    0    0  0.00000000000E+00  0.00000000000E+00  0.45593999997E+02  0.45594000000E+02  0.51100000000E-03 0.  1.
         11   -1    0    0    0    0 -0.00000000000E+00 -0.00000000000E+00 -0.45593999997E+02  0.45594000000E+02  0.51100000000E-03 0. -1.
    9900012    2    1    2    0    0  0.16066656465E+02  0.12207475438E+02  0.24689291697E+02  0.59301936728E+02  0.49999986686E+02 0.  0.
         12    1    1    2    0    0 -0.16066656465E+02 -0.12207475438E+02 -0.24689291697E+02  0.31886063272E+02  0.00000000000E+00 0. -1.
         11    1    3    3    0    0 -0.91071117304E+01 -0.41738584089E+01  0.90409664554E+01  0.13494430436E+02  0.51100000000E-03 0. -1.
        -11    1    3    3    0    0 -0.22445290279E+01  0.15282494774E+01  0.14342423748E+02  0.14597211249E+02  0.51100000000E-03 0.  1.
        -12    1    3    3    0    0  0.27418297223E+02  0.14853084369E+02  0.13059014930E+01  0.31210295042E+02  0.00000000000E+00 0.  1.
</event>
<event>
 7    1  0.6184948E-012  0.5930193E+02  0.7816164E-02  0.1266605E+00
        -11   -1    0    0    0    0  0.00000000000E+00  0.00000000000E+00  0.45593999997E+02  0.45594000000E+02  0.51100000000E-03 0.  1.
         11   -1    0    0    0    0 -0.00000000000E+00 -0.00000000000E+00 -0.45593999997E+02  0.45594000000E+02  0.51100000000E-03 0. -1.
    9900012    2    1    2    0    0  0.16917858462E+02  0.16427838921E+02  0.21462370983E+02  0.59301934160E+02  0.49999982003E+02 0.  0.
         12    1    1    2    0    0 -0.16917858462E+02 -0.16427838921E+02 -0.21462370983E+02  0.31886065840E+02  0.00000000000E+00 0. -1.
         11    1    3    3    0    0 -0.16887110755E+01 -0.21928232857E+01  0.36517328616E+01  0.45820707341E+01  0.51100000000E-03 0. -1.
        -11    1    3    3    0    0 -0.92993826376E+01  0.13748173361E+02  0.20370411350E+02  0.26276309616E+02  0.51100000000E-03 0.  1.
         12    1    3    3    0    0  0.27905952175E+02  0.48724888459E+01 -0.25597732288E+01  0.28443553810E+02  0.00000000000E+00 0. -1.
</event>
<event>
 7    1  0.6184948E-012  0.5930206E+02  0.7816164E-02  0.1266604E+00
        -11   -1    0    0    0    0  0.00000000000E+00  0.00000000000E+00  0.45593999997E+02  0.45594000000E+02  0.51100000000E-03 0.  1.
         11   -1    0    0    0    0 -0.00000000000E+00 -0.00000000000E+00 -0.45593999997E+02  0.45594000000E+02  0.51100000000E-03 0. -1.
    9900012    2    1    2    0    0 -0.19349980675E+02 -0.17660395423E+02  0.18176966864E+02  0.59302055714E+02  0.50000203689E+02 0.  0.
         12    1    1    2    0    0  0.19349980675E+02  0.17660395423E+02 -0.18176966864E+02  0.31885944286E+02  0.00000000000E+00 0. -1.
         11    1    3    3    0    0  0.60535531809E+01 -0.21436604789E+01 -0.10689665936E+02  0.12470354624E+02  0.51100000000E-03 0. -1.
        -11    1    3    3    0    0 -0.18198886951E+01  0.30950379180E+01 -0.17000029648E+01  0.39725640231E+01  0.51100000000E-03 0.  1.
        -12    1    3    3    0    0 -0.23583645161E+02 -0.18611772862E+02  0.30566635765E+02  0.42859137067E+02  0.00000000000E+00 0.  1.
</event>
<event>
 7    1  0.6184948E-012  0.5930191E+02  0.7816164E-02  0.1266605E+00
        -11   -1    0    0    0    0  0.00000000000E+00  0.00000000000E+00  0.45593999997E+02  0.45594000000E+02  0.51100000000E-03 0.  1.
         11   -1    0    0    0    0 -0.00000000000E+00 -0.00000000000E+00 -0.45593999997E+02  0.45594000000E+02  0.51100000000E-03 0. -1.
    9900012    2    1    2    0    0 -0.22122738659E+01  0.30268533262E+02 -0.97797940688E+01  0.59301911599E+02  0.49999940857E+02 0.  0.
         12    1    1    2    0    0  0.22122738659E+01 -0.30268533262E+02  0.97797940688E+01  0.31886088401E+02  0.00000000000E+00 0. -1.
         11    1    3    3    0    0  0.56041536535E+01 -0.49239785881E+01  0.16717378024E+00  0.74619066358E+01  0.51100000000E-03 0. -1.
        -11    1    3    3    0    0 -0.99934960007E+01  0.67930311517E+01  0.11113058692E+02  0.16416921401E+02  0.51100000000E-03 0.  1.
         12    1    3    3    0    0  0.21770684813E+01  0.28399480699E+02 -0.21060026541E+02  0.35423083562E+02  0.00000000000E+00 0. -1.
</event>
<event>
 7    1  0.6184948E-012  0.5930191E+02  0.7816164E-02  0.1266605E+00
        -11   -1    0    0    0    0  0.00000000000E+00  0.00000000000E+00  0.45593999997E+02  0.45594000000E+02  0.51100000000E-03 0.  1.
         11   -1    0    0    0    0 -0.00000000000E+00 -0.00000000000E+00 -0.45593999997E+02  0.45594000000E+02  0.51100000000E-03 0. -1.
    9900012    2    1    2    0    0  0.25578667782E+02  0.14116502817E+02  0.12774138177E+02  0.59301913639E+02  0.49999944577E+02 0.  0.
         12    1    1    2    0    0 -0.25578667782E+02 -0.14116502817E+02 -0.12774138177E+02  0.31886086361E+02  0.00000000000E+00 0. -1.
         11    1    3    3    0    0  0.94280702703E+01 -0.83297627813E+00  0.38891300215E+01  0.10232677611E+02  0.51100000000E-03 0.  1.
        -11    1    3    3    0    0  0.28828422201E+02  0.13604323791E+02 -0.25021684286E+01  0.31975246669E+02  0.51100000000E-03 0. -1.
         12    1    3    3    0    0 -0.12677824690E+02  0.13451553043E+01  0.11387176584E+02  0.17093989359E+02  0.00000000000E+00 0. -1.
</event>
<event>
 7    1  0.6184948E-012  0.5930213E+02  0.7816164E-02  0.1266604E+00
        -11   -1    0    0    0    0  0.00000000000E+00  0.00000000000E+00  0.45593999997E+02  0.45594000000E+02  0.51100000000E-03 0. -1.
         11   -1    0    0    0    0 -0.00000000000E+00 -0.00000000000E+00 -0.45593999997E+02  0.45594000000E+02  0.51100000000E-03 0.  1.
    9900012    2    1    2    0    0  0.14878585930E+02 -0.11589592189E+02 -0.25710268092E+02  0.59302127710E+02  0.50000334991E+02 0.  0.
         12    1    1    2    0    0 -0.14878585930E+02  0.11589592189E+02  0.25710268092E+02  0.31885872290E+02  0.00000000000E+00 0. -1.
         11    1    3    3    0    0  0.29178784895E+01  0.17958417303E+01  0.44912858715E+01  0.56489566683E+01  0.51100000000E-03 0. -1.
        -11    1    3    3    0    0  0.26333601078E+02 -0.27731927351E+01 -0.17958819775E+02  0.31994817575E+02  0.51100000000E-03 0.  1.
        -12    1    3    3    0    0 -0.14372893638E+02 -0.10612241184E+02 -0.12242734188E+02  0.21658353467E+02  0.00000000000E+00 0.  1.
</event>
<event>
 7    1  0.6184948E-012  0.5930187E+02  0.7816164E-02  0.1266605E+00
        -11   -1    0    0    0    0  0.00000000000E+00  0.00000000000E+00  0.45593999997E+02  0.45594000000E+02  0.51100000000E-03 0.  1.
         11   -1    0    0    0    0 -0.00000000000E+00 -0.00000000000E+00 -0.45593999997E+02  0.45594000000E+02  0.51100000000E-03 0. -1.
    9900012    2    1    2    0    0  0.50956346975E+01 -0.10783452095E+02  0.29571555574E+02  0.59301870866E+02  0.49999866571E+02 0.  0.
         12    1    1    2    0    0 -0.50956346975E+01  0.10783452095E+02 -0.29571555574E+02  0.31886129134E+02  0.00000000000E+00 0. -1.
         11    1    3    3    0    0  0.33747702593E+01 -0.17646899493E+02 -0.26783932055E+01  0.18165239510E+02  0.51100000000E-03 0. -1.
        -11    1    3    3    0    0 -0.10462648634E+01 -0.91224380061E+01  0.96969573695E+01  0.13354569548E+02  0.51100000000E-03 0.  1.
         12    1    3    3    0    0  0.27671293015E+01  0.15985885405E+02  0.22552991410E+02  0.27782061808E+02  0.00000000000E+00 0. -1.
</event>
<event>
 7    1  0.6184948E-012  0.5930196E+02  0.7816164E-02  0.1266605E+00
        -11   -1    0    0    0    0  0.00000000000E+00  0.00000000000E+00  0.45593999997E+02  0.45594000000E+02  0.51100000000E-03 0. -1.
         11   -1    0    0    0    0 -0.00000000000E+00 -0.00000000000E+00 -0.45593999997E+02  0.45594000000E+02  0.51100000000E-03 0.  1.
    9900012    2    1    2    0    0 -0.30712759955E+02  0.77235476564E+01 -0.37138522080E+01  0.59301960568E+02  0.50000030166E+02 0.  0.
         12    1    1    2    0    0  0.30712759955E+02 -0.77235476564E+01  0.37138522080E+01  0.31886039432E+02  0.00000000000E+00 0. -1.
         11    1    3    3    0    0 -0.22916899299E+01 -0.32719078960E+01 -0.20115226746E+01  0.44725214081E+01  0.51100000000E-03 0. -1.
        -11    1    3    3    0    0 -0.38843093636E+02 -0.10293651032E+01 -0.20782981137E+01  0.38912271060E+02  0.51100000000E-03 0.  1.
        -12    1    3    3    0    0  0.10422023611E+02  0.12024820656E+02  0.37596858034E+00  0.15917168100E+02  0.00000000000E+00 0.  1.
</event>
<event>
 7    1  0.6184948E-012  0.5930199E+02  0.7816164E-02  0.1266605E+00
        -11   -1    0    0    0    0  0.00000000000E+00  0.00000000000E+00  0.45593999997E+02  0.45594000000E+02  0.51100000000E-03 0.  1.
         11   -1    0    0    0    0 -0.00000000000E+00 -0.00000000000E+00 -0.45593999997E+02  0.45594000000E+02  0.51100000000E-03 0. -1.
    9900012    2    1    2    0    0  0.13033905476E+02 -0.26972436813E+02 -0.10923496856E+02  0.59301987030E+02  0.50000078426E+02 0.  0.
         12    1    1    2    0    0 -0.13033905476E+02  0.26972436813E+02  0.10923496856E+02  0.31886012970E+02  0.00000000000E+00 0. -1.
         11    1    3    3    0    0  0.55644233021E+01  0.22774640533E+00 -0.14824179417E+02  0.15835749769E+02  0.51100000000E-03 0. -1.
        -11    1    3    3    0    0 -0.99141934739E+01 -0.99503029178E+01 -0.80783271382E+01  0.16203676435E+02  0.51100000000E-03 0.  1.
        -12    1    3    3    0    0  0.17383675648E+02 -0.17249880300E+02  0.11979009700E+02  0.27262560826E+02  0.00000000000E+00 0.  1.
</event>
<event>
 7    1  0.6184948E-012  0.5930205E+02  0.7816164E-02  0.1266604E+00
        -11   -1    0    0    0    0  0.00000000000E+00  0.00000000000E+00  0.45593999997E+02  0.45594000000E+02  0.51100000000E-03 0.  1.
         11   -1    0    0    0    0 -0.00000000000E+00 -0.00000000000E+00 -0.45593999997E+02  0.45594000000E+02  0.51100000000E-03 0. -1.
    9900012    2    1    2    0    0  0.22951914146E+02 -0.15037404693E+02  0.16241925387E+02  0.59302046304E+02  0.50000186526E+02 0.  0.
         12    1    1    2    0    0 -0.22951914146E+02  0.15037404693E+02 -0.16241925387E+02  0.31885953696E+02  0.00000000000E+00 0. -1.
         11    1    3    3    0    0  0.14935217997E+02  0.92588002568E+00 -0.48940043044E+01  0.15743864483E+02  0.51100000000E-03 0. -1.
        -11    1    3    3    0    0  0.15056273685E+02  0.25144257667E+01  0.17894890696E+02  0.23521071988E+02  0.51100000000E-03 0.  1.
        -12    1    3    3    0    0 -0.70395775363E+01 -0.18477710486E+02  0.32410389954E+01  0.20037109833E+02  0.00000000000E+00 0.  1.
</event>
<event>
 7    1  0.6184948E-012  0.5930195E+02  0.7816164E-02  0.1266605E+00
        -11   -1    0    0    0    0  0.00000000000E+00  0.00000000000E+00  0.45593999997E+02  0.45594000000E+02  0.51100000000E-03 0. -1.
         11   -1    0    0    0    0 -0.00000000000E+00 -0.00000000000E+00 -0.45593999997E+02  0.45594000000E+02  0.51100000000E-03 0.  1.
    9900012    2    1    2    0    0 -0.16217295164E+02  0.17029249183E+02  0.21534259418E+02  0.59301947895E+02  0.50000007053E+02 0.  0.
         12    1    1    2    0    0  0.16217295164E+02 -0.17029249183E+02 -0.21534259418E+02  0.31886052105E+02  0.00000000000E+00 0. -1.
         11    1    3    3    0    0 -0.22288925348E+01  0.77308961325E+01  0.31833180906E+02  0.32834221840E+02  0.51100000000E-03 0. -1.
        -11    1    3    3    0    0  0.11268637352E+01 -0.39830304376E+01 -0.27859225932E+01  0.49895609327E+01  0.51100000000E-03 0.  1.
        -12    1    3    3    0    0 -0.15115266365E+02  0.13281383488E+02 -0.75129988956E+01  0.21478165123E+02  0.00000000000E+00 0.  1.
</event>
<event>
 7    1  0.6184948E-012  0.5930193E+02  0.7816164E-02  0.1266605E+00
        -11   -1    0    0    0    0  0.00000000000E+00  0.00000000000E+00  0.45593999997E+02  0.45594000000E+02  0.51100000000E-03 0.  1.
         11   -1    0    0    0    0 -0.00000000000E+00 -0.00000000000E+00 -0.45593999997E+02  0.45594000000E+02  0.51100000000E-03 0. -1.
    9900012    2    1    2    0    0  0.23935535286E+02  0.13525731469E+02  0.16151352977E+02  0.59301929934E+02  0.49999974297E+02 0.  0.
         12    1    1    2    0    0 -0.23935535286E+02 -0.13525731469E+02 -0.16151352977E+02  0.31886070066E+02  0.00000000000E+00 0. -1.
         11    1    3    3    0    0  0.85951360696E+01 -0.36384021627E+01  0.89203477733E+01  0.12910729608E+02  0.51100000000E-03 0. -1.
        -11    1    3    3    0    0  0.15593486588E+02  0.13977275441E+02  0.22531557835E+02  0.30760236531E+02  0.51100000000E-03 0.  1.
         12    1    3    3    0    0 -0.25308737145E+00  0.31868581913E+01 -0.15300552631E+02  0.15630963795E+02  0.00000000000E+00 0. -1.
</event>
<event>
 7    1  0.6184948E-012  0.5930203E+02  0.7816164E-02  0.1266604E+00
        -11   -1    0    0    0    0  0.00000000000E+00  0.00000000000E+00  0.45593999997E+02  0.45594000000E+02  0.51100000000E-03 0. -1.
         11   -1    0    0    0    0 -0.00000000000E+00 -0.00000000000E+00 -0.45593999997E+02  0.45594000000E+02  0.51100000000E-03 0.  1.
    9900012    2    1    2    0    0  0.11623454531E+01  0.31319876957E+02 -0.58676519686E+01  0.59302030057E+02  0.50000156897E+02 0.  0.
         12    1    1    2    0    0 -0.11623454531E+01 -0.31319876957E+02  0.58676519686E+01  0.31885969943E+02  0.00000000000E+00 0. -1.
         11    1    3    3    0    0  0.15225056845E+01  0.57104970212E+01 -0.11485931914E+02  0.12917214560E+02  0.51100000000E-03 0.  1.
        -11    1    3    3    0    0 -0.48977619921E+01 -0.15439998688E+00 -0.13251906144E+02  0.14128868624E+02  0.51100000000E-03 0. -1.
         12    1    3    3    0    0  0.45376017607E+01  0.25763779923E+02  0.18870186089E+02  0.32255946873E+02  0.00000000000E+00 0. -1.
</event>
<event>
 7    1  0.6184948E-012  0.5930199E+02  0.7816164E-02  0.1266605E+00
        -11   -1    0    0    0    0  0.00000000000E+00  0.00000000000E+00  0.45593999997E+02  0.45594000000E+02  0.51100000000E-03 0.  1.
         11   -1    0    0    0    0 -0.00000000000E+00 -0.00000000000E+00 -0.45593999997E+02  0.45594000000E+02  0.51100000000E-03 0. -1.
    9900012    2    1    2    0    0  0.11088335393E+02 -0.24634609424E+02  0.16938193957E+02  0.59301990877E+02  0.50000085442E+02 0.  0.
         12    1    1    2    0    0 -0.11088335393E+02  0.24634609424E+02 -0.16938193957E+02  0.31886009123E+02  0.00000000000E+00 0. -1.
         11    1    3    3    0    0 -0.42224869582E+01 -0.25231663741E+01  0.82507554152E+01  0.96057654482E+01  0.51100000000E-03 0. -1.
        -11    1    3    3    0    0 -0.74857353289E+00  0.10191215238E+02  0.90051884327E+01  0.13620376255E+02  0.51100000000E-03 0.  1.
         12    1    3    3    0    0  0.16059395884E+02 -0.32302658288E+02 -0.31774989093E+00  0.36075849174E+02  0.00000000000E+00 0. -1.
</event>
<event>
 7    1  0.6184948E-012  0.5930181E+02  0.7816164E-02  0.1266605E+00
        -11   -1    0    0    0    0  0.00000000000E+00  0.00000000000E+00  0.45593999997E+02  0.45594000000E+02  0.51100000000E-03 0. -1.
         11   -1    0    0    0    0 -0.00000000000E+00 -0.00000000000E+00 -0.45593999997E+02  0.45594000000E+02  0.51100000000E-03 0.  1.
    9900012    2    1    2    0    0 -0.13866752572E+02 -0.49482607474E+01 -0.28283507928E+02  0.59301812833E+02  0.49999760732E+02 0.  0.
         12    1    1    2    0    0  0.13866752572E+02  0.49482607474E+01  0.28283507928E+02  0.31886187167E+02  0.00000000000E+00 0. -1.
         11    1    3    3    0    0  0.13063927912E+01 -0.32606463435E+01 -0.56425890713E+01  0.66465997616E+01  0.51100000000E-03 0. -1.
        -11    1    3    3    0    0  0.10392638025E+02 -0.70601519502E+01 -0.23356426214E+02  0.26521223886E+02  0.51100000000E-03 0.  1.
        -12    1    3    3    0    0 -0.25565783388E+02  0.53725375463E+01  0.71550735771E+00  0.26133989185E+02  0.00000000000E+00 0.  1.
</event>
<event>
 7    1  0.6184948E-012  0.5930183E+02  0.7816164E-02  0.1266605E+00
        -11   -1    0    0    0    0  0.00000000000E+00  0.00000000000E+00  0.45593999997E+02  0.45594000000E+02  0.51100000000E-03 0. -1.
         11   -1    0    0    0    0 -0.00000000000E+00 -0.00000000000E+00 -0.45593999997E+02  0.45594000000E+02  0.51100000000E-03 0.  1.
    9900012    2    1    2    0    0 -0.14283994561E+02  0.14701439903E+02 -0.24424633533E+02  0.59301834362E+02  0.49999799996E+02 0.  0.
         12    1    1    2    0    0  0.14283994561E+02 -0.14701439903E+02  0.24424633533E+02  0.31886165638E+02  0.00000000000E+00 0. -1.
         11    1    3    3    0    0  0.10432377594E+02 -0.21366337717E+01 -0.17799160044E+02  0.20741499576E+02  0.51100000000E-03 0. -1.
        -11    1    3    3    0    0 -0.10768925823E+02 -0.47171526755E+01  0.94137062559E+00  0.11794383056E+02  0.51100000000E-03 0.  1.
        -12    1    3    3    0    0 -0.13947446331E+02  0.21555226350E+02 -0.75668441152E+01  0.26765951730E+02  0.00000000000E+00 0.  1.
</event>
<event>
 7    1  0.6184948E-012  0.5930193E+02  0.7816164E-02  0.1266605E+00
        -11   -1    0    0    0    0  0.00000000000E+00  0.00000000000E+00  0.45593999997E+02  0.45594000000E+02  0.51100000000E-03 0.  1.
         11   -1    0    0    0    0 -0.00000000000E+00 -0.00000000000E+00 -0.45593999997E+02  0.45594000000E+02  0.51100000000E-03 0. -1.
    9900012    2    1    2    0    0 -0.20998017392E+02  0.10503560270E+02  0.21574990379E+02  0.59301925883E+02  0.49999966908E+02 0.  0.
         12    1    1    2    0    0  0.20998017392E+02 -0.10503560270E+02 -0.21574990379E+02  0.31886074117E+02  0.00000000000E+00 0. -1.
         11    1    3    3    0    0  0.90211286082E+01 -0.53097236432E+01 -0.40093738931E+01  0.11209326733E+02  0.51100000000E-03 0. -1.
        -11    1    3    3    0    0 -0.88515962781E+01 -0.51284315247E+01  0.28201646474E+01  0.10611545386E+02  0.51100000000E-03 0.  1.
         12    1    3    3    0    0 -0.21167549722E+02  0.20941715437E+02  0.22764199625E+02  0.37481053764E+02  0.00000000000E+00 0. -1.
</event>
<event>
 7    1  0.6184948E-012  0.5930193E+02  0.7816164E-02  0.1266605E+00
        -11   -1    0    0    0    0  0.00000000000E+00  0.00000000000E+00  0.45593999997E+02  0.45594000000E+02  0.51100000000E-03 0. -1.
         11   -1    0    0    0    0 -0.00000000000E+00 -0.00000000000E+00 -0.45593999997E+02  0.45594000000E+02  0.51100000000E-03 0.  1.
    9900012    2    1    2    0    0 -0.14180366427E+02  0.24842901534E+02  0.14087910208E+02  0.59301925254E+02  0.49999965762E+02 0.  0.
         12    1    1    2    0    0  0.14180366427E+02 -0.24842901534E+02 -0.14087910208E+02  0.31886074746E+02  0.00000000000E+00 0. -1.
         11    1    3    3    0    0  0.12977118828E+02 -0.40947489118E+01  0.61608437931E+01  0.14937489020E+02  0.51100000000E-03 0. -1.
        -11    1    3    3    0    0 -0.91177251794E+01 -0.11619589132E-01  0.42411021920E+01  0.10055843849E+02  0.51100000000E-03 0.  1.
        -12    1    3    3    0    0 -0.18039760076E+02  0.28949270035E+02  0.36859642233E+01  0.34308592385E+02  0.00000000000E+00 0.  1.
</event>
<event>
 7    1  0.6184948E-012  0.5930192E+02  0.7816164E-02  0.1266605E+00
        -11   -1    0    0    0    0  0.00000000000E+00  0.00000000000E+00  0.45593999997E+02  0.45594000000E+02  0.51100000000E-03 0. -1.
         11   -1    0    0    0    0 -0.00000000000E+00 -0.00000000000E+00 -0.45593999997E+02  0.45594000000E+02  0.51100000000E-03 0.  1.
    9900012    2    1    2    0    0  0.21968559333E+02  0.10106830065E+02 -0.20783556926E+02  0.59301923860E+02  0.49999963219E+02 0.  0.
         12    1    1    2    0    0 -0.21968559333E+02 -0.10106830065E+02  0.20783556926E+02  0.31886076140E+02  0.00000000000E+00 0. -1.
         11    1    3    3    0    0 -0.10718237956E+02 -0.51128468366E+01 -0.15391552457E+01  0.11974590882E+02  0.51100000000E-03 0. -1.
        -11    1    3    3    0    0  0.39797052043E+01 -0.78572975461E+00  0.50341518810E+01  0.64651457975E+01  0.51100000000E-03 0.  1.
        -12    1    3    3    0    0  0.28707092085E+02  0.16005406656E+02 -0.24278553561E+02  0.40862187181E+02  0.00000000000E+00 0.  1.
</event>
<event>
 7    1  0.6184948E-012  0.5930195E+02  0.7816164E-02  0.1266605E+00
        -11   -1    0    0    0    0  0.00000000000E+00  0.00000000000E+00  0.45593999997E+02  0.45594000000E+02  0.51100000000E-03 0. -1.
         11   -1    0    0    0    0 -0.00000000000E+00 -0.00000000000E+00 -0.45593999997E+02  0.45594000000E+02  0.51100000000E-03 0.  1.
    9900012    2    1    2    0    0 -0.29403876820E+02 -0.11522025937E+02  0.44016848013E+01  0.59301954732E+02  0.50000019522E+02 0.  0.
         12    1    1    2    0    0  0.29403876820E+02  0.11522025937E+02 -0.44016848013E+01  0.31886045268E+02  0.00000000000E+00 0. -1.
         11    1    3    3    0    0 -0.48503116022E+01  0.22049097745E+01 -0.12057409018E+01  0.54626880869E+01  0.51100000000E-03 0. -1.
        -11    1    3    3    0    0 -0.21177002326E+02 -0.11689744849E+02 -0.17843945206E+02  0.30058641735E+02  0.51100000000E-03 0.  1.
        -12    1    3    3    0    0 -0.33765628917E+01 -0.20371908619E+01  0.23451370909E+02  0.23780624910E+02  0.00000000000E+00 0.  1.
</event>
<event>
 7    1  0.6184948E-012  0.5930185E+02  0.7816164E-02  0.1266605E+00
        -11   -1    0    0    0    0  0.00000000000E+00  0.00000000000E+00  0.45593999997E+02  0.45594000000E+02  0.51100000000E-03 0.  1.
         11   -1    0    0    0    0 -0.00000000000E+00 -0.00000000000E+00 -0.45593999997E+02  0.45594000000E+02  0.51100000000E-03 0. -1.
    9900012    2    1    2    0    0 -0.52203799513E+00 -0.31568197071E+02  0.44612587045E+01  0.59301852236E+02  0.49999832594E+02 0.  0.
         12    1    1    2    0    0  0.52203799513E+00  0.31568197071E+02 -0.44612587045E+01  0.31886147764E+02  0.00000000000E+00 0. -1.
         11    1    3    3    0    0 -0.76245234902E+01 -0.36323785890E+01 -0.59220335306E+01  0.10314941302E+02  0.51100000000E-03 0. -1.
        -11    1    3    3    0    0 -0.12370455115E+02 -0.14970011297E+02  0.15727485278E+02  0.24989661691E+02  0.51100000000E-03 0.  1.
         12    1    3    3    0    0  0.19472940610E+02 -0.12965807186E+02 -0.53441930434E+01  0.23997249243E+02  0.00000000000E+00 0. -1.
</event>
<event>
 7    1  0.6184948E-012  0.5930196E+02  0.7816164E-02  0.1266605E+00
        -11   -1    0    0    0    0  0.00000000000E+00  0.00000000000E+00  0.45593999997E+02  0.45594000000E+02  0.51100000000E-03 0. -1.
         11   -1    0    0    0    0 -0.00000000000E+00 -0.00000000000E+00 -0.45593999997E+02  0.45594000000E+02  0.51100000000E-03 0.  1.
    9900012    2    1    2    0    0  0.22528431887E+02 -0.10415230440E+02 -0.20017801708E+02  0.59301958326E+02  0.50000026077E+02 0.  0.
         12    1    1    2    0    0 -0.22528431887E+02  0.10415230440E+02  0.20017801708E+02  0.31886041674E+02  0.00000000000E+00 0. -1.
         11    1    3    3    0    0 -0.67722793595E-01  0.44487240737E+01 -0.24668881475E+02  0.25066899404E+02  0.51100000000E-03 0.  1.
        -11    1    3    3    0    0  0.11120697819E+01 -0.12083896831E+02  0.30522329058E+01  0.12512928826E+02  0.51100000000E-03 0. -1.
        -12    1    3    3    0    0  0.21484084899E+02 -0.27800576832E+01  0.15988468606E+01  0.21722130097E+02  0.00000000000E+00 0.  1.
</event>
<event>
 7    1  0.6184948E-012  0.5930203E+02  0.7816164E-02  0.1266604E+00
        -11   -1    0    0    0    0  0.00000000000E+00  0.00000000000E+00  0.45593999997E+02  0.45594000000E+02  0.51100000000E-03 0.  1.
         11   -1    0    0    0    0 -0.00000000000E+00 -0.00000000000E+00 -0.45593999997E+02  0.45594000000E+02  0.51100000000E-03 0. -1.
    9900012    2    1    2    0    0  0.60069710026E+01  0.81926626985E+00  0.31304317048E+02  0.59302028733E+02  0.50000154481E+02 0.  0.
         12    1    1    2    0    0 -0.60069710026E+01 -0.81926626985E+00 -0.31304317048E+02  0.31885971267E+02  0.00000000000E+00 0. -1.
         11    1    3    3    0    0  0.10597110596E+01 -0.82722164562E+01 -0.35200710608E+00  0.83472427718E+01  0.51100000000E-03 0.  1.
        -11    1    3    3    0    0  0.13492677656E+01  0.23348462949E+02  0.11656215588E+02  0.26131180755E+02  0.51100000000E-03 0. -1.
         12    1    3    3    0    0  0.35979921774E+01 -0.14256980223E+02  0.20000108565E+02  0.24823605205E+02  0.00000000000E+00 0. -1.
</event>
<event>
 7    1  0.6184948E-012  0.5930194E+02  0.7816164E-02  0.1266605E+00
        -11   -1    0    0    0    0  0.00000000000E+00  0.00000000000E+00  0.45593999997E+02  0.45594000000E+02  0.51100000000E-03 0.  1.
         11   -1    0    0    0    0 -0.00000000000E+00 -0.00000000000E+00 -0.45593999997E+02  0.45594000000E+02  0.51100000000E-03 0. -1.
    9900012    2    1    2    0    0  0.31738031976E+02 -0.43505521816E+00  0.30378672056E+01  0.59301943739E+02  0.49999999473E+02 0.  0.
         12    1    1    2    0    0 -0.31738031976E+02  0.43505521816E+00 -0.30378672056E+01  0.31886056261E+02  0.00000000000E+00 0. -1.
         11    1    3    3    0    0  0.11220552787E+02  0.58531631942E+01 -0.24277503837E+01  0.12886205664E+02  0.51100000000E-03 0. -1.
        -11    1    3    3    0    0  0.14476172277E+02 -0.61465341931E+01 -0.16995627485E+02  0.23155794096E+02  0.51100000000E-03 0.  1.
        -12    1    3    3    0    0  0.60413069124E+01 -0.14168421930E+00  0.22461245074E+02  0.23259943979E+02  0.00000000000E+00 0.  1.
</event>
<event>
 7    1  0.6184948E-012  0.5930196E+02  0.7816164E-02  0.1266605E+00
        -11   -1    0    0    0    0  0.00000000000E+00  0.00000000000E+00  0.45593999997E+02  0.45594000000E+02  0.51100000000E-03 0.  1.
         11   -1    0    0    0    0 -0.00000000000E+00 -0.00000000000E+00 -0.45593999997E+02  0.45594000000E+02  0.51100000000E-03 0. -1.
    9900012    2    1    2    0    0  0.29522569831E+02 -0.40835047365E+01  0.11334117318E+02  0.59301962997E+02  0.50000034595E+02 0.  0.
         12    1    1    2    0    0 -0.29522569831E+02  0.40835047365E+01 -0.11334117318E+02  0.31886037003E+02  0.00000000000E+00 0. -1.
         11    1    3    3    0    0  0.12657448092E+02 -0.56640222052E+01  0.79462162081E+01  0.15982318106E+02  0.51100000000E-03 0. -1.
        -11    1    3    3    0    0  0.14366972452E+02 -0.17692192385E+02 -0.27101236044E+01  0.22951434357E+02  0.51100000000E-03 0.  1.
         12    1    3    3    0    0  0.24981492870E+01  0.19272709853E+02  0.60980247145E+01  0.20368210534E+02  0.00000000000E+00 0. -1.
</event>
<event>
 7    1  0.6184948E-012  0.5930194E+02  0.7816164E-02  0.1266605E+00
        -11   -1    0    0    0    0  0.00000000000E+00  0.00000000000E+00  0.45593999997E+02  0.45594000000E+02  0.51100000000E-03 0.  1.
         11   -1    0    0    0    0 -0.00000000000E+00 -0.00000000000E+00 -0.45593999997E+02  0.45594000000E+02  0.51100000000E-03 0. -1.
    9900012    2    1    2    0    0 -0.70508992058E+01  0.27984474886E+02  0.13560050321E+02  0.59301937544E+02  0.49999988175E+02 0.  0.
         12    1    1    2    0    0  0.70508992058E+01 -0.27984474886E+02 -0.13560050321E+02  0.31886062456E+02  0.00000000000E+00 0. -1.
         11    1    3    3    0    0  0.10722450712E+02  0.24633115454E+01 -0.45259896366E+01  0.11896362280E+02  0.51100000000E-03 0. -1.
        -11    1    3    3    0    0 -0.19762393587E+02  0.17182921596E+01  0.97797490107E+01  0.22116695485E+02  0.51100000000E-03 0.  1.
        -12    1    3    3    0    0  0.19890436689E+01  0.23802871181E+02  0.83062909473E+01  0.25288879779E+02  0.00000000000E+00 0.  1.
</event>
<event>
 7    1  0.6184948E-012  0.5930178E+02  0.7816164E-02  0.1266605E+00
        -11   -1    0    0    0    0  0.00000000000E+00  0.00000000000E+00  0.45593999997E+02  0.45594000000E+02  0.51100000000E-03 0.  1.
         11   -1    0    0    0    0 -0.00000000000E+00 -0.00000000000E+00 -0.45593999997E+02  0.45594000000E+02  0.51100000000E-03 0. -1.
    9900012    2    1    2    0    0  0.32862967972E+01  0.37551540195E+00  0.31714192478E+02  0.59301784122E+02  0.49999708370E+02 0.  0.
         12    1    1    2    0    0 -0.32862967972E+01 -0.37551540195E+00 -0.31714192478E+02  0.31886215878E+02  0.00000000000E+00 0. -1.
         11    1    3    3    0    0  0.15430403939E+02 -0.24797503244E+01  0.65332618902E+01  0.16939009374E+02  0.51100000000E-03 0. -1.
        -11    1    3    3    0    0  0.81026677651E+01  0.68647138696E+01  0.11453118247E+01  0.10681257457E+02  0.51100000000E-03 0.  1.
        -12    1    3    3    0    0 -0.20246774907E+02 -0.40094481432E+01  0.24035618763E+02  0.31681517291E+02  0.00000000000E+00 0.  1.
</event>
<event>
 7    1  0.6184948E-012  0.5930198E+02  0.7816164E-02  0.1266605E+00
        -11   -1    0    0    0    0  0.00000000000E+00  0.00000000000E+00  0.45593999997E+02  0.45594000000E+02  0.51100000000E-03 0.  1.
         11   -1    0    0    0    0 -0.00000000000E+00 -0.00000000000E+00 -0.45593999997E+02  0.45594000000E+02  0.51100000000E-03 0. -1.
    9900012    2    1    2    0    0 -0.46569843213E+01  0.20535807464E+02  0.23943927808E+02  0.59301975318E+02  0.50000057065E+02 0.  0.
         12    1    1    2    0    0  0.46569843213E+01 -0.20535807464E+02 -0.23943927808E+02  0.31886024682E+02  0.00000000000E+00 0. -1.
         11    1    3    3    0    0  0.13059092635E+02 -0.59731147975E+01  0.74133151129E+01  0.16160917117E+02  0.51100000000E-03 0. -1.
        -11    1    3    3    0    0 -0.31483653193E+01  0.37961609397E+01  0.15360251774E+02  0.16132587420E+02  0.51100000000E-03 0.  1.
        -12    1    3    3    0    0 -0.14567711637E+02  0.22712761322E+02  0.11703609213E+01  0.27008470781E+02  0.00000000000E+00 0.  1.
</event>
<event>
 7    1  0.6184948E-012  0.5930194E+02  0.7816164E-02  0.1266605E+00
        -11   -1    0    0    0    0  0.00000000000E+00  0.00000000000E+00  0.45593999997E+02  0.45594000000E+02  0.51100000000E-03 0. -1.
         11   -1    0    0    0    0 -0.00000000000E+00 -0.00000000000E+00 -0.45593999997E+02  0.45594000000E+02  0.51100000000E-03 0.  1.
    9900012    2    1    2    0    0  0.14867838637E+02  0.24656422987E+02  0.13701421123E+02  0.59301940960E+02  0.49999994406E+02 0.  0.
         12    1    1    2    0    0 -0.14867838637E+02 -0.24656422987E+02 -0.13701421123E+02  0.31886059040E+02  0.00000000000E+00 0. -1.
         11    1    3    3    0    0 -0.12572549741E+02  0.33398862180E+01  0.14863574575E+01  0.13093246568E+02  0.51100000000E-03 0. -1.
        -11    1    3    3    0    0  0.13011256811E+02  0.67512580036E+01 -0.85974995444E+01  0.16993801432E+02  0.51100000000E-03 0.  1.
         12    1    3    3    0    0  0.14429131568E+02  0.14565278766E+02  0.20812563210E+02  0.29214892961E+02  0.00000000000E+00 0. -1.
</event>
<event>
 7    1  0.6184948E-012  0.5930195E+02  0.7816164E-02  0.1266605E+00
        -11   -1    0    0    0    0  0.00000000000E+00  0.00000000000E+00  0.45593999997E+02  0.45594000000E+02  0.51100000000E-03 0. -1.
         11   -1    0    0    0    0 -0.00000000000E+00 -0.00000000000E+00 -0.45593999997E+02  0.45594000000E+02  0.51100000000E-03 0.  1.
    9900012    2    1    2    0    0 -0.77124037461E+01 -0.22324605246E+02 -0.21420811496E+02  0.59301947624E+02  0.50000006559E+02 0.  0.
         12    1    1    2    0    0  0.77124037461E+01  0.22324605246E+02  0.21420811496E+02  0.31886052376E+02  0.00000000000E+00 0. -1.
         11    1    3    3    0    0  0.96295742591E+01 -0.11271515425E+01  0.48555652488E+01  0.10843232228E+02  0.51100000000E-03 0. -1.
        -11    1    3    3    0    0  0.59373141292E+01  0.30903566095E+01 -0.69993146123E+01  0.96846480755E+01  0.51100000000E-03 0.  1.
        -12    1    3    3    0    0 -0.23279292134E+02 -0.24287810313E+02 -0.19277062133E+02  0.38774067320E+02  0.00000000000E+00 0.  1.
</event>
<event>
 7    1  0.6184948E-012  0.5930194E+02  0.7816164E-02  0.1266605E+00
        -11   -1    0    0    0    0  0.00000000000E+00  0.00000000000E+00  0.45593999997E+02  0.45594000000E+02  0.51100000000E-03 0.  1.
         11   -1    0    0    0    0 -0.00000000000E+00 -0.00000000000E+00 -0.45593999997E+02  0.45594000000E+02  0.51100000000E-03 0. -1.
    9900012    2    1    2    0    0  0.26241272805E+01 -0.24495027756E+02  0.20244220787E+02  0.59301938719E+02  0.49999990318E+02 0.  0.
         12    1    1    2    0    0 -0.26241272805E+01  0.24495027756E+02 -0.20244220787E+02  0.31886061281E+02  0.00000000000E+00 0. -1.
         11    1    3    3    0    0  0.46485178916E+01  0.30401075654E+01 -0.26998732486E+01  0.61757824134E+01  0.51100000000E-03 0. -1.
        -11    1    3    3    0    0  0.16123725300E+02 -0.34224818339E+01  0.14064512308E+02  0.21667911902E+02  0.51100000000E-03 0.  1.
         12    1    3    3    0    0 -0.18148115911E+02 -0.24112653487E+02  0.88795817275E+01  0.31458244404E+02  0.00000000000E+00 0. -1.
</event>
<event>
 7    1  0.6184948E-012  0.5930194E+02  0.7816164E-02  0.1266605E+00
        -11   -1    0    0    0    0  0.00000000000E+00  0.00000000000E+00  0.45593999997E+02  0.45594000000E+02  0.51100000000E-03 0. -1.
         11   -1    0    0    0    0 -0.00000000000E+00 -0.00000000000E+00 -0.45593999997E+02  0.45594000000E+02  0.51100000000E-03 0.  1.
    9900012    2    1    2    0    0  0.24518663468E+02  0.74328266136E+01 -0.18981812520E+02  0.59301937586E+02  0.49999988252E+02 0.  0.
         12    1    1    2    0    0 -0.24518663468E+02 -0.74328266136E+01  0.18981812520E+02  0.31886062414E+02  0.00000000000E+00 0. -1.
         11    1    3    3    0    0  0.11564988451E+02 -0.58097819890E+01  0.80549566643E+01  0.15244174355E+02  0.51100000000E-03 0. -1.
        -11    1    3    3    0    0 -0.41801852155E+00 -0.79339563570E+01 -0.11310518460E+01  0.80250658252E+01  0.51100000000E-03 0.  1.
         12    1    3    3    0    0  0.13371693538E+02  0.21176564960E+02 -0.25905717338E+02  0.36032697406E+02  0.00000000000E+00 0. -1.
</event>
<event>
 7    1  0.6184948E-012  0.5930184E+02  0.7816164E-02  0.1266605E+00
        -11   -1    0    0    0    0  0.00000000000E+00  0.00000000000E+00  0.45593999997E+02  0.45594000000E+02  0.51100000000E-03 0.  1.
         11   -1    0    0    0    0 -0.00000000000E+00 -0.00000000000E+00 -0.45593999997E+02  0.45594000000E+02  0.51100000000E-03 0. -1.
    9900012    2    1    2    0    0 -0.72524923439E+01  0.20341755823E+02 -0.23459354785E+02  0.59301843096E+02  0.49999815925E+02 0.  0.
         12    1    1    2    0    0  0.72524923439E+01 -0.20341755823E+02  0.23459354785E+02  0.31886156904E+02  0.00000000000E+00 0. -1.
         11    1    3    3    0    0  0.11210697907E+02  0.14284663002E+02  0.12679818673E+01  0.18202722954E+02  0.51100000000E-03 0. -1.
        -11    1    3    3    0    0 -0.47894811599E+01 -0.16048886290E+00  0.55305636208E+01  0.73179246157E+01  0.51100000000E-03 0.  1.
         12    1    3    3    0    0 -0.13673709091E+02  0.62175816833E+01 -0.30257900273E+02  0.33781195527E+02  0.00000000000E+00 0. -1.
</event>
<event>
 7    1  0.6184948E-012  0.5930188E+02  0.7816164E-02  0.1266605E+00
        -11   -1    0    0    0    0  0.00000000000E+00  0.00000000000E+00  0.45593999997E+02  0.45594000000E+02  0.51100000000E-03 0. -1.
         11   -1    0    0    0    0 -0.00000000000E+00 -0.00000000000E+00 -0.45593999997E+02  0.45594000000E+02  0.51100000000E-03 0.  1.
    9900012    2    1    2    0    0 -0.17120535792E+02 -0.15096311432E+02 -0.22264623454E+02  0.59301877278E+02  0.49999878265E+02 0.  0.
         12    1    1    2    0    0  0.17120535792E+02  0.15096311432E+02  0.22264623454E+02  0.31886122722E+02  0.00000000000E+00 0. -1.
         11    1    3    3    0    0 -0.10132515671E+02  0.77258318057E+00  0.45784713579E+01  0.11145723792E+02  0.51100000000E-03 0. -1.
        -11    1    3    3    0    0 -0.73437648349E+01  0.98657528718E+01 -0.16116353158E+02  0.20273154689E+02  0.51100000000E-03 0.  1.
         12    1    3    3    0    0  0.35574471417E+00 -0.25734647484E+02 -0.10726741654E+02  0.27882998798E+02  0.00000000000E+00 0. -1.
</event>
<event>
 7    1  0.6184948E-012  0.5930194E+02  0.7816164E-02  0.1266605E+00
        -11   -1    0    0    0    0  0.00000000000E+00  0.00000000000E+00  0.45593999997E+02  0.45594000000E+02  0.51100000000E-03 0. -1.
         11   -1    0    0    0    0 -0.00000000000E+00 -0.00000000000E+00 -0.45593999997E+02  0.45594000000E+02  0.51100000000E-03 0.  1.
    9900012    2    1    2    0    0  0.23162940556E+02 -0.57848467965E+01 -0.21136099324E+02  0.59301937806E+02  0.49999988652E+02 0.  0.
         12    1    1    2    0    0 -0.23162940556E+02  0.57848467965E+01  0.21136099324E+02  0.31886062194E+02  0.00000000000E+00 0. -1.
         11    1    3    3    0    0 -0.69705809661E+00 -0.74991153912E+00 -0.13020279683E+02  0.13060472449E+02  0.51100000000E-03 0. -1.
        -11    1    3    3    0    0  0.21815706874E+02  0.45271575115E+01 -0.20626847910E+02  0.30362593376E+02  0.51100000000E-03 0.  1.
         12    1    3    3    0    0  0.20442917786E+01 -0.95620927688E+01  0.12511028270E+02  0.15878871980E+02  0.00000000000E+00 0. -1.
</event>
<event>
 7    1  0.6184948E-012  0.5930194E+02  0.7816164E-02  0.1266605E+00
        -11   -1    0    0    0    0  0.00000000000E+00  0.00000000000E+00  0.45593999997E+02  0.45594000000E+02  0.51100000000E-03 0. -1.
         11   -1    0    0    0    0 -0.00000000000E+00 -0.00000000000E+00 -0.45593999997E+02  0.45594000000E+02  0.51100000000E-03 0.  1.
    9900012    2    1    2    0    0 -0.27381693132E+02  0.14545273971E+02 -0.74430464547E+01  0.59301936364E+02  0.49999986023E+02 0.  0.
         12    1    1    2    0    0  0.27381693132E+02 -0.14545273971E+02  0.74430464547E+01  0.31886063636E+02  0.00000000000E+00 0. -1.
         11    1    3    3    0    0  0.91205385562E+00  0.45083739392E+01 -0.23983074115E+02  0.24420178584E+02  0.51100000000E-03 0. -1.
        -11    1    3    3    0    0 -0.25011822417E+00  0.59178433601E-01 -0.51542062313E+00  0.57595129389E+00  0.51100000000E-03 0.  1.
        -12    1    3    3    0    0 -0.28043628764E+02  0.99777215984E+01  0.17055448283E+02  0.34305806486E+02  0.00000000000E+00 0.  1.
</event>
<event>
 7    1  0.6184948E-012  0.5930179E+02  0.7816164E-02  0.1266605E+00
        -11   -1    0    0    0    0  0.00000000000E+00  0.00000000000E+00  0.45593999997E+02  0.45594000000E+02  0.51100000000E-03 0.  1.
         11   -1    0    0    0    0 -0.00000000000E+00 -0.00000000000E+00 -0.45593999997E+02  0.45594000000E+02  0.51100000000E-03 0. -1.
    9900012    2    1    2    0    0 -0.65076830778E+01  0.29342719805E+02  0.10648246332E+02  0.59301791468E+02  0.49999721767E+02 0.  0.
         12    1    1    2    0    0  0.65076830778E+01 -0.29342719805E+02 -0.10648246332E+02  0.31886208532E+02  0.00000000000E+00 0. -1.
         11    1    3    3    0    0 -0.42274361098E+01 -0.25764094083E+01 -0.24739044330E+01  0.55343748433E+01  0.51100000000E-03 0. -1.
        -11    1    3    3    0    0 -0.18041185157E+02  0.68830511671E+01  0.14505675621E+02  0.24151094814E+02  0.51100000000E-03 0.  1.
        -12    1    3    3    0    0  0.15760938189E+02  0.25036078046E+02 -0.13835248564E+01  0.29616321810E+02  0.00000000000E+00 0.  1.
</event>
<event>
 7    1  0.6184948E-012  0.5930191E+02  0.7816164E-02  0.1266605E+00
        -11   -1    0    0    0    0  0.00000000000E+00  0.00000000000E+00  0.45593999997E+02  0.45594000000E+02  0.51100000000E-03 0.  1.
         11   -1    0    0    0    0 -0.00000000000E+00 -0.00000000000E+00 -0.45593999997E+02  0.45594000000E+02  0.51100000000E-03 0. -1.
    9900012    2    1    2    0    0 -0.16345956509E+02 -0.40824130413E+01  0.27071505941E+02  0.59301908607E+02  0.49999935401E+02 0.  0.
         12    1    1    2    0    0  0.16345956509E+02  0.40824130413E+01 -0.27071505941E+02  0.31886091393E+02  0.00000000000E+00 0. -1.
         11    1    3    3    0    0  0.66429167763E+01  0.10569434525E+01 -0.91683973484E+01  0.11371234892E+02  0.51100000000E-03 0. -1.
        -11    1    3    3    0    0 -0.60680119499E+01 -0.69273569255E+01  0.16133273544E+01  0.93494314485E+01  0.51100000000E-03 0.  1.
        -12    1    3    3    0    0 -0.16920861335E+02  0.17880004316E+01  0.34626575935E+02  0.38581242267E+02  0.00000000000E+00 0.  1.
</event>
<event>
 7    1  0.6184948E-012  0.5930194E+02  0.7816164E-02  0.1266605E+00
        -11   -1    0    0    0    0  0.00000000000E+00  0.00000000000E+00  0.45593999997E+02  0.45594000000E+02  0.51100000000E-03 0.  1.
         11   -1    0    0    0    0 -0.00000000000E+00 -0.00000000000E+00 -0.45593999997E+02  0.45594000000E+02  0.51100000000E-03 0. -1.
    9900012    2    1    2    0    0  0.34820495840E+00  0.17111186329E+02  0.26903664988E+02  0.59301935111E+02  0.49999983739E+02 0.  0.
         12    1    1    2    0    0 -0.34820495840E+00 -0.17111186329E+02 -0.26903664988E+02  0.31886064889E+02  0.00000000000E+00 0. -1.
         11    1    3    3    0    0 -0.16291603599E+02  0.66978974368E+01  0.78450342793E+00  0.17632175810E+02  0.51100000000E-03 0. -1.
        -11    1    3    3    0    0 -0.60459082284E+01  0.45438818862E+01  0.12376728381E+02  0.14504594947E+02  0.51100000000E-03 0.  1.
        -12    1    3    3    0    0  0.22685716786E+02  0.58694070061E+01  0.13742433179E+02  0.27165164354E+02  0.00000000000E+00 0.  1.
</event>
<event>
 7    1  0.6184948E-012  0.5930194E+02  0.7816164E-02  0.1266605E+00
        -11   -1    0    0    0    0  0.00000000000E+00  0.00000000000E+00  0.45593999997E+02  0.45594000000E+02  0.51100000000E-03 0.  1.
         11   -1    0    0    0    0 -0.00000000000E+00 -0.00000000000E+00 -0.45593999997E+02  0.45594000000E+02  0.51100000000E-03 0. -1.
    9900012    2    1    2    0    0  0.20716281681E+02  0.11193588127E+02  0.21500236185E+02  0.59301938816E+02  0.49999990495E+02 0.  0.
         12    1    1    2    0    0 -0.20716281681E+02 -0.11193588127E+02 -0.21500236185E+02  0.31886061184E+02  0.00000000000E+00 0. -1.
         11    1    3    3    0    0  0.17567850344E+01  0.56786923402E+01 -0.10469556251E+02  0.12039329247E+02  0.51100000000E-03 0. -1.
        -11    1    3    3    0    0  0.19404702331E+02 -0.74809663686E+01  0.24965022669E+02  0.32492455855E+02  0.51100000000E-03 0.  1.
         12    1    3    3    0    0 -0.44520568445E+00  0.12995862155E+02  0.70047697673E+01  0.14770153715E+02  0.00000000000E+00 0. -1.
</event>
<event>
 7    1  0.6184948E-012  0.5930195E+02  0.7816164E-02  0.1266605E+00
        -11   -1    0    0    0    0  0.00000000000E+00  0.00000000000E+00  0.45593999997E+02  0.45594000000E+02  0.51100000000E-03 0. -1.
         11   -1    0    0    0    0 -0.00000000000E+00 -0.00000000000E+00 -0.45593999997E+02  0.45594000000E+02  0.51100000000E-03 0.  1.
    9900012    2    1    2    0    0  0.26025135665E+02  0.17877814747E+02  0.44492647934E+01  0.59301954405E+02  0.50000018925E+02 0.  0.
         12    1    1    2    0    0 -0.26025135665E+02 -0.17877814747E+02 -0.44492647934E+01  0.31886045595E+02  0.00000000000E+00 0. -1.
         11    1    3    3    0    0  0.21697501972E+02  0.71031931130E+01  0.19359605171E+02  0.29933781199E+02  0.51100000000E-03 0. -1.
        -11    1    3    3    0    0  0.12241869776E+02  0.28327045400E+01 -0.28174059172E+01  0.12877319868E+02  0.51100000000E-03 0.  1.
        -12    1    3    3    0    0 -0.79142360835E+01  0.79419170945E+01 -0.12092934461E+02  0.16490853337E+02  0.00000000000E+00 0.  1.
</event>
<event>
 7    1  0.6184948E-012  0.5930193E+02  0.7816164E-02  0.1266605E+00
        -11   -1    0    0    0    0  0.00000000000E+00  0.00000000000E+00  0.45593999997E+02  0.45594000000E+02  0.51100000000E-03 0. -1.
         11   -1    0    0    0    0 -0.00000000000E+00 -0.00000000000E+00 -0.45593999997E+02  0.45594000000E+02  0.51100000000E-03 0.  1.
    9900012    2    1    2    0    0  0.31119483619E+02 -0.52197184659E+01 -0.45884553867E+01  0.59301927109E+02  0.49999969143E+02 0.  0.
         12    1    1    2    0    0 -0.31119483619E+02  0.52197184659E+01  0.45884553867E+01  0.31886072891E+02  0.00000000000E+00 0. -1.
         11    1    3    3    0    0  0.18204278612E+02  0.16836525786E+02 -0.50236871455E+01  0.25300233065E+02  0.51100000000E-03 0. -1.
        -11    1    3    3    0    0 -0.11142860689E+01  0.21392798829E+01 -0.49617705068E+01  0.55170026903E+01  0.51100000000E-03 0.  1.
        -12    1    3    3    0    0  0.14029491077E+02 -0.24195524135E+02  0.53970022656E+01  0.28484691354E+02  0.00000000000E+00 0.  1.
</event>
<event>
 7    1  0.6184948E-012  0.5930194E+02  0.7816164E-02  0.1266605E+00
        -11   -1    0    0    0    0  0.00000000000E+00  0.00000000000E+00  0.45593999997E+02  0.45594000000E+02  0.51100000000E-03 0. -1.
         11   -1    0    0    0    0 -0.00000000000E+00 -0.00000000000E+00 -0.45593999997E+02  0.45594000000E+02  0.51100000000E-03 0.  1.
    9900012    2    1    2    0    0 -0.10835096008E+01  0.24895674169E+02 -0.19893518617E+02  0.59301942415E+02  0.49999997058E+02 0.  0.
         12    1    1    2    0    0  0.10835096008E+01 -0.24895674169E+02  0.19893518617E+02  0.31886057585E+02  0.00000000000E+00 0. -1.
         11    1    3    3    0    0 -0.14766999352E+01  0.16270385472E+02 -0.11428249090E+02  0.19937676987E+02  0.51100000000E-03 0. -1.
        -11    1    3    3    0    0  0.38060948143E+01  0.12697558495E+02 -0.21517018031E+02  0.25272443782E+02  0.51100000000E-03 0.  1.
         12    1    3    3    0    0 -0.34129044799E+01 -0.40722697987E+01  0.13051748504E+02  0.14091821647E+02  0.00000000000E+00 0. -1.
</event>
<event>
 7    1  0.6184948E-012  0.5930192E+02  0.7816164E-02  0.1266605E+00
        -11   -1    0    0    0    0  0.00000000000E+00  0.00000000000E+00  0.45593999997E+02  0.45594000000E+02  0.51100000000E-03 0.  1.
         11   -1    0    0    0    0 -0.00000000000E+00 -0.00000000000E+00 -0.45593999997E+02  0.45594000000E+02  0.51100000000E-03 0. -1.
    9900012    2    1    2    0    0 -0.38885038123E+01 -0.19482494249E+02  0.24940609763E+02  0.59301920601E+02  0.49999957276E+02 0.  0.
         12    1    1    2    0    0  0.38885038123E+01  0.19482494249E+02 -0.24940609763E+02  0.31886079399E+02  0.00000000000E+00 0. -1.
         11    1    3    3    0    0  0.13682055949E+02 -0.32552307221E+01  0.63104946462E+01  0.15414847550E+02  0.51100000000E-03 0. -1.
        -11    1    3    3    0    0 -0.86429409779E+01  0.49654848734E+00 -0.76024145164E+01  0.11521445043E+02  0.51100000000E-03 0.  1.
        -12    1    3    3    0    0 -0.89276187831E+01 -0.16723812015E+02  0.26232529633E+02  0.32365628008E+02  0.00000000000E+00 0.  1.
</event>
<event>
 7    1  0.6184948E-012  0.5930193E+02  0.7816164E-02  0.1266605E+00
        -11   -1    0    0    0    0  0.00000000000E+00  0.00000000000E+00  0.45593999997E+02  0.45594000000E+02  0.51100000000E-03 0.  1.
         11   -1    0    0    0    0 -0.00000000000E+00 -0.00000000000E+00 -0.45593999997E+02  0.45594000000E+02  0.51100000000E-03 0. -1.
    9900012    2    1    2    0    0 -0.28147206898E+02  0.14671422746E+02  0.30340484634E+01  0.59301931700E+02  0.49999977517E+02 0.  0.
         12    1    1    2    0    0  0.28147206898E+02 -0.14671422746E+02 -0.30340484634E+01  0.31886068300E+02  0.00000000000E+00 0. -1.
         11    1    3    3    0    0 -0.13472467983E+01  0.77085220308E+01  0.30569887240E+01  0.84012836016E+01  0.51100000000E-03 0. -1.
        -11    1    3    3    0    0 -0.16403533440E+01  0.12979451485E+02  0.15848641932E+02  0.20550824102E+02  0.51100000000E-03 0.  1.
         12    1    3    3    0    0 -0.25159606756E+02 -0.60165507695E+01 -0.15871582192E+02  0.30349823996E+02  0.00000000000E+00 0. -1.
</event>
<event>
 7    1  0.6184948E-012  0.5930194E+02  0.7816164E-02  0.1266605E+00
        -11   -1    0    0    0    0  0.00000000000E+00  0.00000000000E+00  0.45593999997E+02  0.45594000000E+02  0.51100000000E-03 0.  1.
         11   -1    0    0    0    0 -0.00000000000E+00 -0.00000000000E+00 -0.45593999997E+02  0.45594000000E+02  0.51100000000E-03 0. -1.
    9900012    2    1    2    0    0  0.30419474280E+02  0.83638938783E+01  0.46283257456E+01  0.59301944498E+02  0.50000000858E+02 0.  0.
         12    1    1    2    0    0 -0.30419474280E+02 -0.83638938783E+01 -0.46283257456E+01  0.31886055502E+02  0.00000000000E+00 0. -1.
         11    1    3    3    0    0  0.10374125016E+02  0.55216260326E+01 -0.26262161849E+01  0.12041919930E+02  0.51100000000E-03 0. -1.
        -11    1    3    3    0    0  0.31747536839E+02 -0.52325748825E+01  0.25187326408E+01  0.32274292395E+02  0.51100000000E-03 0.  1.
        -12    1    3    3    0    0 -0.11702187575E+02  0.80748427282E+01  0.47358092898E+01  0.14985732173E+02  0.00000000000E+00 0.  1.
</event>
<event>
 7    1  0.6184948E-012  0.5930193E+02  0.7816164E-02  0.1266605E+00
        -11   -1    0    0    0    0  0.00000000000E+00  0.00000000000E+00  0.45593999997E+02  0.45594000000E+02  0.51100000000E-03 0. -1.
         11   -1    0    0    0    0 -0.00000000000E+00 -0.00000000000E+00 -0.45593999997E+02  0.45594000000E+02  0.51100000000E-03 0.  1.
    9900012    2    1    2    0    0  0.24805557282E+02  0.51298169678E+01 -0.19367254710E+02  0.59301933306E+02  0.49999980446E+02 0.  0.
         12    1    1    2    0    0 -0.24805557282E+02 -0.51298169678E+01  0.19367254710E+02  0.31886066694E+02  0.00000000000E+00 0. -1.
         11    1    3    3    0    0  0.48295958530E+00 -0.64372311110E+01 -0.10623072062E+02  0.12430641763E+02  0.51100000000E-03 0. -1.
        -11    1    3    3    0    0 -0.95927087539E+01 -0.10045640822E+00  0.11592011713E+01  0.96630171450E+01  0.51100000000E-03 0.  1.
        -12    1    3    3    0    0  0.33915306451E+02  0.11667504487E+02 -0.99033838199E+01  0.37208274398E+02  0.00000000000E+00 0.  1.
</event>
<event>
 7    1  0.6184948E-012  0.5930195E+02  0.7816164E-02  0.1266605E+00
        -11   -1    0    0    0    0  0.00000000000E+00  0.00000000000E+00  0.45593999997E+02  0.45594000000E+02  0.51100000000E-03 0. -1.
         11   -1    0    0    0    0 -0.00000000000E+00 -0.00000000000E+00 -0.45593999997E+02  0.45594000000E+02  0.51100000000E-03 0.  1.
    9900012    2    1    2    0    0 -0.23210995011E+01 -0.31583562566E+02 -0.37163422758E+01  0.59301950901E+02  0.50000012535E+02 0.  0.
         12    1    1    2    0    0  0.23210995011E+01  0.31583562566E+02  0.37163422758E+01  0.31886049099E+02  0.00000000000E+00 0. -1.
         11    1    3    3    0    0  0.81056509065E+01 -0.58974852717E+01 -0.74447566655E+01  0.12486244881E+02  0.51100000000E-03 0. -1.
        -11    1    3    3    0    0 -0.27570952972E+01 -0.26721356251E+02 -0.11896179474E+02  0.29379440783E+02  0.51100000000E-03 0.  1.
         12    1    3    3    0    0 -0.76696551105E+01  0.10352789575E+01  0.15624593863E+02  0.17436265237E+02  0.00000000000E+00 0. -1.
</event>
<event>
 7    1  0.6184948E-012  0.5930193E+02  0.7816164E-02  0.1266605E+00
        -11   -1    0    0    0    0  0.00000000000E+00  0.00000000000E+00  0.45593999997E+02  0.45594000000E+02  0.51100000000E-03 0. -1.
         11   -1    0    0    0    0 -0.00000000000E+00 -0.00000000000E+00 -0.45593999997E+02  0.45594000000E+02  0.51100000000E-03 0.  1.
    9900012    2    1    2    0    0  0.71102304742E+01 -0.29508136735E+02 -0.97691317291E+01  0.59301930225E+02  0.49999974827E+02 0.  0.
         12    1    1    2    0    0 -0.71102304742E+01  0.29508136735E+02  0.97691317291E+01  0.31886069775E+02  0.00000000000E+00 0. -1.
         11    1    3    3    0    0  0.95474774416E+01  0.23158153087E+01 -0.45443595493E+01  0.10824441326E+02  0.51100000000E-03 0. -1.
        -11    1    3    3    0    0 -0.19165300637E+01 -0.13312351917E+02 -0.20468338264E+02  0.24491726615E+02  0.51100000000E-03 0.  1.
        -12    1    3    3    0    0 -0.52071690373E+00 -0.18511600127E+02  0.15243566084E+02  0.23985762284E+02  0.00000000000E+00 0.  1.
</event>
<event>
 7    1  0.6184948E-012  0.5930195E+02  0.7816164E-02  0.1266605E+00
        -11   -1    0    0    0    0  0.00000000000E+00  0.00000000000E+00  0.45593999997E+02  0.45594000000E+02  0.51100000000E-03 0. -1.
         11   -1    0    0    0    0 -0.00000000000E+00 -0.00000000000E+00 -0.45593999997E+02  0.45594000000E+02  0.51100000000E-03 0.  1.
    9900012    2    1    2    0    0 -0.28950053994E+02 -0.42988767556E+01 -0.12654411682E+02  0.59301951285E+02  0.50000013236E+02 0.  0.
         12    1    1    2    0    0  0.28950053994E+02  0.42988767556E+01  0.12654411682E+02  0.31886048715E+02  0.00000000000E+00 0. -1.
         11    1    3    3    0    0 -0.15861376648E+02  0.14273123035E+01 -0.14748956483E+02  0.21706040799E+02  0.51100000000E-03 0.  1.
        -11    1    3    3    0    0 -0.18781695329E-01  0.19180827015E+00 -0.15156862129E+02  0.15158087380E+02  0.51100000000E-03 0. -1.
         12    1    3    3    0    0 -0.13069895651E+02 -0.59179973293E+01  0.17251406929E+02  0.22437823107E+02  0.00000000000E+00 0. -1.
</event>
<event>
 7    1  0.6184948E-012  0.5930193E+02  0.7816164E-02  0.1266605E+00
        -11   -1    0    0    0    0  0.00000000000E+00  0.00000000000E+00  0.45593999997E+02  0.45594000000E+02  0.51100000000E-03 0.  1.
         11   -1    0    0    0    0 -0.00000000000E+00 -0.00000000000E+00 -0.45593999997E+02  0.45594000000E+02  0.51100000000E-03 0. -1.
    9900012    2    1    2    0    0  0.12984058479E+02 -0.23467025963E+02  0.17246286288E+02  0.59301929799E+02  0.49999974050E+02 0.  0.
         12    1    1    2    0    0 -0.12984058479E+02  0.23467025963E+02 -0.17246286288E+02  0.31886070201E+02  0.00000000000E+00 0. -1.
         11    1    3    3    0    0  0.11546227074E+01 -0.78977716971E+01  0.49851296563E+01  0.94106040894E+01  0.51100000000E-03 0.  1.
        -11    1    3    3    0    0  0.21982775055E+02 -0.12965526562E+02  0.23379247847E+02  0.34611219400E+02  0.51100000000E-03 0. -1.
         12    1    3    3    0    0 -0.10153339284E+02 -0.26037277034E+01 -0.11118091215E+02  0.15280106310E+02  0.00000000000E+00 0. -1.
</event>
<event>
 7    1  0.6184948E-012  0.5930208E+02  0.7816164E-02  0.1266604E+00
        -11   -1    0    0    0    0  0.00000000000E+00  0.00000000000E+00  0.45593999997E+02  0.45594000000E+02  0.51100000000E-03 0. -1.
         11   -1    0    0    0    0 -0.00000000000E+00 -0.00000000000E+00 -0.45593999997E+02  0.45594000000E+02  0.51100000000E-03 0.  1.
    9900012    2    1    2    0    0  0.15956618182E+02  0.27444943644E+02 -0.29788150214E+01  0.59302079371E+02  0.50000246833E+02 0.  0.
         12    1    1    2    0    0 -0.15956618182E+02 -0.27444943644E+02  0.29788150214E+01  0.31885920629E+02  0.00000000000E+00 0. -1.
         11    1    3    3    0    0  0.22603781104E+01  0.90329107116E+01  0.15404170674E+02  0.17999757208E+02  0.51100000000E-03 0. -1.
        -11    1    3    3    0    0 -0.57579168617E+01  0.72870290737E+01  0.35521325440E+01  0.99434423204E+01  0.51100000000E-03 0.  1.
        -12    1    3    3    0    0  0.19454156933E+02  0.11125003859E+02 -0.21935118239E+02  0.31358879843E+02  0.00000000000E+00 0.  1.
</event>
<event>
 7    1  0.6184948E-012  0.5930181E+02  0.7816164E-02  0.1266605E+00
        -11   -1    0    0    0    0  0.00000000000E+00  0.00000000000E+00  0.45593999997E+02  0.45594000000E+02  0.51100000000E-03 0. -1.
         11   -1    0    0    0    0 -0.00000000000E+00 -0.00000000000E+00 -0.45593999997E+02  0.45594000000E+02  0.51100000000E-03 0.  1.
    9900012    2    1    2    0    0  0.21587788380E+01  0.25999457489E+02 -0.18332952569E+02  0.59301807601E+02  0.49999751189E+02 0.  0.
         12    1    1    2    0    0 -0.21587788380E+01 -0.25999457489E+02  0.18332952569E+02  0.31886192399E+02  0.00000000000E+00 0. -1.
         11    1    3    3    0    0  0.13871214101E+02  0.16221941408E+02 -0.16305106996E+01  0.21406086262E+02  0.51100000000E-03 0. -1.
        -11    1    3    3    0    0 -0.42376018851E+01 -0.94669669959E+01  0.13644969094E+01  0.10461481057E+02  0.51100000000E-03 0.  1.
         12    1    3    3    0    0 -0.74748333775E+01  0.19244483078E+02 -0.18066938779E+02  0.27434240281E+02  0.00000000000E+00 0. -1.
</event>
<event>
 7    1  0.6184948E-012  0.5930194E+02  0.7816164E-02  0.1266605E+00
        -11   -1    0    0    0    0  0.00000000000E+00  0.00000000000E+00  0.45593999997E+02  0.45594000000E+02  0.51100000000E-03 0.  1.
         11   -1    0    0    0    0 -0.00000000000E+00 -0.00000000000E+00 -0.45593999997E+02  0.45594000000E+02  0.51100000000E-03 0. -1.
    9900012    2    1    2    0    0  0.26013516012E+02 -0.15463734106E+01  0.18374621523E+02  0.59301937181E+02  0.49999987512E+02 0.  0.
         12    1    1    2    0    0 -0.26013516012E+02  0.15463734106E+01 -0.18374621523E+02  0.31886062819E+02  0.00000000000E+00 0. -1.
         11    1    3    3    0    0 -0.22670943692E+01 -0.16420866763E+02  0.12389229539E+01  0.16622861140E+02  0.51100000000E-03 0. -1.
        -11    1    3    3    0    0  0.73215761276E+01  0.15041550582E+02  0.20479533098E+01  0.16853718697E+02  0.51100000000E-03 0.  1.
        -12    1    3    3    0    0  0.20959034253E+02 -0.16705722939E+00  0.15087745259E+02  0.25825357344E+02  0.00000000000E+00 0.  1.
</event>
<event>
 7    1  0.6184948E-012  0.5930197E+02  0.7816164E-02  0.1266605E+00
        -11   -1    0    0    0    0  0.00000000000E+00  0.00000000000E+00  0.45593999997E+02  0.45594000000E+02  0.51100000000E-03 0.  1.
         11   -1    0    0    0    0 -0.00000000000E+00 -0.00000000000E+00 -0.45593999997E+02  0.45594000000E+02  0.51100000000E-03 0. -1.
    9900012    2    1    2    0    0 -0.71690532478E+00  0.18698750787E+02  0.25817857978E+02  0.59301968186E+02  0.50000044060E+02 0.  0.
         12    1    1    2    0    0  0.71690532478E+00 -0.18698750787E+02 -0.25817857978E+02  0.31886031814E+02  0.00000000000E+00 0. -1.
         11    1    3    3    0    0 -0.99617814361E+01  0.17289312017E+02  0.92935929415E+01  0.22012002849E+02  0.51100000000E-03 0. -1.
        -11    1    3    3    0    0  0.88844205933E+01  0.16043779011E+02  0.12196847819E+02  0.22024960186E+02  0.51100000000E-03 0.  1.
         12    1    3    3    0    0  0.36045551794E+00 -0.14634340241E+02  0.43274172176E+01  0.15265005151E+02  0.00000000000E+00 0. -1.
</event>
<event>
 7    1  0.6184948E-012  0.5930193E+02  0.7816164E-02  0.1266605E+00
        -11   -1    0    0    0    0  0.00000000000E+00  0.00000000000E+00  0.45593999997E+02  0.45594000000E+02  0.51100000000E-03 0.  1.
         11   -1    0    0    0    0 -0.00000000000E+00 -0.00000000000E+00 -0.45593999997E+02  0.45594000000E+02  0.51100000000E-03 0. -1.
    9900012    2    1    2    0    0 -0.22527264026E+02  0.17378016242E+02 -0.14396113937E+02  0.59301934557E+02  0.49999982727E+02 0.  0.
         12    1    1    2    0    0  0.22527264026E+02 -0.17378016242E+02  0.14396113937E+02  0.31886065443E+02  0.00000000000E+00 0. -1.
         11    1    3    3    0    0  0.65523197779E+01 -0.39630628531E+01  0.77924893870E+01  0.10925275866E+02  0.51100000000E-03 0. -1.
        -11    1    3    3    0    0 -0.10503666782E+02  0.17307153815E+01  0.33938995923E+01  0.11173224526E+02  0.51100000000E-03 0.  1.
        -12    1    3    3    0    0 -0.18575917022E+02  0.19610363713E+02 -0.25582502916E+02  0.37203434164E+02  0.00000000000E+00 0.  1.
</event>
<event>
 7    1  0.6184948E-012  0.5930195E+02  0.7816164E-02  0.1266605E+00
        -11   -1    0    0    0    0  0.00000000000E+00  0.00000000000E+00  0.45593999997E+02  0.45594000000E+02  0.51100000000E-03 0.  1.
         11   -1    0    0    0    0 -0.00000000000E+00 -0.00000000000E+00 -0.45593999997E+02  0.45594000000E+02  0.51100000000E-03 0. -1.
    9900012    2    1    2    0    0 -0.25406845212E+02 -0.58433447327E+01  0.18359405606E+02  0.59301949202E+02  0.50000009437E+02 0.  0.
         12    1    1    2    0    0  0.25406845212E+02  0.58433447327E+01 -0.18359405606E+02  0.31886050798E+02  0.00000000000E+00 0. -1.
         11    1    3    3    0    0 -0.23974936247E+02 -0.71408910466E+01  0.74535211236E+01  0.26102583596E+02  0.51100000000E-03 0. -1.
        -11    1    3    3    0    0 -0.10930906037E+02 -0.91661417861E+01 -0.15655867761E+01  0.14351094880E+02  0.51100000000E-03 0.  1.
         12    1    3    3    0    0  0.94989970726E+01  0.10463688100E+02  0.12471471258E+02  0.18848270726E+02  0.00000000000E+00 0. -1.
</event>
<event>
 7    1  0.6184948E-012  0.5930228E+02  0.7816164E-02  0.1266604E+00
        -11   -1    0    0    0    0  0.00000000000E+00  0.00000000000E+00  0.45593999997E+02  0.45594000000E+02  0.51100000000E-03 0.  1.
         11   -1    0    0    0    0 -0.00000000000E+00 -0.00000000000E+00 -0.45593999997E+02  0.45594000000E+02  0.51100000000E-03 0. -1.
    9900012    2    1    2    0    0  0.53409493710E+01  0.27571958150E+02  0.15098357989E+02  0.59302281718E+02  0.50000615863E+02 0.  0.
         12    1    1    2    0    0 -0.53409493710E+01 -0.27571958150E+02 -0.15098357989E+02  0.31885718282E+02  0.00000000000E+00 0. -1.
         11    1    3    3    0    0 -0.12752345044E+01  0.85055761490E+00 -0.10267407327E+02  0.10381200546E+02  0.51100000000E-03 0. -1.
        -11    1    3    3    0    0  0.84242146745E+01 -0.13654416571E+01 -0.29185643639E+01  0.90194147265E+01  0.51100000000E-03 0.  1.
        -12    1    3    3    0    0 -0.18080307992E+01  0.28086842192E+02  0.28284329680E+02  0.39901666445E+02  0.00000000000E+00 0.  1.
</event>
<event>
 7    1  0.6184948E-012  0.5930195E+02  0.7816164E-02  0.1266605E+00
        -11   -1    0    0    0    0  0.00000000000E+00  0.00000000000E+00  0.45593999997E+02  0.45594000000E+02  0.51100000000E-03 0. -1.
         11   -1    0    0    0    0 -0.00000000000E+00 -0.00000000000E+00 -0.45593999997E+02  0.45594000000E+02  0.51100000000E-03 0.  1.
    9900012    2    1    2    0    0  0.31362384294E+02  0.39578049699E+01 -0.41781603522E+01  0.59301946736E+02  0.50000004940E+02 0.  0.
         12    1    1    2    0    0 -0.31362384294E+02 -0.39578049699E+01  0.41781603522E+01  0.31886053264E+02  0.00000000000E+00 0. -1.
         11    1    3    3    0    0 -0.79637938966E+01  0.42085412107E+01 -0.38386028299E+01  0.97912565229E+01  0.51100000000E-03 0. -1.
        -11    1    3    3    0    0  0.15256327844E+02 -0.32002382211E+01 -0.14617392306E+02  0.21369726766E+02  0.51100000000E-03 0.  1.
        -12    1    3    3    0    0  0.24069850347E+02  0.29495019803E+01  0.14277834784E+02  0.28140963448E+02  0.00000000000E+00 0.  1.
</event>
<event>
 7    1  0.6184948E-012  0.5930199E+02  0.7816164E-02  0.1266605E+00
        -11   -1    0    0    0    0  0.00000000000E+00  0.00000000000E+00  0.45593999997E+02  0.45594000000E+02  0.51100000000E-03 0. -1.
         11   -1    0    0    0    0 -0.00000000000E+00 -0.00000000000E+00 -0.45593999997E+02  0.45594000000E+02  0.51100000000E-03 0.  1.
    9900012    2    1    2    0    0 -0.20479063309E+02 -0.22417162072E+02 -0.97363430316E+01  0.59301991078E+02  0.50000085808E+02 0.  0.
         12    1    1    2    0    0  0.20479063309E+02  0.22417162072E+02  0.97363430316E+01  0.31886008922E+02  0.00000000000E+00 0. -1.
         11    1    3    3    0    0 -0.19084909388E+02  0.78409133846E+01 -0.57750065333E+01  0.21425787962E+02  0.51100000000E-03 0. -1.
        -11    1    3    3    0    0 -0.56692608743E+01 -0.35164239846E+01  0.60477655145E+01  0.90045113404E+01  0.51100000000E-03 0.  1.
        -12    1    3    3    0    0  0.42751069538E+01 -0.26741651472E+02 -0.10009102013E+02  0.28871691776E+02  0.00000000000E+00 0.  1.
</event>
<event>
 7    1  0.6184948E-012  0.5930195E+02  0.7816164E-02  0.1266605E+00
        -11   -1    0    0    0    0  0.00000000000E+00  0.00000000000E+00  0.45593999997E+02  0.45594000000E+02  0.51100000000E-03 0.  1.
         11   -1    0    0    0    0 -0.00000000000E+00 -0.00000000000E+00 -0.45593999997E+02  0.45594000000E+02  0.51100000000E-03 0. -1.
    9900012    2    1    2    0    0  0.13816849028E+02 -0.60475838753E+01  0.28093446243E+02  0.59301948040E+02  0.50000007318E+02 0.  0.
         12    1    1    2    0    0 -0.13816849028E+02  0.60475838753E+01 -0.28093446243E+02  0.31886051960E+02  0.00000000000E+00 0. -1.
         11    1    3    3    0    0  0.12715527393E+02  0.13232824269E+02  0.14566207783E+02  0.23430038081E+02  0.51100000000E-03 0. -1.
        -11    1    3    3    0    0  0.21337561402E+01  0.61848787814E+01 -0.87017003679E+00  0.66002149177E+01  0.51100000000E-03 0.  1.
        -12    1    3    3    0    0 -0.10324345048E+01 -0.25465286926E+02  0.14397408496E+02  0.29271695042E+02  0.00000000000E+00 0.  1.
</event>
<event>
 7    1  0.6184948E-012  0.5930196E+02  0.7816164E-02  0.1266605E+00
        -11   -1    0    0    0    0  0.00000000000E+00  0.00000000000E+00  0.45593999997E+02  0.45594000000E+02  0.51100000000E-03 0.  1.
         11   -1    0    0    0    0 -0.00000000000E+00 -0.00000000000E+00 -0.45593999997E+02  0.45594000000E+02  0.51100000000E-03 0. -1.
    9900012    2    1    2    0    0 -0.46575750715E+01  0.29040395962E+02  0.12315922376E+02  0.59301959996E+02  0.50000029122E+02 0.  0.
         12    1    1    2    0    0  0.46575750715E+01 -0.29040395962E+02 -0.12315922376E+02  0.31886040004E+02  0.00000000000E+00 0. -1.
         11    1    3    3    0    0 -0.14449499443E+00  0.19191210279E+02  0.77233292266E+01  0.20687514239E+02  0.51100000000E-03 0. -1.
        -11    1    3    3    0    0  0.23662997642E+00  0.20716306653E+02  0.12652015344E+02  0.24275395931E+02  0.51100000000E-03 0.  1.
         12    1    3    3    0    0 -0.47497100535E+01 -0.10867120970E+02 -0.80594221953E+01  0.14339049825E+02  0.00000000000E+00 0. -1.
</event>
<event>
 7    1  0.6184948E-012  0.5930194E+02  0.7816164E-02  0.1266605E+00
        -11   -1    0    0    0    0  0.00000000000E+00  0.00000000000E+00  0.45593999997E+02  0.45594000000E+02  0.51100000000E-03 0.  1.
         11   -1    0    0    0    0 -0.00000000000E+00 -0.00000000000E+00 -0.45593999997E+02  0.45594000000E+02  0.51100000000E-03 0. -1.
    9900012    2    1    2    0    0 -0.99103227323E+01 -0.15198963673E+02  0.26220179677E+02  0.59301940104E+02  0.49999992843E+02 0.  0.
         12    1    1    2    0    0  0.99103227323E+01  0.15198963673E+02 -0.26220179677E+02  0.31886059896E+02  0.00000000000E+00 0. -1.
         11    1    3    3    0    0  0.56892340082E+00 -0.23872353800E+01  0.35744953518E+00  0.24799873038E+01  0.51100000000E-03 0. -1.
        -11    1    3    3    0    0 -0.28522637657E+02 -0.14780193393E+02  0.13414816974E+02  0.34813105152E+02  0.51100000000E-03 0.  1.
        -12    1    3    3    0    0  0.18043391524E+02  0.19684650998E+01  0.12447913169E+02  0.22008847648E+02  0.00000000000E+00 0.  1.
</event>
<event>
 7    1  0.6184948E-012  0.5930193E+02  0.7816164E-02  0.1266605E+00
        -11   -1    0    0    0    0  0.00000000000E+00  0.00000000000E+00  0.45593999997E+02  0.45594000000E+02  0.51100000000E-03 0.  1.
         11   -1    0    0    0    0 -0.00000000000E+00 -0.00000000000E+00 -0.45593999997E+02  0.45594000000E+02  0.51100000000E-03 0. -1.
    9900012    2    1    2    0    0 -0.23715899044E+02 -0.90217958995E+01  0.19310218455E+02  0.59301933992E+02  0.49999981697E+02 0.  0.
         12    1    1    2    0    0  0.23715899044E+02  0.90217958995E+01 -0.19310218455E+02  0.31886066008E+02  0.00000000000E+00 0. -1.
         11    1    3    3    0    0 -0.12239683481E+02 -0.22857676094E+02  0.57213063038E+01  0.26552147827E+02  0.51100000000E-03 0. -1.
        -11    1    3    3    0    0 -0.93281383590E+01 -0.46261019336E+01  0.86019150913E+01  0.13505847913E+02  0.51100000000E-03 0.  1.
         12    1    3    3    0    0 -0.21480772041E+01  0.18461982128E+02  0.49869970595E+01  0.19243938252E+02  0.00000000000E+00 0. -1.
</event>
<event>
 7    1  0.6184948E-012  0.5930193E+02  0.7816164E-02  0.1266605E+00
        -11   -1    0    0    0    0  0.00000000000E+00  0.00000000000E+00  0.45593999997E+02  0.45594000000E+02  0.51100000000E-03 0.  1.
         11   -1    0    0    0    0 -0.00000000000E+00 -0.00000000000E+00 -0.45593999997E+02  0.45594000000E+02  0.51100000000E-03 0. -1.
    9900012    2    1    2    0    0  0.12371812930E+01  0.25264431244E+02  0.19413895208E+02  0.59301930459E+02  0.49999975253E+02 0.  0.
         12    1    1    2    0    0 -0.12371812930E+01 -0.25264431244E+02 -0.19413895208E+02  0.31886069541E+02  0.00000000000E+00 0. -1.
         11    1    3    3    0    0 -0.10278106030E+02 -0.25746795457E+01  0.32722511483E+01  0.11089457434E+02  0.51100000000E-03 0.  1.
        -11    1    3    3    0    0  0.76786969352E+01  0.33347424320E+02  0.20796402619E+02  0.40043769272E+02  0.51100000000E-03 0. -1.
         12    1    3    3    0    0  0.38365903883E+01 -0.55083135302E+01 -0.46547585588E+01  0.81687037524E+01  0.00000000000E+00 0. -1.
</event>
<event>
 7    1  0.6184948E-012  0.5930211E+02  0.7816164E-02  0.1266604E+00
        -11   -1    0    0    0    0  0.00000000000E+00  0.00000000000E+00  0.45593999997E+02  0.45594000000E+02  0.51100000000E-03 0. -1.
         11   -1    0    0    0    0 -0.00000000000E+00 -0.00000000000E+00 -0.45593999997E+02  0.45594000000E+02  0.51100000000E-03 0.  1.
    9900012    2    1    2    0    0  0.10175976653E+01  0.16759551323E+02 -0.27107042330E+02  0.59302112692E+02  0.50000307602E+02 0.  0.
         12    1    1    2    0    0 -0.10175976653E+01 -0.16759551323E+02  0.27107042330E+02  0.31885887308E+02  0.00000000000E+00 0. -1.
         11    1    3    3    0    0 -0.10079459227E+02  0.23010371544E+01  0.79245829415E+01  0.13026483998E+02  0.51100000000E-03 0. -1.
        -11    1    3    3    0    0  0.17212309129E+02  0.10967806398E+02 -0.15846925905E+02  0.25839532186E+02  0.51100000000E-03 0.  1.
         12    1    3    3    0    0 -0.61152522367E+01  0.34907077705E+01 -0.19184699367E+02  0.20436096507E+02  0.00000000000E+00 0. -1.
</event>
<event>
 7    1  0.6184948E-012  0.5930195E+02  0.7816164E-02  0.1266605E+00
        -11   -1    0    0    0    0  0.00000000000E+00  0.00000000000E+00  0.45593999997E+02  0.45594000000E+02  0.51100000000E-03 0. -1.
         11   -1    0    0    0    0 -0.00000000000E+00 -0.00000000000E+00 -0.45593999997E+02  0.45594000000E+02  0.51100000000E-03 0.  1.
    9900012    2    1    2    0    0 -0.26739205931E+01  0.27538272534E+02  0.15849722467E+02  0.59301952773E+02  0.50000015949E+02 0.  0.
         12    1    1    2    0    0  0.26739205931E+01 -0.27538272534E+02 -0.15849722467E+02  0.31886047227E+02  0.00000000000E+00 0. -1.
         11    1    3    3    0    0 -0.23767220092E+02  0.13763253303E+02  0.16644222314E+02  0.32114452028E+02  0.51100000000E-03 0.  1.
        -11    1    3    3    0    0  0.28047473309E+01  0.72035809929E+01  0.14134562651E+00  0.77316340808E+01  0.51100000000E-03 0. -1.
        -12    1    3    3    0    0  0.18288552168E+02  0.65714382376E+01 -0.93584547290E+00  0.19455866664E+02  0.00000000000E+00 0.  1.
</event>
<event>
 7    1  0.6184948E-012  0.5930196E+02  0.7816164E-02  0.1266605E+00
        -11   -1    0    0    0    0  0.00000000000E+00  0.00000000000E+00  0.45593999997E+02  0.45594000000E+02  0.51100000000E-03 0.  1.
         11   -1    0    0    0    0 -0.00000000000E+00 -0.00000000000E+00 -0.45593999997E+02  0.45594000000E+02  0.51100000000E-03 0. -1.
    9900012    2    1    2    0    0  0.90388283622E+01  0.30218914987E+02  0.46729322849E+01  0.59301960150E+02  0.50000029403E+02 0.  0.
         12    1    1    2    0    0 -0.90388283622E+01 -0.30218914987E+02 -0.46729322849E+01  0.31886039850E+02  0.00000000000E+00 0. -1.
         11    1    3    3    0    0 -0.42600140567E+01  0.32979024019E+01  0.22851465571E+01  0.58519889836E+01  0.51100000000E-03 0. -1.
        -11    1    3    3    0    0 -0.14009125902E+02  0.19642973126E+02 -0.40511595563E+01  0.24464543646E+02  0.51100000000E-03 0.  1.
         12    1    3    3    0    0  0.27307968321E+02  0.72780394594E+01  0.64389452841E+01  0.28985427521E+02  0.00000000000E+00 0. -1.
</event>
<event>
 7    1  0.6184948E-012  0.5930196E+02  0.7816164E-02  0.1266605E+00
        -11   -1    0    0    0    0  0.00000000000E+00  0.00000000000E+00  0.45593999997E+02  0.45594000000E+02  0.51100000000E-03 0. -1.
         11   -1    0    0    0    0 -0.00000000000E+00 -0.00000000000E+00 -0.45593999997E+02  0.45594000000E+02  0.51100000000E-03 0.  1.
    9900012    2    1    2    0    0  0.25486357589E+02 -0.33168665376E+01  0.18872291806E+02  0.59301961914E+02  0.50000032621E+02 0.  0.
         12    1    1    2    0    0 -0.25486357589E+02  0.33168665376E+01 -0.18872291806E+02  0.31886038086E+02  0.00000000000E+00 0. -1.
         11    1    3    3    0    0 -0.92088327701E+01 -0.23623192396E+01  0.19917228221E+01  0.97133986451E+01  0.51100000000E-03 0. -1.
        -11    1    3    3    0    0  0.79152011187E+01  0.88657049196E+01 -0.57262850937E+01  0.13192477921E+02  0.51100000000E-03 0.  1.
         12    1    3    3    0    0  0.26779989241E+02 -0.98202522176E+01  0.22606854077E+02  0.36396085348E+02  0.00000000000E+00 0. -1.
</event>
<event>
 7    1  0.6184948E-012  0.5930192E+02  0.7816164E-02  0.1266605E+00
        -11   -1    0    0    0    0  0.00000000000E+00  0.00000000000E+00  0.45593999997E+02  0.45594000000E+02  0.51100000000E-03 0. -1.
         11   -1    0    0    0    0 -0.00000000000E+00 -0.00000000000E+00 -0.45593999997E+02  0.45594000000E+02  0.51100000000E-03 0.  1.
    9900012    2    1    2    0    0  0.21585376951E+02 -0.12977175911E+02 -0.19554703003E+02  0.59301921498E+02  0.49999958910E+02 0.  0.
         12    1    1    2    0    0 -0.21585376951E+02  0.12977175911E+02  0.19554703003E+02  0.31886078502E+02  0.00000000000E+00 0. -1.
         11    1    3    3    0    0  0.20134194866E+02 -0.49980558077E+01  0.65259247852E+01  0.21747506968E+02  0.51100000000E-03 0. -1.
        -11    1    3    3    0    0  0.13408748740E+02 -0.61042379702E+01 -0.16480741124E+02  0.22105906275E+02  0.51100000000E-03 0.  1.
         12    1    3    3    0    0 -0.11957566655E+02 -0.18748821334E+01 -0.95998866636E+01  0.15448508254E+02  0.00000000000E+00 0. -1.
</event>
<event>
 7    1  0.6184948E-012  0.5930194E+02  0.7816164E-02  0.1266605E+00
        -11   -1    0    0    0    0  0.00000000000E+00  0.00000000000E+00  0.45593999997E+02  0.45594000000E+02  0.51100000000E-03 0.  1.
         11   -1    0    0    0    0 -0.00000000000E+00 -0.00000000000E+00 -0.45593999997E+02  0.45594000000E+02  0.51100000000E-03 0. -1.
    9900012    2    1    2    0    0 -0.10109451808E+02 -0.13049924008E+02  0.27280379266E+02  0.59301943088E+02  0.49999998286E+02 0.  0.
         12    1    1    2    0    0  0.10109451808E+02  0.13049924008E+02 -0.27280379266E+02  0.31886056912E+02  0.00000000000E+00 0. -1.
         11    1    3    3    0    0  0.20790591007E+01  0.22718263089E+01  0.19968334972E+01  0.36702896069E+01  0.51100000000E-03 0. -1.
        -11    1    3    3    0    0  0.16236245923E+02 -0.13237285460E+02  0.89337005762E+01  0.22773941562E+02  0.51100000000E-03 0.  1.
         12    1    3    3    0    0 -0.28424756832E+02 -0.20844648569E+01  0.16349845193E+02  0.32857711919E+02  0.00000000000E+00 0. -1.
</event>
<event>
 7    1  0.6184948E-012  0.5930197E+02  0.7816164E-02  0.1266605E+00
        -11   -1    0    0    0    0  0.00000000000E+00  0.00000000000E+00  0.45593999997E+02  0.45594000000E+02  0.51100000000E-03 0.  1.
         11   -1    0    0    0    0 -0.00000000000E+00 -0.00000000000E+00 -0.45593999997E+02  0.45594000000E+02  0.51100000000E-03 0. -1.
    9900012    2    1    2    0    0 -0.23732776305E+02 -0.15257293380E+02  0.14855621670E+02  0.59301965947E+02  0.50000039976E+02 0.  0.
         12    1    1    2    0    0  0.23732776305E+02  0.15257293380E+02 -0.14855621670E+02  0.31886034053E+02  0.00000000000E+00 0. -1.
         11    1    3    3    0    0 -0.10036838516E+02 -0.80237156572E+00  0.75825447650E+01  0.12604638547E+02  0.51100000000E-03 0. -1.
        -11    1    3    3    0    0 -0.21162849928E+02 -0.24686578814E+02  0.92532795401E+00  0.32529211837E+02  0.51100000000E-03 0.  1.
         12    1    3    3    0    0  0.74669121394E+01  0.10231657000E+02  0.63477489514E+01  0.14168115563E+02  0.00000000000E+00 0. -1.
</event>
<event>
 7    1  0.6184948E-012  0.5930196E+02  0.7816164E-02  0.1266605E+00
        -11   -1    0    0    0    0  0.00000000000E+00  0.00000000000E+00  0.45593999997E+02  0.45594000000E+02  0.51100000000E-03 0. -1.
         11   -1    0    0    0    0 -0.00000000000E+00 -0.00000000000E+00 -0.45593999997E+02  0.45594000000E+02  0.51100000000E-03 0.  1.
    9900012    2    1    2    0    0  0.95797342786E+01  0.24997652338E+02  0.17322410186E+02  0.59301955625E+02  0.50000021150E+02 0.  0.
         12    1    1    2    0    0 -0.95797342786E+01 -0.24997652338E+02 -0.17322410186E+02  0.31886044375E+02  0.00000000000E+00 0. -1.
         11    1    3    3    0    0 -0.60955984161E+01  0.43386394905E+01  0.37024949478E+01  0.83479687217E+01  0.51100000000E-03 0. -1.
        -11    1    3    3    0    0  0.12465468568E+02  0.30885906248E+02  0.19634352235E+02  0.38663094798E+02  0.51100000000E-03 0.  1.
         12    1    3    3    0    0  0.32098641270E+01 -0.10226893401E+02 -0.60144369972E+01  0.12290892105E+02  0.00000000000E+00 0. -1.
</event>
<event>
 7    1  0.6184948E-012  0.5930195E+02  0.7816164E-02  0.1266605E+00
        -11   -1    0    0    0    0  0.00000000000E+00  0.00000000000E+00  0.45593999997E+02  0.45594000000E+02  0.51100000000E-03 0.  1.
         11   -1    0    0    0    0 -0.00000000000E+00 -0.00000000000E+00 -0.45593999997E+02  0.45594000000E+02  0.51100000000E-03 0. -1.
    9900012    2    1    2    0    0  0.38529605333E+00  0.31204803032E+02 -0.65446077989E+01  0.59301951695E+02  0.50000013983E+02 0.  0.
         12    1    1    2    0    0 -0.38529605333E+00 -0.31204803032E+02  0.65446077989E+01  0.31886048305E+02  0.00000000000E+00 0. -1.
         11    1    3    3    0    0 -0.13225568382E+02  0.14686327806E+02 -0.92397699082E+01  0.21816902431E+02  0.51100000000E-03 0. -1.
        -11    1    3    3    0    0  0.29612419564E+01 -0.38636432169E+00 -0.12202492955E+02  0.12562605856E+02  0.51100000000E-03 0.  1.
        -12    1    3    3    0    0  0.10649622479E+02  0.16904839547E+02  0.14897655064E+02  0.24922443408E+02  0.00000000000E+00 0.  1.
</event>
<event>
 7    1  0.6184948E-012  0.5930196E+02  0.7816164E-02  0.1266605E+00
        -11   -1    0    0    0    0  0.00000000000E+00  0.00000000000E+00  0.45593999997E+02  0.45594000000E+02  0.51100000000E-03 0.  1.
         11   -1    0    0    0    0 -0.00000000000E+00 -0.00000000000E+00 -0.45593999997E+02  0.45594000000E+02  0.51100000000E-03 0. -1.
    9900012    2    1    2    0    0 -0.15605592842E+02  0.27323638567E+02  0.51578761614E+01  0.59301961692E+02  0.50000032215E+02 0.  0.
         12    1    1    2    0    0  0.15605592842E+02 -0.27323638567E+02 -0.51578761614E+01  0.31886038308E+02  0.00000000000E+00 0. -1.
         11    1    3    3    0    0 -0.67683144516E+00 -0.10816926497E+02  0.96870626511E+01  0.14536271280E+02  0.51100000000E-03 0.  1.
        -11    1    3    3    0    0 -0.14125083612E+02  0.12949789405E+02 -0.38917004537E+01  0.19554037060E+02  0.51100000000E-03 0. -1.
        -12    1    3    3    0    0 -0.80367778491E+00  0.25190775659E+02 -0.63748603603E+00  0.25211653352E+02  0.00000000000E+00 0.  1.
</event>
<event>
 7    1  0.6184948E-012  0.5930197E+02  0.7816164E-02  0.1266605E+00
        -11   -1    0    0    0    0  0.00000000000E+00  0.00000000000E+00  0.45593999997E+02  0.45594000000E+02  0.51100000000E-03 0.  1.
         11   -1    0    0    0    0 -0.00000000000E+00 -0.00000000000E+00 -0.45593999997E+02  0.45594000000E+02  0.51100000000E-03 0. -1.
    9900012    2    1    2    0    0 -0.13485829072E+01 -0.31847689721E+02  0.79048133032E+00  0.59301970502E+02  0.50000048283E+02 0.  0.
         12    1    1    2    0    0  0.13485829072E+01  0.31847689721E+02 -0.79048133032E+00  0.31886029498E+02  0.00000000000E+00 0. -1.
         11    1    3    3    0    0  0.26425919216E+01 -0.72375853061E+01 -0.73012043630E+01  0.10614778308E+02  0.51100000000E-03 0. -1.
        -11    1    3    3    0    0 -0.15098069229E+02  0.27287839065E+01 -0.53665366783E+01  0.16254158613E+02  0.51100000000E-03 0.  1.
         12    1    3    3    0    0  0.11106894400E+02 -0.27338888321E+02  0.13458222372E+02  0.32433033581E+02  0.00000000000E+00 0. -1.
</event>
<event>
 7    1  0.6184948E-012  0.5930194E+02  0.7816164E-02  0.1266605E+00
        -11   -1    0    0    0    0  0.00000000000E+00  0.00000000000E+00  0.45593999997E+02  0.45594000000E+02  0.51100000000E-03 0.  1.
         11   -1    0    0    0    0 -0.00000000000E+00 -0.00000000000E+00 -0.45593999997E+02  0.45594000000E+02  0.51100000000E-03 0. -1.
    9900012    2    1    2    0    0 -0.20837271988E+02 -0.22171348580E+01  0.24033580326E+02  0.59301943891E+02  0.49999999751E+02 0.  0.
         12    1    1    2    0    0  0.20837271988E+02  0.22171348580E+01 -0.24033580326E+02  0.31886056109E+02  0.00000000000E+00 0. -1.
         11    1    3    3    0    0 -0.83090323283E+01 -0.64945937672E+01  0.56832915816E+01  0.11979965355E+02  0.51100000000E-03 0. -1.
        -11    1    3    3    0    0  0.15141826616E+02  0.32858018945E+00  0.30205411584E+01  0.15443657189E+02  0.51100000000E-03 0.  1.
         12    1    3    3    0    0 -0.27670066277E+02  0.39488787198E+01  0.15329747586E+02  0.31878321348E+02  0.00000000000E+00 0. -1.
</event>
<event>
 7    1  0.6184948E-012  0.5930196E+02  0.7816164E-02  0.1266605E+00
        -11   -1    0    0    0    0  0.00000000000E+00  0.00000000000E+00  0.45593999997E+02  0.45594000000E+02  0.51100000000E-03 0. -1.
         11   -1    0    0    0    0 -0.00000000000E+00 -0.00000000000E+00 -0.45593999997E+02  0.45594000000E+02  0.51100000000E-03 0.  1.
    9900012    2    1    2    0    0 -0.94485181925E+01  0.17020322288E+02 -0.25253781025E+02  0.59301963513E+02  0.50000035536E+02 0.  0.
         12    1    1    2    0    0  0.94485181925E+01 -0.17020322288E+02  0.25253781025E+02  0.31886036487E+02  0.00000000000E+00 0. -1.
         11    1    3    3    0    0 -0.17857283897E+02  0.14369182089E-01 -0.25230225505E+02  0.30910306921E+02  0.51100000000E-03 0.  1.
        -11    1    3    3    0    0 -0.72172642864E+00  0.55765712297E+01 -0.94446519093E+01  0.10991837229E+02  0.51100000000E-03 0. -1.
         12    1    3    3    0    0  0.91304921330E+01  0.11429381876E+02  0.94210963896E+01  0.17399819362E+02  0.00000000000E+00 0. -1.
</event>
<event>
 7    1  0.6184948E-012  0.5930196E+02  0.7816164E-02  0.1266605E+00
        -11   -1    0    0    0    0  0.00000000000E+00  0.00000000000E+00  0.45593999997E+02  0.45594000000E+02  0.51100000000E-03 0.  1.
         11   -1    0    0    0    0 -0.00000000000E+00 -0.00000000000E+00 -0.45593999997E+02  0.45594000000E+02  0.51100000000E-03 0. -1.
    9900012    2    1    2    0    0 -0.11921530604E+02  0.63419112245E+01  0.28885586054E+02  0.59301955849E+02  0.50000021560E+02 0.  0.
         12    1    1    2    0    0  0.11921530604E+02 -0.63419112245E+01 -0.28885586054E+02  0.31886044151E+02  0.00000000000E+00 0. -1.
         11    1    3    3    0    0 -0.56176549095E+01  0.37759879404E+01  0.10062699676E+01  0.68431506718E+01  0.51100000000E-03 0. -1.
        -11    1    3    3    0    0  0.14242947547E+01  0.22683712496E+02  0.16515177918E+02  0.28095026785E+02  0.51100000000E-03 0.  1.
        -12    1    3    3    0    0 -0.77281704488E+01 -0.20117789212E+02  0.11364138168E+02  0.24363778392E+02  0.00000000000E+00 0.  1.
</event>
<event>
 7    1  0.6184948E-012  0.5930195E+02  0.7816164E-02  0.1266605E+00
        -11   -1    0    0    0    0  0.00000000000E+00  0.00000000000E+00  0.45593999997E+02  0.45594000000E+02  0.51100000000E-03 0.  1.
         11   -1    0    0    0    0 -0.00000000000E+00 -0.00000000000E+00 -0.45593999997E+02  0.45594000000E+02  0.51100000000E-03 0. -1.
    9900012    2    1    2    0    0  0.10243144600E+02 -0.27648834277E+02 -0.12138381028E+02  0.59301947530E+02  0.50000006386E+02 0.  0.
         12    1    1    2    0    0 -0.10243144600E+02  0.27648834277E+02  0.12138381028E+02  0.31886052470E+02  0.00000000000E+00 0. -1.
         11    1    3    3    0    0  0.91579952956E+01  0.79229622831E+01 -0.11892659843E+02  0.16972847951E+02  0.51100000000E-03 0. -1.
        -11    1    3    3    0    0  0.49790724951E+01 -0.57943017168E-01 -0.40254468505E+01  0.64030260746E+01  0.51100000000E-03 0.  1.
        -12    1    3    3    0    0 -0.38939231910E+01 -0.35513853543E+02  0.37797256652E+01  0.35926073504E+02  0.00000000000E+00 0.  1.
</event>
<event>
 7    1  0.6184948E-012  0.5930188E+02  0.7816164E-02  0.1266605E+00
        -11   -1    0    0    0    0  0.00000000000E+00  0.00000000000E+00  0.45593999997E+02  0.45594000000E+02  0.51100000000E-03 0.  1.
         11   -1    0    0    0    0 -0.00000000000E+00 -0.00000000000E+00 -0.45593999997E+02  0.45594000000E+02  0.51100000000E-03 0. -1.
    9900012    2    1    2    0    0 -0.31269441115E+02 -0.59009567280E+01  0.20311208167E+01  0.59301879356E+02  0.49999882055E+02 0.  0.
         12    1    1    2    0    0  0.31269441115E+02  0.59009567280E+01 -0.20311208167E+01  0.31886120644E+02  0.00000000000E+00 0. -1.
         11    1    3    3    0    0 -0.20210089727E+01 -0.20744658286E+02 -0.10291357163E+01  0.20868264069E+02  0.51100000000E-03 0. -1.
        -11    1    3    3    0    0 -0.65426448330E+01 -0.14159535745E+01 -0.60856969201E+01  0.90469239634E+01  0.51100000000E-03 0.  1.
        -12    1    3    3    0    0 -0.22705787309E+02  0.16259655133E+02  0.91459534531E+01  0.29386691323E+02  0.00000000000E+00 0.  1.
</event>
<event>
 7    1  0.6184948E-012  0.5930196E+02  0.7816164E-02  0.1266605E+00
        -11   -1    0    0    0    0  0.00000000000E+00  0.00000000000E+00  0.45593999997E+02  0.45594000000E+02  0.51100000000E-03 0.  1.
         11   -1    0    0    0    0 -0.00000000000E+00 -0.00000000000E+00 -0.45593999997E+02  0.45594000000E+02  0.51100000000E-03 0. -1.
    9900012    2    1    2    0    0  0.24566249281E+02  0.13944794036E+02 -0.14790598161E+02  0.59301957937E+02  0.50000025368E+02 0.  0.
         12    1    1    2    0    0 -0.24566249281E+02 -0.13944794036E+02  0.14790598161E+02  0.31886042063E+02  0.00000000000E+00 0. -1.
         11    1    3    3    0    0 -0.38766519145E+01  0.25207022533E+01 -0.80636459430E+01  0.92954158633E+01  0.51100000000E-03 0. -1.
        -11    1    3    3    0    0  0.11868157535E+02  0.11229334512E+02  0.15337393603E+02  0.22409523860E+02  0.51100000000E-03 0.  1.
         12    1    3    3    0    0  0.16574743661E+02  0.19475727074E+00 -0.22064345820E+02  0.27597018214E+02  0.00000000000E+00 0. -1.
</event>
<event>
 7    1  0.6184948E-012  0.5930193E+02  0.7816164E-02  0.1266605E+00
        -11   -1    0    0    0    0  0.00000000000E+00  0.00000000000E+00  0.45593999997E+02  0.45594000000E+02  0.51100000000E-03 0. -1.
         11   -1    0    0    0    0 -0.00000000000E+00 -0.00000000000E+00 -0.45593999997E+02  0.45594000000E+02  0.51100000000E-03 0.  1.
    9900012    2    1    2    0    0 -0.52622280092E+01 -0.18564232707E+02 -0.25385025658E+02  0.59301932396E+02  0.49999978786E+02 0.  0.
         12    1    1    2    0    0  0.52622280092E+01  0.18564232707E+02  0.25385025658E+02  0.31886067604E+02  0.00000000000E+00 0. -1.
         11    1    3    3    0    0  0.34904708820E+01 -0.32735476101E+01 -0.17367590940E+02  0.18014791596E+02  0.51100000000E-03 0. -1.
        -11    1    3    3    0    0  0.90691998567E+01  0.43637459707E+01 -0.10616352605E+02  0.14628725434E+02  0.51100000000E-03 0.  1.
         12    1    3    3    0    0 -0.17821898748E+02 -0.19654431068E+02  0.25989178875E+01  0.26658415365E+02  0.00000000000E+00 0. -1.
</event>
<event>
 7    1  0.6184948E-012  0.5930194E+02  0.7816164E-02  0.1266605E+00
        -11   -1    0    0    0    0  0.00000000000E+00  0.00000000000E+00  0.45593999997E+02  0.45594000000E+02  0.51100000000E-03 0.  1.
         11   -1    0    0    0    0 -0.00000000000E+00 -0.00000000000E+00 -0.45593999997E+02  0.45594000000E+02  0.51100000000E-03 0. -1.
    9900012    2    1    2    0    0 -0.29357777535E+01 -0.25102285531E+02  0.19441640792E+02  0.59301938365E+02  0.49999989673E+02 0.  0.
         12    1    1    2    0    0  0.29357777535E+01  0.25102285531E+02 -0.19441640792E+02  0.31886061635E+02  0.00000000000E+00 0. -1.
         11    1    3    3    0    0  0.32576658722E+01 -0.21038924589E+02 -0.42151701884E+01  0.21702912127E+02  0.51100000000E-03 0. -1.
        -11    1    3    3    0    0 -0.15791911176E+02 -0.88685571492E+01  0.11858988633E+02  0.21648819278E+02  0.51100000000E-03 0.  1.
        -12    1    3    3    0    0  0.95984675499E+01  0.48051962079E+01  0.11797822348E+02  0.15950206960E+02  0.00000000000E+00 0.  1.
</event>
<event>
 7    1  0.6184948E-012  0.5930193E+02  0.7816164E-02  0.1266605E+00
        -11   -1    0    0    0    0  0.00000000000E+00  0.00000000000E+00  0.45593999997E+02  0.45594000000E+02  0.51100000000E-03 0. -1.
         11   -1    0    0    0    0 -0.00000000000E+00 -0.00000000000E+00 -0.45593999997E+02  0.45594000000E+02  0.51100000000E-03 0.  1.
    9900012    2    1    2    0    0  0.18321324443E+02 -0.24806344800E+02 -0.81052990372E+01  0.59301928681E+02  0.49999972010E+02 0.  0.
         12    1    1    2    0    0 -0.18321324443E+02  0.24806344800E+02  0.81052990372E+01  0.31886071319E+02  0.00000000000E+00 0. -1.
         11    1    3    3    0    0  0.39133356170E+01 -0.28611303233E+02 -0.11949461569E+02  0.31252367917E+02  0.51100000000E-03 0. -1.
        -11    1    3    3    0    0 -0.43550899656E+01 -0.46495944928E+01  0.38998789691E+01  0.74695778857E+01  0.51100000000E-03 0.  1.
        -12    1    3    3    0    0  0.18763078792E+02  0.84545529261E+01 -0.55716437523E-01  0.20579982878E+02  0.00000000000E+00 0.  1.
</event>
<event>
 7    1  0.6184948E-012  0.5930198E+02  0.7816164E-02  0.1266605E+00
        -11   -1    0    0    0    0  0.00000000000E+00  0.00000000000E+00  0.45593999997E+02  0.45594000000E+02  0.51100000000E-03 0. -1.
         11   -1    0    0    0    0 -0.00000000000E+00 -0.00000000000E+00 -0.45593999997E+02  0.45594000000E+02  0.51100000000E-03 0.  1.
    9900012    2    1    2    0    0  0.12460530944E+02  0.23078379752E+02 -0.18133997181E+02  0.59301979597E+02  0.50000064870E+02 0.  0.
         12    1    1    2    0    0 -0.12460530944E+02 -0.23078379752E+02  0.18133997181E+02  0.31886020403E+02  0.00000000000E+00 0. -1.
         11    1    3    3    0    0  0.82361314728E+01  0.10703512518E+02  0.91056407543E+01  0.16288392667E+02  0.51100000000E-03 0. -1.
        -11    1    3    3    0    0  0.12897330108E+02  0.15300730321E+01 -0.63535691307E+00  0.13003304429E+02  0.51100000000E-03 0.  1.
        -12    1    3    3    0    0 -0.86729306372E+01  0.10844794202E+02 -0.26604281022E+02  0.30010282501E+02  0.00000000000E+00 0.  1.
</event>
<event>
 7    1  0.6184948E-012  0.5930210E+02  0.7816164E-02  0.1266604E+00
        -11   -1    0    0    0    0  0.00000000000E+00  0.00000000000E+00  0.45593999997E+02  0.45594000000E+02  0.51100000000E-03 0.  1.
         11   -1    0    0    0    0 -0.00000000000E+00 -0.00000000000E+00 -0.45593999997E+02  0.45594000000E+02  0.51100000000E-03 0. -1.
    9900012    2    1    2    0    0  0.24933107433E+02 -0.35860632605E+01  0.19549700429E+02  0.59302102132E+02  0.50000288344E+02 0.  0.
         12    1    1    2    0    0 -0.24933107433E+02  0.35860632605E+01 -0.19549700429E+02  0.31885897868E+02  0.00000000000E+00 0. -1.
         11    1    3    3    0    0  0.16468359536E+02  0.19698494271E+01  0.19453289695E+02  0.25563991332E+02  0.51100000000E-03 0. -1.
        -11    1    3    3    0    0 -0.44717335690E+01  0.85481648160E+01 -0.84064180429E+01  0.12795912918E+02  0.51100000000E-03 0.  1.
         12    1    3    3    0    0  0.12936481466E+02 -0.14104077504E+02  0.85028287766E+01  0.20942197883E+02  0.00000000000E+00 0. -1.
</event>
<event>
 7    1  0.6184948E-012  0.5930189E+02  0.7816164E-02  0.1266605E+00
        -11   -1    0    0    0    0  0.00000000000E+00  0.00000000000E+00  0.45593999997E+02  0.45594000000E+02  0.51100000000E-03 0.  1.
         11   -1    0    0    0    0 -0.00000000000E+00 -0.00000000000E+00 -0.45593999997E+02  0.45594000000E+02  0.51100000000E-03 0. -1.
    9900012    2    1    2    0    0 -0.12776449394E+02  0.28643142803E+02  0.57495206530E+01  0.59301885835E+02  0.49999893871E+02 0.  0.
         12    1    1    2    0    0  0.12776449394E+02 -0.28643142803E+02 -0.57495206530E+01  0.31886114165E+02  0.00000000000E+00 0. -1.
         11    1    3    3    0    0 -0.12788783805E+02  0.21973853239E+02  0.15167830972E+02  0.29605173771E+02  0.51100000000E-03 0. -1.
        -11    1    3    3    0    0  0.68812241732E+01 -0.86065843691E+01 -0.13376320259E+01  0.11100171184E+02  0.51100000000E-03 0.  1.
         12    1    3    3    0    0 -0.68688897625E+01  0.15275873934E+02 -0.80806782933E+01  0.18596540880E+02  0.00000000000E+00 0. -1.
</event>
<event>
 7    1  0.6184948E-012  0.5930196E+02  0.7816164E-02  0.1266605E+00
        -11   -1    0    0    0    0  0.00000000000E+00  0.00000000000E+00  0.45593999997E+02  0.45594000000E+02  0.51100000000E-03 0.  1.
         11   -1    0    0    0    0 -0.00000000000E+00 -0.00000000000E+00 -0.45593999997E+02  0.45594000000E+02  0.51100000000E-03 0. -1.
    9900012    2    1    2    0    0  0.14172907389E+02  0.66962767890E+01  0.27767035307E+02  0.59301957969E+02  0.50000025425E+02 0.  0.
         12    1    1    2    0    0 -0.14172907389E+02 -0.66962767890E+01 -0.27767035307E+02  0.31886042031E+02  0.00000000000E+00 0. -1.
         11    1    3    3    0    0  0.77884629236E+01  0.38343830388E+01  0.61130861502E+01  0.10617554829E+02  0.51100000000E-03 0. -1.
        -11    1    3    3    0    0  0.12917652692E+01  0.32129335449E+01  0.34597615890E+02  0.34770484970E+02  0.51100000000E-03 0.  1.
         12    1    3    3    0    0  0.50926791964E+01 -0.35103979476E+00 -0.12943666734E+02  0.13913918170E+02  0.00000000000E+00 0. -1.
</event>
<event>
 7    1  0.6184948E-012  0.5930195E+02  0.7816164E-02  0.1266605E+00
        -11   -1    0    0    0    0  0.00000000000E+00  0.00000000000E+00  0.45593999997E+02  0.45594000000E+02  0.51100000000E-03 0. -1.
         11   -1    0    0    0    0 -0.00000000000E+00 -0.00000000000E+00 -0.45593999997E+02  0.45594000000E+02  0.51100000000E-03 0.  1.
    9900012    2    1    2    0    0  0.66904564970E+01  0.30952348402E+02 -0.37296665426E+01  0.59301945175E+02  0.50000002093E+02 0.  0.
         12    1    1    2    0    0 -0.66904564970E+01 -0.30952348402E+02  0.37296665426E+01  0.31886054825E+02  0.00000000000E+00 0. -1.
         11    1    3    3    0    0 -0.97464260883E-01 -0.68829170513E+01 -0.58875749667E+01  0.90580122360E+01  0.51100000000E-03 0. -1.
        -11    1    3    3    0    0  0.12155661969E+02  0.25102432838E+01  0.68983829420E+01  0.14200321360E+02  0.51100000000E-03 0.  1.
         12    1    3    3    0    0 -0.53677412115E+01  0.35325022170E+02 -0.47404745179E+01  0.36043611579E+02  0.00000000000E+00 0. -1.
</event>
<event>
 7    1  0.6184948E-012  0.5930195E+02  0.7816164E-02  0.1266605E+00
        -11   -1    0    0    0    0  0.00000000000E+00  0.00000000000E+00  0.45593999997E+02  0.45594000000E+02  0.51100000000E-03 0.  1.
         11   -1    0    0    0    0 -0.00000000000E+00 -0.00000000000E+00 -0.45593999997E+02  0.45594000000E+02  0.51100000000E-03 0. -1.
    9900012    2    1    2    0    0  0.26842879001E+02  0.12218043917E+02  0.12120218004E+02  0.59301946078E+02  0.50000003740E+02 0.  0.
         12    1    1    2    0    0 -0.26842879001E+02 -0.12218043917E+02 -0.12120218004E+02  0.31886053922E+02  0.00000000000E+00 0. -1.
         11    1    3    3    0    0  0.16521051573E+02 -0.50732542015E+01 -0.88631872493E+01  0.19422645076E+02  0.51100000000E-03 0. -1.
        -11    1    3    3    0    0  0.16400771658E+02  0.10668740765E+02  0.30268343031E+01  0.19798208673E+02  0.51100000000E-03 0.  1.
         12    1    3    3    0    0 -0.60789442304E+01  0.66225573536E+01  0.17956570950E+02  0.20081092329E+02  0.00000000000E+00 0. -1.
</event>
<event>
 7    1  0.6184948E-012  0.5930196E+02  0.7816164E-02  0.1266605E+00
        -11   -1    0    0    0    0  0.00000000000E+00  0.00000000000E+00  0.45593999997E+02  0.45594000000E+02  0.51100000000E-03 0.  1.
         11   -1    0    0    0    0 -0.00000000000E+00 -0.00000000000E+00 -0.45593999997E+02  0.45594000000E+02  0.51100000000E-03 0. -1.
    9900012    2    1    2    0    0  0.42291259612E+01  0.12488066486E+02  0.29032429914E+02  0.59301963908E+02  0.50000036258E+02 0.  0.
         12    1    1    2    0    0 -0.42291259612E+01 -0.12488066486E+02 -0.29032429914E+02  0.31886036092E+02  0.00000000000E+00 0. -1.
         11    1    3    3    0    0  0.81769058664E+01  0.10483383681E+02  0.85162549269E+01  0.15788911336E+02  0.51100000000E-03 0. -1.
        -11    1    3    3    0    0 -0.10819405357E+02  0.12904253570E+02  0.24762977349E+02  0.29946357708E+02  0.51100000000E-03 0.  1.
         12    1    3    3    0    0  0.68716254522E+01 -0.10899570766E+02 -0.42468023627E+01  0.13566694864E+02  0.00000000000E+00 0. -1.
</event>
<event>
 7    1  0.6184948E-012  0.5930197E+02  0.7816164E-02  0.1266605E+00
        -11   -1    0    0    0    0  0.00000000000E+00  0.00000000000E+00  0.45593999997E+02  0.45594000000E+02  0.51100000000E-03 0.  1.
         11   -1    0    0    0    0 -0.00000000000E+00 -0.00000000000E+00 -0.45593999997E+02  0.45594000000E+02  0.51100000000E-03 0. -1.
    9900012    2    1    2    0    0 -0.46824787125E+00 -0.29632217359E+02 -0.11765686428E+02  0.59301969535E+02  0.50000046519E+02 0.  0.
         12    1    1    2    0    0  0.46824787125E+00  0.29632217359E+02  0.11765686428E+02  0.31886030465E+02  0.00000000000E+00 0. -1.
         11    1    3    3    0    0  0.13294142068E+01 -0.16665059185E+02 -0.10971362476E+02  0.19996558069E+02  0.51100000000E-03 0. -1.
        -11    1    3    3    0    0 -0.36584890358E+01  0.80437654475E+01 -0.12402883706E+02  0.15228861714E+02  0.51100000000E-03 0.  1.
        -12    1    3    3    0    0  0.18608269577E+01 -0.21010923622E+02  0.11608559754E+02  0.24076549752E+02  0.00000000000E+00 0.  1.
</event>
<event>
 7    1  0.6184948E-012  0.5930193E+02  0.7816164E-02  0.1266605E+00
        -11   -1    0    0    0    0  0.00000000000E+00  0.00000000000E+00  0.45593999997E+02  0.45594000000E+02  0.51100000000E-03 0.  1.
         11   -1    0    0    0    0 -0.00000000000E+00 -0.00000000000E+00 -0.45593999997E+02  0.45594000000E+02  0.51100000000E-03 0. -1.
    9900012    2    1    2    0    0  0.21290336641E+02  0.13482725191E+02  0.19536098367E+02  0.59301930122E+02  0.49999974639E+02 0.  0.
         12    1    1    2    0    0 -0.21290336641E+02 -0.13482725191E+02 -0.19536098367E+02  0.31886069878E+02  0.00000000000E+00 0. -1.
         11    1    3    3    0    0 -0.15388816509E+01  0.10907138378E+02 -0.88487836585E+01  0.14129217842E+02  0.51100000000E-03 0. -1.
        -11    1    3    3    0    0  0.10093648659E+02  0.14515993809E+02  0.14565708356E+02  0.22907546348E+02  0.51100000000E-03 0.  1.
         12    1    3    3    0    0  0.12735569633E+02 -0.11940406995E+02  0.13819173670E+02  0.22265165932E+02  0.00000000000E+00 0. -1.
</event>
<event>
 7    1  0.6184948E-012  0.5930194E+02  0.7816164E-02  0.1266605E+00
        -11   -1    0    0    0    0  0.00000000000E+00  0.00000000000E+00  0.45593999997E+02  0.45594000000E+02  0.51100000000E-03 0.  1.
         11   -1    0    0    0    0 -0.00000000000E+00 -0.00000000000E+00 -0.45593999997E+02  0.45594000000E+02  0.51100000000E-03 0. -1.
    9900012    2    1    2    0    0 -0.15633711150E+02 -0.26576258860E+02  0.81246789854E+01  0.59301939285E+02  0.49999991350E+02 0.  0.
         12    1    1    2    0    0  0.15633711150E+02  0.26576258860E+02 -0.81246789854E+01  0.31886060715E+02  0.00000000000E+00 0. -1.
         11    1    3    3    0    0 -0.74160338093E+01 -0.10755366234E+02  0.32946137887E+01  0.13473304738E+02  0.51100000000E-03 0. -1.
        -11    1    3    3    0    0 -0.16876120364E+02 -0.16969039806E+02  0.18055617727E+02  0.29979277548E+02  0.51100000000E-03 0.  1.
         12    1    3    3    0    0  0.86584430241E+01  0.11481471802E+01 -0.13225552531E+02  0.15849356999E+02  0.00000000000E+00 0. -1.
</event>
<event>
 7    1  0.6184948E-012  0.5930194E+02  0.7816164E-02  0.1266605E+00
        -11   -1    0    0    0    0  0.00000000000E+00  0.00000000000E+00  0.45593999997E+02  0.45594000000E+02  0.51100000000E-03 0.  1.
         11   -1    0    0    0    0 -0.00000000000E+00 -0.00000000000E+00 -0.45593999997E+02  0.45594000000E+02  0.51100000000E-03 0. -1.
    9900012    2    1    2    0    0 -0.17870420476E+02 -0.26299450511E+02 -0.23890405692E+01  0.59301944427E+02  0.50000000728E+02 0.  0.
         12    1    1    2    0    0  0.17870420476E+02  0.26299450511E+02  0.23890405692E+01  0.31886055573E+02  0.00000000000E+00 0. -1.
         11    1    3    3    0    0 -0.93154094012E+01  0.36807804570E+01 -0.61588362061E+01  0.11758242248E+02  0.51100000000E-03 0. -1.
        -11    1    3    3    0    0  0.40606852400E+01 -0.26824841448E+02 -0.97079879711E+01  0.28815036249E+02  0.51100000000E-03 0.  1.
        -12    1    3    3    0    0 -0.12615696315E+02 -0.31553895203E+01  0.13477783608E+02  0.18728665930E+02  0.00000000000E+00 0.  1.
</event>
<event>
 7    1  0.6184948E-012  0.5930194E+02  0.7816164E-02  0.1266605E+00
        -11   -1    0    0    0    0  0.00000000000E+00  0.00000000000E+00  0.45593999997E+02  0.45594000000E+02  0.51100000000E-03 0.  1.
         11   -1    0    0    0    0 -0.00000000000E+00 -0.00000000000E+00 -0.45593999997E+02  0.45594000000E+02  0.51100000000E-03 0. -1.
    9900012    2    1    2    0    0  0.69899971752E+01 -0.25454338558E+02 -0.17886803187E+02  0.59301935016E+02  0.49999983564E+02 0.  0.
         12    1    1    2    0    0 -0.69899971752E+01  0.25454338558E+02  0.17886803187E+02  0.31886064984E+02  0.00000000000E+00 0. -1.
         11    1    3    3    0    0  0.33817940882E+01  0.35526329786E+01 -0.14793948002E+02  0.15585847109E+02  0.51100000000E-03 0. -1.
        -11    1    3    3    0    0 -0.36688609821E+01 -0.99773042396E+01 -0.16282670993E+02  0.19445629733E+02  0.51100000000E-03 0.  1.
        -12    1    3    3    0    0  0.72770640690E+01 -0.19029667297E+02  0.13189815808E+02  0.24270458174E+02  0.00000000000E+00 0.  1.
</event>
<event>
 7    1  0.6184948E-012  0.5930173E+02  0.7816164E-02  0.1266606E+00
        -11   -1    0    0    0    0  0.00000000000E+00  0.00000000000E+00  0.45593999997E+02  0.45594000000E+02  0.51100000000E-03 0.  1.
         11   -1    0    0    0    0 -0.00000000000E+00 -0.00000000000E+00 -0.45593999997E+02  0.45594000000E+02  0.51100000000E-03 0. -1.
    9900012    2    1    2    0    0  0.15103620341E+02 -0.12605375362E+02  0.25094212857E+02  0.59301727807E+02  0.49999605665E+02 0.  0.
         12    1    1    2    0    0 -0.15103620341E+02  0.12605375362E+02 -0.25094212857E+02  0.31886272193E+02  0.00000000000E+00 0. -1.
         11    1    3    3    0    0 -0.51529547355E+01  0.36082233092E+00  0.12229234077E+02  0.13275439791E+02  0.51100000000E-03 0. -1.
        -11    1    3    3    0    0  0.73260501736E+01 -0.85851709869E+01  0.25209361578E+02  0.27620428734E+02  0.51100000000E-03 0.  1.
        -12    1    3    3    0    0  0.12930524903E+02 -0.43810267055E+01 -0.12344382798E+02  0.18405859283E+02  0.00000000000E+00 0.  1.
</event>
<event>
 7    1  0.6184948E-012  0.5930194E+02  0.7816164E-02  0.1266605E+00
        -11   -1    0    0    0    0  0.00000000000E+00  0.00000000000E+00  0.45593999997E+02  0.45594000000E+02  0.51100000000E-03 0. -1.
         11   -1    0    0    0    0 -0.00000000000E+00 -0.00000000000E+00 -0.45593999997E+02  0.45594000000E+02  0.51100000000E-03 0.  1.
    9900012    2    1    2    0    0 -0.17076710667E+02  0.87333716385E+01 -0.25472243152E+02  0.59301937236E+02  0.49999987613E+02 0.  0.
         12    1    1    2    0    0  0.17076710667E+02 -0.87333716385E+01  0.25472243152E+02  0.31886062764E+02  0.00000000000E+00 0. -1.
         11    1    3    3    0    0  0.29297273649E+01  0.29776556366E+01 -0.10998110462E+01  0.43196435178E+01  0.51100000000E-03 0.  1.
        -11    1    3    3    0    0  0.91556556742E+01  0.15806170055E+02 -0.68587528864E+01  0.19511625613E+02  0.51100000000E-03 0. -1.
        -12    1    3    3    0    0 -0.29162093706E+02 -0.10050454054E+02 -0.17513679220E+02  0.35470668105E+02  0.00000000000E+00 0.  1.
</event>
<event>
 7    1  0.6184948E-012  0.5930203E+02  0.7816164E-02  0.1266604E+00
        -11   -1    0    0    0    0  0.00000000000E+00  0.00000000000E+00  0.45593999997E+02  0.45594000000E+02  0.51100000000E-03 0. -1.
         11   -1    0    0    0    0 -0.00000000000E+00 -0.00000000000E+00 -0.45593999997E+02  0.45594000000E+02  0.51100000000E-03 0.  1.
    9900012    2    1    2    0    0  0.23932385420E+02 -0.89365260889E+01 -0.19081262721E+02  0.59302028830E+02  0.50000154658E+02 0.  0.
         12    1    1    2    0    0 -0.23932385420E+02  0.89365260889E+01  0.19081262721E+02  0.31885971170E+02  0.00000000000E+00 0. -1.
         11    1    3    3    0    0  0.93981048060E+01 -0.13912055683E+02 -0.65194341991E+01  0.18010349519E+02  0.51100000000E-03 0. -1.
        -11    1    3    3    0    0 -0.11710930828E+02  0.51739154459E+01 -0.18160323668E+01  0.12931097236E+02  0.51100000000E-03 0.  1.
         12    1    3    3    0    0  0.26245211442E+02 -0.19838585216E+00 -0.10745796156E+02  0.28360582075E+02  0.00000000000E+00 0. -1.
</event>
<event>
 7    1  0.6184948E-012  0.5930192E+02  0.7816164E-02  0.1266605E+00
        -11   -1    0    0    0    0  0.00000000000E+00  0.00000000000E+00  0.45593999997E+02  0.45594000000E+02  0.51100000000E-03 0.  1.
         11   -1    0    0    0    0 -0.00000000000E+00 -0.00000000000E+00 -0.45593999997E+02  0.45594000000E+02  0.51100000000E-03 0. -1.
    9900012    2    1    2    0    0 -0.23106126996E+02 -0.20750230144E+02 -0.72288761261E+01  0.59301924577E+02  0.49999964527E+02 0.  0.
         12    1    1    2    0    0  0.23106126996E+02  0.20750230144E+02  0.72288761261E+01  0.31886075423E+02  0.00000000000E+00 0. -1.
         11    1    3    3    0    0 -0.48507869490E+01 -0.10847988216E+02  0.78828287579E+01  0.14260013038E+02  0.51100000000E-03 0.  1.
        -11    1    3    3    0    0 -0.89924850729E+01  0.10312388700E+02  0.54770392282E+01  0.14737981797E+02  0.51100000000E-03 0. -1.
         12    1    3    3    0    0 -0.92628549742E+01 -0.20214630628E+02 -0.20588744112E+02  0.30303929742E+02  0.00000000000E+00 0. -1.
</event>
<event>
 7    1  0.6184948E-012  0.5930195E+02  0.7816164E-02  0.1266605E+00
        -11   -1    0    0    0    0  0.00000000000E+00  0.00000000000E+00  0.45593999997E+02  0.45594000000E+02  0.51100000000E-03 0. -1.
         11   -1    0    0    0    0 -0.00000000000E+00 -0.00000000000E+00 -0.45593999997E+02  0.45594000000E+02  0.51100000000E-03 0.  1.
    9900012    2    1    2    0    0 -0.27483006064E+02 -0.72404957260E+01 -0.14456142582E+02  0.59301945697E+02  0.50000003045E+02 0.  0.
         12    1    1    2    0    0  0.27483006064E+02  0.72404957260E+01  0.14456142582E+02  0.31886054303E+02  0.00000000000E+00 0. -1.
         11    1    3    3    0    0 -0.71913154636E+01  0.70875478945E+01  0.76732961203E+01  0.12681791154E+02  0.51100000000E-03 0. -1.
        -11    1    3    3    0    0  0.52172588930E+01  0.62341862227E+01 -0.29085623714E+01  0.86339216782E+01  0.51100000000E-03 0.  1.
         12    1    3    3    0    0 -0.25508949493E+02 -0.20562229843E+02 -0.19220876331E+02  0.37986232865E+02  0.00000000000E+00 0. -1.
</event>
<event>
 7    1  0.6184948E-012  0.5930194E+02  0.7816164E-02  0.1266605E+00
        -11   -1    0    0    0    0  0.00000000000E+00  0.00000000000E+00  0.45593999997E+02  0.45594000000E+02  0.51100000000E-03 0.  1.
         11   -1    0    0    0    0 -0.00000000000E+00 -0.00000000000E+00 -0.45593999997E+02  0.45594000000E+02  0.51100000000E-03 0. -1.
    9900012    2    1    2    0    0 -0.23626987304E+02 -0.21118824855E+02 -0.35328961852E+01  0.59301942737E+02  0.49999997645E+02 0.  0.
         12    1    1    2    0    0  0.23626987304E+02  0.21118824855E+02  0.35328961852E+01  0.31886057263E+02  0.00000000000E+00 0. -1.
         11    1    3    3    0    0 -0.25509675576E+02 -0.30205761331E+02 -0.40587081793E+01  0.39744240814E+02  0.51100000000E-03 0. -1.
        -11    1    3    3    0    0 -0.30406658238E+01 -0.31372972844E+01  0.40058796523E+01  0.59275083257E+01  0.51100000000E-03 0.  1.
        -12    1    3    3    0    0  0.49233540951E+01  0.12224233760E+02 -0.34800676582E+01  0.13630193596E+02  0.00000000000E+00 0.  1.
</event>
<event>
 7    1  0.6184948E-012  0.5930206E+02  0.7816164E-02  0.1266604E+00
        -11   -1    0    0    0    0  0.00000000000E+00  0.00000000000E+00  0.45593999997E+02  0.45594000000E+02  0.51100000000E-03 0.  1.
         11   -1    0    0    0    0 -0.00000000000E+00 -0.00000000000E+00 -0.45593999997E+02  0.45594000000E+02  0.51100000000E-03 0. -1.
    9900012    2    1    2    0    0 -0.12614326116E+02  0.28745593264E+02  0.55930959934E+01  0.59302061433E+02  0.50000214119E+02 0.  0.
         12    1    1    2    0    0  0.12614326116E+02 -0.28745593264E+02 -0.55930959934E+01  0.31885938567E+02  0.00000000000E+00 0. -1.
         11    1    3    3    0    0 -0.31009602847E+01 -0.78414953273E+01  0.14497530194E+02  0.16771505169E+02  0.51100000000E-03 0. -1.
        -11    1    3    3    0    0 -0.63266113743E+01  0.77211563473E+01  0.39968874678E+01  0.10752552093E+02  0.51100000000E-03 0.  1.
         12    1    3    3    0    0 -0.31867544570E+01  0.28865932244E+02 -0.12901321669E+02  0.31778004171E+02  0.00000000000E+00 0. -1.
</event>
<event>
 7    1  0.6184948E-012  0.5930193E+02  0.7816164E-02  0.1266605E+00
        -11   -1    0    0    0    0  0.00000000000E+00  0.00000000000E+00  0.45593999997E+02  0.45594000000E+02  0.51100000000E-03 0. -1.
         11   -1    0    0    0    0 -0.00000000000E+00 -0.00000000000E+00 -0.45593999997E+02  0.45594000000E+02  0.51100000000E-03 0.  1.
    9900012    2    1    2    0    0  0.39634797087E+01 -0.29514646626E+02 -0.11397270259E+02  0.59301932412E+02  0.49999978815E+02 0.  0.
         12    1    1    2    0    0 -0.39634797087E+01  0.29514646626E+02  0.11397270259E+02  0.31886067588E+02  0.00000000000E+00 0. -1.
         11    1    3    3    0    0 -0.32423722213E+01 -0.27221265099E+01  0.65089027909E+01  0.77645840944E+01  0.51100000000E-03 0.  1.
        -11    1    3    3    0    0 -0.85006830125E+01 -0.24756283713E+02  0.18218435033E+01  0.26238412851E+02  0.51100000000E-03 0. -1.
        -12    1    3    3    0    0  0.15706534942E+02 -0.20362364037E+01 -0.19728016553E+02  0.25298935466E+02  0.00000000000E+00 0.  1.
</event>
<event>
 7    1  0.6184948E-012  0.5930194E+02  0.7816164E-02  0.1266605E+00
        -11   -1    0    0    0    0  0.00000000000E+00  0.00000000000E+00  0.45593999997E+02  0.45594000000E+02  0.51100000000E-03 0.  1.
         11   -1    0    0    0    0 -0.00000000000E+00 -0.00000000000E+00 -0.45593999997E+02  0.45594000000E+02  0.51100000000E-03 0. -1.
    9900012    2    1    2    0    0 -0.27189338708E+02 -0.16108617208E+02  0.42394647541E+01  0.59301941148E+02  0.49999994747E+02 0.  0.
         12    1    1    2    0    0  0.27189338708E+02  0.16108617208E+02 -0.42394647541E+01  0.31886058852E+02  0.00000000000E+00 0. -1.
         11    1    3    3    0    0 -0.56522379804E+01 -0.19872648503E+02  0.16702932819E+00  0.20661506522E+02  0.51100000000E-03 0. -1.
        -11    1    3    3    0    0 -0.14069716839E+02 -0.58512390160E+00  0.17629616550E+02  0.22563303877E+02  0.51100000000E-03 0.  1.
         12    1    3    3    0    0 -0.74673838886E+01  0.43491551965E+01 -0.13557181124E+02  0.16077130748E+02  0.00000000000E+00 0. -1.
</event>
<event>
 7    1  0.6184948E-012  0.5930178E+02  0.7816164E-02  0.1266605E+00
        -11   -1    0    0    0    0  0.00000000000E+00  0.00000000000E+00  0.45593999997E+02  0.45594000000E+02  0.51100000000E-03 0. -1.
         11   -1    0    0    0    0 -0.00000000000E+00 -0.00000000000E+00 -0.45593999997E+02  0.45594000000E+02  0.51100000000E-03 0.  1.
    9900012    2    1    2    0    0 -0.12195263311E+02 -0.82723172711E+01 -0.28276766831E+02  0.59301776914E+02  0.49999695224E+02 0.  0.
         12    1    1    2    0    0  0.12195263311E+02  0.82723172711E+01  0.28276766831E+02  0.31886223086E+02  0.00000000000E+00 0. -1.
         11    1    3    3    0    0  0.11199652824E+02 -0.12304574262E+02 -0.29448101726E-01  0.16638378485E+02  0.51100000000E-03 0. -1.
        -11    1    3    3    0    0  0.30742817935E+01  0.40785630903E+00  0.79539514900E+00  0.32015947618E+01  0.51100000000E-03 0.  1.
        -12    1    3    3    0    0 -0.26469197928E+02  0.36244006818E+01 -0.29042713879E+02  0.39461803668E+02  0.00000000000E+00 0.  1.
</event>
<event>
 7    1  0.6184948E-012  0.5930191E+02  0.7816164E-02  0.1266605E+00
        -11   -1    0    0    0    0  0.00000000000E+00  0.00000000000E+00  0.45593999997E+02  0.45594000000E+02  0.51100000000E-03 0.  1.
         11   -1    0    0    0    0 -0.00000000000E+00 -0.00000000000E+00 -0.45593999997E+02  0.45594000000E+02  0.51100000000E-03 0. -1.
    9900012    2    1    2    0    0  0.17287869192E+01  0.24383365661E+02  0.20474025903E+02  0.59301906451E+02  0.49999931468E+02 0.  0.
         12    1    1    2    0    0 -0.17287869192E+01 -0.24383365661E+02 -0.20474025903E+02  0.31886093549E+02  0.00000000000E+00 0. -1.
         11    1    3    3    0    0  0.42224069846E+01  0.49201325105E+01 -0.50487046101E+01  0.82174109771E+01  0.51100000000E-03 0. -1.
        -11    1    3    3    0    0 -0.95562349451E+01  0.11419579248E+00 -0.75109477349E+01  0.12155204776E+02  0.51100000000E-03 0.  1.
        -12    1    3    3    0    0  0.70626148796E+01  0.19349037358E+02  0.33033678248E+02  0.38929290698E+02  0.00000000000E+00 0.  1.
</event>
<event>
 7    1  0.6184948E-012  0.5930194E+02  0.7816164E-02  0.1266605E+00
        -11   -1    0    0    0    0  0.00000000000E+00  0.00000000000E+00  0.45593999997E+02  0.45594000000E+02  0.51100000000E-03 0. -1.
         11   -1    0    0    0    0 -0.00000000000E+00 -0.00000000000E+00 -0.45593999997E+02  0.45594000000E+02  0.51100000000E-03 0.  1.
    9900012    2    1    2    0    0 -0.10026200647E+02 -0.29444359020E+02  0.70160988847E+01  0.59301943156E+02  0.49999998410E+02 0.  0.
         12    1    1    2    0    0  0.10026200647E+02  0.29444359020E+02 -0.70160988847E+01  0.31886056844E+02  0.00000000000E+00 0. -1.
         11    1    3    3    0    0 -0.42152449411E+01  0.69772651302E+01 -0.61415308481E+01  0.10206317653E+02  0.51100000000E-03 0. -1.
        -11    1    3    3    0    0  0.47397162760E+01  0.10405083531E+01  0.86470725829E+01  0.99156155899E+01  0.51100000000E-03 0.  1.
        -12    1    3    3    0    0 -0.10550671982E+02 -0.37462132504E+02  0.45105571499E+01  0.39180009913E+02  0.00000000000E+00 0.  1.
</event>
<event>
 7    1  0.6184948E-012  0.5930192E+02  0.7816164E-02  0.1266605E+00
        -11   -1    0    0    0    0  0.00000000000E+00  0.00000000000E+00  0.45593999997E+02  0.45594000000E+02  0.51100000000E-03 0.  1.
         11   -1    0    0    0    0 -0.00000000000E+00 -0.00000000000E+00 -0.45593999997E+02  0.45594000000E+02  0.51100000000E-03 0. -1.
    9900012    2    1    2    0    0  0.66240693942E+00 -0.28281064692E+02  0.14712729483E+02  0.59301924483E+02  0.49999964354E+02 0.  0.
         12    1    1    2    0    0 -0.66240693942E+00  0.28281064692E+02 -0.14712729483E+02  0.31886075517E+02  0.00000000000E+00 0. -1.
         11    1    3    3    0    0 -0.82033923969E+01 -0.18735754506E+02 -0.27008626016E+01  0.20630530841E+02  0.51100000000E-03 0. -1.
        -11    1    3    3    0    0 -0.74993358607E+01 -0.13768726201E+02  0.20156162710E+01  0.15807611102E+02  0.51100000000E-03 0.  1.
        -12    1    3    3    0    0  0.16365135197E+02  0.42234160148E+01  0.15397975814E+02  0.22863782539E+02  0.00000000000E+00 0.  1.
</event>
<event>
 7    1  0.6184948E-012  0.5930195E+02  0.7816164E-02  0.1266605E+00
        -11   -1    0    0    0    0  0.00000000000E+00  0.00000000000E+00  0.45593999997E+02  0.45594000000E+02  0.51100000000E-03 0.  1.
         11   -1    0    0    0    0 -0.00000000000E+00 -0.00000000000E+00 -0.45593999997E+02  0.45594000000E+02  0.51100000000E-03 0. -1.
    9900012    2    1    2    0    0  0.53303185454E+01  0.28201405899E+02 -0.13892034049E+02  0.59301949751E+02  0.50000010437E+02 0.  0.
         12    1    1    2    0    0 -0.53303185454E+01 -0.28201405899E+02  0.13892034049E+02  0.31886050249E+02  0.00000000000E+00 0. -1.
         11    1    3    3    0    0  0.57949135065E+01 -0.56042992029E+01 -0.96300449273E+01  0.12558939353E+02  0.51100000000E-03 0. -1.
        -11    1    3    3    0    0 -0.12046614068E+02  0.31570061030E+01  0.37647317971E+01  0.13010027049E+02  0.51100000000E-03 0.  1.
        -12    1    3    3    0    0  0.11582019107E+02  0.30648698999E+02 -0.80267209183E+01  0.33732983349E+02  0.00000000000E+00 0.  1.
</event>
<event>
 7    1  0.6184948E-012  0.5930195E+02  0.7816164E-02  0.1266605E+00
        -11   -1    0    0    0    0  0.00000000000E+00  0.00000000000E+00  0.45593999997E+02  0.45594000000E+02  0.51100000000E-03 0. -1.
         11   -1    0    0    0    0 -0.00000000000E+00 -0.00000000000E+00 -0.45593999997E+02  0.45594000000E+02  0.51100000000E-03 0.  1.
    9900012    2    1    2    0    0 -0.24754963482E+02 -0.69400440328E+01 -0.18861275256E+02  0.59301950818E+02  0.50000012383E+02 0.  0.
         12    1    1    2    0    0  0.24754963482E+02  0.69400440328E+01  0.18861275256E+02  0.31886049182E+02  0.00000000000E+00 0. -1.
         11    1    3    3    0    0 -0.17765050797E+02  0.10237454143E+01  0.97692214805E+01  0.20299821996E+02  0.51100000000E-03 0. -1.
        -11    1    3    3    0    0 -0.15379721867E+02 -0.93432478242E+00 -0.18629213875E+02  0.24175533445E+02  0.51100000000E-03 0.  1.
         12    1    3    3    0    0  0.83898091814E+01 -0.70294646646E+01 -0.10001282861E+02  0.14826595376E+02  0.00000000000E+00 0. -1.
</event>
<event>
 7    1  0.6184948E-012  0.5930195E+02  0.7816164E-02  0.1266605E+00
        -11   -1    0    0    0    0  0.00000000000E+00  0.00000000000E+00  0.45593999997E+02  0.45594000000E+02  0.51100000000E-03 0.  1.
         11   -1    0    0    0    0 -0.00000000000E+00 -0.00000000000E+00 -0.45593999997E+02  0.45594000000E+02  0.51100000000E-03 0. -1.
    9900012    2    1    2    0    0  0.13609064697E+02  0.94313303161E+01  0.27250015242E+02  0.59301953457E+02  0.50000017197E+02 0.  0.
         12    1    1    2    0    0 -0.13609064697E+02 -0.94313303161E+01 -0.27250015242E+02  0.31886046543E+02  0.00000000000E+00 0. -1.
         11    1    3    3    0    0 -0.18392136692E+00 -0.39394402996E+01  0.39109545160E+01  0.55541500188E+01  0.51100000000E-03 0. -1.
        -11    1    3    3    0    0  0.90465656176E+01 -0.11063639325E+02 -0.58011273511E+01  0.15423927625E+02  0.51100000000E-03 0.  1.
         12    1    3    3    0    0  0.47464204468E+01  0.24434409940E+02  0.29140188077E+02  0.38323875813E+02  0.00000000000E+00 0. -1.
</event>
<event>
 7    1  0.6184948E-012  0.5930194E+02  0.7816164E-02  0.1266605E+00
        -11   -1    0    0    0    0  0.00000000000E+00  0.00000000000E+00  0.45593999997E+02  0.45594000000E+02  0.51100000000E-03 0.  1.
         11   -1    0    0    0    0 -0.00000000000E+00 -0.00000000000E+00 -0.45593999997E+02  0.45594000000E+02  0.51100000000E-03 0. -1.
    9900012    2    1    2    0    0 -0.78135948879E+01  0.24713981399E+02  0.18571149914E+02  0.59301941121E+02  0.49999994700E+02 0.  0.
         12    1    1    2    0    0  0.78135948879E+01 -0.24713981399E+02 -0.18571149914E+02  0.31886058879E+02  0.00000000000E+00 0. -1.
         11    1    3    3    0    0  0.15161879847E+01 -0.36742375765E+01  0.23937578552E+00  0.39819780011E+01  0.51100000000E-03 0. -1.
        -11    1    3    3    0    0  0.75983161901E+01  0.27087492341E+02 -0.27323513411E+01  0.28265392167E+02  0.51100000000E-03 0.  1.
        -12    1    3    3    0    0 -0.16928099063E+02  0.13007266348E+01  0.21064125470E+02  0.27054570953E+02  0.00000000000E+00 0.  1.
</event>
<event>
 7    1  0.6184948E-012  0.5930195E+02  0.7816164E-02  0.1266605E+00
        -11   -1    0    0    0    0  0.00000000000E+00  0.00000000000E+00  0.45593999997E+02  0.45594000000E+02  0.51100000000E-03 0.  1.
         11   -1    0    0    0    0 -0.00000000000E+00 -0.00000000000E+00 -0.45593999997E+02  0.45594000000E+02  0.51100000000E-03 0. -1.
    9900012    2    1    2    0    0  0.22552345242E+02  0.21650877093E+02 -0.62730952806E+01  0.59301945380E+02  0.50000002467E+02 0.  0.
         12    1    1    2    0    0 -0.22552345242E+02 -0.21650877093E+02  0.62730952806E+01  0.31886054620E+02  0.00000000000E+00 0. -1.
         11    1    3    3    0    0  0.12203811797E+02  0.74448845166E-01  0.45887774151E+01  0.13038230073E+02  0.51100000000E-03 0. -1.
        -11    1    3    3    0    0  0.24632858788E+02  0.17115553762E+02 -0.67733566575E+01  0.30750581674E+02  0.51100000000E-03 0.  1.
        -12    1    3    3    0    0 -0.14284325344E+02  0.44608744866E+01 -0.40885160382E+01  0.15513133633E+02  0.00000000000E+00 0.  1.
</event>
<event>
 7    1  0.6184948E-012  0.5930193E+02  0.7816164E-02  0.1266605E+00
        -11   -1    0    0    0    0  0.00000000000E+00  0.00000000000E+00  0.45593999997E+02  0.45594000000E+02  0.51100000000E-03 0.  1.
         11   -1    0    0    0    0 -0.00000000000E+00 -0.00000000000E+00 -0.45593999997E+02  0.45594000000E+02  0.51100000000E-03 0. -1.
    9900012    2    1    2    0    0 -0.12675184341E+02  0.15797231732E+02  0.24627392445E+02  0.59301932712E+02  0.49999979362E+02 0.  0.
         12    1    1    2    0    0  0.12675184341E+02 -0.15797231732E+02 -0.24627392445E+02  0.31886067288E+02  0.00000000000E+00 0. -1.
         11    1    3    3    0    0  0.14071055033E+02  0.16687749842E+01  0.53468164166E+01  0.15144895039E+02  0.51100000000E-03 0. -1.
        -11    1    3    3    0    0 -0.10374844850E+02  0.16346136294E+02  0.19713160749E+02  0.27630459360E+02  0.51100000000E-03 0.  1.
        -12    1    3    3    0    0 -0.16371394523E+02 -0.22176795461E+01 -0.43258472145E+00  0.16526578313E+02  0.00000000000E+00 0.  1.
</event>
<event>
 7    1  0.6184948E-012  0.5930195E+02  0.7816164E-02  0.1266605E+00
        -11   -1    0    0    0    0  0.00000000000E+00  0.00000000000E+00  0.45593999997E+02  0.45594000000E+02  0.51100000000E-03 0.  1.
         11   -1    0    0    0    0 -0.00000000000E+00 -0.00000000000E+00 -0.45593999997E+02  0.45594000000E+02  0.51100000000E-03 0. -1.
    9900012    2    1    2    0    0  0.23174385641E+01 -0.23796040281E+02  0.21097349373E+02  0.59301949678E+02  0.50000010304E+02 0.  0.
         12    1    1    2    0    0 -0.23174385641E+01  0.23796040281E+02 -0.21097349373E+02  0.31886050322E+02  0.00000000000E+00 0. -1.
         11    1    3    3    0    0 -0.10714949697E+02 -0.24250075762E+02  0.11111741178E+02  0.28746253908E+02  0.51100000000E-03 0. -1.
        -11    1    3    3    0    0  0.99838884430E+00  0.56197138725E+00  0.16723958788E+02  0.16763155727E+02  0.51100000000E-03 0.  1.
        -12    1    3    3    0    0  0.12033999417E+02 -0.10793590616E+00 -0.67383505927E+01  0.13792540043E+02  0.00000000000E+00 0.  1.
</event>
<event>
 7    1  0.6184948E-012  0.5930195E+02  0.7816164E-02  0.1266605E+00
        -11   -1    0    0    0    0  0.00000000000E+00  0.00000000000E+00  0.45593999997E+02  0.45594000000E+02  0.51100000000E-03 0.  1.
         11   -1    0    0    0    0 -0.00000000000E+00 -0.00000000000E+00 -0.45593999997E+02  0.45594000000E+02  0.51100000000E-03 0. -1.
    9900012    2    1    2    0    0  0.19756109615E+02 -0.60340095689E+00  0.25021036618E+02  0.59301949237E+02  0.50000009501E+02 0.  0.
         12    1    1    2    0    0 -0.19756109615E+02  0.60340095689E+00 -0.25021036618E+02  0.31886050763E+02  0.00000000000E+00 0. -1.
         11    1    3    3    0    0 -0.12118136611E+02 -0.20215999473E+01 -0.10355574869E+00  0.12286041890E+02  0.51100000000E-03 0. -1.
        -11    1    3    3    0    0  0.48210696304E+01  0.10117476021E+02  0.87479547998E+01  0.14217339654E+02  0.51100000000E-03 0.  1.
        -12    1    3    3    0    0  0.27053176595E+02 -0.86992770303E+01  0.16376637567E+02  0.32798567693E+02  0.00000000000E+00 0.  1.
</event>
<event>
 7    1  0.6184948E-012  0.5930195E+02  0.7816164E-02  0.1266605E+00
        -11   -1    0    0    0    0  0.00000000000E+00  0.00000000000E+00  0.45593999997E+02  0.45594000000E+02  0.51100000000E-03 0.  1.
         11   -1    0    0    0    0 -0.00000000000E+00 -0.00000000000E+00 -0.45593999997E+02  0.45594000000E+02  0.51100000000E-03 0. -1.
    9900012    2    1    2    0    0  0.17821114303E+02 -0.67811698846E+01  0.25556680443E+02  0.59301948265E+02  0.50000007728E+02 0.  0.
         12    1    1    2    0    0 -0.17821114303E+02  0.67811698846E+01 -0.25556680443E+02  0.31886051735E+02  0.00000000000E+00 0. -1.
         11    1    3    3    0    0  0.81270913488E+01 -0.98953739530E+01  0.11432110857E+02  0.17165698307E+02  0.51100000000E-03 0.  1.
        -11    1    3    3    0    0 -0.97007564025E+01  0.14005652731E+02  0.31243556171E+01  0.17321217667E+02  0.51100000000E-03 0. -1.
         12    1    3    3    0    0  0.19394779356E+02 -0.10891448662E+02  0.11000213968E+02  0.24815032291E+02  0.00000000000E+00 0. -1.
</event>
<event>
 7    1  0.6184948E-012  0.5930195E+02  0.7816164E-02  0.1266605E+00
        -11   -1    0    0    0    0  0.00000000000E+00  0.00000000000E+00  0.45593999997E+02  0.45594000000E+02  0.51100000000E-03 0. -1.
         11   -1    0    0    0    0 -0.00000000000E+00 -0.00000000000E+00 -0.45593999997E+02  0.45594000000E+02  0.51100000000E-03 0.  1.
    9900012    2    1    2    0    0  0.13113568951E+02 -0.28835998917E+02  0.36386304833E+01  0.59301950449E+02  0.50000011711E+02 0.  0.
         12    1    1    2    0    0 -0.13113568951E+02  0.28835998917E+02 -0.36386304833E+01  0.31886049551E+02  0.00000000000E+00 0. -1.
         11    1    3    3    0    0  0.72454215364E+01 -0.98894950258E+01 -0.67420989621E+01  0.13991216666E+02  0.51100000000E-03 0. -1.
        -11    1    3    3    0    0  0.88522616128E+00 -0.27688230177E+02 -0.37589680887E+01  0.27956243615E+02  0.51100000000E-03 0.  1.
         12    1    3    3    0    0  0.49829212528E+01  0.87417262853E+01  0.14139697534E+02  0.17354490169E+02  0.00000000000E+00 0. -1.
</event>
<event>
 7    1  0.6184948E-012  0.5930194E+02  0.7816164E-02  0.1266605E+00
        -11   -1    0    0    0    0  0.00000000000E+00  0.00000000000E+00  0.45593999997E+02  0.45594000000E+02  0.51100000000E-03 0.  1.
         11   -1    0    0    0    0 -0.00000000000E+00 -0.00000000000E+00 -0.45593999997E+02  0.45594000000E+02  0.51100000000E-03 0. -1.
    9900012    2    1    2    0    0 -0.23249086569E+02 -0.99560134545E+01  0.19418506299E+02  0.59301943218E+02  0.49999998523E+02 0.  0.
         12    1    1    2    0    0  0.23249086569E+02  0.99560134545E+01 -0.19418506299E+02  0.31886056782E+02  0.00000000000E+00 0. -1.
         11    1    3    3    0    0 -0.16444846485E+02 -0.65037381964E+01  0.17341840676E+02  0.24768347235E+02  0.51100000000E-03 0.  1.
        -11    1    3    3    0    0  0.33307574699E+01 -0.94948307872E+01 -0.12327990921E+02  0.15913048653E+02  0.51100000000E-03 0. -1.
         12    1    3    3    0    0 -0.10134997554E+02  0.60425555291E+01  0.14404656544E+02  0.18620547331E+02  0.00000000000E+00 0. -1.
</event>
<event>
 7    1  0.6184948E-012  0.5930199E+02  0.7816164E-02  0.1266605E+00
        -11   -1    0    0    0    0  0.00000000000E+00  0.00000000000E+00  0.45593999997E+02  0.45594000000E+02  0.51100000000E-03 0. -1.
         11   -1    0    0    0    0 -0.00000000000E+00 -0.00000000000E+00 -0.45593999997E+02  0.45594000000E+02  0.51100000000E-03 0.  1.
    9900012    2    1    2    0    0  0.10656729875E+02  0.21854329124E+02 -0.20628617309E+02  0.59301992956E+02  0.50000089234E+02 0.  0.
         12    1    1    2    0    0 -0.10656729875E+02 -0.21854329124E+02  0.20628617309E+02  0.31886007044E+02  0.00000000000E+00 0. -1.
         11    1    3    3    0    0  0.30011647263E+01  0.11451517394E+02 -0.17004722747E+02  0.20719672688E+02  0.51100000000E-03 0. -1.
        -11    1    3    3    0    0 -0.41282185471E+01  0.21356405781E+02 -0.53543543654E+01  0.22401057278E+02  0.51100000000E-03 0.  1.
         12    1    3    3    0    0  0.11783783696E+02 -0.10953594051E+02  0.17304598030E+01  0.16181262990E+02  0.00000000000E+00 0. -1.
</event>
<event>
 7    1  0.6184948E-012  0.5930194E+02  0.7816164E-02  0.1266605E+00
        -11   -1    0    0    0    0  0.00000000000E+00  0.00000000000E+00  0.45593999997E+02  0.45594000000E+02  0.51100000000E-03 0.  1.
         11   -1    0    0    0    0 -0.00000000000E+00 -0.00000000000E+00 -0.45593999997E+02  0.45594000000E+02  0.51100000000E-03 0. -1.
    9900012    2    1    2    0    0  0.17621161786E+02  0.18374583426E+02  0.19198704350E+02  0.59301938665E+02  0.49999990219E+02 0.  0.
         12    1    1    2    0    0 -0.17621161786E+02 -0.18374583426E+02 -0.19198704350E+02  0.31886061335E+02  0.00000000000E+00 0. -1.
         11    1    3    3    0    0  0.86178961703E+00  0.22498074134E+02 -0.55160917064E+01  0.23180450579E+02  0.51100000000E-03 0. -1.
        -11    1    3    3    0    0 -0.10904621852E+01  0.24193428755E+01  0.14100232708E+02  0.14347783466E+02  0.51100000000E-03 0.  1.
         12    1    3    3    0    0  0.17849834354E+02 -0.65428335829E+01  0.10614563349E+02  0.21773704619E+02  0.00000000000E+00 0. -1.
</event>
<event>
 7    1  0.6184948E-012  0.5930194E+02  0.7816164E-02  0.1266605E+00
        -11   -1    0    0    0    0  0.00000000000E+00  0.00000000000E+00  0.45593999997E+02  0.45594000000E+02  0.51100000000E-03 0.  1.
         11   -1    0    0    0    0 -0.00000000000E+00 -0.00000000000E+00 -0.45593999997E+02  0.45594000000E+02  0.51100000000E-03 0. -1.
    9900012    2    1    2    0    0  0.82688118053E+01 -0.30600720308E+02  0.34559419797E+01  0.59301939300E+02  0.49999991377E+02 0.  0.
         12    1    1    2    0    0 -0.82688118053E+01  0.30600720308E+02 -0.34559419797E+01  0.31886060700E+02  0.00000000000E+00 0. -1.
         11    1    3    3    0    0 -0.59443421905E+01  0.14227205950E+01 -0.14904258892E+02  0.16108887961E+02  0.51100000000E-03 0. -1.
        -11    1    3    3    0    0 -0.28934083357E+01 -0.13363413560E+02  0.49166318578E+01  0.14530172155E+02  0.51100000000E-03 0.  1.
        -12    1    3    3    0    0  0.17106562331E+02 -0.18660027342E+02  0.13443569014E+02  0.28662879183E+02  0.00000000000E+00 0.  1.
</event>
<event>
 7    1  0.6184948E-012  0.5930192E+02  0.7816164E-02  0.1266605E+00
        -11   -1    0    0    0    0  0.00000000000E+00  0.00000000000E+00  0.45593999997E+02  0.45594000000E+02  0.51100000000E-03 0.  1.
         11   -1    0    0    0    0 -0.00000000000E+00 -0.00000000000E+00 -0.45593999997E+02  0.45594000000E+02  0.51100000000E-03 0. -1.
    9900012    2    1    2    0    0  0.22570684668E+02  0.11797837633E+02  0.19185859015E+02  0.59301922077E+02  0.49999959967E+02 0.  0.
         12    1    1    2    0    0 -0.22570684668E+02 -0.11797837633E+02 -0.19185859015E+02  0.31886077923E+02  0.00000000000E+00 0. -1.
         11    1    3    3    0    0  0.47689943722E+00 -0.39276019217E+01  0.87088351201E+01  0.95654220680E+01  0.51100000000E-03 0. -1.
        -11    1    3    3    0    0  0.14763667302E+02  0.17505082598E+02  0.24672158458E+02  0.33661687305E+02  0.51100000000E-03 0.  1.
         12    1    3    3    0    0  0.73301179285E+01 -0.17796430434E+01 -0.14195134563E+02  0.16074812704E+02  0.00000000000E+00 0. -1.
</event>
<event>
 7    1  0.6184948E-012  0.5930193E+02  0.7816164E-02  0.1266605E+00
        -11   -1    0    0    0    0  0.00000000000E+00  0.00000000000E+00  0.45593999997E+02  0.45594000000E+02  0.51100000000E-03 0.  1.
         11   -1    0    0    0    0 -0.00000000000E+00 -0.00000000000E+00 -0.45593999997E+02  0.45594000000E+02  0.51100000000E-03 0. -1.
    9900012    2    1    2    0    0  0.11726019643E+02  0.24436765362E+02  0.16794833607E+02  0.59301929783E+02  0.49999974021E+02 0.  0.
         12    1    1    2    0    0 -0.11726019643E+02 -0.24436765362E+02 -0.16794833607E+02  0.31886070217E+02  0.00000000000E+00 0. -1.
         11    1    3    3    0    0  0.53786372032E-01 -0.24900323534E+01 -0.14853923658E+01  0.28999215225E+01  0.51100000000E-03 0. -1.
        -11    1    3    3    0    0  0.14796981432E+02  0.10483247055E+02 -0.12041009084E+02  0.21767752028E+02  0.51100000000E-03 0.  1.
        -12    1    3    3    0    0 -0.31247481609E+01  0.16443550660E+02  0.30321235057E+02  0.34634256232E+02  0.00000000000E+00 0.  1.
</event>
<event>
 7    1  0.6184948E-012  0.5930195E+02  0.7816164E-02  0.1266605E+00
        -11   -1    0    0    0    0  0.00000000000E+00  0.00000000000E+00  0.45593999997E+02  0.45594000000E+02  0.51100000000E-03 0. -1.
         11   -1    0    0    0    0 -0.00000000000E+00 -0.00000000000E+00 -0.45593999997E+02  0.45594000000E+02  0.51100000000E-03 0.  1.
    9900012    2    1    2    0    0  0.77390780395E+01  0.56049677513E+01 -0.30420569977E+02  0.59301951795E+02  0.50000014167E+02 0.  0.
         12    1    1    2    0    0 -0.77390780395E+01 -0.56049677513E+01  0.30420569977E+02  0.31886048205E+02  0.00000000000E+00 0. -1.
         11    1    3    3    0    0  0.48918745131E+01  0.13074393286E+02 -0.11918499996E+02  0.18355403522E+02  0.51100000000E-03 0. -1.
        -11    1    3    3    0    0  0.10058491054E+02  0.11068662242E+02 -0.19766157723E+01  0.15086269794E+02  0.51100000000E-03 0.  1.
         12    1    3    3    0    0 -0.72112875278E+01 -0.18538087777E+02 -0.16525454209E+02  0.25860278480E+02  0.00000000000E+00 0. -1.
</event>
<event>
 7    1  0.6184948E-012  0.5930197E+02  0.7816164E-02  0.1266605E+00
        -11   -1    0    0    0    0  0.00000000000E+00  0.00000000000E+00  0.45593999997E+02  0.45594000000E+02  0.51100000000E-03 0. -1.
         11   -1    0    0    0    0 -0.00000000000E+00 -0.00000000000E+00 -0.45593999997E+02  0.45594000000E+02  0.51100000000E-03 0.  1.
    9900012    2    1    2    0    0  0.75702928925E+01  0.27979023915E+02 -0.13288479048E+02  0.59301971882E+02  0.50000050799E+02 0.  0.
         12    1    1    2    0    0 -0.75702928925E+01 -0.27979023915E+02  0.13288479048E+02  0.31886028118E+02  0.00000000000E+00 0. -1.
         11    1    3    3    0    0  0.17335005012E+01  0.16638566645E+01 -0.58908412838E+01  0.63620322444E+01  0.51100000000E-03 0. -1.
        -11    1    3    3    0    0 -0.19097004994E+02  0.67029110835E+01 -0.63043071200E+01  0.21198323171E+02  0.51100000000E-03 0.  1.
         12    1    3    3    0    0  0.24933797385E+02  0.19612256167E+02 -0.10933306444E+01  0.31741616467E+02  0.00000000000E+00 0. -1.
</event>
<event>
 7    1  0.6184948E-012  0.5930193E+02  0.7816164E-02  0.1266605E+00
        -11   -1    0    0    0    0  0.00000000000E+00  0.00000000000E+00  0.45593999997E+02  0.45594000000E+02  0.51100000000E-03 0.  1.
         11   -1    0    0    0    0 -0.00000000000E+00 -0.00000000000E+00 -0.45593999997E+02  0.45594000000E+02  0.51100000000E-03 0. -1.
    9900012    2    1    2    0    0  0.18386879887E+02  0.39567004993E+01  0.25748562110E+02  0.59301932799E+02  0.49999979521E+02 0.  0.
         12    1    1    2    0    0 -0.18386879887E+02 -0.39567004993E+01 -0.25748562110E+02  0.31886067201E+02  0.00000000000E+00 0. -1.
         11    1    3    3    0    0  0.17931373066E+00  0.68628076669E+01 -0.33840648314E+01  0.76538994983E+01  0.51100000000E-03 0. -1.
        -11    1    3    3    0    0  0.21317370795E+02  0.10863209867E+02  0.61948959518E+01  0.24714699317E+02  0.51100000000E-03 0.  1.
        -12    1    3    3    0    0 -0.31098046385E+01 -0.13769317035E+02  0.22937730990E+02  0.26933333983E+02  0.00000000000E+00 0.  1.
</event>
<event>
 7    1  0.6184948E-012  0.5930181E+02  0.7816164E-02  0.1266605E+00
        -11   -1    0    0    0    0  0.00000000000E+00  0.00000000000E+00  0.45593999997E+02  0.45594000000E+02  0.51100000000E-03 0.  1.
         11   -1    0    0    0    0 -0.00000000000E+00 -0.00000000000E+00 -0.45593999997E+02  0.45594000000E+02  0.51100000000E-03 0. -1.
    9900012    2    1    2    0    0  0.31115435515E+02 -0.20240438240E+01  0.66680072525E+01  0.59301805473E+02  0.49999747310E+02 0.  0.
         12    1    1    2    0    0 -0.31115435515E+02  0.20240438240E+01 -0.66680072525E+01  0.31886194527E+02  0.00000000000E+00 0. -1.
         11    1    3    3    0    0 -0.41553687276E-01 -0.78596997709E+01 -0.48914291660E+01  0.92575745606E+01  0.51100000000E-03 0. -1.
        -11    1    3    3    0    0  0.33932806433E+02 -0.48986318756E+01  0.36227620852E+00  0.34286487003E+02  0.51100000000E-03 0.  1.
         12    1    3    3    0    0 -0.27758172315E+01  0.10734287823E+02  0.11197160210E+02  0.15757743910E+02  0.00000000000E+00 0. -1.
</event>
<event>
 7    1  0.6184948E-012  0.5930197E+02  0.7816164E-02  0.1266605E+00
        -11   -1    0    0    0    0  0.00000000000E+00  0.00000000000E+00  0.45593999997E+02  0.45594000000E+02  0.51100000000E-03 0.  1.
         11   -1    0    0    0    0 -0.00000000000E+00 -0.00000000000E+00 -0.45593999997E+02  0.45594000000E+02  0.51100000000E-03 0. -1.
    9900012    2    1    2    0    0  0.10624763124E+02 -0.19094474880E+02  0.23221422969E+02  0.59301967837E+02  0.50000043423E+02 0.  0.
         12    1    1    2    0    0 -0.10624763124E+02  0.19094474880E+02 -0.23221422969E+02  0.31886032163E+02  0.00000000000E+00 0. -1.
         11    1    3    3    0    0 -0.18247294909E+01  0.21643696286E+01  0.12067425393E+02  0.12395034872E+02  0.51100000000E-03 0. -1.
        -11    1    3    3    0    0  0.12224003685E+02 -0.75470466537E+01  0.24094121861E+02  0.28051931980E+02  0.51100000000E-03 0.  1.
         12    1    3    3    0    0  0.22548892990E+00 -0.13711797854E+02 -0.12940124285E+02  0.18855000985E+02  0.00000000000E+00 0. -1.
</event>
<event>
 7    1  0.6184948E-012  0.5930183E+02  0.7816164E-02  0.1266605E+00
        -11   -1    0    0    0    0  0.00000000000E+00  0.00000000000E+00  0.45593999997E+02  0.45594000000E+02  0.51100000000E-03 0. -1.
         11   -1    0    0    0    0 -0.00000000000E+00 -0.00000000000E+00 -0.45593999997E+02  0.45594000000E+02  0.51100000000E-03 0.  1.
    9900012    2    1    2    0    0 -0.19997597761E+02 -0.17925215199E+02 -0.17190421558E+02  0.59301829809E+02  0.49999791692E+02 0.  0.
         12    1    1    2    0    0  0.19997597761E+02  0.17925215199E+02  0.17190421558E+02  0.31886170191E+02  0.00000000000E+00 0. -1.
         11    1    3    3    0    0  0.10872510289E+02 -0.39961679435E+01  0.18430028557E+00  0.11585111354E+02  0.51100000000E-03 0. -1.
        -11    1    3    3    0    0 -0.18745672157E+02 -0.72891074835E+00 -0.22287936740E+02  0.29132175681E+02  0.51100000000E-03 0.  1.
         12    1    3    3    0    0 -0.12124435893E+02 -0.13200136507E+02  0.49132148964E+01  0.18584542774E+02  0.00000000000E+00 0. -1.
</event>
<event>
 7    1  0.6184948E-012  0.5930196E+02  0.7816164E-02  0.1266605E+00
        -11   -1    0    0    0    0  0.00000000000E+00  0.00000000000E+00  0.45593999997E+02  0.45594000000E+02  0.51100000000E-03 0.  1.
         11   -1    0    0    0    0 -0.00000000000E+00 -0.00000000000E+00 -0.45593999997E+02  0.45594000000E+02  0.51100000000E-03 0. -1.
    9900012    2    1    2    0    0  0.27642261087E+02 -0.57318301292E+01  0.14824683953E+02  0.59301957145E+02  0.50000023923E+02 0.  0.
         12    1    1    2    0    0 -0.27642261087E+02  0.57318301292E+01 -0.14824683953E+02  0.31886042855E+02  0.00000000000E+00 0. -1.
         11    1    3    3    0    0  0.75213984277E+01 -0.15515049025E+02  0.13143737361E+01  0.17292072147E+02  0.51100000000E-03 0. -1.
        -11    1    3    3    0    0 -0.36121166506E+01 -0.53924721673E+01 -0.50940317842E+01  0.82507758939E+01  0.51100000000E-03 0.  1.
        -12    1    3    3    0    0  0.23732979310E+02  0.15175691064E+02  0.18604342001E+02  0.33759109104E+02  0.00000000000E+00 0.  1.
</event>
<event>
 7    1  0.6184948E-012  0.5930195E+02  0.7816164E-02  0.1266605E+00
        -11   -1    0    0    0    0  0.00000000000E+00  0.00000000000E+00  0.45593999997E+02  0.45594000000E+02  0.51100000000E-03 0.  1.
         11   -1    0    0    0    0 -0.00000000000E+00 -0.00000000000E+00 -0.45593999997E+02  0.45594000000E+02  0.51100000000E-03 0. -1.
    9900012    2    1    2    0    0  0.15029822260E+02 -0.92884511934E+01  0.26543343950E+02  0.59301953039E+02  0.50000016434E+02 0.  0.
         12    1    1    2    0    0 -0.15029822260E+02  0.92884511934E+01 -0.26543343950E+02  0.31886046961E+02  0.00000000000E+00 0. -1.
         11    1    3    3    0    0  0.57144460147E+01 -0.57171964890E+01  0.20949197658E+02  0.22454623393E+02  0.51100000000E-03 0. -1.
        -11    1    3    3    0    0  0.17983863767E+02 -0.82920516564E+01  0.13695446953E+02  0.24077847582E+02  0.51100000000E-03 0.  1.
         12    1    3    3    0    0 -0.86684875210E+01  0.47207969520E+01 -0.81013006614E+01  0.12769482064E+02  0.00000000000E+00 0. -1.
</event>
<event>
 7    1  0.6184948E-012  0.5930194E+02  0.7816164E-02  0.1266605E+00
        -11   -1    0    0    0    0  0.00000000000E+00  0.00000000000E+00  0.45593999997E+02  0.45594000000E+02  0.51100000000E-03 0.  1.
         11   -1    0    0    0    0 -0.00000000000E+00 -0.00000000000E+00 -0.45593999997E+02  0.45594000000E+02  0.51100000000E-03 0. -1.
    9900012    2    1    2    0    0  0.19799033013E+02 -0.19191939183E+02  0.16012137365E+02  0.59301940650E+02  0.49999993841E+02 0.  0.
         12    1    1    2    0    0 -0.19799033013E+02  0.19191939183E+02 -0.16012137365E+02  0.31886059350E+02  0.00000000000E+00 0. -1.
         11    1    3    3    0    0  0.11597680750E+02  0.85221591412E+01 -0.42372553209E+01  0.15002923985E+02  0.51100000000E-03 0. -1.
        -11    1    3    3    0    0  0.95103187850E+01 -0.31477873454E+01  0.16656446953E+02  0.19436870991E+02  0.51100000000E-03 0.  1.
        -12    1    3    3    0    0 -0.13089665216E+01 -0.24566310979E+02  0.35929457323E+01  0.24862145674E+02  0.00000000000E+00 0.  1.
</event>
<event>
 7    1  0.6184948E-012  0.5930198E+02  0.7816164E-02  0.1266605E+00
        -11   -1    0    0    0    0  0.00000000000E+00  0.00000000000E+00  0.45593999997E+02  0.45594000000E+02  0.51100000000E-03 0.  1.
         11   -1    0    0    0    0 -0.00000000000E+00 -0.00000000000E+00 -0.45593999997E+02  0.45594000000E+02  0.51100000000E-03 0. -1.
    9900012    2    1    2    0    0  0.90780543921E+00 -0.23869225417E+02  0.21122359221E+02  0.59301982817E+02  0.50000070742E+02 0.  0.
         12    1    1    2    0    0 -0.90780543921E+00  0.23869225417E+02 -0.21122359221E+02  0.31886017183E+02  0.00000000000E+00 0. -1.
         11    1    3    3    0    0  0.47937937123E+01  0.27129946827E+01 -0.61496963162E+01  0.82558805313E+01  0.51100000000E-03 0. -1.
        -11    1    3    3    0    0  0.41915128020E+00 -0.22373836059E+01 -0.78061305884E+01  0.81312513318E+01  0.51100000000E-03 0.  1.
        -12    1    3    3    0    0 -0.43051395533E+01 -0.24344836494E+02  0.35078186126E+02  0.42914850954E+02  0.00000000000E+00 0.  1.
</event>
<event>
 7    1  0.6184948E-012  0.5930194E+02  0.7816164E-02  0.1266605E+00
        -11   -1    0    0    0    0  0.00000000000E+00  0.00000000000E+00  0.45593999997E+02  0.45594000000E+02  0.51100000000E-03 0.  1.
         11   -1    0    0    0    0 -0.00000000000E+00 -0.00000000000E+00 -0.45593999997E+02  0.45594000000E+02  0.51100000000E-03 0. -1.
    9900012    2    1    2    0    0  0.12696059171E+02  0.25364584922E+02  0.14566004686E+02  0.59301943811E+02  0.49999999605E+02 0.  0.
         12    1    1    2    0    0 -0.12696059171E+02 -0.25364584922E+02 -0.14566004686E+02  0.31886056189E+02  0.00000000000E+00 0. -1.
         11    1    3    3    0    0 -0.11966043746E+02  0.75718600275E+01 -0.45821082624E+01  0.14883379441E+02  0.51100000000E-03 0. -1.
        -11    1    3    3    0    0  0.12626233525E+02  0.18936974546E+02  0.12176770107E+01  0.22792839129E+02  0.51100000000E-03 0.  1.
        -12    1    3    3    0    0  0.12035869392E+02 -0.11442496515E+01  0.17930435938E+02  0.21625725241E+02  0.00000000000E+00 0.  1.
</event>
<event>
 7    1  0.6184948E-012  0.5930226E+02  0.7816164E-02  0.1266604E+00
        -11   -1    0    0    0    0  0.00000000000E+00  0.00000000000E+00  0.45593999997E+02  0.45594000000E+02  0.51100000000E-03 0.  1.
         11   -1    0    0    0    0 -0.00000000000E+00 -0.00000000000E+00 -0.45593999997E+02  0.45594000000E+02  0.51100000000E-03 0. -1.
    9900012    2    1    2    0    0  0.27533891287E+02 -0.46638762439E+01  0.15389385769E+02  0.59302264861E+02  0.50000585119E+02 0.  0.
         12    1    1    2    0    0 -0.27533891287E+02  0.46638762439E+01 -0.15389385769E+02  0.31885735139E+02  0.00000000000E+00 0. -1.
         11    1    3    3    0    0  0.48203021720E+01 -0.71755607837E+01 -0.71457042172E+01  0.11215394537E+02  0.51100000000E-03 0. -1.
        -11    1    3    3    0    0  0.24110050569E+01  0.16195844781E+02  0.27399588144E+01  0.16601979042E+02  0.51100000000E-03 0.  1.
        -12    1    3    3    0    0  0.20302584058E+02 -0.13684160241E+02  0.19795131171E+02  0.31484891282E+02  0.00000000000E+00 0.  1.
</event>
<event>
 7    1  0.6184948E-012  0.5930197E+02  0.7816164E-02  0.1266605E+00
        -11   -1    0    0    0    0  0.00000000000E+00  0.00000000000E+00  0.45593999997E+02  0.45594000000E+02  0.51100000000E-03 0.  1.
         11   -1    0    0    0    0 -0.00000000000E+00 -0.00000000000E+00 -0.45593999997E+02  0.45594000000E+02  0.51100000000E-03 0. -1.
    9900012    2    1    2    0    0 -0.18282325705E+02 -0.24963456778E+02  0.77007477267E+01  0.59301966646E+02  0.50000041251E+02 0.  0.
         12    1    1    2    0    0  0.18282325705E+02  0.24963456778E+02 -0.77007477267E+01  0.31886033354E+02  0.00000000000E+00 0. -1.
         11    1    3    3    0    0  0.92637987536E+01 -0.12511616576E+02  0.36776347785E+01  0.15996359414E+02  0.51100000000E-03 0. -1.
        -11    1    3    3    0    0  0.49217234755E+01  0.15652507357E+01  0.59622680249E+01  0.78880930583E+01  0.51100000000E-03 0.  1.
         12    1    3    3    0    0 -0.32467847934E+02 -0.14017090938E+02 -0.19391550767E+01  0.35417514174E+02  0.00000000000E+00 0. -1.
</event>
<event>
 7    1  0.6184948E-012  0.5930195E+02  0.7816164E-02  0.1266605E+00
        -11   -1    0    0    0    0  0.00000000000E+00  0.00000000000E+00  0.45593999997E+02  0.45594000000E+02  0.51100000000E-03 0. -1.
         11   -1    0    0    0    0 -0.00000000000E+00 -0.00000000000E+00 -0.45593999997E+02  0.45594000000E+02  0.51100000000E-03 0.  1.
    9900012    2    1    2    0    0  0.30413994164E+00  0.27060973791E+02  0.16862129300E+02  0.59301949631E+02  0.50000010218E+02 0.  0.
         12    1    1    2    0    0 -0.30413994164E+00 -0.27060973791E+02 -0.16862129300E+02  0.31886050369E+02  0.00000000000E+00 0. -1.
         11    1    3    3    0    0 -0.96338447100E+01  0.41653602717E+01  0.50703422579E+00  0.10508009995E+02  0.51100000000E-03 0. -1.
        -11    1    3    3    0    0  0.42854835220E+00  0.29909745231E+02  0.16898033383E+01  0.29960506489E+02  0.51100000000E-03 0.  1.
        -12    1    3    3    0    0  0.95094362994E+01 -0.70141317116E+01  0.14665291736E+02  0.18833433147E+02  0.00000000000E+00 0.  1.
</event>
<event>
 7    1  0.6184948E-012  0.5930194E+02  0.7816164E-02  0.1266605E+00
        -11   -1    0    0    0    0  0.00000000000E+00  0.00000000000E+00  0.45593999997E+02  0.45594000000E+02  0.51100000000E-03 0. -1.
         11   -1    0    0    0    0 -0.00000000000E+00 -0.00000000000E+00 -0.45593999997E+02  0.45594000000E+02  0.51100000000E-03 0.  1.
    9900012    2    1    2    0    0  0.70536473367E+01  0.25815493763E+02 -0.17335725329E+02  0.59301936718E+02  0.49999986668E+02 0.  0.
         12    1    1    2    0    0 -0.70536473367E+01 -0.25815493763E+02  0.17335725329E+02  0.31886063282E+02  0.00000000000E+00 0. -1.
         11    1    3    3    0    0 -0.10659187981E+02  0.81004594902E+01  0.43807197238E+01  0.14086391941E+02  0.51100000000E-03 0. -1.
        -11    1    3    3    0    0  0.74993974691E+01  0.24148389449E+01  0.73775794814E+01  0.10793567010E+02  0.51100000000E-03 0.  1.
        -12    1    3    3    0    0  0.10213437848E+02  0.15300195328E+02 -0.29094024535E+02  0.34421977767E+02  0.00000000000E+00 0.  1.
</event>
<event>
 7    1  0.6184948E-012  0.5930196E+02  0.7816164E-02  0.1266605E+00
        -11   -1    0    0    0    0  0.00000000000E+00  0.00000000000E+00  0.45593999997E+02  0.45594000000E+02  0.51100000000E-03 0.  1.
         11   -1    0    0    0    0 -0.00000000000E+00 -0.00000000000E+00 -0.45593999997E+02  0.45594000000E+02  0.51100000000E-03 0. -1.
    9900012    2    1    2    0    0  0.16722527048E+02  0.53319153362E+01  0.26620435827E+02  0.59301955472E+02  0.50000020872E+02 0.  0.
         12    1    1    2    0    0 -0.16722527048E+02 -0.53319153362E+01 -0.26620435827E+02  0.31886044528E+02  0.00000000000E+00 0. -1.
         11    1    3    3    0    0  0.12107221291E+02 -0.11931699404E+01  0.14957408997E+02  0.19280366855E+02  0.51100000000E-03 0. -1.
        -11    1    3    3    0    0 -0.71604485122E+01  0.18251296689E+02  0.12718475554E+02  0.23369669968E+02  0.51100000000E-03 0.  1.
         12    1    3    3    0    0  0.11775754269E+02 -0.11726211413E+02 -0.10554487238E+01  0.16651918649E+02  0.00000000000E+00 0. -1.
</event>
<event>
 7    1  0.6184948E-012  0.5930193E+02  0.7816164E-02  0.1266605E+00
        -11   -1    0    0    0    0  0.00000000000E+00  0.00000000000E+00  0.45593999997E+02  0.45594000000E+02  0.51100000000E-03 0. -1.
         11   -1    0    0    0    0 -0.00000000000E+00 -0.00000000000E+00 -0.45593999997E+02  0.45594000000E+02  0.51100000000E-03 0.  1.
    9900012    2    1    2    0    0 -0.29372128942E+02  0.50573905674E+00 -0.12399334369E+02  0.59301933711E+02  0.49999981185E+02 0.  0.
         12    1    1    2    0    0  0.29372128942E+02 -0.50573905674E+00  0.12399334369E+02  0.31886066289E+02  0.00000000000E+00 0. -1.
         11    1    3    3    0    0  0.61105825934E+01 -0.65843441188E+01 -0.14696146041E+02  0.17224096953E+02  0.51100000000E-03 0. -1.
        -11    1    3    3    0    0 -0.26509985656E+02  0.31141116315E+00 -0.70744964481E+01  0.27439475517E+02  0.51100000000E-03 0.  1.
        -12    1    3    3    0    0 -0.89727258789E+01  0.67786720124E+01  0.93713081201E+01  0.14638361241E+02  0.00000000000E+00 0.  1.
</event>
<event>
 7    1  0.6184948E-012  0.5930199E+02  0.7816164E-02  0.1266605E+00
        -11   -1    0    0    0    0  0.00000000000E+00  0.00000000000E+00  0.45593999997E+02  0.45594000000E+02  0.51100000000E-03 0.  1.
         11   -1    0    0    0    0 -0.00000000000E+00 -0.00000000000E+00 -0.45593999997E+02  0.45594000000E+02  0.51100000000E-03 0. -1.
    9900012    2    1    2    0    0 -0.23101523229E+02 -0.35961779929E+01  0.21681897573E+02  0.59301991250E+02  0.50000086121E+02 0.  0.
         12    1    1    2    0    0  0.23101523229E+02  0.35961779929E+01 -0.21681897573E+02  0.31886008750E+02  0.00000000000E+00 0. -1.
         11    1    3    3    0    0 -0.10311343402E+02 -0.70548940113E+01  0.28166435478E+02  0.30813039773E+02  0.51100000000E-03 0. -1.
        -11    1    3    3    0    0 -0.14913609226E+02 -0.28780989756E+01  0.43140798965E+01  0.15789568692E+02  0.51100000000E-03 0.  1.
         12    1    3    3    0    0  0.21234293995E+01  0.63368149940E+01 -0.10798617801E+02  0.12699382784E+02  0.00000000000E+00 0. -1.
</event>
<event>
 7    1  0.6184948E-012  0.5930196E+02  0.7816164E-02  0.1266605E+00
        -11   -1    0    0    0    0  0.00000000000E+00  0.00000000000E+00  0.45593999997E+02  0.45594000000E+02  0.51100000000E-03 0.  1.
         11   -1    0    0    0    0 -0.00000000000E+00 -0.00000000000E+00 -0.45593999997E+02  0.45594000000E+02  0.51100000000E-03 0. -1.
    9900012    2    1    2    0    0  0.18008896464E+02 -0.21060718521E+02  0.15774822191E+02  0.59301964944E+02  0.50000038146E+02 0.  0.
         12    1    1    2    0    0 -0.18008896464E+02  0.21060718521E+02 -0.15774822191E+02  0.31886035056E+02  0.00000000000E+00 0. -1.
         11    1    3    3    0    0  0.71914118220E+01  0.61698216490E+01 -0.61631170091E+01  0.11303411640E+02  0.51100000000E-03 0. -1.
        -11    1    3    3    0    0  0.32976555998E+01  0.64986834434E+01  0.44154760542E+00  0.73008481357E+01  0.51100000000E-03 0.  1.
        -12    1    3    3    0    0  0.75198290418E+01 -0.33729223613E+02  0.21496391594E+02  0.40697705168E+02  0.00000000000E+00 0.  1.
</event>
<event>
 7    1  0.6184948E-012  0.5930195E+02  0.7816164E-02  0.1266605E+00
        -11   -1    0    0    0    0  0.00000000000E+00  0.00000000000E+00  0.45593999997E+02  0.45594000000E+02  0.51100000000E-03 0. -1.
         11   -1    0    0    0    0 -0.00000000000E+00 -0.00000000000E+00 -0.45593999997E+02  0.45594000000E+02  0.51100000000E-03 0.  1.
    9900012    2    1    2    0    0 -0.27743472356E+02  0.93326076883E+01  0.12646043476E+02  0.59301949128E+02  0.50000009302E+02 0.  0.
         12    1    1    2    0    0  0.27743472356E+02 -0.93326076883E+01 -0.12646043476E+02  0.31886050872E+02  0.00000000000E+00 0. -1.
         11    1    3    3    0    0 -0.22845947726E+02  0.89154125142E+00  0.13600811425E+02  0.26602899184E+02  0.51100000000E-03 0. -1.
        -11    1    3    3    0    0 -0.69956599930E+01  0.10344298218E+02 -0.14341217996E+02  0.19016158872E+02  0.51100000000E-03 0.  1.
         12    1    3    3    0    0  0.20981353638E+01 -0.19032317810E+01  0.13386450048E+02  0.13682891072E+02  0.00000000000E+00 0. -1.
</event>
<event>
 7    1  0.6184948E-012  0.5930196E+02  0.7816164E-02  0.1266605E+00
        -11   -1    0    0    0    0  0.00000000000E+00  0.00000000000E+00  0.45593999997E+02  0.45594000000E+02  0.51100000000E-03 0.  1.
         11   -1    0    0    0    0 -0.00000000000E+00 -0.00000000000E+00 -0.45593999997E+02  0.45594000000E+02  0.51100000000E-03 0. -1.
    9900012    2    1    2    0    0 -0.13704064559E+00 -0.22147263741E+02  0.22939031673E+02  0.59301964727E+02  0.50000037750E+02 0.  0.
         12    1    1    2    0    0  0.13704064559E+00  0.22147263741E+02 -0.22939031673E+02  0.31886035273E+02  0.00000000000E+00 0. -1.
         11    1    3    3    0    0  0.76626951451E+01 -0.87351740368E+01  0.22632965881E+02  0.25441527218E+02  0.51100000000E-03 0. -1.
        -11    1    3    3    0    0 -0.11700894549E+01 -0.16297222781E+02  0.11888485279E+02  0.20206549983E+02  0.51100000000E-03 0.  1.
         12    1    3    3    0    0 -0.66296463358E+01  0.28851330770E+01 -0.11582419487E+02  0.13653887526E+02  0.00000000000E+00 0. -1.
</event>
<event>
 7    1  0.6184948E-012  0.5930188E+02  0.7816164E-02  0.1266605E+00
        -11   -1    0    0    0    0  0.00000000000E+00  0.00000000000E+00  0.45593999997E+02  0.45594000000E+02  0.51100000000E-03 0. -1.
         11   -1    0    0    0    0 -0.00000000000E+00 -0.00000000000E+00 -0.45593999997E+02  0.45594000000E+02  0.51100000000E-03 0.  1.
    9900012    2    1    2    0    0  0.10058854764E+02 -0.91069961684E+01 -0.28854920921E+02  0.59301883904E+02  0.49999890348E+02 0.  0.
         12    1    1    2    0    0 -0.10058854764E+02  0.91069961684E+01  0.28854920921E+02  0.31886116096E+02  0.00000000000E+00 0. -1.
         11    1    3    3    0    0  0.14366231615E+02 -0.19153149189E+02 -0.99157821015E+01  0.25914368015E+02  0.51100000000E-03 0.  1.
        -11    1    3    3    0    0  0.68165466137E+01  0.35121505368E+01  0.27543497302E+01  0.81478188386E+01  0.51100000000E-03 0. -1.
        -12    1    3    3    0    0 -0.11123923465E+02  0.65340024839E+01 -0.21693488549E+02  0.25239697050E+02  0.00000000000E+00 0.  1.
</event>
<event>
 7    1  0.6184948E-012  0.5930192E+02  0.7816164E-02  0.1266605E+00
        -11   -1    0    0    0    0  0.00000000000E+00  0.00000000000E+00  0.45593999997E+02  0.45594000000E+02  0.51100000000E-03 0.  1.
         11   -1    0    0    0    0 -0.00000000000E+00 -0.00000000000E+00 -0.45593999997E+02  0.45594000000E+02  0.51100000000E-03 0. -1.
    9900012    2    1    2    0    0  0.30864124656E+02 -0.47626649932E+01 -0.64377605004E+01  0.59301922649E+02  0.49999961010E+02 0.  0.
         12    1    1    2    0    0 -0.30864124656E+02  0.47626649932E+01  0.64377605004E+01  0.31886077351E+02  0.00000000000E+00 0. -1.
         11    1    3    3    0    0 -0.31794599030E+01  0.11200156807E+02 -0.51815229810E+01  0.12743651692E+02  0.51100000000E-03 0. -1.
        -11    1    3    3    0    0  0.61130014648E+01  0.39425859339E+01 -0.88237066295E+01  0.11435496041E+02  0.51100000000E-03 0.  1.
        -12    1    3    3    0    0  0.27930583094E+02 -0.19905407734E+02  0.75674691101E+01  0.35122774916E+02  0.00000000000E+00 0.  1.
</event>
<event>
 7    1  0.6184948E-012  0.5930195E+02  0.7816164E-02  0.1266605E+00
        -11   -1    0    0    0    0  0.00000000000E+00  0.00000000000E+00  0.45593999997E+02  0.45594000000E+02  0.51100000000E-03 0.  1.
         11   -1    0    0    0    0 -0.00000000000E+00 -0.00000000000E+00 -0.45593999997E+02  0.45594000000E+02  0.51100000000E-03 0. -1.
    9900012    2    1    2    0    0 -0.59754210567E+01 -0.29770487773E+02 -0.97330576333E+01  0.59301952739E+02  0.50000015886E+02 0.  0.
         12    1    1    2    0    0  0.59754210567E+01  0.29770487773E+02  0.97330576333E+01  0.31886047261E+02  0.00000000000E+00 0. -1.
         11    1    3    3    0    0  0.12295880036E+02 -0.18548553130E+02 -0.20663778004E+02  0.30368226993E+02  0.51100000000E-03 0. -1.
        -11    1    3    3    0    0  0.24816906402E+01 -0.42030057905E+01  0.20754553642E+01  0.53039194317E+01  0.51100000000E-03 0.  1.
         12    1    3    3    0    0 -0.20752991732E+02 -0.70189288528E+01  0.88552650060E+01  0.23629806314E+02  0.00000000000E+00 0. -1.
</event>
<event>
 7    1  0.6184948E-012  0.5930186E+02  0.7816164E-02  0.1266605E+00
        -11   -1    0    0    0    0  0.00000000000E+00  0.00000000000E+00  0.45593999997E+02  0.45594000000E+02  0.51100000000E-03 0.  1.
         11   -1    0    0    0    0 -0.00000000000E+00 -0.00000000000E+00 -0.45593999997E+02  0.45594000000E+02  0.51100000000E-03 0. -1.
    9900012    2    1    2    0    0  0.89046186205E+01  0.28307208427E+02  0.11667722209E+02  0.59301858445E+02  0.49999843918E+02 0.  0.
         12    1    1    2    0    0 -0.89046186205E+01 -0.28307208427E+02 -0.11667722209E+02  0.31886141555E+02  0.00000000000E+00 0. -1.
         11    1    3    3    0    0  0.44122048581E+01  0.24414241324E+02 -0.98304497833E+00  0.24829198715E+02  0.51100000000E-03 0. -1.
        -11    1    3    3    0    0  0.15890059991E+02  0.10328900942E+02  0.67960370059E+01  0.20133711045E+02  0.51100000000E-03 0.  1.
        -12    1    3    3    0    0 -0.11397646228E+02 -0.64359338390E+01  0.58547301817E+01  0.14338948686E+02  0.00000000000E+00 0.  1.
</event>
<event>
 7    1  0.6184948E-012  0.5930187E+02  0.7816164E-02  0.1266605E+00
        -11   -1    0    0    0    0  0.00000000000E+00  0.00000000000E+00  0.45593999997E+02  0.45594000000E+02  0.51100000000E-03 0.  1.
         11   -1    0    0    0    0 -0.00000000000E+00 -0.00000000000E+00 -0.45593999997E+02  0.45594000000E+02  0.51100000000E-03 0. -1.
    9900012    2    1    2    0    0  0.29325575746E+01 -0.95881481055E+01  0.30268680267E+02  0.59301866915E+02  0.49999859365E+02 0.  0.
         12    1    1    2    0    0 -0.29325575746E+01  0.95881481055E+01 -0.30268680267E+02  0.31886133085E+02  0.00000000000E+00 0. -1.
         11    1    3    3    0    0  0.72462678444E+01  0.16950602090E+02  0.18986189308E+02  0.26463308440E+02  0.51100000000E-03 0. -1.
        -11    1    3    3    0    0 -0.42012739302E+01  0.95898190479E-01  0.14013905079E+01  0.44298752484E+01  0.51100000000E-03 0.  1.
        -12    1    3    3    0    0 -0.11243633958E+00 -0.26634648386E+02  0.98811004506E+01  0.28408683227E+02  0.00000000000E+00 0.  1.
</event>
<event>
 7    1  0.6184948E-012  0.5930192E+02  0.7816164E-02  0.1266605E+00
        -11   -1    0    0    0    0  0.00000000000E+00  0.00000000000E+00  0.45593999997E+02  0.45594000000E+02  0.51100000000E-03 0.  1.
         11   -1    0    0    0    0 -0.00000000000E+00 -0.00000000000E+00 -0.45593999997E+02  0.45594000000E+02  0.51100000000E-03 0. -1.
    9900012    2    1    2    0    0 -0.29283434013E+02  0.80632982739E+01  0.97049332579E+01  0.59301921279E+02  0.49999958512E+02 0.  0.
         12    1    1    2    0    0  0.29283434013E+02 -0.80632982739E+01 -0.97049332579E+01  0.31886078721E+02  0.00000000000E+00 0. -1.
         11    1    3    3    0    0  0.62097869486E+01  0.40443206551E+01  0.18696285873E+01  0.76428721580E+01  0.51100000000E-03 0. -1.
        -11    1    3    3    0    0  0.24500548684E+01  0.66007540522E+00  0.12976276811E+02  0.13222035719E+02  0.51100000000E-03 0.  1.
         12    1    3    3    0    0 -0.37943275830E+02  0.33589022136E+01 -0.51409721408E+01  0.38437013403E+02  0.00000000000E+00 0. -1.
</event>
<event>
 7    1  0.6184948E-012  0.5930195E+02  0.7816164E-02  0.1266605E+00
        -11   -1    0    0    0    0  0.00000000000E+00  0.00000000000E+00  0.45593999997E+02  0.45594000000E+02  0.51100000000E-03 0.  1.
         11   -1    0    0    0    0 -0.00000000000E+00 -0.00000000000E+00 -0.45593999997E+02  0.45594000000E+02  0.51100000000E-03 0. -1.
    9900012    2    1    2    0    0 -0.19649826134E+02 -0.51948860637E+01  0.24568638051E+02  0.59301945305E+02  0.50000002330E+02 0.  0.
         12    1    1    2    0    0  0.19649826134E+02  0.51948860637E+01 -0.24568638051E+02  0.31886054695E+02  0.00000000000E+00 0. -1.
         11    1    3    3    0    0  0.88907513334E+01 -0.24904155039E+01 -0.76179520722E+01  0.11969996771E+02  0.51100000000E-03 0. -1.
        -11    1    3    3    0    0 -0.15650629119E+02  0.38895204520E+01  0.56232596467E+01  0.17078981541E+02  0.51100000000E-03 0.  1.
        -12    1    3    3    0    0 -0.12889948348E+02 -0.65939910118E+01  0.26563330477E+02  0.30252966993E+02  0.00000000000E+00 0.  1.
</event>
<event>
 7    1  0.6184948E-012  0.5930195E+02  0.7816164E-02  0.1266605E+00
        -11   -1    0    0    0    0  0.00000000000E+00  0.00000000000E+00  0.45593999997E+02  0.45594000000E+02  0.51100000000E-03 0. -1.
         11   -1    0    0    0    0 -0.00000000000E+00 -0.00000000000E+00 -0.45593999997E+02  0.45594000000E+02  0.51100000000E-03 0.  1.
    9900012    2    1    2    0    0  0.29371044204E+01 -0.30816975042E+02  0.76424710101E+01  0.59301954522E+02  0.50000019138E+02 0.  0.
         12    1    1    2    0    0 -0.29371044204E+01  0.30816975042E+02 -0.76424710101E+01  0.31886045478E+02  0.00000000000E+00 0. -1.
         11    1    3    3    0    0 -0.79455769889E+01  0.30754048499E+01 -0.39067608664E+01  0.93729978879E+01  0.51100000000E-03 0. -1.
        -11    1    3    3    0    0 -0.11154811918E+02 -0.50127305432E+01  0.23206028447E+01  0.12447589897E+02  0.51100000000E-03 0.  1.
        -12    1    3    3    0    0  0.22037493327E+02 -0.28879649349E+02  0.92286290319E+01  0.37481366737E+02  0.00000000000E+00 0.  1.
</event>
<event>
 7    1  0.6184948E-012  0.5930182E+02  0.7816164E-02  0.1266605E+00
        -11   -1    0    0    0    0  0.00000000000E+00  0.00000000000E+00  0.45593999997E+02  0.45594000000E+02  0.51100000000E-03 0. -1.
         11   -1    0    0    0    0 -0.00000000000E+00 -0.00000000000E+00 -0.45593999997E+02  0.45594000000E+02  0.51100000000E-03 0.  1.
    9900012    2    1    2    0    0 -0.25212018863E+02  0.19184992058E+02 -0.36081632782E+01  0.59301817135E+02  0.49999768578E+02 0.  0.
         12    1    1    2    0    0  0.25212018863E+02 -0.19184992058E+02  0.36081632782E+01  0.31886182865E+02  0.00000000000E+00 0. -1.
         11    1    3    3    0    0 -0.65504198023E+01  0.16351721504E+02  0.70434117212E+01  0.18970936842E+02  0.51100000000E-03 0. -1.
        -11    1    3    3    0    0 -0.47661442911E+01  0.16043936300E+02 -0.12754524949E+02  0.21042859368E+02  0.51100000000E-03 0.  1.
         12    1    3    3    0    0 -0.13895454770E+02 -0.13210665746E+02  0.21029499500E+01  0.19288020925E+02  0.00000000000E+00 0. -1.
</event>
<event>
 7    1  0.6184948E-012  0.5930198E+02  0.7816164E-02  0.1266605E+00
        -11   -1    0    0    0    0  0.00000000000E+00  0.00000000000E+00  0.45593999997E+02  0.45594000000E+02  0.51100000000E-03 0. -1.
         11   -1    0    0    0    0 -0.00000000000E+00 -0.00000000000E+00 -0.45593999997E+02  0.45594000000E+02  0.51100000000E-03 0.  1.
    9900012    2    1    2    0    0 -0.29282975565E+02 -0.26718417565E+01 -0.12332350912E+02  0.59301979939E+02  0.50000065494E+02 0.  0.
         12    1    1    2    0    0  0.29282975565E+02  0.26718417565E+01  0.12332350912E+02  0.31886020061E+02  0.00000000000E+00 0. -1.
         11    1    3    3    0    0 -0.13504902249E+02  0.56055204143E+01 -0.86212306636E+01  0.16974388421E+02  0.51100000000E-03 0. -1.
        -11    1    3    3    0    0 -0.12968778028E+02 -0.50960374153E+01 -0.20624221248E+02  0.24890104525E+02  0.51100000000E-03 0.  1.
         12    1    3    3    0    0 -0.28092952876E+01 -0.31813247555E+01  0.16913101000E+02  0.17437486993E+02  0.00000000000E+00 0. -1.
</event>
<event>
 7    1  0.6184948E-012  0.5930195E+02  0.7816164E-02  0.1266605E+00
        -11   -1    0    0    0    0  0.00000000000E+00  0.00000000000E+00  0.45593999997E+02  0.45594000000E+02  0.51100000000E-03 0.  1.
         11   -1    0    0    0    0 -0.00000000000E+00 -0.00000000000E+00 -0.45593999997E+02  0.45594000000E+02  0.51100000000E-03 0. -1.
    9900012    2    1    2    0    0 -0.67724387635E+01  0.23932599347E+02  0.19952065994E+02  0.59301950139E+02  0.50000011146E+02 0.  0.
         12    1    1    2    0    0  0.67724387635E+01 -0.23932599347E+02 -0.19952065994E+02  0.31886049861E+02  0.00000000000E+00 0. -1.
         11    1    3    3    0    0 -0.43072239046E+01 -0.42124829268E+01  0.23097027052E+01  0.64522799862E+01  0.51100000000E-03 0. -1.
        -11    1    3    3    0    0 -0.13083582311E+02  0.17921496517E+02 -0.77377908461E+01  0.23499650443E+02  0.51100000000E-03 0.  1.
        -12    1    3    3    0    0  0.10618367452E+02  0.10223585757E+02  0.25380154135E+02  0.29350019710E+02  0.00000000000E+00 0.  1.
</event>
<event>
 7    1  0.6184948E-012  0.5930195E+02  0.7816164E-02  0.1266605E+00
        -11   -1    0    0    0    0  0.00000000000E+00  0.00000000000E+00  0.45593999997E+02  0.45594000000E+02  0.51100000000E-03 0. -1.
         11   -1    0    0    0    0 -0.00000000000E+00 -0.00000000000E+00 -0.45593999997E+02  0.45594000000E+02  0.51100000000E-03 0.  1.
    9900012    2    1    2    0    0 -0.39464130891E+00 -0.11697532943E+02 -0.29660283066E+02  0.59301946461E+02  0.50000004438E+02 0.  0.
         12    1    1    2    0    0  0.39464130891E+00  0.11697532943E+02  0.29660283066E+02  0.31886053539E+02  0.00000000000E+00 0. -1.
         11    1    3    3    0    0  0.32358937381E+01 -0.54822315166E+01  0.68644491568E+01  0.93619727181E+01  0.51100000000E-03 0. -1.
        -11    1    3    3    0    0 -0.88583662654E+01 -0.82156134324E+01  0.88476418358E+00  0.12114031735E+02  0.51100000000E-03 0.  1.
        -12    1    3    3    0    0  0.52278312184E+01  0.20003120060E+01 -0.37409496407E+02  0.37825942008E+02  0.00000000000E+00 0.  1.
</event>
<event>
 7    1  0.6184948E-012  0.5930198E+02  0.7816164E-02  0.1266605E+00
        -11   -1    0    0    0    0  0.00000000000E+00  0.00000000000E+00  0.45593999997E+02  0.45594000000E+02  0.51100000000E-03 0. -1.
         11   -1    0    0    0    0 -0.00000000000E+00 -0.00000000000E+00 -0.45593999997E+02  0.45594000000E+02  0.51100000000E-03 0.  1.
    9900012    2    1    2    0    0 -0.26408615906E+02  0.91292986286E+01 -0.15360972209E+02  0.59301975558E+02  0.50000057504E+02 0.  0.
         12    1    1    2    0    0  0.26408615906E+02 -0.91292986286E+01  0.15360972209E+02  0.31886024442E+02  0.00000000000E+00 0. -1.
         11    1    3    3    0    0 -0.17701511304E+02  0.22846182444E+02 -0.20673311443E+02  0.35534171736E+02  0.51100000000E-03 0. -1.
        -11    1    3    3    0    0  0.28201481983E+01 -0.25040818102E+01 -0.37420066715E+01  0.53128406491E+01  0.51100000000E-03 0.  1.
         12    1    3    3    0    0 -0.11527252800E+02 -0.11212802005E+02  0.90543459061E+01  0.18454963173E+02  0.00000000000E+00 0. -1.
</event>
<event>
 7    1  0.6184948E-012  0.5930195E+02  0.7816164E-02  0.1266605E+00
        -11   -1    0    0    0    0  0.00000000000E+00  0.00000000000E+00  0.45593999997E+02  0.45594000000E+02  0.51100000000E-03 0.  1.
         11   -1    0    0    0    0 -0.00000000000E+00 -0.00000000000E+00 -0.45593999997E+02  0.45594000000E+02  0.51100000000E-03 0. -1.
    9900012    2    1    2    0    0 -0.12402098740E+02  0.87278717630E+01  0.28048747474E+02  0.59301952369E+02  0.50000015212E+02 0.  0.
         12    1    1    2    0    0  0.12402098740E+02 -0.87278717630E+01 -0.28048747474E+02  0.31886047631E+02  0.00000000000E+00 0. -1.
         11    1    3    3    0    0 -0.14216091062E+02 -0.11869609988E+02  0.13610245313E+02  0.22983116936E+02  0.51100000000E-03 0. -1.
        -11    1    3    3    0    0  0.56869962982E+00  0.14882127501E+02  0.22118360572E+02  0.26665014774E+02  0.51100000000E-03 0.  1.
        -12    1    3    3    0    0  0.12452926929E+01  0.57153542498E+01 -0.76798584115E+01  0.96538206589E+01  0.00000000000E+00 0.  1.
</event>
<event>
 7    1  0.6184948E-012  0.5930195E+02  0.7816164E-02  0.1266605E+00
        -11   -1    0    0    0    0  0.00000000000E+00  0.00000000000E+00  0.45593999997E+02  0.45594000000E+02  0.51100000000E-03 0.  1.
         11   -1    0    0    0    0 -0.00000000000E+00 -0.00000000000E+00 -0.45593999997E+02  0.45594000000E+02  0.51100000000E-03 0. -1.
    9900012    2    1    2    0    0 -0.29063025620E+02  0.71853696812E+01  0.10974116480E+02  0.59301949317E+02  0.50000009646E+02 0.  0.
         12    1    1    2    0    0  0.29063025620E+02 -0.71853696812E+01 -0.10974116480E+02  0.31886050683E+02  0.00000000000E+00 0. -1.
         11    1    3    3    0    0 -0.19792566924E+02  0.19664376478E+01 -0.14010834269E+02  0.24329325096E+02  0.51100000000E-03 0. -1.
        -11    1    3    3    0    0 -0.13682530515E+02  0.28245162788E+01  0.57748981050E+01  0.15117505809E+02  0.51100000000E-03 0.  1.
        -12    1    3    3    0    0  0.44120718188E+01  0.23944157545E+01  0.19210052644E+02  0.19855118411E+02  0.00000000000E+00 0.  1.
</event>
<event>
 7    1  0.6184948E-012  0.5930195E+02  0.7816164E-02  0.1266605E+00
        -11   -1    0    0    0    0  0.00000000000E+00  0.00000000000E+00  0.45593999997E+02  0.45594000000E+02  0.51100000000E-03 0.  1.
         11   -1    0    0    0    0 -0.00000000000E+00 -0.00000000000E+00 -0.45593999997E+02  0.45594000000E+02  0.51100000000E-03 0. -1.
    9900012    2    1    2    0    0 -0.21503979198E+02 -0.19205267281E+02 -0.13618239931E+02  0.59301954909E+02  0.50000019845E+02 0.  0.
         12    1    1    2    0    0  0.21503979198E+02  0.19205267281E+02  0.13618239931E+02  0.31886045091E+02  0.00000000000E+00 0. -1.
         11    1    3    3    0    0 -0.79628377925E+01  0.64451310999E+01  0.10212293036E+02  0.14465041649E+02  0.51100000000E-03 0. -1.
        -11    1    3    3    0    0 -0.56042463518E+00 -0.20487492150E+02 -0.44940976770E+01  0.20982095333E+02  0.51100000000E-03 0.  1.
        -12    1    3    3    0    0 -0.12980716770E+02 -0.51629062311E+01 -0.19336435290E+02  0.23854817927E+02  0.00000000000E+00 0.  1.
</event>
<event>
 7    1  0.6184948E-012  0.5930195E+02  0.7816164E-02  0.1266605E+00
        -11   -1    0    0    0    0  0.00000000000E+00  0.00000000000E+00  0.45593999997E+02  0.45594000000E+02  0.51100000000E-03 0. -1.
         11   -1    0    0    0    0 -0.00000000000E+00 -0.00000000000E+00 -0.45593999997E+02  0.45594000000E+02  0.51100000000E-03 0.  1.
    9900012    2    1    2    0    0 -0.18131950743E+02  0.25747406326E+02  0.50023808421E+01  0.59301946868E+02  0.50000005179E+02 0.  0.
         12    1    1    2    0    0  0.18131950743E+02 -0.25747406326E+02 -0.50023808421E+01  0.31886053132E+02  0.00000000000E+00 0. -1.
         11    1    3    3    0    0  0.59193374469E+01 -0.57165008307E+01  0.12749290327E+01  0.83272073264E+01  0.51100000000E-03 0. -1.
        -11    1    3    3    0    0 -0.17253596563E+02 -0.61464215572E+00 -0.29394216836E+01  0.17512983167E+02  0.51100000000E-03 0.  1.
         12    1    3    3    0    0 -0.67976916273E+01  0.32078549313E+02  0.66668734931E+01  0.33461756374E+02  0.00000000000E+00 0. -1.
</event>
<event>
 7    1  0.6184948E-012  0.5930199E+02  0.7816164E-02  0.1266605E+00
        -11   -1    0    0    0    0  0.00000000000E+00  0.00000000000E+00  0.45593999997E+02  0.45594000000E+02  0.51100000000E-03 0. -1.
         11   -1    0    0    0    0 -0.00000000000E+00 -0.00000000000E+00 -0.45593999997E+02  0.45594000000E+02  0.51100000000E-03 0.  1.
    9900012    2    1    2    0    0 -0.24742788284E+01  0.21409467827E+02 -0.23499585973E+02  0.59301985680E+02  0.50000075963E+02 0.  0.
         12    1    1    2    0    0  0.24742788284E+01 -0.21409467827E+02  0.23499585973E+02  0.31886014320E+02  0.00000000000E+00 0. -1.
         11    1    3    3    0    0 -0.10987536948E+01 -0.10332725483E+02 -0.10790350777E+02  0.14980125024E+02  0.51100000000E-03 0. -1.
        -11    1    3    3    0    0  0.10088077727E+02  0.15666037689E+02 -0.15682620174E+02  0.24354437478E+02  0.51100000000E-03 0.  1.
        -12    1    3    3    0    0 -0.11463602860E+02  0.16076155621E+02  0.29733849784E+01  0.19967423177E+02  0.00000000000E+00 0.  1.
</event>
<event>
 7    1  0.6184948E-012  0.5930196E+02  0.7816164E-02  0.1266605E+00
        -11   -1    0    0    0    0  0.00000000000E+00  0.00000000000E+00  0.45593999997E+02  0.45594000000E+02  0.51100000000E-03 0.  1.
         11   -1    0    0    0    0 -0.00000000000E+00 -0.00000000000E+00 -0.45593999997E+02  0.45594000000E+02  0.51100000000E-03 0. -1.
    9900012    2    1    2    0    0 -0.26178814625E+02 -0.46160068704E+00  0.18198246995E+02  0.59301959104E+02  0.50000027495E+02 0.  0.
         12    1    1    2    0    0  0.26178814625E+02  0.46160068704E+00 -0.18198246995E+02  0.31886040896E+02  0.00000000000E+00 0. -1.
         11    1    3    3    0    0 -0.25194776064E+02 -0.33971403046E+01 -0.35328761446E+01  0.25667070680E+02  0.51100000000E-03 0. -1.
        -11    1    3    3    0    0  0.53760286434E+01 -0.34700377005E+00 -0.41385772852E+01  0.67933730795E+01  0.51100000000E-03 0.  1.
        -12    1    3    3    0    0 -0.63600672039E+01  0.32825433876E+01  0.25869700425E+02  0.26841515345E+02  0.00000000000E+00 0.  1.
</event>
<event>
 7    1  0.6184948E-012  0.5930192E+02  0.7816164E-02  0.1266605E+00
        -11   -1    0    0    0    0  0.00000000000E+00  0.00000000000E+00  0.45593999997E+02  0.45594000000E+02  0.51100000000E-03 0.  1.
         11   -1    0    0    0    0 -0.00000000000E+00 -0.00000000000E+00 -0.45593999997E+02  0.45594000000E+02  0.51100000000E-03 0. -1.
    9900012    2    1    2    0    0 -0.29002959635E+02  0.12702374807E+02 -0.37682607122E+01  0.59301924950E+02  0.49999965206E+02 0.  0.
         12    1    1    2    0    0  0.29002959635E+02 -0.12702374807E+02  0.37682607122E+01  0.31886075050E+02  0.00000000000E+00 0. -1.
         11    1    3    3    0    0 -0.76997411516E+01 -0.64506638337E+01 -0.32800858376E+01  0.10566742216E+02  0.51100000000E-03 0. -1.
        -11    1    3    3    0    0 -0.20932713927E+02  0.14956447537E+02 -0.17561787113E+02  0.31149481571E+02  0.51100000000E-03 0.  1.
         12    1    3    3    0    0 -0.37050455586E+00  0.41965911040E+01  0.17073612238E+02  0.17585701163E+02  0.00000000000E+00 0. -1.
</event>
<event>
 7    1  0.6184948E-012  0.5930189E+02  0.7816164E-02  0.1266605E+00
        -11   -1    0    0    0    0  0.00000000000E+00  0.00000000000E+00  0.45593999997E+02  0.45594000000E+02  0.51100000000E-03 0. -1.
         11   -1    0    0    0    0 -0.00000000000E+00 -0.00000000000E+00 -0.45593999997E+02  0.45594000000E+02  0.51100000000E-03 0.  1.
    9900012    2    1    2    0    0  0.69184249612E+01  0.56134121708E+01 -0.30616151801E+02  0.59301894072E+02  0.49999908894E+02 0.  0.
         12    1    1    2    0    0 -0.69184249612E+01 -0.56134121708E+01  0.30616151801E+02  0.31886105928E+02  0.00000000000E+00 0. -1.
         11    1    3    3    0    0 -0.37941116531E+01  0.53777614648E+01 -0.25711876618E+02  0.26540840249E+02  0.51100000000E-03 0.  1.
        -11    1    3    3    0    0  0.37383189937E+01 -0.14929971906E+02 -0.46085525937E+01  0.16066046412E+02  0.51100000000E-03 0. -1.
         12    1    3    3    0    0  0.69742176206E+01  0.15165622612E+02 -0.29572258849E+00  0.16695007412E+02  0.00000000000E+00 0. -1.
</event>
<event>
 7    1  0.6184948E-012  0.5930197E+02  0.7816164E-02  0.1266605E+00
        -11   -1    0    0    0    0  0.00000000000E+00  0.00000000000E+00  0.45593999997E+02  0.45594000000E+02  0.51100000000E-03 0. -1.
         11   -1    0    0    0    0 -0.00000000000E+00 -0.00000000000E+00 -0.45593999997E+02  0.45594000000E+02  0.51100000000E-03 0.  1.
    9900012    2    1    2    0    0 -0.20422959597E+02  0.48682555894E+01 -0.23998367528E+02  0.59301971160E+02  0.50000049483E+02 0.  0.
         12    1    1    2    0    0  0.20422959597E+02 -0.48682555894E+01  0.23998367528E+02  0.31886028840E+02  0.00000000000E+00 0. -1.
         11    1    3    3    0    0 -0.59402034719E+01  0.12460353288E+02  0.28886918658E+01  0.14102870711E+02  0.51100000000E-03 0. -1.
        -11    1    3    3    0    0 -0.13929922669E+02  0.95102119904E+01 -0.21361853643E+02  0.27217929182E+02  0.51100000000E-03 0.  1.
        -12    1    3    3    0    0 -0.55283345606E+00 -0.17102309689E+02 -0.55252057513E+01  0.17981171267E+02  0.00000000000E+00 0.  1.
</event>
<event>
 7    1  0.6184948E-012  0.5930194E+02  0.7816164E-02  0.1266605E+00
        -11   -1    0    0    0    0  0.00000000000E+00  0.00000000000E+00  0.45593999997E+02  0.45594000000E+02  0.51100000000E-03 0. -1.
         11   -1    0    0    0    0 -0.00000000000E+00 -0.00000000000E+00 -0.45593999997E+02  0.45594000000E+02  0.51100000000E-03 0.  1.
    9900012    2    1    2    0    0 -0.18601942839E+02  0.87749117645E+01 -0.24365740644E+02  0.59301942373E+02  0.49999996983E+02 0.  0.
         12    1    1    2    0    0  0.18601942839E+02 -0.87749117645E+01  0.24365740644E+02  0.31886057627E+02  0.00000000000E+00 0. -1.
         11    1    3    3    0    0  0.61609664402E+01  0.50805241428E+01 -0.60590851631E+01  0.10024058376E+02  0.51100000000E-03 0. -1.
        -11    1    3    3    0    0 -0.49216483929E+01 -0.14744349142E+02  0.16532857600E+01  0.15631756415E+02  0.51100000000E-03 0.  1.
         12    1    3    3    0    0 -0.19841260886E+02  0.18438736764E+02 -0.19959941241E+02  0.33646127583E+02  0.00000000000E+00 0. -1.
</event>
<event>
 7    1  0.6184948E-012  0.5930200E+02  0.7816164E-02  0.1266605E+00
        -11   -1    0    0    0    0  0.00000000000E+00  0.00000000000E+00  0.45593999997E+02  0.45594000000E+02  0.51100000000E-03 0. -1.
         11   -1    0    0    0    0 -0.00000000000E+00 -0.00000000000E+00 -0.45593999997E+02  0.45594000000E+02  0.51100000000E-03 0.  1.
    9900012    2    1    2    0    0  0.30963052817E+02 -0.72302896358E+01 -0.23936535433E+01  0.59301995151E+02  0.50000093237E+02 0.  0.
         12    1    1    2    0    0 -0.30963052817E+02  0.72302896358E+01  0.23936535433E+01  0.31886004849E+02  0.00000000000E+00 0. -1.
         11    1    3    3    0    0  0.73777296573E+01 -0.81626537207E+01  0.67961460494E+01  0.12932417100E+02  0.51100000000E-03 0. -1.
        -11    1    3    3    0    0  0.21809629010E+02 -0.16839878627E+02 -0.46886266066E+01  0.27950396230E+02  0.51100000000E-03 0.  1.
         12    1    3    3    0    0  0.17756941497E+01  0.17772242712E+02 -0.45011729861E+01  0.18419181821E+02  0.00000000000E+00 0. -1.
</event>
<event>
 7    1  0.6184948E-012  0.5930192E+02  0.7816164E-02  0.1266605E+00
        -11   -1    0    0    0    0  0.00000000000E+00  0.00000000000E+00  0.45593999997E+02  0.45594000000E+02  0.51100000000E-03 0.  1.
         11   -1    0    0    0    0 -0.00000000000E+00 -0.00000000000E+00 -0.45593999997E+02  0.45594000000E+02  0.51100000000E-03 0. -1.
    9900012    2    1    2    0    0  0.16741410638E+01  0.21320763361E+02  0.23650458148E+02  0.59301923584E+02  0.49999962715E+02 0.  0.
         12    1    1    2    0    0 -0.16741410638E+01 -0.21320763361E+02 -0.23650458148E+02  0.31886076416E+02  0.00000000000E+00 0. -1.
         11    1    3    3    0    0  0.87522834752E+00 -0.50933365786E+01  0.48463862026E+01  0.70848826137E+01  0.51100000000E-03 0. -1.
        -11    1    3    3    0    0  0.16602960325E+02  0.55552991975E+00  0.11614684216E+00  0.16612657686E+02  0.51100000000E-03 0.  1.
         12    1    3    3    0    0 -0.15804047609E+02  0.25858570020E+02  0.18687925104E+02  0.35604383283E+02  0.00000000000E+00 0. -1.
</event>
<event>
 7    1  0.6184948E-012  0.5930195E+02  0.7816164E-02  0.1266605E+00
        -11   -1    0    0    0    0  0.00000000000E+00  0.00000000000E+00  0.45593999997E+02  0.45594000000E+02  0.51100000000E-03 0.  1.
         11   -1    0    0    0    0 -0.00000000000E+00 -0.00000000000E+00 -0.45593999997E+02  0.45594000000E+02  0.51100000000E-03 0. -1.
    9900012    2    1    2    0    0  0.63099655951E+01 -0.11765934429E+02  0.28956302098E+02  0.59301948034E+02  0.50000007306E+02 0.  0.
         12    1    1    2    0    0 -0.63099655951E+01  0.11765934429E+02 -0.28956302098E+02  0.31886051966E+02  0.00000000000E+00 0. -1.
         11    1    3    3    0    0  0.16010821733E+00 -0.93983765054E+01 -0.59026536752E+01  0.11099389003E+02  0.51100000000E-03 0. -1.
        -11    1    3    3    0    0 -0.22392941906E+00 -0.17142342614E+02  0.19388280158E+02  0.25880793311E+02  0.51100000000E-03 0.  1.
         12    1    3    3    0    0  0.63737867968E+01  0.14774784691E+02  0.15470675616E+02  0.22321765719E+02  0.00000000000E+00 0. -1.
</event>
<event>
 7    1  0.6184948E-012  0.5930197E+02  0.7816164E-02  0.1266605E+00
        -11   -1    0    0    0    0  0.00000000000E+00  0.00000000000E+00  0.45593999997E+02  0.45594000000E+02  0.51100000000E-03 0.  1.
         11   -1    0    0    0    0 -0.00000000000E+00 -0.00000000000E+00 -0.45593999997E+02  0.45594000000E+02  0.51100000000E-03 0. -1.
    9900012    2    1    2    0    0 -0.27470365333E+02 -0.15900797097E+02  0.30434609657E+01  0.59301968976E+02  0.50000045499E+02 0.  0.
         12    1    1    2    0    0  0.27470365333E+02  0.15900797097E+02 -0.30434609657E+01  0.31886031024E+02  0.00000000000E+00 0. -1.
         11    1    3    3    0    0  0.40104149115E+01 -0.12163944976E+02 -0.31787264168E+01  0.13196563456E+02  0.51100000000E-03 0. -1.
        -11    1    3    3    0    0 -0.12588701769E+02 -0.15702545038E+02 -0.54903068330E+01  0.20861179312E+02  0.51100000000E-03 0.  1.
         12    1    3    3    0    0 -0.18892078475E+02  0.11965692917E+02  0.11712494215E+02  0.25244226208E+02  0.00000000000E+00 0. -1.
</event>
<event>
 7    1  0.6184948E-012  0.5930201E+02  0.7816164E-02  0.1266605E+00
        -11   -1    0    0    0    0  0.00000000000E+00  0.00000000000E+00  0.45593999997E+02  0.45594000000E+02  0.51100000000E-03 0.  1.
         11   -1    0    0    0    0 -0.00000000000E+00 -0.00000000000E+00 -0.45593999997E+02  0.45594000000E+02  0.51100000000E-03 0. -1.
    9900012    2    1    2    0    0 -0.31141492588E+02  0.31604793167E+01  0.60774434459E+01  0.59302007637E+02  0.50000116007E+02 0.  0.
         12    1    1    2    0    0  0.31141492588E+02 -0.31604793167E+01 -0.60774434459E+01  0.31885992363E+02  0.00000000000E+00 0. -1.
         11    1    3    3    0    0 -0.36809291054E+01  0.51474700547E+01  0.40854044727E+00  0.63413399689E+01  0.51100000000E-03 0. -1.
        -11    1    3    3    0    0 -0.25454976436E+02  0.15966468736E+02 -0.70540286740E+01  0.30864919732E+02  0.51100000000E-03 0.  1.
        -12    1    3    3    0    0 -0.20055870466E+01 -0.17953459474E+02  0.12722931673E+02  0.22095747936E+02  0.00000000000E+00 0.  1.
</event>
<event>
 7    1  0.6184948E-012  0.5930194E+02  0.7816164E-02  0.1266605E+00
        -11   -1    0    0    0    0  0.00000000000E+00  0.00000000000E+00  0.45593999997E+02  0.45594000000E+02  0.51100000000E-03 0.  1.
         11   -1    0    0    0    0 -0.00000000000E+00 -0.00000000000E+00 -0.45593999997E+02  0.45594000000E+02  0.51100000000E-03 0. -1.
    9900012    2    1    2    0    0 -0.13504363733E+02  0.15824402821E+02  0.24164881778E+02  0.59301936024E+02  0.49999985404E+02 0.  0.
         12    1    1    2    0    0  0.13504363733E+02 -0.15824402821E+02 -0.24164881778E+02  0.31886063976E+02  0.00000000000E+00 0. -1.
         11    1    3    3    0    0 -0.58917123441E+01  0.10493318709E+02  0.22832410467E+02  0.25809707086E+02  0.51100000000E-03 0. -1.
        -11    1    3    3    0    0  0.37918559127E+01  0.90756734271E+00  0.14796330261E+02  0.15301412980E+02  0.51100000000E-03 0.  1.
         12    1    3    3    0    0 -0.11404507302E+02  0.44235167692E+01 -0.13463858950E+02  0.18190815958E+02  0.00000000000E+00 0. -1.
</event>
<event>
 7    1  0.6184948E-012  0.5930197E+02  0.7816164E-02  0.1266605E+00
        -11   -1    0    0    0    0  0.00000000000E+00  0.00000000000E+00  0.45593999997E+02  0.45594000000E+02  0.51100000000E-03 0.  1.
         11   -1    0    0    0    0 -0.00000000000E+00 -0.00000000000E+00 -0.45593999997E+02  0.45594000000E+02  0.51100000000E-03 0. -1.
    9900012    2    1    2    0    0  0.33116450546E+01 -0.81438502648E+01  0.30650118027E+02  0.59301968181E+02  0.50000044050E+02 0.  0.
         12    1    1    2    0    0 -0.33116450546E+01  0.81438502648E+01 -0.30650118027E+02  0.31886031819E+02  0.00000000000E+00 0. -1.
         11    1    3    3    0    0 -0.62438306596E+01  0.17490743445E+01  0.95613017457E+01  0.11552626269E+02  0.51100000000E-03 0. -1.
        -11    1    3    3    0    0  0.24018453872E+02 -0.79347248685E+01  0.21426826008E+02  0.33150488053E+02  0.51100000000E-03 0.  1.
         12    1    3    3    0    0 -0.14462978158E+02 -0.19581997408E+01 -0.33800972689E+00  0.14598853859E+02  0.00000000000E+00 0. -1.
</event>
<event>
 7    1  0.6184948E-012  0.5930195E+02  0.7816164E-02  0.1266605E+00
        -11   -1    0    0    0    0  0.00000000000E+00  0.00000000000E+00  0.45593999997E+02  0.45594000000E+02  0.51100000000E-03 0. -1.
         11   -1    0    0    0    0 -0.00000000000E+00 -0.00000000000E+00 -0.45593999997E+02  0.45594000000E+02  0.51100000000E-03 0.  1.
    9900012    2    1    2    0    0 -0.37252727704E+01  0.30360788609E+02 -0.90036134981E+01  0.59301949786E+02  0.50000010503E+02 0.  0.
         12    1    1    2    0    0  0.37252727704E+01 -0.30360788609E+02  0.90036134981E+01  0.31886050214E+02  0.00000000000E+00 0. -1.
         11    1    3    3    0    0 -0.10453770248E+01  0.25680235852E+02 -0.10102842458E+02  0.27615842419E+02  0.51100000000E-03 0. -1.
        -11    1    3    3    0    0 -0.39355032982E+00  0.15373925145E+02 -0.81130877059E+01  0.17387772963E+02  0.51100000000E-03 0.  1.
         12    1    3    3    0    0 -0.22863454158E+01 -0.10693372388E+02  0.92123166655E+01  0.14298334404E+02  0.00000000000E+00 0. -1.
</event>
<event>
 7    1  0.6184948E-012  0.5930195E+02  0.7816164E-02  0.1266605E+00
        -11   -1    0    0    0    0  0.00000000000E+00  0.00000000000E+00  0.45593999997E+02  0.45594000000E+02  0.51100000000E-03 0.  1.
         11   -1    0    0    0    0 -0.00000000000E+00 -0.00000000000E+00 -0.45593999997E+02  0.45594000000E+02  0.51100000000E-03 0. -1.
    9900012    2    1    2    0    0 -0.16298502712E+02  0.15857817653E+02  0.22351929944E+02  0.59301947507E+02  0.50000006345E+02 0.  0.
         12    1    1    2    0    0  0.16298502712E+02 -0.15857817653E+02 -0.22351929944E+02  0.31886052493E+02  0.00000000000E+00 0. -1.
         11    1    3    3    0    0  0.50903892532E+01  0.23901871458E+02  0.10625606187E+02  0.26647983583E+02  0.51100000000E-03 0. -1.
        -11    1    3    3    0    0  0.34635163178E+01 -0.35183290024E+00  0.44306028051E+01  0.56347114523E+01  0.51100000000E-03 0.  1.
        -12    1    3    3    0    0 -0.24852408283E+02 -0.76922209043E+01  0.72957209520E+01  0.27019252472E+02  0.00000000000E+00 0.  1.
</event>
<event>
 7    1  0.6184948E-012  0.5930187E+02  0.7816164E-02  0.1266605E+00
        -11   -1    0    0    0    0  0.00000000000E+00  0.00000000000E+00  0.45593999997E+02  0.45594000000E+02  0.51100000000E-03 0. -1.
         11   -1    0    0    0    0 -0.00000000000E+00 -0.00000000000E+00 -0.45593999997E+02  0.45594000000E+02  0.51100000000E-03 0.  1.
    9900012    2    1    2    0    0 -0.10580958682E+02  0.29838489458E+02 -0.37991273876E+01  0.59301866514E+02  0.49999858634E+02 0.  0.
         12    1    1    2    0    0  0.10580958682E+02 -0.29838489458E+02  0.37991273876E+01  0.31886133486E+02  0.00000000000E+00 0. -1.
         11    1    3    3    0    0 -0.28117282096E+01 -0.87360343642E+01  0.60848954939E+01  0.11011360741E+02  0.51100000000E-03 0.  1.
        -11    1    3    3    0    0  0.19832140702E+01  0.41308428115E+01  0.72710521730E+01  0.85944866249E+01  0.51100000000E-03 0. -1.
        -12    1    3    3    0    0 -0.97524445425E+01  0.34443681011E+02 -0.17155075054E+02  0.39696019148E+02  0.00000000000E+00 0.  1.
</event>
<event>
 7    1  0.6184948E-012  0.5930197E+02  0.7816164E-02  0.1266605E+00
        -11   -1    0    0    0    0  0.00000000000E+00  0.00000000000E+00  0.45593999997E+02  0.45594000000E+02  0.51100000000E-03 0.  1.
         11   -1    0    0    0    0 -0.00000000000E+00 -0.00000000000E+00 -0.45593999997E+02  0.45594000000E+02  0.51100000000E-03 0. -1.
    9900012    2    1    2    0    0 -0.26331278363E+02  0.15046831758E+02  0.98476277062E+01  0.59301966417E+02  0.50000040833E+02 0.  0.
         12    1    1    2    0    0  0.26331278363E+02 -0.15046831758E+02 -0.98476277062E+01  0.31886033583E+02  0.00000000000E+00 0. -1.
         11    1    3    3    0    0 -0.14531764960E+02  0.59143791292E+01 -0.96964302918E+01  0.18443774939E+02  0.51100000000E-03 0. -1.
        -11    1    3    3    0    0 -0.19795027336E+02  0.15877814099E+02  0.12912135255E+02  0.28472290475E+02  0.51100000000E-03 0.  1.
         12    1    3    3    0    0  0.79955139321E+01 -0.67453614699E+01  0.66319227427E+01  0.12385901003E+02  0.00000000000E+00 0. -1.
</event>
<event>
 7    1  0.6184948E-012  0.5930198E+02  0.7816164E-02  0.1266605E+00
        -11   -1    0    0    0    0  0.00000000000E+00  0.00000000000E+00  0.45593999997E+02  0.45594000000E+02  0.51100000000E-03 0. -1.
         11   -1    0    0    0    0 -0.00000000000E+00 -0.00000000000E+00 -0.45593999997E+02  0.45594000000E+02  0.51100000000E-03 0.  1.
    9900012    2    1    2    0    0 -0.21518788617E+01  0.28949235385E+02  0.13192022046E+02  0.59301980216E+02  0.50000065998E+02 0.  0.
         12    1    1    2    0    0  0.21518788617E+01 -0.28949235385E+02 -0.13192022046E+02  0.31886019784E+02  0.00000000000E+00 0. -1.
         11    1    3    3    0    0 -0.10771619124E+02 -0.74322498146E+01  0.11774433698E+02  0.17604073536E+02  0.51100000000E-03 0. -1.
        -11    1    3    3    0    0  0.50645881783E+01  0.14529939963E+02 -0.83422450621E+01  0.17503207183E+02  0.51100000000E-03 0.  1.
        -12    1    3    3    0    0  0.35551520844E+01  0.21851545236E+02  0.97598334098E+01  0.24194699497E+02  0.00000000000E+00 0.  1.
</event>
<event>
 7    1  0.6184948E-012  0.5930194E+02  0.7816164E-02  0.1266605E+00
        -11   -1    0    0    0    0  0.00000000000E+00  0.00000000000E+00  0.45593999997E+02  0.45594000000E+02  0.51100000000E-03 0. -1.
         11   -1    0    0    0    0 -0.00000000000E+00 -0.00000000000E+00 -0.45593999997E+02  0.45594000000E+02  0.51100000000E-03 0.  1.
    9900012    2    1    2    0    0  0.30937801128E+02 -0.75311886603E+01  0.16894620574E+01  0.59301943120E+02  0.49999998345E+02 0.  0.
         12    1    1    2    0    0 -0.30937801128E+02  0.75311886603E+01 -0.16894620574E+01  0.31886056880E+02  0.00000000000E+00 0. -1.
         11    1    3    3    0    0  0.94747388063E+01  0.40658634237E+01 -0.29386147314E+00  0.10314469238E+02  0.51100000000E-03 0. -1.
        -11    1    3    3    0    0  0.29109082115E+02  0.57177587472E+01 -0.16617070761E+01  0.29711827566E+02  0.51100000000E-03 0.  1.
         12    1    3    3    0    0 -0.76460197929E+01 -0.17314810831E+02  0.36450306067E+01  0.19275646316E+02  0.00000000000E+00 0. -1.
</event>
<event>
 7    1  0.6184948E-012  0.5930195E+02  0.7816164E-02  0.1266605E+00
        -11   -1    0    0    0    0  0.00000000000E+00  0.00000000000E+00  0.45593999997E+02  0.45594000000E+02  0.51100000000E-03 0.  1.
         11   -1    0    0    0    0 -0.00000000000E+00 -0.00000000000E+00 -0.45593999997E+02  0.45594000000E+02  0.51100000000E-03 0. -1.
    9900012    2    1    2    0    0 -0.18731659573E+01  0.15040001735E+02  0.28053699325E+02  0.59301945859E+02  0.50000003339E+02 0.  0.
         12    1    1    2    0    0  0.18731659573E+01 -0.15040001735E+02 -0.28053699325E+02  0.31886054141E+02  0.00000000000E+00 0. -1.
         11    1    3    3    0    0 -0.32657437197E+01 -0.11523006184E+02 -0.13463910427E+01  0.12052282882E+02  0.51100000000E-03 0. -1.
        -11    1    3    3    0    0  0.11221351999E+00  0.68928956602E+01 -0.43595578830E+01  0.81566137369E+01  0.51100000000E-03 0.  1.
        -12    1    3    3    0    0  0.12803642424E+01  0.19670112259E+02  0.33759648251E+02  0.39093049240E+02  0.00000000000E+00 0.  1.
</event>
<event>
 7    1  0.6184948E-012  0.5930195E+02  0.7816164E-02  0.1266605E+00
        -11   -1    0    0    0    0  0.00000000000E+00  0.00000000000E+00  0.45593999997E+02  0.45594000000E+02  0.51100000000E-03 0.  1.
         11   -1    0    0    0    0 -0.00000000000E+00 -0.00000000000E+00 -0.45593999997E+02  0.45594000000E+02  0.51100000000E-03 0. -1.
    9900012    2    1    2    0    0 -0.24073956459E+02  0.17418896932E+02  0.11564890691E+02  0.59301952164E+02  0.50000014838E+02 0.  0.
         12    1    1    2    0    0  0.24073956459E+02 -0.17418896932E+02 -0.11564890691E+02  0.31886047836E+02  0.00000000000E+00 0. -1.
         11    1    3    3    0    0 -0.20668916105E+02  0.11868670684E+01  0.26801080066E+01  0.20875720959E+02  0.51100000000E-03 0. -1.
        -11    1    3    3    0    0  0.11264009524E+01 -0.60624062290E+01  0.13832071464E+02  0.15144231564E+02  0.51100000000E-03 0.  1.
         12    1    3    3    0    0 -0.45314413065E+01  0.22294436093E+02 -0.49472887800E+01  0.23281999641E+02  0.00000000000E+00 0. -1.
</event>
<event>
 7    1  0.6184948E-012  0.5930189E+02  0.7816164E-02  0.1266605E+00
        -11   -1    0    0    0    0  0.00000000000E+00  0.00000000000E+00  0.45593999997E+02  0.45594000000E+02  0.51100000000E-03 0. -1.
         11   -1    0    0    0    0 -0.00000000000E+00 -0.00000000000E+00 -0.45593999997E+02  0.45594000000E+02  0.51100000000E-03 0.  1.
    9900012    2    1    2    0    0 -0.31081972247E+02 -0.32064761866E+01 -0.63524317505E+01  0.59301892093E+02  0.49999905283E+02 0.  0.
         12    1    1    2    0    0  0.31081972247E+02  0.32064761866E+01  0.63524317505E+01  0.31886107907E+02  0.00000000000E+00 0. -1.
         11    1    3    3    0    0 -0.10308475292E+02 -0.75544340410E+00  0.43114474454E+01  0.11199282875E+02  0.51100000000E-03 0. -1.
        -11    1    3    3    0    0  0.11776050587E+02 -0.20772759503E+01 -0.99288749960E+01  0.15542618883E+02  0.51100000000E-03 0.  1.
         12    1    3    3    0    0 -0.32549547543E+02 -0.37375683215E+00 -0.73500419993E+00  0.32559990334E+02  0.00000000000E+00 0. -1.
</event>
<event>
 7    1  0.6184948E-012  0.5930194E+02  0.7816164E-02  0.1266605E+00
        -11   -1    0    0    0    0  0.00000000000E+00  0.00000000000E+00  0.45593999997E+02  0.45594000000E+02  0.51100000000E-03 0.  1.
         11   -1    0    0    0    0 -0.00000000000E+00 -0.00000000000E+00 -0.45593999997E+02  0.45594000000E+02  0.51100000000E-03 0. -1.
    9900012    2    1    2    0    0 -0.29249892086E+02 -0.10994357141E+02  0.63473333204E+01  0.59301941664E+02  0.49999995688E+02 0.  0.
         12    1    1    2    0    0  0.29249892086E+02  0.10994357141E+02 -0.63473333204E+01  0.31886058336E+02  0.00000000000E+00 0. -1.
         11    1    3    3    0    0 -0.60467154332E+01 -0.30006892011E+01  0.67606742246E+01  0.95537228055E+01  0.51100000000E-03 0. -1.
        -11    1    3    3    0    0 -0.90647817804E+01  0.15515759462E+02  0.98086042411E+01  0.20472366200E+02  0.51100000000E-03 0.  1.
         12    1    3    3    0    0 -0.14138394872E+02 -0.23509427401E+02 -0.10221945145E+02  0.29275852658E+02  0.00000000000E+00 0. -1.
</event>
<event>
 7    1  0.6184948E-012  0.5930201E+02  0.7816164E-02  0.1266605E+00
        -11   -1    0    0    0    0  0.00000000000E+00  0.00000000000E+00  0.45593999997E+02  0.45594000000E+02  0.51100000000E-03 0.  1.
         11   -1    0    0    0    0 -0.00000000000E+00 -0.00000000000E+00 -0.45593999997E+02  0.45594000000E+02  0.51100000000E-03 0. -1.
    9900012    2    1    2    0    0  0.31641989424E+02 -0.11994432208E+01  0.37499810293E+01  0.59302007519E+02  0.50000115793E+02 0.  0.
         12    1    1    2    0    0 -0.31641989424E+02  0.11994432208E+01 -0.37499810293E+01  0.31885992481E+02  0.00000000000E+00 0. -1.
         11    1    3    3    0    0  0.21703623628E+01  0.13271195282E+02  0.48879807071E+01  0.14308300131E+02  0.51100000000E-03 0. -1.
        -11    1    3    3    0    0 -0.56021737602E+01 -0.12598339861E+01  0.42300335671E+01  0.71319504171E+01  0.51100000000E-03 0.  1.
        -12    1    3    3    0    0  0.35073800821E+02 -0.13210804516E+02 -0.53680332450E+01  0.37861756971E+02  0.00000000000E+00 0.  1.
</event>
<event>
 7    1  0.6184948E-012  0.5930195E+02  0.7816164E-02  0.1266605E+00
        -11   -1    0    0    0    0  0.00000000000E+00  0.00000000000E+00  0.45593999997E+02  0.45594000000E+02  0.51100000000E-03 0. -1.
         11   -1    0    0    0    0 -0.00000000000E+00 -0.00000000000E+00 -0.45593999997E+02  0.45594000000E+02  0.51100000000E-03 0.  1.
    9900012    2    1    2    0    0 -0.23411320362E+02 -0.58196164983E+01 -0.20850961778E+02  0.59301945613E+02  0.50000002891E+02 0.  0.
         12    1    1    2    0    0  0.23411320362E+02  0.58196164983E+01  0.20850961778E+02  0.31886054387E+02  0.00000000000E+00 0. -1.
         11    1    3    3    0    0 -0.13044602670E+02 -0.12122430048E+02  0.61426245807E+01  0.18837377899E+02  0.51100000000E-03 0. -1.
        -11    1    3    3    0    0 -0.16578171551E+02 -0.16944766782E+01 -0.25152989538E+02  0.30172502484E+02  0.51100000000E-03 0.  1.
        -12    1    3    3    0    0  0.62114538593E+01  0.79972902283E+01 -0.18405968212E+01  0.10292065230E+02  0.00000000000E+00 0.  1.
</event>
<event>
 7    1  0.6184948E-012  0.5930196E+02  0.7816164E-02  0.1266605E+00
        -11   -1    0    0    0    0  0.00000000000E+00  0.00000000000E+00  0.45593999997E+02  0.45594000000E+02  0.51100000000E-03 0. -1.
         11   -1    0    0    0    0 -0.00000000000E+00 -0.00000000000E+00 -0.45593999997E+02  0.45594000000E+02  0.51100000000E-03 0.  1.
    9900012    2    1    2    0    0 -0.14770760361E+02 -0.19592034255E+02 -0.20364097491E+02  0.59301958626E+02  0.50000026623E+02 0.  0.
         12    1    1    2    0    0  0.14770760361E+02  0.19592034255E+02  0.20364097491E+02  0.31886041374E+02  0.00000000000E+00 0. -1.
         11    1    3    3    0    0 -0.14018090220E+02 -0.71677163578E+01 -0.65419846652E+01  0.17049357021E+02  0.51100000000E-03 0. -1.
        -11    1    3    3    0    0 -0.14044095271E+02 -0.67523109219E+01 -0.20973465972E+02  0.26128845935E+02  0.51100000000E-03 0.  1.
         12    1    3    3    0    0  0.13291425129E+02 -0.56720069754E+01  0.71513531460E+01  0.16123755670E+02  0.00000000000E+00 0. -1.
</event>
<event>
 7    1  0.6184948E-012  0.5930193E+02  0.7816164E-02  0.1266605E+00
        -11   -1    0    0    0    0  0.00000000000E+00  0.00000000000E+00  0.45593999997E+02  0.45594000000E+02  0.51100000000E-03 0.  1.
         11   -1    0    0    0    0 -0.00000000000E+00 -0.00000000000E+00 -0.45593999997E+02  0.45594000000E+02  0.51100000000E-03 0. -1.
    9900012    2    1    2    0    0  0.24491587252E+02  0.59785691031E+01  0.19522810726E+02  0.59301932928E+02  0.49999979757E+02 0.  0.
         12    1    1    2    0    0 -0.24491587252E+02 -0.59785691031E+01 -0.19522810726E+02  0.31886067072E+02  0.00000000000E+00 0. -1.
         11    1    3    3    0    0 -0.28671971949E+01  0.10125114541E+02 -0.69360450426E+01  0.12603471161E+02  0.51100000000E-03 0. -1.
        -11    1    3    3    0    0  0.58169105860E+01  0.10008148291E+02  0.32753176538E+01  0.12030261301E+02  0.51100000000E-03 0.  1.
         12    1    3    3    0    0  0.21541873861E+02 -0.14154693729E+02  0.23183538115E+02  0.34668200466E+02  0.00000000000E+00 0. -1.
</event>
<event>
 7    1  0.6184948E-012  0.5930196E+02  0.7816164E-02  0.1266605E+00
        -11   -1    0    0    0    0  0.00000000000E+00  0.00000000000E+00  0.45593999997E+02  0.45594000000E+02  0.51100000000E-03 0. -1.
         11   -1    0    0    0    0 -0.00000000000E+00 -0.00000000000E+00 -0.45593999997E+02  0.45594000000E+02  0.51100000000E-03 0.  1.
    9900012    2    1    2    0    0 -0.19021615840E+01 -0.31113494568E+02 -0.67120558721E+01  0.59301961410E+02  0.50000031701E+02 0.  0.
         12    1    1    2    0    0  0.19021615840E+01  0.31113494568E+02  0.67120558721E+01  0.31886038590E+02  0.00000000000E+00 0. -1.
         11    1    3    3    0    0  0.35261935307E+01 -0.17676738734E+02  0.70663044789E+01  0.19360624792E+02  0.51100000000E-03 0. -1.
        -11    1    3    3    0    0 -0.19294903812E+02 -0.13623646861E+02 -0.88756835508E+01  0.25232416168E+02  0.51100000000E-03 0.  1.
         12    1    3    3    0    0  0.13866548697E+02  0.18689102692E+00 -0.49026768002E+01  0.14708920451E+02  0.00000000000E+00 0. -1.
</event>
<event>
 7    1  0.6184948E-012  0.5930194E+02  0.7816164E-02  0.1266605E+00
        -11   -1    0    0    0    0  0.00000000000E+00  0.00000000000E+00  0.45593999997E+02  0.45594000000E+02  0.51100000000E-03 0.  1.
         11   -1    0    0    0    0 -0.00000000000E+00 -0.00000000000E+00 -0.45593999997E+02  0.45594000000E+02  0.51100000000E-03 0. -1.
    9900012    2    1    2    0    0  0.27900412534E+02 -0.15433528286E+02  0.30667478514E+00  0.59301939341E+02  0.49999991453E+02 0.  0.
         12    1    1    2    0    0 -0.27900412534E+02  0.15433528286E+02 -0.30667478514E+00  0.31886060659E+02  0.00000000000E+00 0. -1.
         11    1    3    3    0    0 -0.13366440212E+00 -0.13133213334E+02  0.22298458058E+01  0.13321838132E+02  0.51100000000E-03 0. -1.
        -11    1    3    3    0    0  0.12830869685E+02 -0.95506232288E+01  0.15125518874E+02  0.22014244079E+02  0.51100000000E-03 0.  1.
        -12    1    3    3    0    0  0.15203207251E+02  0.72503082772E+01 -0.17048689894E+02  0.23965857130E+02  0.00000000000E+00 0.  1.
</event>
<event>
 7    1  0.6184948E-012  0.5930193E+02  0.7816164E-02  0.1266605E+00
        -11   -1    0    0    0    0  0.00000000000E+00  0.00000000000E+00  0.45593999997E+02  0.45594000000E+02  0.51100000000E-03 0.  1.
         11   -1    0    0    0    0 -0.00000000000E+00 -0.00000000000E+00 -0.45593999997E+02  0.45594000000E+02  0.51100000000E-03 0. -1.
    9900012    2    1    2    0    0 -0.18959584749E+02 -0.22280815680E+02 -0.12681504406E+02  0.59301934780E+02  0.49999983134E+02 0.  0.
         12    1    1    2    0    0  0.18959584749E+02  0.22280815680E+02  0.12681504406E+02  0.31886065220E+02  0.00000000000E+00 0. -1.
         11    1    3    3    0    0  0.51505100170E-01 -0.12662668715E+02 -0.17162035908E+01  0.12778544001E+02  0.51100000000E-03 0. -1.
        -11    1    3    3    0    0  0.55795339505E+01  0.85115093060E+01  0.57593034764E+01  0.11693868760E+02  0.51100000000E-03 0.  1.
         12    1    3    3    0    0 -0.24590623800E+02 -0.18129656272E+02 -0.16724604291E+02  0.34829522019E+02  0.00000000000E+00 0. -1.
</event>
<event>
 7    1  0.6184948E-012  0.5930191E+02  0.7816164E-02  0.1266605E+00
        -11   -1    0    0    0    0  0.00000000000E+00  0.00000000000E+00  0.45593999997E+02  0.45594000000E+02  0.51100000000E-03 0.  1.
         11   -1    0    0    0    0 -0.00000000000E+00 -0.00000000000E+00 -0.45593999997E+02  0.45594000000E+02  0.51100000000E-03 0. -1.
    9900012    2    1    2    0    0  0.10113285780E+02 -0.30087743591E+02  0.30285092384E+01  0.59301910057E+02  0.49999938045E+02 0.  0.
         12    1    1    2    0    0 -0.10113285780E+02  0.30087743591E+02 -0.30285092384E+01  0.31886089943E+02  0.00000000000E+00 0. -1.
         11    1    3    3    0    0 -0.43052935532E+01 -0.22232218904E+02 -0.40981280819E+00  0.22648952664E+02  0.51100000000E-03 0.  1.
        -11    1    3    3    0    0 -0.41710142651E+01  0.60276625518E+01 -0.79445015530E+01  0.10809494948E+02  0.51100000000E-03 0. -1.
         12    1    3    3    0    0  0.18589593598E+02 -0.13883187239E+02  0.11382823600E+02  0.25843462445E+02  0.00000000000E+00 0. -1.
</event>
<event>
 7    1  0.6184948E-012  0.5930195E+02  0.7816164E-02  0.1266605E+00
        -11   -1    0    0    0    0  0.00000000000E+00  0.00000000000E+00  0.45593999997E+02  0.45594000000E+02  0.51100000000E-03 0.  1.
         11   -1    0    0    0    0 -0.00000000000E+00 -0.00000000000E+00 -0.45593999997E+02  0.45594000000E+02  0.51100000000E-03 0. -1.
    9900012    2    1    2    0    0  0.92474313345E+01 -0.83616617015E+01  0.29347709430E+02  0.59301946285E+02  0.50000004117E+02 0.  0.
         12    1    1    2    0    0 -0.92474313345E+01  0.83616617015E+01 -0.29347709430E+02  0.31886053715E+02  0.00000000000E+00 0. -1.
         11    1    3    3    0    0  0.16167525726E+02 -0.11858694912E+02 -0.16932645288E+00  0.20051089866E+02  0.51100000000E-03 0. -1.
        -11    1    3    3    0    0 -0.11027307454E+02  0.61098814008E+01  0.39304450758E+01  0.13205323138E+02  0.51100000000E-03 0.  1.
         12    1    3    3    0    0  0.41072130625E+01 -0.26128481907E+01  0.25586590807E+02  0.26045533282E+02  0.00000000000E+00 0. -1.
</event>
<event>
 7    1  0.6184948E-012  0.5930193E+02  0.7816164E-02  0.1266605E+00
        -11   -1    0    0    0    0  0.00000000000E+00  0.00000000000E+00  0.45593999997E+02  0.45594000000E+02  0.51100000000E-03 0. -1.
         11   -1    0    0    0    0 -0.00000000000E+00 -0.00000000000E+00 -0.45593999997E+02  0.45594000000E+02  0.51100000000E-03 0.  1.
    9900012    2    1    2    0    0  0.65228421278E+01  0.19132228396E+01 -0.31153063514E+02  0.59301933179E+02  0.49999980214E+02 0.  0.
         12    1    1    2    0    0 -0.65228421278E+01 -0.19132228396E+01  0.31153063514E+02  0.31886066821E+02  0.00000000000E+00 0. -1.
         11    1    3    3    0    0 -0.72495889975E+00  0.23160790594E+01  0.22238333201E+01  0.32916899174E+01  0.51100000000E-03 0. -1.
        -11    1    3    3    0    0  0.23368874869E+02  0.19442577720E+01 -0.60856217682E+01  0.24226416233E+02  0.51100000000E-03 0.  1.
        -12    1    3    3    0    0 -0.16121073841E+02 -0.23471139919E+01 -0.27291275065E+02  0.31783827029E+02  0.00000000000E+00 0.  1.
</event>
<event>
 7    1  0.6184948E-012  0.5930193E+02  0.7816164E-02  0.1266605E+00
        -11   -1    0    0    0    0  0.00000000000E+00  0.00000000000E+00  0.45593999997E+02  0.45594000000E+02  0.51100000000E-03 0.  1.
         11   -1    0    0    0    0 -0.00000000000E+00 -0.00000000000E+00 -0.45593999997E+02  0.45594000000E+02  0.51100000000E-03 0. -1.
    9900012    2    1    2    0    0  0.89304971636E+01  0.22674015221E+02  0.20563474451E+02  0.59301933649E+02  0.49999981072E+02 0.  0.
         12    1    1    2    0    0 -0.89304971636E+01 -0.22674015221E+02 -0.20563474451E+02  0.31886066351E+02  0.00000000000E+00 0. -1.
         11    1    3    3    0    0 -0.38606410677E+01  0.14111215333E+02  0.19424662306E+02  0.24317657239E+02  0.51100000000E-03 0. -1.
        -11    1    3    3    0    0  0.36712174982E+01 -0.58573398102E+01  0.12640708105E+02  0.14407420631E+02  0.51100000000E-03 0.  1.
         12    1    3    3    0    0  0.91199207332E+01  0.14420139698E+02 -0.11501895960E+02  0.20576855779E+02  0.00000000000E+00 0. -1.
</event>
<event>
 7    1  0.6184948E-012  0.5930197E+02  0.7816164E-02  0.1266605E+00
        -11   -1    0    0    0    0  0.00000000000E+00  0.00000000000E+00  0.45593999997E+02  0.45594000000E+02  0.51100000000E-03 0.  1.
         11   -1    0    0    0    0 -0.00000000000E+00 -0.00000000000E+00 -0.45593999997E+02  0.45594000000E+02  0.51100000000E-03 0. -1.
    9900012    2    1    2    0    0 -0.20474638137E+02 -0.24292708915E+02  0.27151705036E+01  0.59301973843E+02  0.50000054375E+02 0.  0.
         12    1    1    2    0    0  0.20474638137E+02  0.24292708915E+02 -0.27151705036E+01  0.31886026157E+02  0.00000000000E+00 0. -1.
         11    1    3    3    0    0 -0.51628022543E+01 -0.32166805808E+01 -0.86202172650E+01  0.10550341560E+02  0.51100000000E-03 0. -1.
        -11    1    3    3    0    0 -0.24045160225E+01 -0.23435639043E+01 -0.14177453016E+02  0.14569631545E+02  0.51100000000E-03 0.  1.
        -12    1    3    3    0    0 -0.12907319860E+02 -0.18732464429E+02  0.25512840784E+02  0.34182000738E+02  0.00000000000E+00 0.  1.
</event>
<event>
 7    1  0.6184948E-012  0.5930195E+02  0.7816164E-02  0.1266605E+00
        -11   -1    0    0    0    0  0.00000000000E+00  0.00000000000E+00  0.45593999997E+02  0.45594000000E+02  0.51100000000E-03 0.  1.
         11   -1    0    0    0    0 -0.00000000000E+00 -0.00000000000E+00 -0.45593999997E+02  0.45594000000E+02  0.51100000000E-03 0. -1.
    9900012    2    1    2    0    0  0.25229790180E+02 -0.15725041908E+02  0.11528264348E+02  0.59301950787E+02  0.50000012327E+02 0.  0.
         12    1    1    2    0    0 -0.25229790180E+02  0.15725041908E+02 -0.11528264348E+02  0.31886049213E+02  0.00000000000E+00 0. -1.
         11    1    3    3    0    0 -0.22838370017E+01 -0.18024802275E+02 -0.69799955181E+00  0.18182315918E+02  0.51100000000E-03 0. -1.
        -11    1    3    3    0    0 -0.10984440028E+01 -0.85586678590E+01  0.33357810402E+01  0.92512058759E+01  0.51100000000E-03 0.  1.
        -12    1    3    3    0    0  0.28612071185E+02  0.10858428226E+02  0.88904828595E+01  0.31868428993E+02  0.00000000000E+00 0.  1.
</event>
<event>
 7    1  0.6184948E-012  0.5930194E+02  0.7816164E-02  0.1266605E+00
        -11   -1    0    0    0    0  0.00000000000E+00  0.00000000000E+00  0.45593999997E+02  0.45594000000E+02  0.51100000000E-03 0.  1.
         11   -1    0    0    0    0 -0.00000000000E+00 -0.00000000000E+00 -0.45593999997E+02  0.45594000000E+02  0.51100000000E-03 0. -1.
    9900012    2    1    2    0    0 -0.10731648146E+00  0.10113865069E+02  0.30239362924E+02  0.59301939511E+02  0.49999991762E+02 0.  0.
         12    1    1    2    0    0  0.10731648146E+00 -0.10113865069E+02 -0.30239362924E+02  0.31886060489E+02  0.00000000000E+00 0. -1.
         11    1    3    3    0    0 -0.12970672453E+02  0.18615165657E+02  0.27236514047E+02  0.35448419345E+02  0.51100000000E-03 0. -1.
        -11    1    3    3    0    0  0.34827572455E+00 -0.83810163405E+00  0.82266903600E+01  0.82766022540E+01  0.51100000000E-03 0.  1.
         12    1    3    3    0    0  0.12515080247E+02 -0.76631989542E+01 -0.52238414830E+01  0.15576917912E+02  0.00000000000E+00 0. -1.
</event>
<event>
 7    1  0.6184948E-012  0.5930193E+02  0.7816164E-02  0.1266605E+00
        -11   -1    0    0    0    0  0.00000000000E+00  0.00000000000E+00  0.45593999997E+02  0.45594000000E+02  0.51100000000E-03 0.  1.
         11   -1    0    0    0    0 -0.00000000000E+00 -0.00000000000E+00 -0.45593999997E+02  0.45594000000E+02  0.51100000000E-03 0. -1.
    9900012    2    1    2    0    0  0.21234571556E+02  0.99893182976E+00  0.23765867889E+02  0.59301931404E+02  0.49999976978E+02 0.  0.
         12    1    1    2    0    0 -0.21234571556E+02 -0.99893182976E+00 -0.23765867889E+02  0.31886068596E+02  0.00000000000E+00 0. -1.
         11    1    3    3    0    0  0.18138754379E+02  0.21456159720E+01  0.11008353938E+02  0.21326085787E+02  0.51100000000E-03 0. -1.
        -11    1    3    3    0    0  0.79723051688E+01 -0.15321471476E+02  0.14928818293E+02  0.22829252151E+02  0.51100000000E-03 0.  1.
         12    1    3    3    0    0 -0.48764879920E+01  0.14174787334E+02 -0.21713043414E+01  0.15146593466E+02  0.00000000000E+00 0. -1.
</event>
<event>
 7    1  0.6184948E-012  0.5930196E+02  0.7816164E-02  0.1266605E+00
        -11   -1    0    0    0    0  0.00000000000E+00  0.00000000000E+00  0.45593999997E+02  0.45594000000E+02  0.51100000000E-03 0.  1.
         11   -1    0    0    0    0 -0.00000000000E+00 -0.00000000000E+00 -0.45593999997E+02  0.45594000000E+02  0.51100000000E-03 0. -1.
    9900012    2    1    2    0    0 -0.17912776397E+02  0.13450485722E+02  0.22692211323E+02  0.59301959494E+02  0.50000028207E+02 0.  0.
         12    1    1    2    0    0  0.17912776397E+02 -0.13450485722E+02 -0.22692211323E+02  0.31886040506E+02  0.00000000000E+00 0. -1.
         11    1    3    3    0    0  0.31366861352E+01 -0.14230663807E+02  0.83250961057E+01  0.16782664202E+02  0.51100000000E-03 0. -1.
        -11    1    3    3    0    0 -0.59060765844E+01  0.65657199787E+01  0.13975634431E+02  0.16532053033E+02  0.51100000000E-03 0.  1.
        -12    1    3    3    0    0 -0.15143385948E+02  0.21115429550E+02  0.39148078548E+00  0.25987242260E+02  0.00000000000E+00 0.  1.
</event>
<event>
 7    1  0.6184948E-012  0.5930190E+02  0.7816164E-02  0.1266605E+00
        -11   -1    0    0    0    0  0.00000000000E+00  0.00000000000E+00  0.45593999997E+02  0.45594000000E+02  0.51100000000E-03 0.  1.
         11   -1    0    0    0    0 -0.00000000000E+00 -0.00000000000E+00 -0.45593999997E+02  0.45594000000E+02  0.51100000000E-03 0. -1.
    9900012    2    1    2    0    0 -0.30555833112E+01  0.10215746040E+02  0.30050383499E+02  0.59301896366E+02  0.49999913077E+02 0.  0.
         12    1    1    2    0    0  0.30555833112E+01 -0.10215746040E+02 -0.30050383499E+02  0.31886103634E+02  0.00000000000E+00 0. -1.
         11    1    3    3    0    0  0.16765472770E+02  0.17366979638E+02  0.86909291302E+01  0.25655902018E+02  0.51100000000E-03 0. -1.
        -11    1    3    3    0    0 -0.56080989728E+01  0.34288228430E+01  0.11814769207E+02  0.13520220851E+02  0.51100000000E-03 0.  1.
        -12    1    3    3    0    0 -0.14212957108E+02 -0.10580056441E+02  0.95446851617E+01  0.20125773498E+02  0.00000000000E+00 0.  1.
</event>
<event>
 7    1  0.6184948E-012  0.5930219E+02  0.7816164E-02  0.1266604E+00
        -11   -1    0    0    0    0  0.00000000000E+00  0.00000000000E+00  0.45593999997E+02  0.45594000000E+02  0.51100000000E-03 0. -1.
         11   -1    0    0    0    0 -0.00000000000E+00 -0.00000000000E+00 -0.45593999997E+02  0.45594000000E+02  0.51100000000E-03 0.  1.
    9900012    2    1    2    0    0 -0.59008928769E+01 -0.16608357973E+02 -0.26571546411E+02  0.59302185443E+02  0.50000440281E+02 0.  0.
         12    1    1    2    0    0  0.59008928769E+01  0.16608357973E+02  0.26571546411E+02  0.31885814557E+02  0.00000000000E+00 0. -1.
         11    1    3    3    0    0  0.12244803831E+02 -0.18248130513E+02 -0.20570246908E+02  0.30100906069E+02  0.51100000000E-03 0. -1.
        -11    1    3    3    0    0  0.42662364361E+01  0.40527863631E+01 -0.38511389284E-01  0.58844994708E+01  0.51100000000E-03 0.  1.
        -12    1    3    3    0    0 -0.22411933144E+02 -0.24130138230E+01 -0.59627881140E+01  0.23316779903E+02  0.00000000000E+00 0.  1.
</event>
<event>
 7    1  0.6184948E-012  0.5930194E+02  0.7816164E-02  0.1266605E+00
        -11   -1    0    0    0    0  0.00000000000E+00  0.00000000000E+00  0.45593999997E+02  0.45594000000E+02  0.51100000000E-03 0.  1.
         11   -1    0    0    0    0 -0.00000000000E+00 -0.00000000000E+00 -0.45593999997E+02  0.45594000000E+02  0.51100000000E-03 0. -1.
    9900012    2    1    2    0    0  0.91581453274E+01 -0.20941746173E+02  0.22232694867E+02  0.59301935965E+02  0.49999985296E+02 0.  0.
         12    1    1    2    0    0 -0.91581453274E+01  0.20941746173E+02 -0.22232694867E+02  0.31886064035E+02  0.00000000000E+00 0. -1.
         11    1    3    3    0    0 -0.90120174283E+01 -0.13761004544E+02 -0.11047881086E+02  0.19815079635E+02  0.51100000000E-03 0. -1.
        -11    1    3    3    0    0  0.43858358680E+01 -0.22440004081E+01  0.16484138599E+02  0.17204590077E+02  0.51100000000E-03 0.  1.
        -12    1    3    3    0    0  0.13784326888E+02 -0.49367412208E+01  0.16796437354E+02  0.22282266254E+02  0.00000000000E+00 0.  1.
</event>
<event>
 7    1  0.6184948E-012  0.5930194E+02  0.7816164E-02  0.1266605E+00
        -11   -1    0    0    0    0  0.00000000000E+00  0.00000000000E+00  0.45593999997E+02  0.45594000000E+02  0.51100000000E-03 0. -1.
         11   -1    0    0    0    0 -0.00000000000E+00 -0.00000000000E+00 -0.45593999997E+02  0.45594000000E+02  0.51100000000E-03 0.  1.
    9900012    2    1    2    0    0  0.16724061386E+02 -0.16100995674E+02 -0.21858282214E+02  0.59301940471E+02  0.49999993514E+02 0.  0.
         12    1    1    2    0    0 -0.16724061386E+02  0.16100995674E+02  0.21858282214E+02  0.31886059529E+02  0.00000000000E+00 0. -1.
         11    1    3    3    0    0  0.10929163974E+02 -0.11923214456E+02  0.12078866312E+02  0.20186844226E+02  0.51100000000E-03 0. -1.
        -11    1    3    3    0    0 -0.35886403588E+01 -0.16441239315E+01 -0.14185675060E+00  0.39498869257E+01  0.51100000000E-03 0.  1.
        -12    1    3    3    0    0  0.93835377702E+01 -0.25336572859E+01 -0.33795291775E+02  0.35165209320E+02  0.00000000000E+00 0.  1.
</event>
<event>
 7    1  0.6184948E-012  0.5930193E+02  0.7816164E-02  0.1266605E+00
        -11   -1    0    0    0    0  0.00000000000E+00  0.00000000000E+00  0.45593999997E+02  0.45594000000E+02  0.51100000000E-03 0. -1.
         11   -1    0    0    0    0 -0.00000000000E+00 -0.00000000000E+00 -0.45593999997E+02  0.45594000000E+02  0.51100000000E-03 0.  1.
    9900012    2    1    2    0    0 -0.19021498446E+02 -0.19891216662E+01 -0.25513666927E+02  0.59301933949E+02  0.49999981619E+02 0.  0.
         12    1    1    2    0    0  0.19021498446E+02  0.19891216662E+01  0.25513666927E+02  0.31886066051E+02  0.00000000000E+00 0. -1.
         11    1    3    3    0    0  0.47361912939E+00  0.26060817862E+01  0.34942029820E+01  0.43846815274E+01  0.51100000000E-03 0. -1.
        -11    1    3    3    0    0 -0.23730737558E+02  0.74617519250E+01 -0.19006191861E+01  0.24948707389E+02  0.51100000000E-03 0.  1.
        -12    1    3    3    0    0  0.42356199829E+01 -0.12056955377E+02 -0.27107250723E+02  0.29968545032E+02  0.00000000000E+00 0.  1.
</event>
<event>
 7    1  0.6184948E-012  0.5930196E+02  0.7816164E-02  0.1266605E+00
        -11   -1    0    0    0    0  0.00000000000E+00  0.00000000000E+00  0.45593999997E+02  0.45594000000E+02  0.51100000000E-03 0.  1.
         11   -1    0    0    0    0 -0.00000000000E+00 -0.00000000000E+00 -0.45593999997E+02  0.45594000000E+02  0.51100000000E-03 0. -1.
    9900012    2    1    2    0    0 -0.14676266196E+02  0.23505792709E+02 -0.15773536348E+02  0.59301960277E+02  0.50000029634E+02 0.  0.
         12    1    1    2    0    0  0.14676266196E+02 -0.23505792709E+02  0.15773536348E+02  0.31886039723E+02  0.00000000000E+00 0. -1.
         11    1    3    3    0    0  0.10570123540E+01 -0.76067175210E+01 -0.11476837755E+02  0.13809316843E+02  0.51100000000E-03 0. -1.
        -11    1    3    3    0    0 -0.15844274559E+02  0.19722564224E+01 -0.34764264944E+01  0.16340635640E+02  0.51100000000E-03 0.  1.
        -12    1    3    3    0    0  0.11099600915E+00  0.29140253808E+02 -0.82027209841E+00  0.29152007794E+02  0.00000000000E+00 0.  1.
</event>
<event>
 7    1  0.6184948E-012  0.5930194E+02  0.7816164E-02  0.1266605E+00
        -11   -1    0    0    0    0  0.00000000000E+00  0.00000000000E+00  0.45593999997E+02  0.45594000000E+02  0.51100000000E-03 0. -1.
         11   -1    0    0    0    0 -0.00000000000E+00 -0.00000000000E+00 -0.45593999997E+02  0.45594000000E+02  0.51100000000E-03 0.  1.
    9900012    2    1    2    0    0  0.98825902445E+00 -0.20513074215E+01 -0.31804657378E+02  0.59301941150E+02  0.49999994752E+02 0.  0.
         12    1    1    2    0    0 -0.98825902445E+00  0.20513074215E+01  0.31804657378E+02  0.31886058850E+02  0.00000000000E+00 0. -1.
         11    1    3    3    0    0  0.23761766043E+01 -0.86240812776E+01  0.81601232518E+01  0.12108204032E+02  0.51100000000E-03 0. -1.
        -11    1    3    3    0    0 -0.68860813604E+01 -0.70822498886E+01 -0.20815090404E+02  0.23040060087E+02  0.51100000000E-03 0.  1.
        -12    1    3    3    0    0  0.54981637806E+01  0.13655023745E+02 -0.19149690225E+02  0.24153677032E+02  0.00000000000E+00 0.  1.
</event>
<event>
 7    1  0.7122024E-012  0.5930193E+02  0.7816164E-02  0.1266605E+00
        -11   -1    0    0    0    0  0.00000000000E+00  0.00000000000E+00  0.45593999997E+02  0.45594000000E+02  0.51100000000E-03 0. -1.
         11   -1    0    0    0    0 -0.00000000000E+00 -0.00000000000E+00 -0.45593999997E+02  0.45594000000E+02  0.51100000000E-03 0.  1.
    9900012    2    1    2    0    0  0.20451379399E+02  0.40677912926E+00 -0.24460107104E+02  0.59301933637E+02  0.49999981050E+02 0.  0.
         12    1    1    2    0    0 -0.20451379399E+02 -0.40677912926E+00  0.24460107104E+02  0.31886066363E+02  0.00000000000E+00 0. -1.
         11    1    3    3    0    0  0.41852506876E+01 -0.64748684510E+01 -0.13876894235E+01  0.78336407227E+01  0.51100000000E-03 0. -1.
        -11    1    3    3    0    0  0.20759388105E+02 -0.68549514176E+01 -0.28596415202E+02  0.35995798590E+02  0.51100000000E-03 0.  1.
         12    1    3    3    0    0 -0.44932593937E+01  0.13736598998E+02  0.55239975218E+01  0.15472494325E+02  0.00000000000E+00 0. -1.
</event>
<event>
 7    1  0.6184948E-012  0.5930195E+02  0.7816164E-02  0.1266605E+00
        -11   -1    0    0    0    0  0.00000000000E+00  0.00000000000E+00  0.45593999997E+02  0.45594000000E+02  0.51100000000E-03 0. -1.
         11   -1    0    0    0    0 -0.00000000000E+00 -0.00000000000E+00 -0.45593999997E+02  0.45594000000E+02  0.51100000000E-03 0.  1.
    9900012    2    1    2    0    0 -0.14555348369E+02 -0.27596146377E+02  0.65813852507E+01  0.59301951439E+02  0.50000013516E+02 0.  0.
         12    1    1    2    0    0  0.14555348369E+02  0.27596146377E+02 -0.65813852507E+01  0.31886048561E+02  0.00000000000E+00 0. -1.
         11    1    3    3    0    0 -0.30241575552E+01 -0.29649050112E+02  0.17991091170E+02  0.34812225772E+02  0.51100000000E-03 0. -1.
        -11    1    3    3    0    0 -0.67755978005E+01 -0.77336269262E+01 -0.29192824299E+01  0.10688307684E+02  0.51100000000E-03 0.  1.
         12    1    3    3    0    0 -0.47555930134E+01  0.97865306609E+01 -0.84904234896E+01  0.13801417982E+02  0.00000000000E+00 0. -1.
</event>
<event>
 7    1  0.6184948E-012  0.5930187E+02  0.7816164E-02  0.1266605E+00
        -11   -1    0    0    0    0  0.00000000000E+00  0.00000000000E+00  0.45593999997E+02  0.45594000000E+02  0.51100000000E-03 0.  1.
         11   -1    0    0    0    0 -0.00000000000E+00 -0.00000000000E+00 -0.45593999997E+02  0.45594000000E+02  0.51100000000E-03 0. -1.
    9900012    2    1    2    0    0  0.37433845289E+01  0.26470188696E+02  0.17379345383E+02  0.59301867226E+02  0.49999859933E+02 0.  0.
         12    1    1    2    0    0 -0.37433845289E+01 -0.26470188696E+02 -0.17379345383E+02  0.31886132774E+02  0.00000000000E+00 0. -1.
         11    1    3    3    0    0 -0.10296604000E+02 -0.30270891872E+01 -0.93601283981E+01  0.14240622415E+02  0.51100000000E-03 0. -1.
        -11    1    3    3    0    0  0.12121189056E+02  0.90691414702E+01  0.73393016373E+01  0.16823730262E+02  0.51100000000E-03 0.  1.
        -12    1    3    3    0    0  0.19187994733E+01  0.20428136413E+02  0.19400172144E+02  0.28237514549E+02  0.00000000000E+00 0.  1.
</event>
<event>
 7    1  0.6184948E-012  0.5930195E+02  0.7816164E-02  0.1266605E+00
        -11   -1    0    0    0    0  0.00000000000E+00  0.00000000000E+00  0.45593999997E+02  0.45594000000E+02  0.51100000000E-03 0.  1.
         11   -1    0    0    0    0 -0.00000000000E+00 -0.00000000000E+00 -0.45593999997E+02  0.45594000000E+02  0.51100000000E-03 0. -1.
    9900012    2    1    2    0    0 -0.26094507798E+02  0.16217596181E+02  0.85315087469E+01  0.59301946550E+02  0.50000004600E+02 0.  0.
         12    1    1    2    0    0  0.26094507798E+02 -0.16217596181E+02 -0.85315087469E+01  0.31886053450E+02  0.00000000000E+00 0. -1.
         11    1    3    3    0    0 -0.76874323009E+01 -0.21695179357E+01  0.20734087657E+01  0.82524207131E+01  0.51100000000E-03 0. -1.
        -11    1    3    3    0    0 -0.15673415646E+02 -0.47333647689E+01 -0.12842258257E+02  0.20808274735E+02  0.51100000000E-03 0.  1.
        -12    1    3    3    0    0 -0.27336598511E+01  0.23120478886E+02  0.19300358238E+02  0.30241251102E+02  0.00000000000E+00 0.  1.
</event>
<event>
 7    1  0.6184948E-012  0.5930205E+02  0.7816164E-02  0.1266604E+00
        -11   -1    0    0    0    0  0.00000000000E+00  0.00000000000E+00  0.45593999997E+02  0.45594000000E+02  0.51100000000E-03 0. -1.
         11   -1    0    0    0    0 -0.00000000000E+00 -0.00000000000E+00 -0.45593999997E+02  0.45594000000E+02  0.51100000000E-03 0.  1.
    9900012    2    1    2    0    0  0.19787588263E+02  0.24084690347E+02 -0.67151404528E+01  0.59302045888E+02  0.50000185768E+02 0.  0.
         12    1    1    2    0    0 -0.19787588263E+02 -0.24084690347E+02  0.67151404528E+01  0.31885954112E+02  0.00000000000E+00 0. -1.
         11    1    3    3    0    0 -0.95191543229E+00  0.23290710081E+02  0.42966297950E+01  0.23702834154E+02  0.51100000000E-03 0. -1.
        -11    1    3    3    0    0  0.23197036922E+00  0.26295722063E+01  0.74754343019E+01  0.79278356759E+01  0.51100000000E-03 0.  1.
        -12    1    3    3    0    0  0.20507533326E+02 -0.18355919405E+01 -0.18487204550E+02  0.27671376058E+02  0.00000000000E+00 0.  1.
</event>
<event>
 7    1  0.6184948E-012  0.5930195E+02  0.7816164E-02  0.1266605E+00
        -11   -1    0    0    0    0  0.00000000000E+00  0.00000000000E+00  0.45593999997E+02  0.45594000000E+02  0.51100000000E-03 0.  1.
         11   -1    0    0    0    0 -0.00000000000E+00 -0.00000000000E+00 -0.45593999997E+02  0.45594000000E+02  0.51100000000E-03 0. -1.
    9900012    2    1    2    0    0  0.24756121513E+02 -0.73560901432E+01  0.18701402977E+02  0.59301951516E+02  0.50000013657E+02 0.  0.
         12    1    1    2    0    0 -0.24756121513E+02  0.73560901432E+01 -0.18701402977E+02  0.31886048484E+02  0.00000000000E+00 0. -1.
         11    1    3    3    0    0  0.18098222472E+02  0.50077393168E+00 -0.10315130288E+02  0.20837426528E+02  0.51100000000E-03 0. -1.
        -11    1    3    3    0    0 -0.56071805721E+01  0.38341213607E+01  0.30209365230E+01  0.74341790612E+01  0.51100000000E-03 0.  1.
        -12    1    3    3    0    0  0.12265079613E+02 -0.11690985436E+02  0.25995596742E+02  0.31030345927E+02  0.00000000000E+00 0.  1.
</event>
<event>
 7    1  0.6184948E-012  0.5930193E+02  0.7816164E-02  0.1266605E+00
        -11   -1    0    0    0    0  0.00000000000E+00  0.00000000000E+00  0.45593999997E+02  0.45594000000E+02  0.51100000000E-03 0.  1.
         11   -1    0    0    0    0 -0.00000000000E+00 -0.00000000000E+00 -0.45593999997E+02  0.45594000000E+02  0.51100000000E-03 0. -1.
    9900012    2    1    2    0    0 -0.38599993979E+01 -0.21256866633E+02 -0.23451388895E+02  0.59301927562E+02  0.49999969971E+02 0.  0.
         12    1    1    2    0    0  0.38599993979E+01  0.21256866633E+02  0.23451388895E+02  0.31886072438E+02  0.00000000000E+00 0. -1.
         11    1    3    3    0    0 -0.25276010318E+01 -0.17990877261E+02 -0.17965768996E+02  0.25550524212E+02  0.51100000000E-03 0. -1.
        -11    1    3    3    0    0 -0.15828719022E+02 -0.72687539989E+01  0.83603614387E+00  0.17437949629E+02  0.51100000000E-03 0.  1.
         12    1    3    3    0    0  0.14496320656E+02  0.40027646270E+01 -0.63216560423E+01  0.16313453722E+02  0.00000000000E+00 0. -1.
</event>
<event>
 7    1  0.6184948E-012  0.5930191E+02  0.7816164E-02  0.1266605E+00
        -11   -1    0    0    0    0  0.00000000000E+00  0.00000000000E+00  0.45593999997E+02  0.45594000000E+02  0.51100000000E-03 0.  1.
         11   -1    0    0    0    0 -0.00000000000E+00 -0.00000000000E+00 -0.45593999997E+02  0.45594000000E+02  0.51100000000E-03 0. -1.
    9900012    2    1    2    0    0  0.52962139536E+01  0.11936954486E+02  0.29089211089E+02  0.59301906379E+02  0.49999931337E+02 0.  0.
         12    1    1    2    0    0 -0.52962139536E+01 -0.11936954486E+02 -0.29089211089E+02  0.31886093621E+02  0.00000000000E+00 0. -1.
         11    1    3    3    0    0 -0.10907242425E+02  0.33307526928E+01 -0.44997817832E+01  0.12260093277E+02  0.51100000000E-03 0. -1.
        -11    1    3    3    0    0  0.83094291012E+01  0.92263119225E+01 -0.11809415917E+00  0.12417140982E+02  0.51100000000E-03 0.  1.
        -12    1    3    3    0    0  0.78940272771E+01 -0.62011012907E+00  0.33707087031E+02  0.34624672119E+02  0.00000000000E+00 0.  1.
</event>
<event>
 7    1  0.6184948E-012  0.5930196E+02  0.7816164E-02  0.1266605E+00
        -11   -1    0    0    0    0  0.00000000000E+00  0.00000000000E+00  0.45593999997E+02  0.45594000000E+02  0.51100000000E-03 0.  1.
         11   -1    0    0    0    0 -0.00000000000E+00 -0.00000000000E+00 -0.45593999997E+02  0.45594000000E+02  0.51100000000E-03 0. -1.
    9900012    2    1    2    0    0 -0.17531091909E+02 -0.24560684780E+02 -0.10303071467E+02  0.59301957567E+02  0.50000024693E+02 0.  0.
         12    1    1    2    0    0  0.17531091909E+02  0.24560684780E+02  0.10303071467E+02  0.31886042433E+02  0.00000000000E+00 0. -1.
         11    1    3    3    0    0 -0.49182574864E+01  0.10883136338E+01 -0.26973917101E+01  0.57139833363E+01  0.51100000000E-03 0. -1.
        -11    1    3    3    0    0 -0.26632696243E+02 -0.11077751752E+02  0.56726834212E+01  0.29397218074E+02  0.51100000000E-03 0.  1.
        -12    1    3    3    0    0  0.14019861820E+02 -0.14571246662E+02 -0.13278363178E+02  0.24190756157E+02  0.00000000000E+00 0.  1.
</event>
<event>
 7    1  0.6184948E-012  0.5930195E+02  0.7816164E-02  0.1266605E+00
        -11   -1    0    0    0    0  0.00000000000E+00  0.00000000000E+00  0.45593999997E+02  0.45594000000E+02  0.51100000000E-03 0.  1.
         11   -1    0    0    0    0 -0.00000000000E+00 -0.00000000000E+00 -0.45593999997E+02  0.45594000000E+02  0.51100000000E-03 0. -1.
    9900012    2    1    2    0    0  0.92057372459E+01  0.15116376676E+01  0.30490810566E+02  0.59301950141E+02  0.50000011149E+02 0.  0.
         12    1    1    2    0    0 -0.92057372459E+01 -0.15116376676E+01 -0.30490810566E+02  0.31886049859E+02  0.00000000000E+00 0. -1.
         11    1    3    3    0    0 -0.62781240969E+01 -0.49881684753E+01  0.30469801618E+01  0.85779225505E+01  0.51100000000E-03 0.  1.
        -11    1    3    3    0    0 -0.12212792857E+01 -0.25794737460E+01 -0.90961830780E+01  0.95334020554E+01  0.51100000000E-03 0. -1.
        -12    1    3    3    0    0  0.16705140629E+02  0.90792798889E+01  0.36540013482E+02  0.41190625535E+02  0.00000000000E+00 0.  1.
</event>
<event>
 7    1  0.6184948E-012  0.5930196E+02  0.7816164E-02  0.1266605E+00
        -11   -1    0    0    0    0  0.00000000000E+00  0.00000000000E+00  0.45593999997E+02  0.45594000000E+02  0.51100000000E-03 0.  1.
         11   -1    0    0    0    0 -0.00000000000E+00 -0.00000000000E+00 -0.45593999997E+02  0.45594000000E+02  0.51100000000E-03 0. -1.
    9900012    2    1    2    0    0  0.11139583375E+02 -0.13593478368E+02  0.26605390504E+02  0.59301956411E+02  0.50000022584E+02 0.  0.
         12    1    1    2    0    0 -0.11139583375E+02  0.13593478368E+02 -0.26605390504E+02  0.31886043589E+02  0.00000000000E+00 0. -1.
         11    1    3    3    0    0 -0.19529361071E+01 -0.16722326933E+02  0.92756943731E+01  0.19222088436E+02  0.51100000000E-03 0. -1.
        -11    1    3    3    0    0  0.16515543460E+02 -0.63941823465E+01 -0.24334706191E+01  0.17876535548E+02  0.51100000000E-03 0.  1.
        -12    1    3    3    0    0 -0.34230239784E+01  0.95230309115E+01  0.19763166749E+02  0.22203332427E+02  0.00000000000E+00 0.  1.
</event>
<event>
 7    1  0.6184948E-012  0.5930196E+02  0.7816164E-02  0.1266605E+00
        -11   -1    0    0    0    0  0.00000000000E+00  0.00000000000E+00  0.45593999997E+02  0.45594000000E+02  0.51100000000E-03 0.  1.
         11   -1    0    0    0    0 -0.00000000000E+00 -0.00000000000E+00 -0.45593999997E+02  0.45594000000E+02  0.51100000000E-03 0. -1.
    9900012    2    1    2    0    0  0.64465959061E+01 -0.19073934717E+02  0.24725416403E+02  0.59301956020E+02  0.50000021872E+02 0.  0.
         12    1    1    2    0    0 -0.64465959061E+01  0.19073934717E+02 -0.24725416403E+02  0.31886043980E+02  0.00000000000E+00 0. -1.
         11    1    3    3    0    0 -0.75325846676E+01  0.18300802846E-01  0.15286773450E+02  0.17041878109E+02  0.51100000000E-03 0. -1.
        -11    1    3    3    0    0 -0.10671231034E+02 -0.10312276628E+02  0.53529105565E+01  0.15775673448E+02  0.51100000000E-03 0.  1.
        -12    1    3    3    0    0  0.24650411608E+02 -0.87799588919E+01  0.40857323960E+01  0.26484404464E+02  0.00000000000E+00 0.  1.
</event>
<event>
 7    1  0.6184948E-012  0.5930191E+02  0.7816164E-02  0.1266605E+00
        -11   -1    0    0    0    0  0.00000000000E+00  0.00000000000E+00  0.45593999997E+02  0.45594000000E+02  0.51100000000E-03 0. -1.
         11   -1    0    0    0    0 -0.00000000000E+00 -0.00000000000E+00 -0.45593999997E+02  0.45594000000E+02  0.51100000000E-03 0.  1.
    9900012    2    1    2    0    0 -0.38674025917E+01  0.29998854649E+02  0.10091300799E+02  0.59301914714E+02  0.49999946539E+02 0.  0.
         12    1    1    2    0    0  0.38674025917E+01 -0.29998854649E+02 -0.10091300799E+02  0.31886085286E+02  0.00000000000E+00 0. -1.
         11    1    3    3    0    0  0.95341051899E+01 -0.18313562531E+00  0.13791303214E+02  0.16767013599E+02  0.51100000000E-03 0. -1.
        -11    1    3    3    0    0  0.93736592966E+00  0.15894133670E+02  0.93371691755E+01  0.18457650676E+02  0.51100000000E-03 0.  1.
         12    1    3    3    0    0 -0.14338873711E+02  0.14287856604E+02 -0.13037171590E+02  0.24077250439E+02  0.00000000000E+00 0. -1.
</event>
<event>
 7    1  0.6184948E-012  0.5930195E+02  0.7816164E-02  0.1266605E+00
        -11   -1    0    0    0    0  0.00000000000E+00  0.00000000000E+00  0.45593999997E+02  0.45594000000E+02  0.51100000000E-03 0.  1.
         11   -1    0    0    0    0 -0.00000000000E+00 -0.00000000000E+00 -0.45593999997E+02  0.45594000000E+02  0.51100000000E-03 0. -1.
    9900012    2    1    2    0    0 -0.20436637270E+02  0.16083685552E+02  0.18449360051E+02  0.59301953362E+02  0.50000017024E+02 0.  0.
         12    1    1    2    0    0  0.20436637270E+02 -0.16083685552E+02 -0.18449360051E+02  0.31886046638E+02  0.00000000000E+00 0. -1.
         11    1    3    3    0    0 -0.63162420634E+01 -0.16855468116E+02  0.85536639227E+01  0.19929046289E+02  0.51100000000E-03 0. -1.
        -11    1    3    3    0    0 -0.12644982959E+02  0.13844459656E+02  0.69469520944E+01  0.19995619542E+02  0.51100000000E-03 0.  1.
        -12    1    3    3    0    0 -0.14754122484E+01  0.19094694012E+02  0.29487440342E+01  0.19377287532E+02  0.00000000000E+00 0.  1.
</event>
<event>
 7    1  0.6184948E-012  0.5930192E+02  0.7816164E-02  0.1266605E+00
        -11   -1    0    0    0    0  0.00000000000E+00  0.00000000000E+00  0.45593999997E+02  0.45594000000E+02  0.51100000000E-03 0.  1.
         11   -1    0    0    0    0 -0.00000000000E+00 -0.00000000000E+00 -0.45593999997E+02  0.45594000000E+02  0.51100000000E-03 0. -1.
    9900012    2    1    2    0    0  0.25649557637E+02  0.20373974809E+00  0.18941503800E+02  0.59301923367E+02  0.49999962319E+02 0.  0.
         12    1    1    2    0    0 -0.25649557637E+02 -0.20373974809E+00 -0.18941503800E+02  0.31886076633E+02  0.00000000000E+00 0. -1.
         11    1    3    3    0    0  0.17002131592E+02  0.15907897786E+02 -0.81740843446E+01  0.24676899031E+02  0.51100000000E-03 0. -1.
        -11    1    3    3    0    0  0.86917217161E+01 -0.36254018938E+01  0.10893450063E+02  0.14399889577E+02  0.51100000000E-03 0.  1.
        -12    1    3    3    0    0 -0.44295670411E-01 -0.12078756144E+02  0.16222138081E+02  0.20225134759E+02  0.00000000000E+00 0.  1.
</event>
<event>
 7    1  0.6184948E-012  0.5930193E+02  0.7816164E-02  0.1266605E+00
        -11   -1    0    0    0    0  0.00000000000E+00  0.00000000000E+00  0.45593999997E+02  0.45594000000E+02  0.51100000000E-03 0. -1.
         11   -1    0    0    0    0 -0.00000000000E+00 -0.00000000000E+00 -0.45593999997E+02  0.45594000000E+02  0.51100000000E-03 0.  1.
    9900012    2    1    2    0    0  0.17971822860E+02 -0.25602391087E+02 -0.61848444171E+01  0.59301934913E+02  0.49999983377E+02 0.  0.
         12    1    1    2    0    0 -0.17971822860E+02  0.25602391087E+02  0.61848444171E+01  0.31886065087E+02  0.00000000000E+00 0. -1.
         11    1    3    3    0    0  0.10412794424E+02 -0.13783620551E+01  0.10348005334E+02  0.14744740904E+02  0.51100000000E-03 0. -1.
        -11    1    3    3    0    0  0.19000159251E+02 -0.11239738133E+02 -0.23848333590E+01  0.22204170673E+02  0.51100000000E-03 0.  1.
        -12    1    3    3    0    0 -0.11441130815E+02 -0.12984290899E+02 -0.14148016392E+02  0.22353023337E+02  0.00000000000E+00 0.  1.
</event>
<event>
 7    1  0.6184948E-012  0.5930194E+02  0.7816164E-02  0.1266605E+00
        -11   -1    0    0    0    0  0.00000000000E+00  0.00000000000E+00  0.45593999997E+02  0.45594000000E+02  0.51100000000E-03 0.  1.
         11   -1    0    0    0    0 -0.00000000000E+00 -0.00000000000E+00 -0.45593999997E+02  0.45594000000E+02  0.51100000000E-03 0. -1.
    9900012    2    1    2    0    0 -0.22663873641E+02  0.53675780651E+01  0.21777478622E+02  0.59301942894E+02  0.49999997932E+02 0.  0.
         12    1    1    2    0    0  0.22663873641E+02 -0.53675780651E+01 -0.21777478622E+02  0.31886057106E+02  0.00000000000E+00 0. -1.
         11    1    3    3    0    0  0.64709104396E+01  0.48211994595E+01  0.42710121488E+01  0.91300707107E+01  0.51100000000E-03 0. -1.
        -11    1    3    3    0    0 -0.18573174597E+02  0.96017922191E+01  0.26387376199E+02  0.33666761818E+02  0.51100000000E-03 0.  1.
         12    1    3    3    0    0 -0.10561609483E+02 -0.90554136135E+01 -0.88809097259E+01  0.16505110365E+02  0.00000000000E+00 0. -1.
</event>
<event>
 7    1  0.6184948E-012  0.5930197E+02  0.7816164E-02  0.1266605E+00
        -11   -1    0    0    0    0  0.00000000000E+00  0.00000000000E+00  0.45593999997E+02  0.45594000000E+02  0.51100000000E-03 0. -1.
         11   -1    0    0    0    0 -0.00000000000E+00 -0.00000000000E+00 -0.45593999997E+02  0.45594000000E+02  0.51100000000E-03 0.  1.
    9900012    2    1    2    0    0 -0.20427933785E+02 -0.20579042629E+02  0.13263526226E+02  0.59301974813E+02  0.50000056145E+02 0.  0.
         12    1    1    2    0    0  0.20427933785E+02  0.20579042629E+02 -0.13263526226E+02  0.31886025187E+02  0.00000000000E+00 0. -1.
         11    1    3    3    0    0 -0.14575648606E+02 -0.43299785648E+01 -0.67219832963E+00  0.15220055766E+02  0.51100000000E-03 0. -1.
        -11    1    3    3    0    0 -0.18428604409E+02 -0.28876740168E-01  0.14654081257E+02  0.23544774199E+02  0.51100000000E-03 0.  1.
        -12    1    3    3    0    0  0.12576319230E+02 -0.16220187324E+02 -0.71835670126E+00  0.20537144849E+02  0.00000000000E+00 0.  1.
</event>
<event>
 7    1  0.6184948E-012  0.5930193E+02  0.7816164E-02  0.1266605E+00
        -11   -1    0    0    0    0  0.00000000000E+00  0.00000000000E+00  0.45593999997E+02  0.45594000000E+02  0.51100000000E-03 0.  1.
         11   -1    0    0    0    0 -0.00000000000E+00 -0.00000000000E+00 -0.45593999997E+02  0.45594000000E+02  0.51100000000E-03 0. -1.
    9900012    2    1    2    0    0 -0.17005212501E+02 -0.82340817737E+01 -0.25685484044E+02  0.59301930229E+02  0.49999974834E+02 0.  0.
         12    1    1    2    0    0  0.17005212501E+02  0.82340817737E+01  0.25685484044E+02  0.31886069771E+02  0.00000000000E+00 0. -1.
         11    1    3    3    0    0 -0.65947600475E+01 -0.31005861173E+01  0.53513041604E+01  0.90410702260E+01  0.51100000000E-03 0. -1.
        -11    1    3    3    0    0 -0.44864328162E+01 -0.18918518630E+02 -0.47842221732E+01  0.20023166799E+02  0.51100000000E-03 0.  1.
         12    1    3    3    0    0 -0.59240196376E+01  0.13785022974E+02 -0.26252566032E+02  0.30237693204E+02  0.00000000000E+00 0. -1.
</event>
<event>
 7    1  0.6184948E-012  0.5930192E+02  0.7816164E-02  0.1266605E+00
        -11   -1    0    0    0    0  0.00000000000E+00  0.00000000000E+00  0.45593999997E+02  0.45594000000E+02  0.51100000000E-03 0.  1.
         11   -1    0    0    0    0 -0.00000000000E+00 -0.00000000000E+00 -0.45593999997E+02  0.45594000000E+02  0.51100000000E-03 0. -1.
    9900012    2    1    2    0    0  0.66533979573E+01 -0.10252030913E+02  0.29450811028E+02  0.59301919770E+02  0.49999955760E+02 0.  0.
         12    1    1    2    0    0 -0.66533979573E+01  0.10252030913E+02 -0.29450811028E+02  0.31886080230E+02  0.00000000000E+00 0. -1.
         11    1    3    3    0    0 -0.82466225169E+01 -0.10401830096E+02 -0.29883188083E+01  0.13606428696E+02  0.51100000000E-03 0. -1.
        -11    1    3    3    0    0  0.52098561738E+01 -0.10666933480E+01  0.35157962029E+02  0.35557878597E+02  0.51100000000E-03 0.  1.
         12    1    3    3    0    0  0.96901643004E+01  0.12164925310E+01 -0.27188321925E+01  0.10137612477E+02  0.00000000000E+00 0. -1.
</event>
<event>
 7    1  0.6184948E-012  0.5930196E+02  0.7816164E-02  0.1266605E+00
        -11   -1    0    0    0    0  0.00000000000E+00  0.00000000000E+00  0.45593999997E+02  0.45594000000E+02  0.51100000000E-03 0.  1.
         11   -1    0    0    0    0 -0.00000000000E+00 -0.00000000000E+00 -0.45593999997E+02  0.45594000000E+02  0.51100000000E-03 0. -1.
    9900012    2    1    2    0    0  0.16321905378E+01  0.24622842607E+02  0.20193343529E+02  0.59301960000E+02  0.50000029130E+02 0.  0.
         12    1    1    2    0    0 -0.16321905378E+01 -0.24622842607E+02 -0.20193343529E+02  0.31886040000E+02  0.00000000000E+00 0. -1.
         11    1    3    3    0    0 -0.10978905612E+02  0.36927626933E+01  0.83194867598E+01  0.14261371777E+02  0.51100000000E-03 0. -1.
        -11    1    3    3    0    0  0.35602848596E+01 -0.55279301363E+01  0.15505940053E+02  0.16842440947E+02  0.51100000000E-03 0.  1.
         12    1    3    3    0    0  0.90508112901E+01  0.26458010050E+02 -0.36320832840E+01  0.28198147276E+02  0.00000000000E+00 0. -1.
</event>
<event>
 7    1  0.6184948E-012  0.5930198E+02  0.7816164E-02  0.1266605E+00
        -11   -1    0    0    0    0  0.00000000000E+00  0.00000000000E+00  0.45593999997E+02  0.45594000000E+02  0.51100000000E-03 0.  1.
         11   -1    0    0    0    0 -0.00000000000E+00 -0.00000000000E+00 -0.45593999997E+02  0.45594000000E+02  0.51100000000E-03 0. -1.
    9900012    2    1    2    0    0 -0.53241545847E+01 -0.23096116112E+02  0.21329351286E+02  0.59301977548E+02  0.50000061133E+02 0.  0.
         12    1    1    2    0    0  0.53241545847E+01  0.23096116112E+02 -0.21329351286E+02  0.31886022452E+02  0.00000000000E+00 0. -1.
         11    1    3    3    0    0  0.86985448104E+01 -0.68874606993E+01 -0.43809799409E+01  0.11928737662E+02  0.51100000000E-03 0. -1.
        -11    1    3    3    0    0 -0.91461204659E+01 -0.26535073285E+02  0.20840036427E+02  0.34958099953E+02  0.51100000000E-03 0.  1.
         12    1    3    3    0    0 -0.48765789292E+01  0.10326417872E+02  0.48702948006E+01  0.12415139933E+02  0.00000000000E+00 0. -1.
</event>
<event>
 7    1  0.6184948E-012  0.5930196E+02  0.7816164E-02  0.1266605E+00
        -11   -1    0    0    0    0  0.00000000000E+00  0.00000000000E+00  0.45593999997E+02  0.45594000000E+02  0.51100000000E-03 0.  1.
         11   -1    0    0    0    0 -0.00000000000E+00 -0.00000000000E+00 -0.45593999997E+02  0.45594000000E+02  0.51100000000E-03 0. -1.
    9900012    2    1    2    0    0 -0.22820749174E+02 -0.20740847724E+01  0.22172757204E+02  0.59301959441E+02  0.50000028110E+02 0.  0.
         12    1    1    2    0    0  0.22820749174E+02  0.20740847724E+01 -0.22172757204E+02  0.31886040559E+02  0.00000000000E+00 0. -1.
         11    1    3    3    0    0  0.41652809932E+01  0.12741218133E+02 -0.43070675029E+00  0.13411700632E+02  0.51100000000E-03 0. -1.
        -11    1    3    3    0    0 -0.10185217660E+02 -0.14664997025E+01  0.22154058896E+02  0.24427271767E+02  0.51100000000E-03 0.  1.
        -12    1    3    3    0    0 -0.16800812507E+02 -0.13348803203E+02  0.44940505842E+00  0.21462987042E+02  0.00000000000E+00 0.  1.
</event>
<event>
 7    1  0.6184948E-012  0.5930191E+02  0.7816164E-02  0.1266605E+00
        -11   -1    0    0    0    0  0.00000000000E+00  0.00000000000E+00  0.45593999997E+02  0.45594000000E+02  0.51100000000E-03 0. -1.
         11   -1    0    0    0    0 -0.00000000000E+00 -0.00000000000E+00 -0.45593999997E+02  0.45594000000E+02  0.51100000000E-03 0.  1.
    9900012    2    1    2    0    0  0.22840926991E+02 -0.22056047383E+02  0.29232452173E+01  0.59301913150E+02  0.49999943687E+02 0.  0.
         12    1    1    2    0    0 -0.22840926991E+02  0.22056047383E+02 -0.29232452173E+01  0.31886086850E+02  0.00000000000E+00 0. -1.
         11    1    3    3    0    0 -0.22143887761E+01 -0.81095508653E+01  0.14940479169E+02  0.17143110889E+02  0.51100000000E-03 0. -1.
        -11    1    3    3    0    0  0.87993440553E+01  0.26470584471E+01  0.74666982292E+01  0.11840057303E+02  0.51100000000E-03 0.  1.
        -12    1    3    3    0    0  0.16255971712E+02 -0.16593554965E+02 -0.19483932181E+02  0.30318744959E+02  0.00000000000E+00 0.  1.
</event>
<event>
 7    1  0.6184948E-012  0.5930195E+02  0.7816164E-02  0.1266605E+00
        -11   -1    0    0    0    0  0.00000000000E+00  0.00000000000E+00  0.45593999997E+02  0.45594000000E+02  0.51100000000E-03 0.  1.
         11   -1    0    0    0    0 -0.00000000000E+00 -0.00000000000E+00 -0.45593999997E+02  0.45594000000E+02  0.51100000000E-03 0. -1.
    9900012    2    1    2    0    0  0.18828177549E+02  0.24830724937E+02  0.67568661234E+01  0.59301946457E+02  0.50000004431E+02 0.  0.
         12    1    1    2    0    0 -0.18828177549E+02 -0.24830724937E+02 -0.67568661234E+01  0.31886053543E+02  0.00000000000E+00 0. -1.
         11    1    3    3    0    0 -0.11313314762E+01  0.83089805164E+01 -0.12438536695E+02  0.15001208735E+02  0.51100000000E-03 0. -1.
        -11    1    3    3    0    0 -0.66998839176E+01  0.43965955757E+01 -0.18645497450E+01  0.82276997501E+01  0.51100000000E-03 0.  1.
        -12    1    3    3    0    0  0.26659392943E+02  0.12125148845E+02  0.21059952563E+02  0.36073037973E+02  0.00000000000E+00 0.  1.
</event>
<event>
 7    1  0.6184948E-012  0.5930193E+02  0.7816164E-02  0.1266605E+00
        -11   -1    0    0    0    0  0.00000000000E+00  0.00000000000E+00  0.45593999997E+02  0.45594000000E+02  0.51100000000E-03 0.  1.
         11   -1    0    0    0    0 -0.00000000000E+00 -0.00000000000E+00 -0.45593999997E+02  0.45594000000E+02  0.51100000000E-03 0. -1.
    9900012    2    1    2    0    0 -0.10509732394E+02 -0.11710912298E+02  0.27733036439E+02  0.59301933263E+02  0.49999980367E+02 0.  0.
         12    1    1    2    0    0  0.10509732394E+02  0.11710912298E+02 -0.27733036439E+02  0.31886066737E+02  0.00000000000E+00 0. -1.
         11    1    3    3    0    0 -0.54670843897E+01  0.89073186389E+01  0.43440380209E+01  0.11318127215E+02  0.51100000000E-03 0. -1.
        -11    1    3    3    0    0  0.13420677926E+02 -0.10144521419E+02  0.59136476591E+00  0.16833764385E+02  0.51100000000E-03 0.  1.
         12    1    3    3    0    0 -0.18463325930E+02 -0.10473709518E+02  0.22797633652E+02  0.31150041663E+02  0.00000000000E+00 0. -1.
</event>
<event>
 7    1  0.6184948E-012  0.5930196E+02  0.7816164E-02  0.1266605E+00
        -11   -1    0    0    0    0  0.00000000000E+00  0.00000000000E+00  0.45593999997E+02  0.45594000000E+02  0.51100000000E-03 0.  1.
         11   -1    0    0    0    0 -0.00000000000E+00 -0.00000000000E+00 -0.45593999997E+02  0.45594000000E+02  0.51100000000E-03 0. -1.
    9900012    2    1    2    0    0 -0.24407519837E+02 -0.10230889255E+02  0.17785419271E+02  0.59301964527E+02  0.50000037386E+02 0.  0.
         12    1    1    2    0    0  0.24407519837E+02  0.10230889255E+02 -0.17785419271E+02  0.31886035473E+02  0.00000000000E+00 0. -1.
         11    1    3    3    0    0 -0.50887452283E+01 -0.10774261059E+01 -0.37774702957E+01  0.64284879332E+01  0.51100000000E-03 0. -1.
        -11    1    3    3    0    0 -0.88770226951E+01 -0.38144946628E+01 -0.13101589443E+02  0.16278929561E+02  0.51100000000E-03 0.  1.
        -12    1    3    3    0    0 -0.10441751913E+02 -0.53389684865E+01  0.34664479010E+02  0.36594547033E+02  0.00000000000E+00 0.  1.
</event>
<event>
 7    1  0.6184948E-012  0.5930195E+02  0.7816164E-02  0.1266605E+00
        -11   -1    0    0    0    0  0.00000000000E+00  0.00000000000E+00  0.45593999997E+02  0.45594000000E+02  0.51100000000E-03 0.  1.
         11   -1    0    0    0    0 -0.00000000000E+00 -0.00000000000E+00 -0.45593999997E+02  0.45594000000E+02  0.51100000000E-03 0. -1.
    9900012    2    1    2    0    0 -0.93959775247E+01  0.28334767826E+00  0.30468929271E+02  0.59301947712E+02  0.50000006720E+02 0.  0.
         12    1    1    2    0    0  0.93959775247E+01 -0.28334767826E+00 -0.30468929271E+02  0.31886052288E+02  0.00000000000E+00 0. -1.
         11    1    3    3    0    0 -0.17402007648E+01  0.55558825693E+01  0.20219118360E+02  0.21040648216E+02  0.51100000000E-03 0. -1.
        -11    1    3    3    0    0 -0.11201292715E+02 -0.96140978752E+01  0.21274124982E+02  0.25893787488E+02  0.51100000000E-03 0.  1.
         12    1    3    3    0    0  0.35455159552E+01  0.43415629842E+01 -0.11024314071E+02  0.12367512008E+02  0.00000000000E+00 0. -1.
</event>
<event>
 7    1  0.6184948E-012  0.5930188E+02  0.7816164E-02  0.1266605E+00
        -11   -1    0    0    0    0  0.00000000000E+00  0.00000000000E+00  0.45593999997E+02  0.45594000000E+02  0.51100000000E-03 0. -1.
         11   -1    0    0    0    0 -0.00000000000E+00 -0.00000000000E+00 -0.45593999997E+02  0.45594000000E+02  0.51100000000E-03 0.  1.
    9900012    2    1    2    0    0  0.41781532020E+01 -0.80865502491E+01 -0.30559378458E+02  0.59301876515E+02  0.49999876873E+02 0.  0.
         12    1    1    2    0    0 -0.41781532020E+01  0.80865502491E+01  0.30559378458E+02  0.31886123485E+02  0.00000000000E+00 0. -1.
         11    1    3    3    0    0 -0.17903557867E+02  0.62251630718E+00 -0.13212603469E+02  0.22259779908E+02  0.51100000000E-03 0. -1.
        -11    1    3    3    0    0  0.56929086035E-01  0.55195422137E+01 -0.68520184420E+01  0.87987921989E+01  0.51100000000E-03 0.  1.
        -12    1    3    3    0    0  0.22024781983E+02 -0.14228608770E+02 -0.10494756548E+02  0.28243304409E+02  0.00000000000E+00 0.  1.
</event>
<event>
 7    1  0.6184948E-012  0.5930194E+02  0.7816164E-02  0.1266605E+00
        -11   -1    0    0    0    0  0.00000000000E+00  0.00000000000E+00  0.45593999997E+02  0.45594000000E+02  0.51100000000E-03 0.  1.
         11   -1    0    0    0    0 -0.00000000000E+00 -0.00000000000E+00 -0.45593999997E+02  0.45594000000E+02  0.51100000000E-03 0. -1.
    9900012    2    1    2    0    0 -0.14538510021E+02  0.22579645366E+01  0.28288761160E+02  0.59301942147E+02  0.49999996569E+02 0.  0.
         12    1    1    2    0    0  0.14538510021E+02 -0.22579645366E+01 -0.28288761160E+02  0.31886057853E+02  0.00000000000E+00 0. -1.
         11    1    3    3    0    0  0.84440739955E+01  0.23611673817E+01  0.46068303377E+01  0.99045637494E+01  0.51100000000E-03 0. -1.
        -11    1    3    3    0    0  0.32092533018E+01 -0.34019161897E+01 -0.73151350363E+01  0.86823695715E+01  0.51100000000E-03 0.  1.
         12    1    3    3    0    0 -0.26191837318E+02  0.32987133446E+01  0.30997065858E+02  0.40715008826E+02  0.00000000000E+00 0. -1.
</event>
<event>
 7    1  0.6184948E-012  0.5930193E+02  0.7816164E-02  0.1266605E+00
        -11   -1    0    0    0    0  0.00000000000E+00  0.00000000000E+00  0.45593999997E+02  0.45594000000E+02  0.51100000000E-03 0. -1.
         11   -1    0    0    0    0 -0.00000000000E+00 -0.00000000000E+00 -0.45593999997E+02  0.45594000000E+02  0.51100000000E-03 0.  1.
    9900012    2    1    2    0    0  0.17112957045E+02 -0.15969023869E+02 -0.21653146352E+02  0.59301925154E+02  0.49999965579E+02 0.  0.
         12    1    1    2    0    0 -0.17112957045E+02  0.15969023869E+02  0.21653146352E+02  0.31886074846E+02  0.00000000000E+00 0. -1.
         11    1    3    3    0    0  0.13402609253E+02 -0.94545199738E+01 -0.75890296399E+01  0.18072389268E+02  0.51100000000E-03 0. -1.
        -11    1    3    3    0    0  0.18698721861E+02 -0.96785402993E+01 -0.97042028413E+00  0.21077430046E+02  0.51100000000E-03 0.  1.
         12    1    3    3    0    0 -0.14988374070E+02  0.31640364040E+01 -0.13093696428E+02  0.20152105839E+02  0.00000000000E+00 0. -1.
</event>
<event>
 7    1  0.6184948E-012  0.5930195E+02  0.7816164E-02  0.1266605E+00
        -11   -1    0    0    0    0  0.00000000000E+00  0.00000000000E+00  0.45593999997E+02  0.45594000000E+02  0.51100000000E-03 0. -1.
         11   -1    0    0    0    0 -0.00000000000E+00 -0.00000000000E+00 -0.45593999997E+02  0.45594000000E+02  0.51100000000E-03 0.  1.
    9900012    2    1    2    0    0 -0.22159593189E+02  0.20137935492E+02 -0.10960668846E+02  0.59301948540E+02  0.50000008229E+02 0.  0.
         12    1    1    2    0    0  0.22159593189E+02 -0.20137935492E+02  0.10960668846E+02  0.31886051460E+02  0.00000000000E+00 0. -1.
         11    1    3    3    0    0  0.38734049788E+01  0.21702355814E+02 -0.15493909968E+02  0.26945440437E+02  0.51100000000E-03 0. -1.
        -11    1    3    3    0    0 -0.79394232013E+01  0.79963997399E+00 -0.71293271491E+01  0.10700521983E+02  0.51100000000E-03 0.  1.
        -12    1    3    3    0    0 -0.18093574966E+02 -0.23640602963E+01  0.11662568270E+02  0.21655986119E+02  0.00000000000E+00 0.  1.
</event>
<event>
 7    1  0.6184948E-012  0.5930194E+02  0.7816164E-02  0.1266605E+00
        -11   -1    0    0    0    0  0.00000000000E+00  0.00000000000E+00  0.45593999997E+02  0.45594000000E+02  0.51100000000E-03 0. -1.
         11   -1    0    0    0    0 -0.00000000000E+00 -0.00000000000E+00 -0.45593999997E+02  0.45594000000E+02  0.51100000000E-03 0.  1.
    9900012    2    1    2    0    0  0.78879256554E+01 -0.20592919714E+02 -0.23031127473E+02  0.59301944331E+02  0.50000000552E+02 0.  0.
         12    1    1    2    0    0 -0.78879256554E+01  0.20592919714E+02  0.23031127473E+02  0.31886055669E+02  0.00000000000E+00 0. -1.
         11    1    3    3    0    0 -0.50800974162E+01  0.33485680485E+01 -0.40762665509E+01  0.73236771494E+01  0.51100000000E-03 0.  1.
        -11    1    3    3    0    0  0.83232659830E+00 -0.31069780159E+02 -0.21342066573E+02  0.37702888650E+02  0.51100000000E-03 0. -1.
         12    1    3    3    0    0  0.12135696473E+02  0.71282923968E+01  0.23872056509E+01  0.14275378531E+02  0.00000000000E+00 0. -1.
</event>
<event>
 7    1  0.6184948E-012  0.5930194E+02  0.7816164E-02  0.1266605E+00
        -11   -1    0    0    0    0  0.00000000000E+00  0.00000000000E+00  0.45593999997E+02  0.45594000000E+02  0.51100000000E-03 0.  1.
         11   -1    0    0    0    0 -0.00000000000E+00 -0.00000000000E+00 -0.45593999997E+02  0.45594000000E+02  0.51100000000E-03 0. -1.
    9900012    2    1    2    0    0 -0.12262998137E+02 -0.16439195984E+02  0.24415007012E+02  0.59301939483E+02  0.49999991711E+02 0.  0.
         12    1    1    2    0    0  0.12262998137E+02  0.16439195984E+02 -0.24415007012E+02  0.31886060517E+02  0.00000000000E+00 0. -1.
         11    1    3    3    0    0 -0.90725516937E+01 -0.18933817626E+02  0.10705718909E+02  0.23567203096E+02  0.51100000000E-03 0.  1.
        -11    1    3    3    0    0 -0.12813805369E+02  0.64798827743E+01 -0.42488908891E+01  0.14974497082E+02  0.51100000000E-03 0. -1.
         12    1    3    3    0    0  0.96233589256E+01 -0.39852611320E+01  0.17958178992E+02  0.20760239305E+02  0.00000000000E+00 0. -1.
</event>
<event>
 7    1  0.6184948E-012  0.5930196E+02  0.7816164E-02  0.1266605E+00
        -11   -1    0    0    0    0  0.00000000000E+00  0.00000000000E+00  0.45593999997E+02  0.45594000000E+02  0.51100000000E-03 0.  1.
         11   -1    0    0    0    0 -0.00000000000E+00 -0.00000000000E+00 -0.45593999997E+02  0.45594000000E+02  0.51100000000E-03 0. -1.
    9900012    2    1    2    0    0  0.18871943178E+02 -0.93762546860E+01  0.23930211499E+02  0.59301962089E+02  0.50000032940E+02 0.  0.
         12    1    1    2    0    0 -0.18871943178E+02  0.93762546860E+01 -0.23930211499E+02  0.31886037911E+02  0.00000000000E+00 0. -1.
         11    1    3    3    0    0 -0.28245189756E+01  0.50750600395E+01  0.49364009782E+01  0.76224796967E+01  0.51100000000E-03 0. -1.
        -11    1    3    3    0    0  0.23698806717E+02 -0.10241787269E+01  0.26983238682E+02  0.35927392779E+02  0.51100000000E-03 0.  1.
         12    1    3    3    0    0 -0.20023445632E+01 -0.13427135999E+02 -0.79894281605E+01  0.15752089614E+02  0.00000000000E+00 0. -1.
</event>
<event>
 7    1  0.6184948E-012  0.5930207E+02  0.7816164E-02  0.1266604E+00
        -11   -1    0    0    0    0  0.00000000000E+00  0.00000000000E+00  0.45593999997E+02  0.45594000000E+02  0.51100000000E-03 0.  1.
         11   -1    0    0    0    0 -0.00000000000E+00 -0.00000000000E+00 -0.45593999997E+02  0.45594000000E+02  0.51100000000E-03 0. -1.
    9900012    2    1    2    0    0 -0.18809398612E+02 -0.68198629188E+01  0.24827574368E+02  0.59302071201E+02  0.50000231933E+02 0.  0.
         12    1    1    2    0    0  0.18809398612E+02  0.68198629188E+01 -0.24827574368E+02  0.31885928799E+02  0.00000000000E+00 0. -1.
         11    1    3    3    0    0 -0.10215067540E+02  0.16762277126E+02  0.35452546148E+01  0.19947189522E+02  0.51100000000E-03 0. -1.
        -11    1    3    3    0    0  0.66311808352E+01 -0.52301142016E+01  0.19762283313E+01  0.86736458603E+01  0.51100000000E-03 0.  1.
         12    1    3    3    0    0 -0.15225511907E+02 -0.18352025843E+02  0.19306091422E+02  0.30681235819E+02  0.00000000000E+00 0. -1.
</event>
<event>
 7    1  0.6184948E-012  0.5930190E+02  0.7816164E-02  0.1266605E+00
        -11   -1    0    0    0    0  0.00000000000E+00  0.00000000000E+00  0.45593999997E+02  0.45594000000E+02  0.51100000000E-03 0.  1.
         11   -1    0    0    0    0 -0.00000000000E+00 -0.00000000000E+00 -0.45593999997E+02  0.45594000000E+02  0.51100000000E-03 0. -1.
    9900012    2    1    2    0    0 -0.76608490012E+01  0.26580289109E+02  0.15859472004E+02  0.59301902264E+02  0.49999923833E+02 0.  0.
         12    1    1    2    0    0  0.76608490012E+01 -0.26580289109E+02 -0.15859472004E+02  0.31886097736E+02  0.00000000000E+00 0. -1.
         11    1    3    3    0    0 -0.51591909972E+01 -0.53767287350E+01  0.71244570845E+01  0.10309430277E+02  0.51100000000E-03 0. -1.
        -11    1    3    3    0    0 -0.80115568033E+00  0.90345616480E+01  0.21046377399E+02  0.22917573093E+02  0.51100000000E-03 0.  1.
         12    1    3    3    0    0 -0.17005023237E+01  0.22922456196E+02 -0.12311362479E+02  0.26074898894E+02  0.00000000000E+00 0. -1.
</event>
<event>
 7    1  0.6184948E-012  0.5930196E+02  0.7816164E-02  0.1266605E+00
        -11   -1    0    0    0    0  0.00000000000E+00  0.00000000000E+00  0.45593999997E+02  0.45594000000E+02  0.51100000000E-03 0. -1.
         11   -1    0    0    0    0 -0.00000000000E+00 -0.00000000000E+00 -0.45593999997E+02  0.45594000000E+02  0.51100000000E-03 0.  1.
    9900012    2    1    2    0    0  0.25487720888E+01  0.21358844438E+02 -0.23537696863E+02  0.59301958407E+02  0.50000026224E+02 0.  0.
         12    1    1    2    0    0 -0.25487720888E+01 -0.21358844438E+02  0.23537696863E+02  0.31886041593E+02  0.00000000000E+00 0. -1.
         11    1    3    3    0    0 -0.15109462145E+02  0.35720428611E+01 -0.12430922219E+02  0.19889272586E+02  0.51100000000E-03 0. -1.
        -11    1    3    3    0    0 -0.18918149539E+01  0.10032740836E+02 -0.14879500890E+02  0.18045342876E+02  0.51100000000E-03 0.  1.
         12    1    3    3    0    0  0.19550049188E+02  0.77540607400E+01  0.37727262458E+01  0.21367342945E+02  0.00000000000E+00 0. -1.
</event>
<event>
 7    1  0.6184948E-012  0.5930204E+02  0.7816164E-02  0.1266604E+00
        -11   -1    0    0    0    0  0.00000000000E+00  0.00000000000E+00  0.45593999997E+02  0.45594000000E+02  0.51100000000E-03 0.  1.
         11   -1    0    0    0    0 -0.00000000000E+00 -0.00000000000E+00 -0.45593999997E+02  0.45594000000E+02  0.51100000000E-03 0. -1.
    9900012    2    1    2    0    0  0.32921161650E+01 -0.23259851054E+02  0.21560519283E+02  0.59302036134E+02  0.50000167980E+02 0.  0.
         12    1    1    2    0    0 -0.32921161650E+01  0.23259851054E+02 -0.21560519283E+02  0.31885963866E+02  0.00000000000E+00 0. -1.
         11    1    3    3    0    0  0.10692758545E+02 -0.64702508615E+01  0.46896877205E+01  0.13348872712E+02  0.51100000000E-03 0. -1.
        -11    1    3    3    0    0  0.30943326487E+01 -0.22353650088E+02  0.23307831550E+02  0.32442496491E+02  0.51100000000E-03 0.  1.
        -12    1    3    3    0    0 -0.10494975028E+02  0.55640498951E+01 -0.64369999877E+01  0.13510666931E+02  0.00000000000E+00 0.  1.
</event>
<event>
 7    1  0.6184948E-012  0.5930195E+02  0.7816164E-02  0.1266605E+00
        -11   -1    0    0    0    0  0.00000000000E+00  0.00000000000E+00  0.45593999997E+02  0.45594000000E+02  0.51100000000E-03 0.  1.
         11   -1    0    0    0    0 -0.00000000000E+00 -0.00000000000E+00 -0.45593999997E+02  0.45594000000E+02  0.51100000000E-03 0. -1.
    9900012    2    1    2    0    0  0.13787746143E+02 -0.43340198769E+01  0.28422431824E+02  0.59301948147E+02  0.50000007513E+02 0.  0.
         12    1    1    2    0    0 -0.13787746143E+02  0.43340198769E+01 -0.28422431824E+02  0.31886051853E+02  0.00000000000E+00 0. -1.
         11    1    3    3    0    0 -0.83059709734E+01 -0.15442785947E+01 -0.17543413986E+01  0.86285377784E+01  0.51100000000E-03 0. -1.
        -11    1    3    3    0    0 -0.38463686800E+01 -0.11757868456E+02  0.47268987455E+01  0.13243322645E+02  0.51100000000E-03 0.  1.
        -12    1    3    3    0    0  0.25940085796E+02  0.89681271741E+01  0.25449874477E+02  0.37430087724E+02  0.00000000000E+00 0.  1.
</event>
<event>
 7    1  0.6184948E-012  0.5930188E+02  0.7816164E-02  0.1266605E+00
        -11   -1    0    0    0    0  0.00000000000E+00  0.00000000000E+00  0.45593999997E+02  0.45594000000E+02  0.51100000000E-03 0.  1.
         11   -1    0    0    0    0 -0.00000000000E+00 -0.00000000000E+00 -0.45593999997E+02  0.45594000000E+02  0.51100000000E-03 0. -1.
    9900012    2    1    2    0    0  0.28512255856E+02 -0.11260536058E+02  0.87736091106E+01  0.59301880400E+02  0.49999883959E+02 0.  0.
         12    1    1    2    0    0 -0.28512255856E+02  0.11260536058E+02 -0.87736091106E+01  0.31886119600E+02  0.00000000000E+00 0. -1.
         11    1    3    3    0    0  0.65028355088E+01  0.52098276875E+01  0.16324512010E+02  0.18328089557E+02  0.51100000000E-03 0. -1.
        -11    1    3    3    0    0  0.18797734772E+01 -0.19633196142E+02 -0.18209093680E+01  0.19806858667E+02  0.51100000000E-03 0.  1.
         12    1    3    3    0    0  0.20129646870E+02  0.31628323961E+01 -0.57299935318E+01  0.21166932176E+02  0.00000000000E+00 0. -1.
</event>
<event>
 7    1  0.6184948E-012  0.5930195E+02  0.7816164E-02  0.1266605E+00
        -11   -1    0    0    0    0  0.00000000000E+00  0.00000000000E+00  0.45593999997E+02  0.45594000000E+02  0.51100000000E-03 0. -1.
         11   -1    0    0    0    0 -0.00000000000E+00 -0.00000000000E+00 -0.45593999997E+02  0.45594000000E+02  0.51100000000E-03 0.  1.
    9900012    2    1    2    0    0  0.28109748797E+02 -0.95062450050E+01 -0.11670197347E+02  0.59301950109E+02  0.50000011092E+02 0.  0.
         12    1    1    2    0    0 -0.28109748797E+02  0.95062450050E+01  0.11670197347E+02  0.31886049891E+02  0.00000000000E+00 0. -1.
         11    1    3    3    0    0  0.23430490682E+02  0.89587689009E+00 -0.16455007819E+02  0.28645379585E+02  0.51100000000E-03 0. -1.
        -11    1    3    3    0    0 -0.42162248469E+01  0.68529668280E+01 -0.44107380716E+01  0.91757461225E+01  0.51100000000E-03 0.  1.
        -12    1    3    3    0    0  0.88954829618E+01 -0.17255088723E+02  0.91955485435E+01  0.21480824402E+02  0.00000000000E+00 0.  1.
</event>
<event>
 7    1  0.6184948E-012  0.5930195E+02  0.7816164E-02  0.1266605E+00
        -11   -1    0    0    0    0  0.00000000000E+00  0.00000000000E+00  0.45593999997E+02  0.45594000000E+02  0.51100000000E-03 0.  1.
         11   -1    0    0    0    0 -0.00000000000E+00 -0.00000000000E+00 -0.45593999997E+02  0.45594000000E+02  0.51100000000E-03 0. -1.
    9900012    2    1    2    0    0  0.68111323480E+01 -0.23285412993E+02  0.20691023945E+02  0.59301945776E+02  0.50000003188E+02 0.  0.
         12    1    1    2    0    0 -0.68111323480E+01  0.23285412993E+02 -0.20691023945E+02  0.31886054224E+02  0.00000000000E+00 0. -1.
         11    1    3    3    0    0 -0.75328582573E+01 -0.98854657750E+01  0.67876026673E+01  0.14161141809E+02  0.51100000000E-03 0. -1.
        -11    1    3    3    0    0  0.34923490665E+00 -0.74635955661E+01  0.25146539585E+02  0.26233102697E+02  0.51100000000E-03 0.  1.
         12    1    3    3    0    0  0.13994755699E+02 -0.59363516522E+01 -0.11243118307E+02  0.18907701269E+02  0.00000000000E+00 0. -1.
</event>
<event>
 7    1  0.6184948E-012  0.5930191E+02  0.7816164E-02  0.1266605E+00
        -11   -1    0    0    0    0  0.00000000000E+00  0.00000000000E+00  0.45593999997E+02  0.45594000000E+02  0.51100000000E-03 0.  1.
         11   -1    0    0    0    0 -0.00000000000E+00 -0.00000000000E+00 -0.45593999997E+02  0.45594000000E+02  0.51100000000E-03 0. -1.
    9900012    2    1    2    0    0 -0.21260694145E+02  0.20016202756E+02  0.12808478800E+02  0.59301911851E+02  0.49999941317E+02 0.  0.
         12    1    1    2    0    0  0.21260694145E+02 -0.20016202756E+02 -0.12808478800E+02  0.31886088149E+02  0.00000000000E+00 0. -1.
         11    1    3    3    0    0 -0.66992978910E+01 -0.49355008899E+01  0.33571584787E+01  0.89727517841E+01  0.51100000000E-03 0. -1.
        -11    1    3    3    0    0 -0.11257483533E+02  0.91526962317E+01  0.24362117199E+02  0.28355167756E+02  0.51100000000E-03 0.  1.
        -12    1    3    3    0    0 -0.33039127209E+01  0.15799007414E+02 -0.14910796877E+02  0.21973992310E+02  0.00000000000E+00 0.  1.
</event>
<event>
 7    1  0.6184948E-012  0.5930190E+02  0.7816164E-02  0.1266605E+00
        -11   -1    0    0    0    0  0.00000000000E+00  0.00000000000E+00  0.45593999997E+02  0.45594000000E+02  0.51100000000E-03 0. -1.
         11   -1    0    0    0    0 -0.00000000000E+00 -0.00000000000E+00 -0.45593999997E+02  0.45594000000E+02  0.51100000000E-03 0.  1.
    9900012    2    1    2    0    0 -0.19553985741E+02 -0.22712140083E+02 -0.10886866526E+02  0.59301897569E+02  0.49999915270E+02 0.  0.
         12    1    1    2    0    0  0.19553985741E+02  0.22712140083E+02  0.10886866526E+02  0.31886102431E+02  0.00000000000E+00 0. -1.
         11    1    3    3    0    0 -0.56581403775E+01 -0.20321495393E+02 -0.11761926184E+02  0.24152031702E+02  0.51100000000E-03 0. -1.
        -11    1    3    3    0    0 -0.11766976794E+02  0.95838522756E+01 -0.10534182361E+02  0.18473791316E+02  0.51100000000E-03 0.  1.
         12    1    3    3    0    0 -0.21288685688E+01 -0.11974496966E+02  0.11409242019E+02  0.16676074550E+02  0.00000000000E+00 0. -1.
</event>
<event>
 7    1  0.6184948E-012  0.5930195E+02  0.7816164E-02  0.1266605E+00
        -11   -1    0    0    0    0  0.00000000000E+00  0.00000000000E+00  0.45593999997E+02  0.45594000000E+02  0.51100000000E-03 0.  1.
         11   -1    0    0    0    0 -0.00000000000E+00 -0.00000000000E+00 -0.45593999997E+02  0.45594000000E+02  0.51100000000E-03 0. -1.
    9900012    2    1    2    0    0  0.17295463517E+02 -0.20156200519E+02 -0.17644113096E+02  0.59301949687E+02  0.50000010321E+02 0.  0.
         12    1    1    2    0    0 -0.17295463517E+02  0.20156200519E+02  0.17644113096E+02  0.31886050313E+02  0.00000000000E+00 0. -1.
         11    1    3    3    0    0  0.12108425828E+02  0.26070497109E+01 -0.34333784938E+01  0.12852967454E+02  0.51100000000E-03 0. -1.
        -11    1    3    3    0    0  0.93420587657E+01 -0.43940959407E+01  0.10931046870E+02  0.15035621938E+02  0.51100000000E-03 0.  1.
         12    1    3    3    0    0 -0.41550210765E+01 -0.18369154289E+02 -0.25141781472E+02  0.31413360295E+02  0.00000000000E+00 0. -1.
</event>
<event>
 7    1  0.6184948E-012  0.5930194E+02  0.7816164E-02  0.1266605E+00
        -11   -1    0    0    0    0  0.00000000000E+00  0.00000000000E+00  0.45593999997E+02  0.45594000000E+02  0.51100000000E-03 0.  1.
         11   -1    0    0    0    0 -0.00000000000E+00 -0.00000000000E+00 -0.45593999997E+02  0.45594000000E+02  0.51100000000E-03 0. -1.
    9900012    2    1    2    0    0 -0.31012092206E+01 -0.27121503144E+02  0.16478081641E+02  0.59301943392E+02  0.49999998841E+02 0.  0.
         12    1    1    2    0    0  0.31012092206E+01  0.27121503144E+02 -0.16478081641E+02  0.31886056608E+02  0.00000000000E+00 0. -1.
         11    1    3    3    0    0  0.33551843939E+01 -0.28633504561E+01  0.22240928716E+01  0.49399015693E+01  0.51100000000E-03 0. -1.
        -11    1    3    3    0    0 -0.44681817228E+01  0.34857390684E+01  0.24175240377E+02  0.24830571325E+02  0.51100000000E-03 0.  1.
         12    1    3    3    0    0 -0.19882118917E+01 -0.27743891756E+02 -0.99212516077E+01  0.29531470498E+02  0.00000000000E+00 0. -1.
</event>
<event>
 7    1  0.6184948E-012  0.5930189E+02  0.7816164E-02  0.1266605E+00
        -11   -1    0    0    0    0  0.00000000000E+00  0.00000000000E+00  0.45593999997E+02  0.45594000000E+02  0.51100000000E-03 0.  1.
         11   -1    0    0    0    0 -0.00000000000E+00 -0.00000000000E+00 -0.45593999997E+02  0.45594000000E+02  0.51100000000E-03 0. -1.
    9900012    2    1    2    0    0  0.30939033966E+02 -0.64514933976E+01 -0.42282795034E+01  0.59301891153E+02  0.49999903570E+02 0.  0.
         12    1    1    2    0    0 -0.30939033966E+02  0.64514933976E+01  0.42282795034E+01  0.31886108847E+02  0.00000000000E+00 0. -1.
         11    1    3    3    0    0  0.62107148245E+00 -0.43103538691E+01  0.77197210143E+01  0.88633499910E+01  0.51100000000E-03 0. -1.
        -11    1    3    3    0    0  0.27981080763E+02 -0.15685279291E+02  0.22542832985E+00  0.32078336698E+02  0.51100000000E-03 0.  1.
         12    1    3    3    0    0  0.23368817204E+01  0.13544139762E+02 -0.12173428848E+02  0.18360204465E+02  0.00000000000E+00 0. -1.
</event>
<event>
 7    1  0.6184948E-012  0.5930194E+02  0.7816164E-02  0.1266605E+00
        -11   -1    0    0    0    0  0.00000000000E+00  0.00000000000E+00  0.45593999997E+02  0.45594000000E+02  0.51100000000E-03 0.  1.
         11   -1    0    0    0    0 -0.00000000000E+00 -0.00000000000E+00 -0.45593999997E+02  0.45594000000E+02  0.51100000000E-03 0. -1.
    9900012    2    1    2    0    0 -0.70398246023E+01 -0.15611429672E+02  0.26896936546E+02  0.59301936235E+02  0.49999985789E+02 0.  0.
         12    1    1    2    0    0  0.70398246023E+01  0.15611429672E+02 -0.26896936546E+02  0.31886063765E+02  0.00000000000E+00 0. -1.
         11    1    3    3    0    0 -0.37013383389E+01  0.10166731071E+01 -0.18049719815E+01  0.42416333907E+01  0.51100000000E-03 0. -1.
        -11    1    3    3    0    0  0.10793514452E+01 -0.25344069009E+02  0.67199694422E+00  0.25375941630E+02  0.51100000000E-03 0.  1.
        -12    1    3    3    0    0 -0.44178377085E+01  0.87159662296E+01  0.28029911583E+02  0.29684361214E+02  0.00000000000E+00 0.  1.
</event>
<event>
 7    1  0.6184948E-012  0.5930194E+02  0.7816164E-02  0.1266605E+00
        -11   -1    0    0    0    0  0.00000000000E+00  0.00000000000E+00  0.45593999997E+02  0.45594000000E+02  0.51100000000E-03 0.  1.
         11   -1    0    0    0    0 -0.00000000000E+00 -0.00000000000E+00 -0.45593999997E+02  0.45594000000E+02  0.51100000000E-03 0. -1.
    9900012    2    1    2    0    0 -0.14038700778E+02  0.53331226235E+01  0.28128160836E+02  0.59301941158E+02  0.49999994767E+02 0.  0.
         12    1    1    2    0    0  0.14038700778E+02 -0.53331226235E+01 -0.28128160836E+02  0.31886058842E+02  0.00000000000E+00 0. -1.
         11    1    3    3    0    0 -0.17539046947E+02  0.22849514703E+01  0.14635409506E+02  0.22957229421E+02  0.51100000000E-03 0. -1.
        -11    1    3    3    0    0 -0.66552333753E+01  0.14676632680E+02  0.13316107500E+02  0.20904889316E+02  0.51100000000E-03 0.  1.
         12    1    3    3    0    0  0.10155579544E+02 -0.11628461527E+02  0.17664383028E+00  0.15439822421E+02  0.00000000000E+00 0. -1.
</event>
<event>
 7    1  0.6184948E-012  0.5930193E+02  0.7816164E-02  0.1266605E+00
        -11   -1    0    0    0    0  0.00000000000E+00  0.00000000000E+00  0.45593999997E+02  0.45594000000E+02  0.51100000000E-03 0.  1.
         11   -1    0    0    0    0 -0.00000000000E+00 -0.00000000000E+00 -0.45593999997E+02  0.45594000000E+02  0.51100000000E-03 0. -1.
    9900012    2    1    2    0    0 -0.12902167969E+02 -0.96466229077E+01  0.27517231004E+02  0.59301932918E+02  0.49999979738E+02 0.  0.
         12    1    1    2    0    0  0.12902167969E+02  0.96466229077E+01 -0.27517231004E+02  0.31886067082E+02  0.00000000000E+00 0. -1.
         11    1    3    3    0    0 -0.12463097703E+01  0.15271915777E+01 -0.91433646634E+01  0.93534335827E+01  0.51100000000E-03 0. -1.
        -11    1    3    3    0    0  0.51429987123E+01  0.40634735178E+01  0.21968938140E+02  0.22925891391E+02  0.51100000000E-03 0.  1.
        -12    1    3    3    0    0 -0.16798856911E+02 -0.15237288003E+02  0.14691657527E+02  0.27022607944E+02  0.00000000000E+00 0.  1.
</event>
<event>
 7    1  0.6184948E-012  0.5930196E+02  0.7816164E-02  0.1266605E+00
        -11   -1    0    0    0    0  0.00000000000E+00  0.00000000000E+00  0.45593999997E+02  0.45594000000E+02  0.51100000000E-03 0.  1.
         11   -1    0    0    0    0 -0.00000000000E+00 -0.00000000000E+00 -0.45593999997E+02  0.45594000000E+02  0.51100000000E-03 0. -1.
    9900012    2    1    2    0    0 -0.27444789811E+02 -0.14366643610E+02 -0.75566083730E+01  0.59301964397E+02  0.50000037148E+02 0.  0.
         12    1    1    2    0    0  0.27444789811E+02  0.14366643610E+02  0.75566083730E+01  0.31886035603E+02  0.00000000000E+00 0. -1.
         11    1    3    3    0    0 -0.21025356756E+02  0.14386210017E+01  0.30261651422E+01  0.21290677134E+02  0.51100000000E-03 0. -1.
        -11    1    3    3    0    0 -0.10385230221E+00 -0.20512401331E+02  0.44955787140E+01  0.20999514801E+02  0.51100000000E-03 0.  1.
         12    1    3    3    0    0 -0.63155807535E+01  0.47071367189E+01 -0.15078352229E+02  0.17011772462E+02  0.00000000000E+00 0. -1.
</event>
<event>
 7    1  0.6184948E-012  0.5930201E+02  0.7816164E-02  0.1266605E+00
        -11   -1    0    0    0    0  0.00000000000E+00  0.00000000000E+00  0.45593999997E+02  0.45594000000E+02  0.51100000000E-03 0.  1.
         11   -1    0    0    0    0 -0.00000000000E+00 -0.00000000000E+00 -0.45593999997E+02  0.45594000000E+02  0.51100000000E-03 0. -1.
    9900012    2    1    2    0    0 -0.98649045237E+01  0.26789295828E+02  0.14203305994E+02  0.59302006000E+02  0.50000113022E+02 0.  0.
         12    1    1    2    0    0  0.98649045237E+01 -0.26789295828E+02 -0.14203305994E+02  0.31885994000E+02  0.00000000000E+00 0. -1.
         11    1    3    3    0    0  0.40052541384E+01  0.16352535946E+01  0.42105524430E+01  0.60369584368E+01  0.51100000000E-03 0. -1.
        -11    1    3    3    0    0  0.24893754387E+01  0.30064587584E+02 -0.49497687083E+01  0.30570846033E+02  0.51100000000E-03 0.  1.
         12    1    3    3    0    0 -0.16359534101E+02 -0.49105453502E+01  0.14942522259E+02  0.22694201530E+02  0.00000000000E+00 0. -1.
</event>
<event>
 7    1  0.6184948E-012  0.5930193E+02  0.7816164E-02  0.1266605E+00
        -11   -1    0    0    0    0  0.00000000000E+00  0.00000000000E+00  0.45593999997E+02  0.45594000000E+02  0.51100000000E-03 0. -1.
         11   -1    0    0    0    0 -0.00000000000E+00 -0.00000000000E+00 -0.45593999997E+02  0.45594000000E+02  0.51100000000E-03 0.  1.
    9900012    2    1    2    0    0 -0.20935314052E+02  0.63699787519E+01 -0.23191755592E+02  0.59301928884E+02  0.49999972382E+02 0.  0.
         12    1    1    2    0    0  0.20935314052E+02 -0.63699787519E+01  0.23191755592E+02  0.31886071116E+02  0.00000000000E+00 0. -1.
         11    1    3    3    0    0 -0.14337413905E+02 -0.11795457571E+01 -0.41713579408E+01  0.14978417574E+02  0.51100000000E-03 0. -1.
        -11    1    3    3    0    0 -0.69469600099E+01 -0.40003576884E+01  0.10158124573E+02  0.12940270867E+02  0.51100000000E-03 0.  1.
        -12    1    3    3    0    0  0.34905986368E+00  0.11549882197E+02 -0.29178522224E+02  0.31383240444E+02  0.00000000000E+00 0.  1.
</event>
<event>
 7    1  0.6184948E-012  0.5930193E+02  0.7816164E-02  0.1266605E+00
        -11   -1    0    0    0    0  0.00000000000E+00  0.00000000000E+00  0.45593999997E+02  0.45594000000E+02  0.51100000000E-03 0. -1.
         11   -1    0    0    0    0 -0.00000000000E+00 -0.00000000000E+00 -0.45593999997E+02  0.45594000000E+02  0.51100000000E-03 0.  1.
    9900012    2    1    2    0    0  0.85413301920E+01  0.12713662289E+02 -0.27966581383E+02  0.59301934007E+02  0.49999981725E+02 0.  0.
         12    1    1    2    0    0 -0.85413301920E+01 -0.12713662289E+02  0.27966581383E+02  0.31886065993E+02  0.00000000000E+00 0. -1.
         11    1    3    3    0    0  0.10845061159E+02 -0.80342980209E+00  0.79281571297E+01  0.13457954032E+02  0.51100000000E-03 0. -1.
        -11    1    3    3    0    0  0.45884161305E+01 -0.60074445584E+01 -0.70451065559E+01  0.10333270506E+02  0.51100000000E-03 0.  1.
        -12    1    3    3    0    0 -0.68921470977E+01  0.19524536649E+02 -0.28849631957E+02  0.35510709469E+02  0.00000000000E+00 0.  1.
</event>
<event>
 7    1  0.6184948E-012  0.5930192E+02  0.7816164E-02  0.1266605E+00
        -11   -1    0    0    0    0  0.00000000000E+00  0.00000000000E+00  0.45593999997E+02  0.45594000000E+02  0.51100000000E-03 0.  1.
         11   -1    0    0    0    0 -0.00000000000E+00 -0.00000000000E+00 -0.45593999997E+02  0.45594000000E+02  0.51100000000E-03 0. -1.
    9900012    2    1    2    0    0 -0.28269823761E+02  0.58619254453E+01  0.13534284383E+02  0.59301922173E+02  0.49999960143E+02 0.  0.
         12    1    1    2    0    0  0.28269823761E+02 -0.58619254453E+01 -0.13534284383E+02  0.31886077827E+02  0.00000000000E+00 0. -1.
         11    1    3    3    0    0  0.56038251521E+01  0.36577121891E+01 -0.72810482398E+01  0.98891545910E+01  0.51100000000E-03 0. -1.
        -11    1    3    3    0    0 -0.11756754660E+02 -0.90107356263E+01 -0.29072272088E+01  0.15095251140E+02  0.51100000000E-03 0.  1.
        -12    1    3    3    0    0 -0.22116894253E+02  0.11214948882E+02  0.23722559831E+02  0.34317516442E+02  0.00000000000E+00 0.  1.
</event>
<event>
 7    1  0.6184948E-012  0.5930197E+02  0.7816164E-02  0.1266605E+00
        -11   -1    0    0    0    0  0.00000000000E+00  0.00000000000E+00  0.45593999997E+02  0.45594000000E+02  0.51100000000E-03 0.  1.
         11   -1    0    0    0    0 -0.00000000000E+00 -0.00000000000E+00 -0.45593999997E+02  0.45594000000E+02  0.51100000000E-03 0. -1.
    9900012    2    1    2    0    0  0.87958237333E+01 -0.29789120399E+02  0.72083969457E+01  0.59301965505E+02  0.50000039170E+02 0.  0.
         12    1    1    2    0    0 -0.87958237333E+01  0.29789120399E+02 -0.72083969457E+01  0.31886034495E+02  0.00000000000E+00 0. -1.
         11    1    3    3    0    0  0.15683865903E+01 -0.93439304007E+01 -0.79627936082E+01  0.12376386958E+02  0.51100000000E-03 0. -1.
        -11    1    3    3    0    0  0.10704437672E+01 -0.13772462087E+02  0.27992261059E+02  0.31215272564E+02  0.51100000000E-03 0.  1.
         12    1    3    3    0    0  0.61569933758E+01 -0.66727279111E+01 -0.12821070505E+02  0.15710305983E+02  0.00000000000E+00 0. -1.
</event>
<event>
 7    1  0.6184948E-012  0.5930201E+02  0.7816164E-02  0.1266605E+00
        -11   -1    0    0    0    0  0.00000000000E+00  0.00000000000E+00  0.45593999997E+02  0.45594000000E+02  0.51100000000E-03 0.  1.
         11   -1    0    0    0    0 -0.00000000000E+00 -0.00000000000E+00 -0.45593999997E+02  0.45594000000E+02  0.51100000000E-03 0. -1.
    9900012    2    1    2    0    0  0.14641718007E+02  0.75086259426E+01  0.27312211819E+02  0.59302011162E+02  0.50000122437E+02 0.  0.
         12    1    1    2    0    0 -0.14641718007E+02 -0.75086259426E+01 -0.27312211819E+02  0.31885988838E+02  0.00000000000E+00 0. -1.
         11    1    3    3    0    0  0.27904117539E+01  0.94196902334E+01 -0.86881432144E+01  0.13114907343E+02  0.51100000000E-03 0. -1.
        -11    1    3    3    0    0 -0.14416447321E+01  0.64349150661E+01 -0.33879073519E+00  0.66031243260E+01  0.51100000000E-03 0.  1.
        -12    1    3    3    0    0  0.13292950985E+02 -0.83459793569E+01  0.36339145768E+02  0.39583979493E+02  0.00000000000E+00 0.  1.
</event>
<event>
 7    1  0.6184948E-012  0.5930178E+02  0.7816164E-02  0.1266605E+00
        -11   -1    0    0    0    0  0.00000000000E+00  0.00000000000E+00  0.45593999997E+02  0.45594000000E+02  0.51100000000E-03 0.  1.
         11   -1    0    0    0    0 -0.00000000000E+00 -0.00000000000E+00 -0.45593999997E+02  0.45594000000E+02  0.51100000000E-03 0. -1.
    9900012    2    1    2    0    0 -0.10190221999E+02 -0.29977358219E+02  0.37746998153E+01  0.59301780580E+02  0.49999701910E+02 0.  0.
         12    1    1    2    0    0  0.10190221999E+02  0.29977358219E+02 -0.37746998153E+01  0.31886219420E+02  0.00000000000E+00 0. -1.
         11    1    3    3    0    0 -0.19993933226E+02 -0.14072308837E+02  0.16671329085E+01  0.24506459848E+02  0.51100000000E-03 0. -1.
        -11    1    3    3    0    0 -0.18897267423E+01  0.23336004998E+01  0.10980360176E+02  0.11383543750E+02  0.51100000000E-03 0.  1.
         12    1    3    3    0    0  0.11693437970E+02 -0.18238649882E+02 -0.88727932696E+01  0.23411776982E+02  0.00000000000E+00 0. -1.
</event>
<event>
 7    1  0.6184948E-012  0.5930192E+02  0.7816164E-02  0.1266605E+00
        -11   -1    0    0    0    0  0.00000000000E+00  0.00000000000E+00  0.45593999997E+02  0.45594000000E+02  0.51100000000E-03 0.  1.
         11   -1    0    0    0    0 -0.00000000000E+00 -0.00000000000E+00 -0.45593999997E+02  0.45594000000E+02  0.51100000000E-03 0. -1.
    9900012    2    1    2    0    0  0.49933361741E+01 -0.29355273037E+02  0.11404237277E+02  0.59301920136E+02  0.49999956427E+02 0.  0.
         12    1    1    2    0    0 -0.49933361741E+01  0.29355273037E+02 -0.11404237277E+02  0.31886079864E+02  0.00000000000E+00 0. -1.
         11    1    3    3    0    0 -0.13462913765E+02 -0.38451651856E+01 -0.24327126227E+01  0.14211032099E+02  0.51100000000E-03 0. -1.
        -11    1    3    3    0    0 -0.53971176538E+01 -0.21474151485E+01  0.98902424467E+01  0.11469837257E+02  0.51100000000E-03 0.  1.
         12    1    3    3    0    0  0.23853367593E+02 -0.23362692703E+02  0.39467074530E+01  0.33621050780E+02  0.00000000000E+00 0. -1.
</event>
<event>
 7    1  0.6184948E-012  0.5930198E+02  0.7816164E-02  0.1266605E+00
        -11   -1    0    0    0    0  0.00000000000E+00  0.00000000000E+00  0.45593999997E+02  0.45594000000E+02  0.51100000000E-03 0. -1.
         11   -1    0    0    0    0 -0.00000000000E+00 -0.00000000000E+00 -0.45593999997E+02  0.45594000000E+02  0.51100000000E-03 0.  1.
    9900012    2    1    2    0    0 -0.14854740409E+02 -0.13397840005E+02  0.24830487761E+02  0.59301975602E+02  0.50000057585E+02 0.  0.
         12    1    1    2    0    0  0.14854740409E+02  0.13397840005E+02 -0.24830487761E+02  0.31886024398E+02  0.00000000000E+00 0. -1.
         11    1    3    3    0    0  0.84624184656E+01 -0.10690507465E+01  0.25582964298E+01  0.89050702787E+01  0.51100000000E-03 0.  1.
        -11    1    3    3    0    0 -0.21799774216E+02  0.73014411653E+01  0.20192355711E+02  0.30598569058E+02  0.51100000000E-03 0. -1.
         12    1    3    3    0    0 -0.15173846587E+01 -0.19630230424E+02  0.20798356204E+01  0.19798336266E+02  0.00000000000E+00 0. -1.
</event>
<event>
 7    1  0.6184948E-012  0.5930195E+02  0.7816164E-02  0.1266605E+00
        -11   -1    0    0    0    0  0.00000000000E+00  0.00000000000E+00  0.45593999997E+02  0.45594000000E+02  0.51100000000E-03 0.  1.
         11   -1    0    0    0    0 -0.00000000000E+00 -0.00000000000E+00 -0.45593999997E+02  0.45594000000E+02  0.51100000000E-03 0. -1.
    9900012    2    1    2    0    0  0.10416355713E+02  0.27593780046E+02  0.12116228191E+02  0.59301950556E+02  0.50000011905E+02 0.  0.
         12    1    1    2    0    0 -0.10416355713E+02 -0.27593780046E+02 -0.12116228191E+02  0.31886049444E+02  0.00000000000E+00 0. -1.
         11    1    3    3    0    0  0.15174182825E+02  0.27186282233E+02  0.15426752031E+02  0.34746718471E+02  0.51100000000E-03 0. -1.
        -11    1    3    3    0    0  0.38852433478E+01  0.10119213480E+02 -0.39551380967E+01  0.11538488417E+02  0.51100000000E-03 0.  1.
         12    1    3    3    0    0 -0.86430704594E+01 -0.97117156668E+01  0.64461425747E+00  0.13016743667E+02  0.00000000000E+00 0. -1.
</event>
<event>
 7    1  0.6184948E-012  0.5930205E+02  0.7816164E-02  0.1266604E+00
        -11   -1    0    0    0    0  0.00000000000E+00  0.00000000000E+00  0.45593999997E+02  0.45594000000E+02  0.51100000000E-03 0.  1.
         11   -1    0    0    0    0 -0.00000000000E+00 -0.00000000000E+00 -0.45593999997E+02  0.45594000000E+02  0.51100000000E-03 0. -1.
    9900012    2    1    2    0    0  0.25702937063E+02  0.18667294352E+02  0.27576815942E+01  0.59302052314E+02  0.50000197487E+02 0.  0.
         12    1    1    2    0    0 -0.25702937063E+02 -0.18667294352E+02 -0.27576815942E+01  0.31885947686E+02  0.00000000000E+00 0. -1.
         11    1    3    3    0    0  0.19722913721E+02  0.15456036253E+02 -0.12199653217E+02  0.27869587747E+02  0.51100000000E-03 0. -1.
        -11    1    3    3    0    0 -0.29455768772E+01  0.13576566173E+02  0.86891769951E+01  0.16386011391E+02  0.51100000000E-03 0.  1.
        -12    1    3    3    0    0  0.89256002192E+01 -0.10365308074E+02  0.62681578166E+01  0.15046453176E+02  0.00000000000E+00 0.  1.
</event>
<event>
 7    1  0.6184948E-012  0.5930199E+02  0.7816164E-02  0.1266605E+00
        -11   -1    0    0    0    0  0.00000000000E+00  0.00000000000E+00  0.45593999997E+02  0.45594000000E+02  0.51100000000E-03 0. -1.
         11   -1    0    0    0    0 -0.00000000000E+00 -0.00000000000E+00 -0.45593999997E+02  0.45594000000E+02  0.51100000000E-03 0.  1.
    9900012    2    1    2    0    0 -0.18956779884E+02  0.12173760082E+02 -0.22564519471E+02  0.59301992457E+02  0.50000088323E+02 0.  0.
         12    1    1    2    0    0  0.18956779884E+02 -0.12173760082E+02  0.22564519471E+02  0.31886007543E+02  0.00000000000E+00 0. -1.
         11    1    3    3    0    0  0.75120903691E+00  0.96222865761E+01 -0.15207846109E+02  0.18011976502E+02  0.51100000000E-03 0. -1.
        -11    1    3    3    0    0 -0.13187991160E+02  0.18889765683E+02 -0.41026230795E+01  0.23400381937E+02  0.51100000000E-03 0.  1.
         12    1    3    3    0    0 -0.65199977604E+01 -0.16338292177E+02 -0.32540502820E+01  0.17889634018E+02  0.00000000000E+00 0. -1.
</event>
<event>
 7    1  0.6184948E-012  0.5930193E+02  0.7816164E-02  0.1266605E+00
        -11   -1    0    0    0    0  0.00000000000E+00  0.00000000000E+00  0.45593999997E+02  0.45594000000E+02  0.51100000000E-03 0.  1.
         11   -1    0    0    0    0 -0.00000000000E+00 -0.00000000000E+00 -0.45593999997E+02  0.45594000000E+02  0.51100000000E-03 0. -1.
    9900012    2    1    2    0    0  0.65390145943E+01  0.24248115891E+02  0.19646662542E+02  0.59301934310E+02  0.49999982278E+02 0.  0.
         12    1    1    2    0    0 -0.65390145943E+01 -0.24248115891E+02 -0.19646662542E+02  0.31886065690E+02  0.00000000000E+00 0. -1.
         11    1    3    3    0    0 -0.21573028081E+01  0.15680850318E+02 -0.37542949133E+01  0.16267690453E+02  0.51100000000E-03 0. -1.
        -11    1    3    3    0    0  0.84412126560E+01 -0.69950682245E+01 -0.38769764877E+01  0.11628241377E+02  0.51100000000E-03 0.  1.
        -12    1    3    3    0    0  0.25510474633E+00  0.15562333797E+02  0.27277933943E+02  0.31406002481E+02  0.00000000000E+00 0.  1.
</event>
<event>
 7    1  0.6184948E-012  0.5930193E+02  0.7816164E-02  0.1266605E+00
        -11   -1    0    0    0    0  0.00000000000E+00  0.00000000000E+00  0.45593999997E+02  0.45594000000E+02  0.51100000000E-03 0.  1.
         11   -1    0    0    0    0 -0.00000000000E+00 -0.00000000000E+00 -0.45593999997E+02  0.45594000000E+02  0.51100000000E-03 0. -1.
    9900012    2    1    2    0    0  0.25310853524E+02  0.15339611517E+02 -0.11864997290E+02  0.59301934888E+02  0.49999983332E+02 0.  0.
         12    1    1    2    0    0 -0.25310853524E+02 -0.15339611517E+02  0.11864997290E+02  0.31886065112E+02  0.00000000000E+00 0. -1.
         11    1    3    3    0    0 -0.13567895376E+02  0.88143918415E+01 -0.10100039626E+01  0.16211150383E+02  0.51100000000E-03 0. -1.
        -11    1    3    3    0    0  0.49008317895E+01  0.44841308988E+01  0.16204232890E+01  0.68374961824E+01  0.51100000000E-03 0.  1.
        -12    1    3    3    0    0  0.33977917110E+02  0.20410887769E+01 -0.12475416617E+02  0.36253288324E+02  0.00000000000E+00 0.  1.
</event>
<event>
 7    1  0.6184948E-012  0.5930188E+02  0.7816164E-02  0.1266605E+00
        -11   -1    0    0    0    0  0.00000000000E+00  0.00000000000E+00  0.45593999997E+02  0.45594000000E+02  0.51100000000E-03 0.  1.
         11   -1    0    0    0    0 -0.00000000000E+00 -0.00000000000E+00 -0.45593999997E+02  0.45594000000E+02  0.51100000000E-03 0. -1.
    9900012    2    1    2    0    0 -0.13004347982E+01 -0.27484794771E+02  0.16112722853E+02  0.59301875871E+02  0.49999875698E+02 0.  0.
         12    1    1    2    0    0  0.13004347982E+01  0.27484794771E+02 -0.16112722853E+02  0.31886124129E+02  0.00000000000E+00 0. -1.
         11    1    3    3    0    0 -0.49229074135E+01  0.91752745749E+01 -0.49976288659E+01  0.11549760840E+02  0.51100000000E-03 0. -1.
        -11    1    3    3    0    0 -0.81068768883E+00 -0.57624196897E+01  0.14805001053E+02  0.15907569005E+02  0.51100000000E-03 0.  1.
        -12    1    3    3    0    0  0.44331603041E+01 -0.30897649656E+02  0.63053506658E+01  0.31844546025E+02  0.00000000000E+00 0.  1.
</event>
<event>
 7    1  0.6184948E-012  0.5930189E+02  0.7816164E-02  0.1266605E+00
        -11   -1    0    0    0    0  0.00000000000E+00  0.00000000000E+00  0.45593999997E+02  0.45594000000E+02  0.51100000000E-03 0.  1.
         11   -1    0    0    0    0 -0.00000000000E+00 -0.00000000000E+00 -0.45593999997E+02  0.45594000000E+02  0.51100000000E-03 0. -1.
    9900012    2    1    2    0    0 -0.19955859359E+02 -0.12803535815E+02  0.21320345210E+02  0.59301890611E+02  0.49999902580E+02 0.  0.
         12    1    1    2    0    0  0.19955859359E+02  0.12803535815E+02 -0.21320345210E+02  0.31886109389E+02  0.00000000000E+00 0. -1.
         11    1    3    3    0    0 -0.33104948418E+01  0.15791388305E+01  0.21741848819E+02  0.22049059977E+02  0.51100000000E-03 0. -1.
        -11    1    3    3    0    0 -0.17772087946E+02  0.23131525940E+01  0.66095173110E+01  0.19101924097E+02  0.51100000000E-03 0.  1.
         12    1    3    3    0    0  0.11267234287E+01 -0.16695827240E+02 -0.70310209201E+01  0.18150906536E+02  0.00000000000E+00 0. -1.
</event>
<event>
 7    1  0.6184948E-012  0.5930193E+02  0.7816164E-02  0.1266605E+00
        -11   -1    0    0    0    0  0.00000000000E+00  0.00000000000E+00  0.45593999997E+02  0.45594000000E+02  0.51100000000E-03 0. -1.
         11   -1    0    0    0    0 -0.00000000000E+00 -0.00000000000E+00 -0.45593999997E+02  0.45594000000E+02  0.51100000000E-03 0.  1.
    9900012    2    1    2    0    0  0.23785917036E+02 -0.70222341127E+01 -0.20040961324E+02  0.59301925422E+02  0.49999966068E+02 0.  0.
         12    1    1    2    0    0 -0.23785917036E+02  0.70222341127E+01  0.20040961324E+02  0.31886074578E+02  0.00000000000E+00 0. -1.
         11    1    3    3    0    0  0.17113262049E+02 -0.48204044453E+01  0.28842343214E+00  0.17781541702E+02  0.51100000000E-03 0. -1.
        -11    1    3    3    0    0  0.17723941958E+02 -0.25417086016E+00 -0.23889621777E+02  0.29747550323E+02  0.51100000000E-03 0.  1.
         12    1    3    3    0    0 -0.11051286971E+02 -0.19476588073E+01  0.35602370206E+01  0.11772833396E+02  0.00000000000E+00 0. -1.
</event>
<event>
 7    1  0.6184948E-012  0.5930195E+02  0.7816164E-02  0.1266605E+00
        -11   -1    0    0    0    0  0.00000000000E+00  0.00000000000E+00  0.45593999997E+02  0.45594000000E+02  0.51100000000E-03 0.  1.
         11   -1    0    0    0    0 -0.00000000000E+00 -0.00000000000E+00 -0.45593999997E+02  0.45594000000E+02  0.51100000000E-03 0. -1.
    9900012    2    1    2    0    0 -0.20199604441E+00  0.63595949503E+01  0.31244757432E+02  0.59301951055E+02  0.50000012816E+02 0.  0.
         12    1    1    2    0    0  0.20199604441E+00 -0.63595949503E+01 -0.31244757432E+02  0.31886048945E+02  0.00000000000E+00 0. -1.
         11    1    3    3    0    0  0.29014913983E+01 -0.26706021469E+01  0.10775958562E+02  0.11474844285E+02  0.51100000000E-03 0.  1.
        -11    1    3    3    0    0  0.73727647583E+01 -0.22870764504E+00 -0.11084746054E+02  0.13314712265E+02  0.51100000000E-03 0. -1.
         12    1    3    3    0    0 -0.10476252201E+02  0.92589047422E+01  0.31553544924E+02  0.34512394505E+02  0.00000000000E+00 0. -1.
</event>
<event>
 7    1  0.6184948E-012  0.5930194E+02  0.7816164E-02  0.1266605E+00
        -11   -1    0    0    0    0  0.00000000000E+00  0.00000000000E+00  0.45593999997E+02  0.45594000000E+02  0.51100000000E-03 0. -1.
         11   -1    0    0    0    0 -0.00000000000E+00 -0.00000000000E+00 -0.45593999997E+02  0.45594000000E+02  0.51100000000E-03 0.  1.
    9900012    2    1    2    0    0 -0.15898326023E+02 -0.23269885623E+02  0.14915649963E+02  0.59301937825E+02  0.49999988687E+02 0.  0.
         12    1    1    2    0    0  0.15898326023E+02  0.23269885623E+02 -0.14915649963E+02  0.31886062175E+02  0.00000000000E+00 0. -1.
         11    1    3    3    0    0 -0.20450307546E+02 -0.28358616611E+02  0.20850069510E+02  0.40708127121E+02  0.51100000000E-03 0. -1.
        -11    1    3    3    0    0  0.34004930516E+01 -0.13271358757E+01  0.48030020855E+01  0.60327002181E+01  0.51100000000E-03 0.  1.
        -12    1    3    3    0    0  0.11514884720E+01  0.64158668646E+01 -0.10737421632E+02  0.12561110486E+02  0.00000000000E+00 0.  1.
</event>
<event>
 7    1  0.6184948E-012  0.5930195E+02  0.7816164E-02  0.1266605E+00
        -11   -1    0    0    0    0  0.00000000000E+00  0.00000000000E+00  0.45593999997E+02  0.45594000000E+02  0.51100000000E-03 0.  1.
         11   -1    0    0    0    0 -0.00000000000E+00 -0.00000000000E+00 -0.45593999997E+02  0.45594000000E+02  0.51100000000E-03 0. -1.
    9900012    2    1    2    0    0 -0.61245322217E+01  0.15128768247E+02  0.27392164672E+02  0.59301949617E+02  0.50000010194E+02 0.  0.
         12    1    1    2    0    0  0.61245322217E+01 -0.15128768247E+02 -0.27392164672E+02  0.31886050383E+02  0.00000000000E+00 0. -1.
         11    1    3    3    0    0  0.70980744537E+01  0.30289548199E+01  0.50360284303E+01  0.92151403062E+01  0.51100000000E-03 0. -1.
        -11    1    3    3    0    0  0.63296710251E+01  0.93243610758E+01  0.27465949812E+02  0.29688159999E+02  0.51100000000E-03 0.  1.
         12    1    3    3    0    0 -0.19552277701E+02  0.27754523509E+01 -0.51098135704E+01  0.20398649312E+02  0.00000000000E+00 0. -1.
</event>
<event>
 7    1  0.6184948E-012  0.5930194E+02  0.7816164E-02  0.1266605E+00
        -11   -1    0    0    0    0  0.00000000000E+00  0.00000000000E+00  0.45593999997E+02  0.45594000000E+02  0.51100000000E-03 0.  1.
         11   -1    0    0    0    0 -0.00000000000E+00 -0.00000000000E+00 -0.45593999997E+02  0.45594000000E+02  0.51100000000E-03 0. -1.
    9900012    2    1    2    0    0 -0.25095922619E+02 -0.90065295716E+01  0.17487077126E+02  0.59301940767E+02  0.49999994053E+02 0.  0.
         12    1    1    2    0    0  0.25095922619E+02  0.90065295716E+01 -0.17487077126E+02  0.31886059233E+02  0.00000000000E+00 0. -1.
         11    1    3    3    0    0 -0.16438000325E+02  0.87428951323E+01 -0.87674790821E+01  0.20579474233E+02  0.51100000000E-03 0. -1.
        -11    1    3    3    0    0  0.40319873956E+01 -0.89580504847E+01  0.20835236327E+01  0.10042144285E+02  0.51100000000E-03 0.  1.
        -12    1    3    3    0    0 -0.12689909689E+02 -0.87913742192E+01  0.24171032575E+02  0.28680322249E+02  0.00000000000E+00 0.  1.
</event>
<event>
 7    1  0.6184948E-012  0.5930194E+02  0.7816164E-02  0.1266605E+00
        -11   -1    0    0    0    0  0.00000000000E+00  0.00000000000E+00  0.45593999997E+02  0.45594000000E+02  0.51100000000E-03 0.  1.
         11   -1    0    0    0    0 -0.00000000000E+00 -0.00000000000E+00 -0.45593999997E+02  0.45594000000E+02  0.51100000000E-03 0. -1.
    9900012    2    1    2    0    0  0.29139056829E+02 -0.10410393029E+02 -0.76980462999E+01  0.59301939837E+02  0.49999992358E+02 0.  0.
         12    1    1    2    0    0 -0.29139056829E+02  0.10410393029E+02  0.76980462999E+01  0.31886060163E+02  0.00000000000E+00 0. -1.
         11    1    3    3    0    0 -0.60057465719E+01  0.32997335319E+01 -0.76965139219E+00  0.68956215669E+01  0.51100000000E-03 0. -1.
        -11    1    3    3    0    0  0.30245199159E+02  0.14995491128E+01  0.71441654012E+01  0.31113659689E+02  0.51100000000E-03 0.  1.
         12    1    3    3    0    0  0.48996042416E+01 -0.15209675673E+02 -0.14072560309E+02  0.21292658581E+02  0.00000000000E+00 0. -1.
</event>
<event>
 7    1  0.6184948E-012  0.5930194E+02  0.7816164E-02  0.1266605E+00
        -11   -1    0    0    0    0  0.00000000000E+00  0.00000000000E+00  0.45593999997E+02  0.45594000000E+02  0.51100000000E-03 0. -1.
         11   -1    0    0    0    0 -0.00000000000E+00 -0.00000000000E+00 -0.45593999997E+02  0.45594000000E+02  0.51100000000E-03 0.  1.
    9900012    2    1    2    0    0  0.27539023819E+02  0.13289353247E+02 -0.90397086848E+01  0.59301936027E+02  0.49999985408E+02 0.  0.
         12    1    1    2    0    0 -0.27539023819E+02 -0.13289353247E+02  0.90397086848E+01  0.31886063973E+02  0.00000000000E+00 0. -1.
         11    1    3    3    0    0 -0.89506594231E+00 -0.34068107731E+01 -0.63335504658E+01  0.72471625102E+01  0.51100000000E-03 0. -1.
        -11    1    3    3    0    0  0.20236709710E+02 -0.10361402158E+02 -0.62061202858E+01  0.23566904841E+02  0.51100000000E-03 0.  1.
         12    1    3    3    0    0  0.81973800514E+01  0.27057566178E+02  0.34999620668E+01  0.28487868675E+02  0.00000000000E+00 0. -1.
</event>
<event>
 7    1  0.6184948E-012  0.5930194E+02  0.7816164E-02  0.1266605E+00
        -11   -1    0    0    0    0  0.00000000000E+00  0.00000000000E+00  0.45593999997E+02  0.45594000000E+02  0.51100000000E-03 0.  1.
         11   -1    0    0    0    0 -0.00000000000E+00 -0.00000000000E+00 -0.45593999997E+02  0.45594000000E+02  0.51100000000E-03 0. -1.
    9900012    2    1    2    0    0  0.12470182240E+02  0.19553880036E+02  0.21882891080E+02  0.59301943618E+02  0.49999999253E+02 0.  0.
         12    1    1    2    0    0 -0.12470182240E+02 -0.19553880036E+02 -0.21882891080E+02  0.31886056382E+02  0.00000000000E+00 0. -1.
         11    1    3    3    0    0 -0.43166662772E+01  0.39144767071E+01  0.67909587246E+01  0.89483996501E+01  0.51100000000E-03 0. -1.
        -11    1    3    3    0    0  0.70375792667E+01 -0.25728614060E+01  0.25954211011E+02  0.27014222314E+02  0.51100000000E-03 0.  1.
         12    1    3    3    0    0  0.97492692509E+01  0.18212264734E+02 -0.10862278655E+02  0.23339321654E+02  0.00000000000E+00 0. -1.
</event>
<event>
 7    1  0.6184948E-012  0.5930195E+02  0.7816164E-02  0.1266605E+00
        -11   -1    0    0    0    0  0.00000000000E+00  0.00000000000E+00  0.45593999997E+02  0.45594000000E+02  0.51100000000E-03 0.  1.
         11   -1    0    0    0    0 -0.00000000000E+00 -0.00000000000E+00 -0.45593999997E+02  0.45594000000E+02  0.51100000000E-03 0. -1.
    9900012    2    1    2    0    0 -0.26286382434E+02 -0.43574339186E+01  0.17514529479E+02  0.59301954859E+02  0.50000019754E+02 0.  0.
         12    1    1    2    0    0  0.26286382434E+02  0.43574339186E+01 -0.17514529479E+02  0.31886045141E+02  0.00000000000E+00 0. -1.
         11    1    3    3    0    0 -0.31945216795E+00 -0.32518997137E+01 -0.20634866885E+00  0.32740619222E+01  0.51100000000E-03 0. -1.
        -11    1    3    3    0    0 -0.30783972348E+02 -0.11190044597E+02  0.26244973951E+02  0.41972237366E+02  0.51100000000E-03 0.  1.
         12    1    3    3    0    0  0.48170420815E+01  0.10084510392E+02 -0.85240958026E+01  0.14055655571E+02  0.00000000000E+00 0. -1.
</event>
<event>
 7    1  0.6184948E-012  0.5930195E+02  0.7816164E-02  0.1266605E+00
        -11   -1    0    0    0    0  0.00000000000E+00  0.00000000000E+00  0.45593999997E+02  0.45594000000E+02  0.51100000000E-03 0. -1.
         11   -1    0    0    0    0 -0.00000000000E+00 -0.00000000000E+00 -0.45593999997E+02  0.45594000000E+02  0.51100000000E-03 0.  1.
    9900012    2    1    2    0    0  0.30381828063E+02  0.48327948842E+01 -0.83850277573E+01  0.59301951744E+02  0.50000014073E+02 0.  0.
         12    1    1    2    0    0 -0.30381828063E+02 -0.48327948842E+01  0.83850277573E+01  0.31886048256E+02  0.00000000000E+00 0. -1.
         11    1    3    3    0    0 -0.56603903206E+01 -0.18790227334E+01 -0.71124991723E+01  0.92821543701E+01  0.51100000000E-03 0. -1.
        -11    1    3    3    0    0 -0.16078271459E+01 -0.90263005246E+01  0.41631140031E+00  0.91778278876E+01  0.51100000000E-03 0.  1.
        -12    1    3    3    0    0  0.37650045530E+02  0.15738118142E+02 -0.16888399853E+01  0.40841969487E+02  0.00000000000E+00 0.  1.
</event>
<event>
 7    1  0.6184948E-012  0.5930194E+02  0.7816164E-02  0.1266605E+00
        -11   -1    0    0    0    0  0.00000000000E+00  0.00000000000E+00  0.45593999997E+02  0.45594000000E+02  0.51100000000E-03 0. -1.
         11   -1    0    0    0    0 -0.00000000000E+00 -0.00000000000E+00 -0.45593999997E+02  0.45594000000E+02  0.51100000000E-03 0.  1.
    9900012    2    1    2    0    0 -0.18048535410E+01  0.12426180901E+02 -0.29309611867E+02  0.59301940101E+02  0.49999992838E+02 0.  0.
         12    1    1    2    0    0  0.18048535410E+01 -0.12426180901E+02  0.29309611867E+02  0.31886059899E+02  0.00000000000E+00 0. -1.
         11    1    3    3    0    0 -0.14473940448E+02  0.13875862706E+02 -0.22983423151E+01  0.20182093439E+02  0.51100000000E-03 0. -1.
        -11    1    3    3    0    0 -0.34810938880E+00  0.10565251303E+02 -0.95456828529E+01  0.14243095753E+02  0.51100000000E-03 0.  1.
         12    1    3    3    0    0  0.13017196296E+02 -0.12014933108E+02 -0.17465586699E+02  0.24876750908E+02  0.00000000000E+00 0. -1.
</event>
<event>
 7    1  0.6184948E-012  0.5930194E+02  0.7816164E-02  0.1266605E+00
        -11   -1    0    0    0    0  0.00000000000E+00  0.00000000000E+00  0.45593999997E+02  0.45594000000E+02  0.51100000000E-03 0.  1.
         11   -1    0    0    0    0 -0.00000000000E+00 -0.00000000000E+00 -0.45593999997E+02  0.45594000000E+02  0.51100000000E-03 0. -1.
    9900012    2    1    2    0    0  0.86213095855E+01  0.14572759501E+02  0.27019035358E+02  0.59301943954E+02  0.49999999866E+02 0.  0.
         12    1    1    2    0    0 -0.86213095855E+01 -0.14572759501E+02 -0.27019035358E+02  0.31886056046E+02  0.00000000000E+00 0. -1.
         11    1    3    3    0    0 -0.65281775165E+00  0.11658349507E+02 -0.23187620648E+01  0.11904618517E+02  0.51100000000E-03 0. -1.
        -11    1    3    3    0    0 -0.83050295408E+01  0.13802682644E+02  0.92854786790E+01  0.18593215924E+02  0.51100000000E-03 0.  1.
        -12    1    3    3    0    0  0.17579156878E+02 -0.10888272650E+02  0.20052318744E+02  0.28804109513E+02  0.00000000000E+00 0.  1.
</event>
<event>
 7    1  0.6184948E-012  0.5930193E+02  0.7816164E-02  0.1266605E+00
        -11   -1    0    0    0    0  0.00000000000E+00  0.00000000000E+00  0.45593999997E+02  0.45594000000E+02  0.51100000000E-03 0.  1.
         11   -1    0    0    0    0 -0.00000000000E+00 -0.00000000000E+00 -0.45593999997E+02  0.45594000000E+02  0.51100000000E-03 0. -1.
    9900012    2    1    2    0    0 -0.16911486309E+02 -0.26049178772E+02 -0.72224436772E+01  0.59301925037E+02  0.49999965366E+02 0.  0.
         12    1    1    2    0    0  0.16911486309E+02  0.26049178772E+02  0.72224436772E+01  0.31886074963E+02  0.00000000000E+00 0. -1.
         11    1    3    3    0    0  0.15615740405E+01 -0.11429711105E+01  0.81795768326E+01  0.84053776754E+01  0.51100000000E-03 0. -1.
        -11    1    3    3    0    0  0.65852423927E+01  0.56085641345E+01 -0.52823686661E+01  0.10135325747E+02  0.51100000000E-03 0.  1.
        -12    1    3    3    0    0 -0.25058302742E+02 -0.30514771796E+02 -0.10119651844E+02  0.40761221614E+02  0.00000000000E+00 0.  1.
</event>
<event>
 7    1  0.6184948E-012  0.5930195E+02  0.7816164E-02  0.1266605E+00
        -11   -1    0    0    0    0  0.00000000000E+00  0.00000000000E+00  0.45593999997E+02  0.45594000000E+02  0.51100000000E-03 0. -1.
         11   -1    0    0    0    0 -0.00000000000E+00 -0.00000000000E+00 -0.45593999997E+02  0.45594000000E+02  0.51100000000E-03 0.  1.
    9900012    2    1    2    0    0 -0.99787999483E+01 -0.42770132967E+01 -0.29980845799E+02  0.59301946529E+02  0.50000004561E+02 0.  0.
         12    1    1    2    0    0  0.99787999483E+01  0.42770132967E+01  0.29980845799E+02  0.31886053471E+02  0.00000000000E+00 0. -1.
         11    1    3    3    0    0 -0.49353679965E+01 -0.92316491348E+01  0.78775468413E+01  0.13101028490E+02  0.51100000000E-03 0. -1.
        -11    1    3    3    0    0 -0.21626742427E+01  0.73088724205E+01  0.52261414823E+00  0.76400197479E+01  0.51100000000E-03 0.  1.
        -12    1    3    3    0    0 -0.28807577091E+01 -0.23542365824E+01 -0.38381006789E+02  0.38560898290E+02  0.00000000000E+00 0.  1.
</event>
<event>
 7    1  0.6184948E-012  0.5930185E+02  0.7816164E-02  0.1266605E+00
        -11   -1    0    0    0    0  0.00000000000E+00  0.00000000000E+00  0.45593999997E+02  0.45594000000E+02  0.51100000000E-03 0.  1.
         11   -1    0    0    0    0 -0.00000000000E+00 -0.00000000000E+00 -0.45593999997E+02  0.45594000000E+02  0.51100000000E-03 0. -1.
    9900012    2    1    2    0    0 -0.13867728440E+02 -0.26701660716E+02  0.10556229295E+02  0.59301850123E+02  0.49999828740E+02 0.  0.
         12    1    1    2    0    0  0.13867728440E+02  0.26701660716E+02 -0.10556229295E+02  0.31886149877E+02  0.00000000000E+00 0. -1.
         11    1    3    3    0    0 -0.10619627700E+02 -0.21017502163E+02 -0.14023597142E+02  0.27407538502E+02  0.51100000000E-03 0. -1.
        -11    1    3    3    0    0  0.72516817089E+01 -0.54500164191E+01  0.71733505027E+01  0.11564883236E+02  0.51100000000E-03 0.  1.
        -12    1    3    3    0    0 -0.10499782449E+02 -0.23414213392E+00  0.17406475934E+02  0.20329428385E+02  0.00000000000E+00 0.  1.
</event>
<event>
 7    1  0.6184948E-012  0.5930192E+02  0.7816164E-02  0.1266605E+00
        -11   -1    0    0    0    0  0.00000000000E+00  0.00000000000E+00  0.45593999997E+02  0.45594000000E+02  0.51100000000E-03 0.  1.
         11   -1    0    0    0    0 -0.00000000000E+00 -0.00000000000E+00 -0.45593999997E+02  0.45594000000E+02  0.51100000000E-03 0. -1.
    9900012    2    1    2    0    0 -0.11756866529E+02 -0.20029808434E+02  0.21847303613E+02  0.59301924487E+02  0.49999964362E+02 0.  0.
         12    1    1    2    0    0  0.11756866529E+02  0.20029808434E+02 -0.21847303613E+02  0.31886075513E+02  0.00000000000E+00 0. -1.
         11    1    3    3    0    0 -0.12358859327E+02 -0.33349189441E+01 -0.42380743742E+01  0.13484226448E+02  0.51100000000E-03 0. -1.
        -11    1    3    3    0    0  0.85026121043E+01 -0.19776001172E+02  0.36506352861E+01  0.21833730172E+02  0.51100000000E-03 0.  1.
        -12    1    3    3    0    0 -0.79006193059E+01  0.30811116823E+01  0.22434742701E+02  0.23983967867E+02  0.00000000000E+00 0.  1.
</event>
<event>
 7    1  0.6184948E-012  0.5930194E+02  0.7816164E-02  0.1266605E+00
        -11   -1    0    0    0    0  0.00000000000E+00  0.00000000000E+00  0.45593999997E+02  0.45594000000E+02  0.51100000000E-03 0.  1.
         11   -1    0    0    0    0 -0.00000000000E+00 -0.00000000000E+00 -0.45593999997E+02  0.45594000000E+02  0.51100000000E-03 0. -1.
    9900012    2    1    2    0    0  0.10611729235E+02  0.20126647391E+02  0.22338985845E+02  0.59301936883E+02  0.49999986969E+02 0.  0.
         12    1    1    2    0    0 -0.10611729235E+02 -0.20126647391E+02 -0.22338985845E+02  0.31886063117E+02  0.00000000000E+00 0. -1.
         11    1    3    3    0    0  0.20549874221E+01 -0.19124938268E+01  0.19990106593E+01  0.34462515607E+01  0.51100000000E-03 0. -1.
        -11    1    3    3    0    0  0.17721558007E+02  0.33151297163E+02  0.15489977748E+02  0.40657121549E+02  0.51100000000E-03 0.  1.
         12    1    3    3    0    0 -0.91648161944E+01 -0.11112155945E+02  0.48499974374E+01  0.15198563773E+02  0.00000000000E+00 0. -1.
</event>
<event>
 7    1  0.6184948E-012  0.5930195E+02  0.7816164E-02  0.1266605E+00
        -11   -1    0    0    0    0  0.00000000000E+00  0.00000000000E+00  0.45593999997E+02  0.45594000000E+02  0.51100000000E-03 0. -1.
         11   -1    0    0    0    0 -0.00000000000E+00 -0.00000000000E+00 -0.45593999997E+02  0.45594000000E+02  0.51100000000E-03 0.  1.
    9900012    2    1    2    0    0 -0.21757654824E+02  0.16532245106E+01 -0.23250629559E+02  0.59301945531E+02  0.50000002741E+02 0.  0.
         12    1    1    2    0    0  0.21757654824E+02 -0.16532245106E+01  0.23250629559E+02  0.31886054469E+02  0.00000000000E+00 0. -1.
         11    1    3    3    0    0 -0.62520387367E+01 -0.12252625597E+02  0.27575330859E+01  0.14029212785E+02  0.51100000000E-03 0. -1.
        -11    1    3    3    0    0  0.42725632482E+01 -0.63862224749E+01 -0.15447277172E+01  0.78373986877E+01  0.51100000000E-03 0.  1.
         12    1    3    3    0    0 -0.19778179336E+02  0.20292072583E+02 -0.24463434928E+02  0.37435334058E+02  0.00000000000E+00 0. -1.
</event>
<event>
 7    1  0.6184948E-012  0.5930198E+02  0.7816164E-02  0.1266605E+00
        -11   -1    0    0    0    0  0.00000000000E+00  0.00000000000E+00  0.45593999997E+02  0.45594000000E+02  0.51100000000E-03 0. -1.
         11   -1    0    0    0    0 -0.00000000000E+00 -0.00000000000E+00 -0.45593999997E+02  0.45594000000E+02  0.51100000000E-03 0.  1.
    9900012    2    1    2    0    0 -0.22604284933E+02 -0.21511679780E+02 -0.65583864814E+01  0.59301976455E+02  0.50000059139E+02 0.  0.
         12    1    1    2    0    0  0.22604284933E+02  0.21511679780E+02  0.65583864814E+01  0.31886023545E+02  0.00000000000E+00 0. -1.
         11    1    3    3    0    0 -0.68971932987E+01 -0.12945258530E+02  0.14262721364E+01  0.14737206189E+02  0.51100000000E-03 0. -1.
        -11    1    3    3    0    0 -0.15678595516E+02 -0.14903254206E+02 -0.20962606290E+02  0.30122353926E+02  0.51100000000E-03 0.  1.
         12    1    3    3    0    0 -0.28496117987E-01  0.63368329559E+01  0.12977947672E+02  0.14442416340E+02  0.00000000000E+00 0. -1.
</event>
<event>
 7    1  0.6184948E-012  0.5930194E+02  0.7816164E-02  0.1266605E+00
        -11   -1    0    0    0    0  0.00000000000E+00  0.00000000000E+00  0.45593999997E+02  0.45594000000E+02  0.51100000000E-03 0. -1.
         11   -1    0    0    0    0 -0.00000000000E+00 -0.00000000000E+00 -0.45593999997E+02  0.45594000000E+02  0.51100000000E-03 0.  1.
    9900012    2    1    2    0    0 -0.87080351622E+01 -0.24985625406E+02 -0.17793529543E+02  0.59301936479E+02  0.49999986232E+02 0.  0.
         12    1    1    2    0    0  0.87080351622E+01  0.24985625406E+02  0.17793529543E+02  0.31886063521E+02  0.00000000000E+00 0. -1.
         11    1    3    3    0    0  0.58918997784E+01  0.10012947510E+01  0.68895858641E+01  0.91204971255E+01  0.51100000000E-03 0.  1.
        -11    1    3    3    0    0 -0.15479407379E+01 -0.28274643902E+02 -0.91377698938E+01  0.29754839055E+02  0.51100000000E-03 0. -1.
        -12    1    3    3    0    0 -0.13051994203E+02  0.22877237455E+01 -0.15545345513E+02  0.20426600298E+02  0.00000000000E+00 0.  1.
</event>
<event>
 7    1  0.6184948E-012  0.5930194E+02  0.7816164E-02  0.1266605E+00
        -11   -1    0    0    0    0  0.00000000000E+00  0.00000000000E+00  0.45593999997E+02  0.45594000000E+02  0.51100000000E-03 0.  1.
         11   -1    0    0    0    0 -0.00000000000E+00 -0.00000000000E+00 -0.45593999997E+02  0.45594000000E+02  0.51100000000E-03 0. -1.
    9900012    2    1    2    0    0  0.26067577752E+02  0.35357725599E+01  0.18019442480E+02  0.59301943412E+02  0.49999998877E+02 0.  0.
         12    1    1    2    0    0 -0.26067577752E+02 -0.35357725599E+01 -0.18019442480E+02  0.31886056588E+02  0.00000000000E+00 0. -1.
         11    1    3    3    0    0  0.79555790349E+01  0.33067183615E+01  0.16740188439E+02  0.18827095723E+02  0.51100000000E-03 0. -1.
        -11    1    3    3    0    0  0.28521724740E+02 -0.47230365992E+01  0.38633535269E+00  0.28912715406E+02  0.51100000000E-03 0.  1.
         12    1    3    3    0    0 -0.10409726024E+02  0.49520907976E+01  0.89291868805E+00  0.11562132283E+02  0.00000000000E+00 0. -1.
</event>
<event>
 7    1  0.6184948E-012  0.5930200E+02  0.7816164E-02  0.1266605E+00
        -11   -1    0    0    0    0  0.00000000000E+00  0.00000000000E+00  0.45593999997E+02  0.45594000000E+02  0.51100000000E-03 0.  1.
         11   -1    0    0    0    0 -0.00000000000E+00 -0.00000000000E+00 -0.45593999997E+02  0.45594000000E+02  0.51100000000E-03 0. -1.
    9900012    2    1    2    0    0 -0.67235716577E+01 -0.86133473131E+01  0.29955314831E+02  0.59301999084E+02  0.50000100410E+02 0.  0.
         12    1    1    2    0    0  0.67235716577E+01  0.86133473131E+01 -0.29955314831E+02  0.31886000916E+02  0.00000000000E+00 0. -1.
         11    1    3    3    0    0 -0.12190117783E+02 -0.68999276735E+01 -0.56801071223E+01  0.15115276731E+02  0.51100000000E-03 0. -1.
        -11    1    3    3    0    0  0.82481961068E+01 -0.12485585404E+02  0.19273417746E+02  0.24400557653E+02  0.51100000000E-03 0.  1.
         12    1    3    3    0    0 -0.27816499812E+01  0.10772165764E+02  0.16362004207E+02  0.19786164700E+02  0.00000000000E+00 0. -1.
</event>
<event>
 7    1  0.6184948E-012  0.5930196E+02  0.7816164E-02  0.1266605E+00
        -11   -1    0    0    0    0  0.00000000000E+00  0.00000000000E+00  0.45593999997E+02  0.45594000000E+02  0.51100000000E-03 0.  1.
         11   -1    0    0    0    0 -0.00000000000E+00 -0.00000000000E+00 -0.45593999997E+02  0.45594000000E+02  0.51100000000E-03 0. -1.
    9900012    2    1    2    0    0  0.71907027802E+00 -0.25304336844E+02  0.19387955107E+02  0.59301963426E+02  0.50000035378E+02 0.  0.
         12    1    1    2    0    0 -0.71907027802E+00  0.25304336844E+02 -0.19387955107E+02  0.31886036574E+02  0.00000000000E+00 0. -1.
         11    1    3    3    0    0  0.74632502518E+01 -0.21740387667E+02  0.30507914257E+02  0.38197871574E+02  0.51100000000E-03 0. -1.
        -11    1    3    3    0    0 -0.88747443921E+00 -0.60335940674E+00  0.42544322055E+01  0.43876926859E+01  0.51100000000E-03 0.  1.
         12    1    3    3    0    0 -0.58567055345E+01 -0.29605897702E+01 -0.15374391356E+02  0.16716399166E+02  0.00000000000E+00 0. -1.
</event>
<event>
 7    1  0.6184948E-012  0.5930193E+02  0.7816164E-02  0.1266605E+00
        -11   -1    0    0    0    0  0.00000000000E+00  0.00000000000E+00  0.45593999997E+02  0.45594000000E+02  0.51100000000E-03 0.  1.
         11   -1    0    0    0    0 -0.00000000000E+00 -0.00000000000E+00 -0.45593999997E+02  0.45594000000E+02  0.51100000000E-03 0. -1.
    9900012    2    1    2    0    0 -0.20126793944E+02  0.80744124430E+01  0.23376000029E+02  0.59301931755E+02  0.49999977617E+02 0.  0.
         12    1    1    2    0    0  0.20126793944E+02 -0.80744124430E+01 -0.23376000029E+02  0.31886068245E+02  0.00000000000E+00 0. -1.
         11    1    3    3    0    0 -0.47352199550E+01 -0.91885578687E+01  0.83875763753E+01  0.13311774541E+02  0.51100000000E-03 0. -1.
        -11    1    3    3    0    0 -0.25959753973E+02  0.12205099659E+02  0.23889616678E+01  0.28785072905E+02  0.51100000000E-03 0.  1.
         12    1    3    3    0    0  0.10568179984E+02  0.50578706523E+01  0.12599461986E+02  0.17205084308E+02  0.00000000000E+00 0. -1.
</event>
<event>
 7    1  0.6184948E-012  0.5930193E+02  0.7816164E-02  0.1266605E+00
        -11   -1    0    0    0    0  0.00000000000E+00  0.00000000000E+00  0.45593999997E+02  0.45594000000E+02  0.51100000000E-03 0. -1.
         11   -1    0    0    0    0 -0.00000000000E+00 -0.00000000000E+00 -0.45593999997E+02  0.45594000000E+02  0.51100000000E-03 0.  1.
    9900012    2    1    2    0    0  0.30997422212E+01 -0.16670539398E+02 -0.27003815467E+02  0.59301931954E+02  0.49999977980E+02 0.  0.
         12    1    1    2    0    0 -0.30997422212E+01  0.16670539398E+02  0.27003815467E+02  0.31886068046E+02  0.00000000000E+00 0. -1.
         11    1    3    3    0    0 -0.10368510880E+01 -0.18305852826E+02  0.31013563110E+01  0.18595637098E+02  0.51100000000E-03 0. -1.
        -11    1    3    3    0    0 -0.75921435427E+01 -0.39572764092E+01 -0.73853762535E+00  0.85933764166E+01  0.51100000000E-03 0.  1.
        -12    1    3    3    0    0  0.11728736852E+02  0.55925898368E+01 -0.29366634153E+02  0.32112918439E+02  0.00000000000E+00 0.  1.
</event>
<event>
 7    1  0.6184948E-012  0.5930195E+02  0.7816164E-02  0.1266605E+00
        -11   -1    0    0    0    0  0.00000000000E+00  0.00000000000E+00  0.45593999997E+02  0.45594000000E+02  0.51100000000E-03 0. -1.
         11   -1    0    0    0    0 -0.00000000000E+00 -0.00000000000E+00 -0.45593999997E+02  0.45594000000E+02  0.51100000000E-03 0.  1.
    9900012    2    1    2    0    0 -0.45677347633E+01 -0.29141812857E+02 -0.12108296088E+02  0.59301948322E+02  0.50000007831E+02 0.  0.
         12    1    1    2    0    0  0.45677347633E+01  0.29141812857E+02  0.12108296088E+02  0.31886051678E+02  0.00000000000E+00 0. -1.
         11    1    3    3    0    0 -0.72630397775E+01 -0.12964019128E+02  0.29102200535E+00  0.14862780118E+02  0.51100000000E-03 0. -1.
        -11    1    3    3    0    0 -0.12462066677E+02 -0.20985869432E+02 -0.14515410549E+02  0.28397305600E+02  0.51100000000E-03 0.  1.
        -12    1    3    3    0    0  0.15157371691E+02  0.48080757027E+01  0.21160924556E+01  0.16041862604E+02  0.00000000000E+00 0.  1.
</event>
<event>
 7    1  0.6184948E-012  0.5930192E+02  0.7816164E-02  0.1266605E+00
        -11   -1    0    0    0    0  0.00000000000E+00  0.00000000000E+00  0.45593999997E+02  0.45594000000E+02  0.51100000000E-03 0. -1.
         11   -1    0    0    0    0 -0.00000000000E+00 -0.00000000000E+00 -0.45593999997E+02  0.45594000000E+02  0.51100000000E-03 0.  1.
    9900012    2    1    2    0    0  0.20035850818E+02 -0.80541664688E+01 -0.23460973515E+02  0.59301918494E+02  0.49999953432E+02 0.  0.
         12    1    1    2    0    0 -0.20035850818E+02  0.80541664688E+01  0.23460973515E+02  0.31886081506E+02  0.00000000000E+00 0. -1.
         11    1    3    3    0    0 -0.49172511450E+01 -0.11468808908E+02  0.84894096953E+01  0.15092482030E+02  0.51100000000E-03 0. -1.
        -11    1    3    3    0    0  0.27883767060E+00 -0.35260450819E+01 -0.94953645610E+01  0.10132753465E+02  0.51100000000E-03 0.  1.
        -12    1    3    3    0    0  0.24674264293E+02  0.69406875215E+01 -0.22455018650E+02  0.34076682999E+02  0.00000000000E+00 0.  1.
</event>
<event>
 7    1  0.6184948E-012  0.5930193E+02  0.7816164E-02  0.1266605E+00
        -11   -1    0    0    0    0  0.00000000000E+00  0.00000000000E+00  0.45593999997E+02  0.45594000000E+02  0.51100000000E-03 0.  1.
         11   -1    0    0    0    0 -0.00000000000E+00 -0.00000000000E+00 -0.45593999997E+02  0.45594000000E+02  0.51100000000E-03 0. -1.
    9900012    2    1    2    0    0 -0.48753560151E-01 -0.29322298383E+02  0.12526850202E+02  0.59301928819E+02  0.49999972264E+02 0.  0.
         12    1    1    2    0    0  0.48753560151E-01  0.29322298383E+02 -0.12526850202E+02  0.31886071181E+02  0.00000000000E+00 0. -1.
         11    1    3    3    0    0 -0.13307305236E+01  0.34551407662E+01  0.15337587125E+02  0.15778162774E+02  0.51100000000E-03 0. -1.
        -11    1    3    3    0    0 -0.12207217466E+02 -0.22440182518E+02  0.26271496345E+01  0.25680340051E+02  0.51100000000E-03 0.  1.
         12    1    3    3    0    0  0.13489194429E+02 -0.10337256631E+02 -0.54378865576E+01  0.17843425995E+02  0.00000000000E+00 0. -1.
</event>
<event>
 7    1  0.6184948E-012  0.5930199E+02  0.7816164E-02  0.1266605E+00
        -11   -1    0    0    0    0  0.00000000000E+00  0.00000000000E+00  0.45593999997E+02  0.45594000000E+02  0.51100000000E-03 0.  1.
         11   -1    0    0    0    0 -0.00000000000E+00 -0.00000000000E+00 -0.45593999997E+02  0.45594000000E+02  0.51100000000E-03 0. -1.
    9900012    2    1    2    0    0 -0.74862845123E+01 -0.12106424705E+02  0.28532569311E+02  0.59301992310E+02  0.50000088054E+02 0.  0.
         12    1    1    2    0    0  0.74862845123E+01  0.12106424705E+02 -0.28532569311E+02  0.31886007690E+02  0.00000000000E+00 0. -1.
         11    1    3    3    0    0  0.12592139470E+01 -0.58155044001E+01  0.18989167308E+02  0.19899602672E+02  0.51100000000E-03 0. -1.
        -11    1    3    3    0    0  0.12886827399E+02 -0.58480014061E+01  0.10689601429E+02  0.17735191564E+02  0.51100000000E-03 0.  1.
         12    1    3    3    0    0 -0.21632325859E+02 -0.44291889888E+00 -0.11461994258E+01  0.21667198073E+02  0.00000000000E+00 0. -1.
</event>
<event>
 7    1  0.6184948E-012  0.5930189E+02  0.7816164E-02  0.1266605E+00
        -11   -1    0    0    0    0  0.00000000000E+00  0.00000000000E+00  0.45593999997E+02  0.45594000000E+02  0.51100000000E-03 0. -1.
         11   -1    0    0    0    0 -0.00000000000E+00 -0.00000000000E+00 -0.45593999997E+02  0.45594000000E+02  0.51100000000E-03 0.  1.
    9900012    2    1    2    0    0  0.44587387209E+01 -0.29259130522E+02 -0.11863683439E+02  0.59301889315E+02  0.49999900217E+02 0.  0.
         12    1    1    2    0    0 -0.44587387209E+01  0.29259130522E+02  0.11863683439E+02  0.31886110685E+02  0.00000000000E+00 0. -1.
         11    1    3    3    0    0 -0.10226882689E+02 -0.19746198814E+01  0.65841826372E+01  0.12322325855E+02  0.51100000000E-03 0. -1.
        -11    1    3    3    0    0 -0.43609758025E+01 -0.14185724748E+02  0.33418859945E+01  0.15212530980E+02  0.51100000000E-03 0.  1.
        -12    1    3    3    0    0  0.19046597213E+02 -0.13098785893E+02 -0.21789752071E+02  0.31767032479E+02  0.00000000000E+00 0.  1.
</event>
<event>
 7    1  0.6184948E-012  0.5930194E+02  0.7816164E-02  0.1266605E+00
        -11   -1    0    0    0    0  0.00000000000E+00  0.00000000000E+00  0.45593999997E+02  0.45594000000E+02  0.51100000000E-03 0.  1.
         11   -1    0    0    0    0 -0.00000000000E+00 -0.00000000000E+00 -0.45593999997E+02  0.45594000000E+02  0.51100000000E-03 0. -1.
    9900012    2    1    2    0    0 -0.57153644574E+01 -0.30423886380E+02  0.76447824979E+01  0.59301937954E+02  0.49999988923E+02 0.  0.
         12    1    1    2    0    0  0.57153644574E+01  0.30423886380E+02 -0.76447824979E+01  0.31886062046E+02  0.00000000000E+00 0. -1.
         11    1    3    3    0    0 -0.58609312563E+01  0.75256695835E+01  0.70902675847E+01  0.11885205617E+02  0.51100000000E-03 0.  1.
        -11    1    3    3    0    0  0.50464608543E+01  0.29649461948E+01  0.19975654625E+01  0.61844919864E+01  0.51100000000E-03 0. -1.
        -12    1    3    3    0    0 -0.49008940554E+01 -0.40914502159E+02 -0.14430505493E+01  0.41232240351E+02  0.00000000000E+00 0.  1.
</event>
<event>
 7    1  0.6184948E-012  0.5930196E+02  0.7816164E-02  0.1266605E+00
        -11   -1    0    0    0    0  0.00000000000E+00  0.00000000000E+00  0.45593999997E+02  0.45594000000E+02  0.51100000000E-03 0.  1.
         11   -1    0    0    0    0 -0.00000000000E+00 -0.00000000000E+00 -0.45593999997E+02  0.45594000000E+02  0.51100000000E-03 0. -1.
    9900012    2    1    2    0    0 -0.24478716858E+02  0.42108084401E+01  0.19994527778E+02  0.59301958731E+02  0.50000026815E+02 0.  0.
         12    1    1    2    0    0  0.24478716858E+02 -0.42108084401E+01 -0.19994527778E+02  0.31886041269E+02  0.00000000000E+00 0. -1.
         11    1    3    3    0    0 -0.54140208903E+01 -0.14229724477E+02 -0.62087874349E+01  0.16442193362E+02  0.51100000000E-03 0. -1.
        -11    1    3    3    0    0 -0.44792700133E+01  0.30358249289E+00  0.17410628673E+02  0.17980156096E+02  0.51100000000E-03 0.  1.
        -12    1    3    3    0    0 -0.14585425955E+02  0.18136950424E+02  0.87926865395E+01  0.24879609272E+02  0.00000000000E+00 0.  1.
</event>
<event>
 7    1  0.6184948E-012  0.5930194E+02  0.7816164E-02  0.1266605E+00
        -11   -1    0    0    0    0  0.00000000000E+00  0.00000000000E+00  0.45593999997E+02  0.45594000000E+02  0.51100000000E-03 0. -1.
         11   -1    0    0    0    0 -0.00000000000E+00 -0.00000000000E+00 -0.45593999997E+02  0.45594000000E+02  0.51100000000E-03 0.  1.
    9900012    2    1    2    0    0 -0.12073267080E+02 -0.66867530588E+01 -0.28744468804E+02  0.59301938292E+02  0.49999989539E+02 0.  0.
         12    1    1    2    0    0  0.12073267080E+02  0.66867530588E+01  0.28744468804E+02  0.31886061708E+02  0.00000000000E+00 0. -1.
         11    1    3    3    0    0  0.25625339894E+01 -0.85334011116E+01  0.21570872281E+01  0.91672537082E+01  0.51100000000E-03 0. -1.
        -11    1    3    3    0    0 -0.35665601162E+01 -0.16887284144E+02 -0.17497766199E+02  0.24577887197E+02  0.51100000000E-03 0.  1.
        -12    1    3    3    0    0 -0.11069240953E+02  0.18733932197E+02 -0.13403789832E+02  0.25556797387E+02  0.00000000000E+00 0.  1.
</event>
<event>
 7    1  0.6184948E-012  0.5930193E+02  0.7816164E-02  0.1266605E+00
        -11   -1    0    0    0    0  0.00000000000E+00  0.00000000000E+00  0.45593999997E+02  0.45594000000E+02  0.51100000000E-03 0. -1.
         11   -1    0    0    0    0 -0.00000000000E+00 -0.00000000000E+00 -0.45593999997E+02  0.45594000000E+02  0.51100000000E-03 0.  1.
    9900012    2    1    2    0    0  0.25651890104E+01  0.10774663725E+02 -0.29900628728E+02  0.59301934527E+02  0.49999982673E+02 0.  0.
         12    1    1    2    0    0 -0.25651890104E+01 -0.10774663725E+02  0.29900628728E+02  0.31886065473E+02  0.00000000000E+00 0. -1.
         11    1    3    3    0    0 -0.86263685765E+01  0.67326991730E+01  0.63630988561E+01  0.12658297685E+02  0.51100000000E-03 0. -1.
        -11    1    3    3    0    0  0.51254017691E+01  0.12351586369E+02 -0.59594909628E+01  0.14640592950E+02  0.51100000000E-03 0.  1.
        -12    1    3    3    0    0  0.60661558178E+01 -0.83096218172E+01 -0.30304236621E+02  0.32003043892E+02  0.00000000000E+00 0.  1.
</event>
<event>
 7    1  0.6184948E-012  0.5930198E+02  0.7816164E-02  0.1266605E+00
        -11   -1    0    0    0    0  0.00000000000E+00  0.00000000000E+00  0.45593999997E+02  0.45594000000E+02  0.51100000000E-03 0. -1.
         11   -1    0    0    0    0 -0.00000000000E+00 -0.00000000000E+00 -0.45593999997E+02  0.45594000000E+02  0.51100000000E-03 0.  1.
    9900012    2    1    2    0    0 -0.15129605540E+02 -0.13976505978E+02 -0.24340724861E+02  0.59301975320E+02  0.50000057070E+02 0.  0.
         12    1    1    2    0    0  0.15129605540E+02  0.13976505978E+02  0.24340724861E+02  0.31886024680E+02  0.00000000000E+00 0. -1.
         11    1    3    3    0    0 -0.77079473204E+01  0.70521173282E+01 -0.18498674051E+02  0.21244899449E+02  0.51100000000E-03 0. -1.
        -11    1    3    3    0    0  0.76305592744E+01  0.37363751004E+00 -0.88821468528E+01  0.11715697709E+02  0.51100000000E-03 0.  1.
         12    1    3    3    0    0 -0.15052217494E+02 -0.21402260816E+02  0.30400960428E+01  0.26341378162E+02  0.00000000000E+00 0. -1.
</event>
<event>
 7    1  0.6184948E-012  0.5930197E+02  0.7816164E-02  0.1266605E+00
        -11   -1    0    0    0    0  0.00000000000E+00  0.00000000000E+00  0.45593999997E+02  0.45594000000E+02  0.51100000000E-03 0. -1.
         11   -1    0    0    0    0 -0.00000000000E+00 -0.00000000000E+00 -0.45593999997E+02  0.45594000000E+02  0.51100000000E-03 0.  1.
    9900012    2    1    2    0    0  0.78297655373E+01  0.29130732522E+02 -0.10335089435E+02  0.59301970469E+02  0.50000048223E+02 0.  0.
         12    1    1    2    0    0 -0.78297655373E+01 -0.29130732522E+02  0.10335089435E+02  0.31886029531E+02  0.00000000000E+00 0. -1.
         11    1    3    3    0    0  0.43025357300E+01 -0.51736632472E+01 -0.22158279279E+01  0.70843841490E+01  0.51100000000E-03 0. -1.
        -11    1    3    3    0    0 -0.15044483495E+02  0.32619380507E+01 -0.18549521071E+01  0.15505404576E+02  0.51100000000E-03 0.  1.
         12    1    3    3    0    0  0.18571713302E+02  0.31042457718E+02 -0.62643094003E+01  0.36712181744E+02  0.00000000000E+00 0. -1.
</event>
<event>
 7    1  0.6184948E-012  0.5930198E+02  0.7816164E-02  0.1266605E+00
        -11   -1    0    0    0    0  0.00000000000E+00  0.00000000000E+00  0.45593999997E+02  0.45594000000E+02  0.51100000000E-03 0.  1.
         11   -1    0    0    0    0 -0.00000000000E+00 -0.00000000000E+00 -0.45593999997E+02  0.45594000000E+02  0.51100000000E-03 0. -1.
    9900012    2    1    2    0    0 -0.13244933998E+02  0.15144345365E+02  0.24737391792E+02  0.59301983852E+02  0.50000072630E+02 0.  0.
         12    1    1    2    0    0  0.13244933998E+02 -0.15144345365E+02 -0.24737391792E+02  0.31886016148E+02  0.00000000000E+00 0. -1.
         11    1    3    3    0    0 -0.99457478349E+01 -0.36894486499E+00 -0.78226535218E+01  0.12658907089E+02  0.51100000000E-03 0. -1.
        -11    1    3    3    0    0  0.10338550346E+02  0.13419857007E+02  0.86098132055E+01  0.19002817398E+02  0.51100000000E-03 0.  1.
         12    1    3    3    0    0 -0.13637736509E+02  0.20934332232E+01  0.23950232108E+02  0.27640259365E+02  0.00000000000E+00 0. -1.
</event>
<event>
 7    1  0.6184948E-012  0.5930195E+02  0.7816164E-02  0.1266605E+00
        -11   -1    0    0    0    0  0.00000000000E+00  0.00000000000E+00  0.45593999997E+02  0.45594000000E+02  0.51100000000E-03 0.  1.
         11   -1    0    0    0    0 -0.00000000000E+00 -0.00000000000E+00 -0.45593999997E+02  0.45594000000E+02  0.51100000000E-03 0. -1.
    9900012    2    1    2    0    0  0.23901373658E+02  0.18753949314E+02 -0.96816183012E+01  0.59301952729E+02  0.50000015870E+02 0.  0.
         12    1    1    2    0    0 -0.23901373658E+02 -0.18753949314E+02  0.96816183012E+01  0.31886047271E+02  0.00000000000E+00 0. -1.
         11    1    3    3    0    0  0.50228117505E+01  0.13729379099E+02  0.13120111144E+02  0.19643365420E+02  0.51100000000E-03 0.  1.
        -11    1    3    3    0    0 -0.52314465769E+01  0.63246529712E+01 -0.71403302271E+01  0.10879043364E+02  0.51100000000E-03 0. -1.
         12    1    3    3    0    0  0.24110008484E+02 -0.13000827557E+01 -0.15661399218E+02  0.28779543946E+02  0.00000000000E+00 0. -1.
</event>
<event>
 7    1  0.6184948E-012  0.5930193E+02  0.7816164E-02  0.1266605E+00
        -11   -1    0    0    0    0  0.00000000000E+00  0.00000000000E+00  0.45593999997E+02  0.45594000000E+02  0.51100000000E-03 0. -1.
         11   -1    0    0    0    0 -0.00000000000E+00 -0.00000000000E+00 -0.45593999997E+02  0.45594000000E+02  0.51100000000E-03 0.  1.
    9900012    2    1    2    0    0  0.44341388751E+01 -0.16802706827E+02 -0.26734411178E+02  0.59301932740E+02  0.49999979413E+02 0.  0.
         12    1    1    2    0    0 -0.44341388751E+01  0.16802706827E+02  0.26734411178E+02  0.31886067260E+02  0.00000000000E+00 0. -1.
         11    1    3    3    0    0 -0.13364976790E+02  0.16652491992E+01 -0.16157371037E+01  0.13564890937E+02  0.51100000000E-03 0. -1.
        -11    1    3    3    0    0  0.89480106058E+01  0.67837553391E+01 -0.98030132097E+01  0.14905881341E+02  0.51100000000E-03 0.  1.
         12    1    3    3    0    0  0.88511050593E+01 -0.25251711365E+02 -0.15315660865E+02  0.30831160461E+02  0.00000000000E+00 0. -1.
</event>
<event>
 7    1  0.6184948E-012  0.5930194E+02  0.7816164E-02  0.1266605E+00
        -11   -1    0    0    0    0  0.00000000000E+00  0.00000000000E+00  0.45593999997E+02  0.45594000000E+02  0.51100000000E-03 0. -1.
         11   -1    0    0    0    0 -0.00000000000E+00 -0.00000000000E+00 -0.45593999997E+02  0.45594000000E+02  0.51100000000E-03 0.  1.
    9900012    2    1    2    0    0 -0.38026395803E+01 -0.20977591211E+02 -0.23710787132E+02  0.59301939923E+02  0.49999992514E+02 0.  0.
         12    1    1    2    0    0  0.38026395803E+01  0.20977591211E+02  0.23710787132E+02  0.31886060077E+02  0.00000000000E+00 0. -1.
         11    1    3    3    0    0 -0.15090413021E+02  0.31653308632E+01 -0.10407247870E+01  0.15453898957E+02  0.51100000000E-03 0. -1.
        -11    1    3    3    0    0  0.88621161757E+01 -0.19758101123E+01  0.32608603448E+01  0.96474939317E+01  0.51100000000E-03 0.  1.
        -12    1    3    3    0    0  0.24256572653E+01 -0.22167111962E+02 -0.25930922690E+02  0.34200547035E+02  0.00000000000E+00 0.  1.
</event>
<event>
 7    1  0.6184948E-012  0.5930195E+02  0.7816164E-02  0.1266605E+00
        -11   -1    0    0    0    0  0.00000000000E+00  0.00000000000E+00  0.45593999997E+02  0.45594000000E+02  0.51100000000E-03 0. -1.
         11   -1    0    0    0    0 -0.00000000000E+00 -0.00000000000E+00 -0.45593999997E+02  0.45594000000E+02  0.51100000000E-03 0.  1.
    9900012    2    1    2    0    0 -0.20721340526E+02  0.20959914601E+02  0.12166689285E+02  0.59301948168E+02  0.50000007551E+02 0.  0.
         12    1    1    2    0    0  0.20721340526E+02 -0.20959914601E+02 -0.12166689285E+02  0.31886051832E+02  0.00000000000E+00 0. -1.
         11    1    3    3    0    0 -0.19335781069E+02 -0.17717482003E+01  0.38867994302E+00  0.19420674386E+02  0.51100000000E-03 0. -1.
        -11    1    3    3    0    0  0.29712676024E+01 -0.63604407517E+01  0.72964740645E+01  0.10125323291E+02  0.51100000000E-03 0.  1.
        -12    1    3    3    0    0 -0.43568270587E+01  0.29092103553E+02  0.44815352779E+01  0.29755950491E+02  0.00000000000E+00 0.  1.
</event>
<event>
 7    1  0.6184948E-012  0.5930197E+02  0.7816164E-02  0.1266605E+00
        -11   -1    0    0    0    0  0.00000000000E+00  0.00000000000E+00  0.45593999997E+02  0.45594000000E+02  0.51100000000E-03 0.  1.
         11   -1    0    0    0    0 -0.00000000000E+00 -0.00000000000E+00 -0.45593999997E+02  0.45594000000E+02  0.51100000000E-03 0. -1.
    9900012    2    1    2    0    0  0.18259273747E+02 -0.20971219024E+02  0.15605303718E+02  0.59301974703E+02  0.50000055943E+02 0.  0.
         12    1    1    2    0    0 -0.18259273747E+02  0.20971219024E+02 -0.15605303718E+02  0.31886025297E+02  0.00000000000E+00 0. -1.
         11    1    3    3    0    0  0.55041682780E+01 -0.12601700509E+02  0.10771763359E+02  0.17467959534E+02  0.51100000000E-03 0. -1.
        -11    1    3    3    0    0  0.13461107133E+02  0.50547418254E+01  0.17986055716E+02  0.23027158328E+02  0.51100000000E-03 0.  1.
         12    1    3    3    0    0 -0.70600166392E+00 -0.13424260341E+02 -0.13152515357E+02  0.18806856841E+02  0.00000000000E+00 0. -1.
</event>
<event>
 7    1  0.6184948E-012  0.5930209E+02  0.7816164E-02  0.1266604E+00
        -11   -1    0    0    0    0  0.00000000000E+00  0.00000000000E+00  0.45593999997E+02  0.45594000000E+02  0.51100000000E-03 0. -1.
         11   -1    0    0    0    0 -0.00000000000E+00 -0.00000000000E+00 -0.45593999997E+02  0.45594000000E+02  0.51100000000E-03 0.  1.
    9900012    2    1    2    0    0 -0.26556240505E+02  0.25376002911E+01 -0.17465329889E+02  0.59302092876E+02  0.50000271463E+02 0.  0.
         12    1    1    2    0    0  0.26556240505E+02 -0.25376002911E+01  0.17465329889E+02  0.31885907124E+02  0.00000000000E+00 0. -1.
         11    1    3    3    0    0 -0.10482449228E+02 -0.13132187892E+02  0.39287728170E+01  0.17256052757E+02  0.51100000000E-03 0. -1.
        -11    1    3    3    0    0 -0.18067948697E+02 -0.99858277864E+00 -0.54615342390E+01  0.18901753733E+02  0.51100000000E-03 0.  1.
        -12    1    3    3    0    0  0.19941574198E+01  0.16668370962E+02 -0.15932568467E+02  0.23144286385E+02  0.00000000000E+00 0.  1.
</event>
<event>
 7    1  0.6184948E-012  0.5930193E+02  0.7816164E-02  0.1266605E+00
        -11   -1    0    0    0    0  0.00000000000E+00  0.00000000000E+00  0.45593999997E+02  0.45594000000E+02  0.51100000000E-03 0. -1.
         11   -1    0    0    0    0 -0.00000000000E+00 -0.00000000000E+00 -0.45593999997E+02  0.45594000000E+02  0.51100000000E-03 0.  1.
    9900012    2    1    2    0    0  0.51967471126E+01  0.16581293682E+01 -0.31416013007E+02  0.59301930207E+02  0.49999974795E+02 0.  0.
         12    1    1    2    0    0 -0.51967471126E+01 -0.16581293682E+01  0.31416013007E+02  0.31886069793E+02  0.00000000000E+00 0. -1.
         11    1    3    3    0    0  0.16663801886E+02  0.14504010614E+02 -0.14363117382E+02  0.26350479282E+02  0.51100000000E-03 0. -1.
        -11    1    3    3    0    0 -0.16297420226E+01 -0.57349700921E+01 -0.19653324603E+02  0.20537748397E+02  0.51100000000E-03 0.  1.
         12    1    3    3    0    0 -0.98373127508E+01 -0.71109111535E+01  0.26004289777E+01  0.12413702528E+02  0.00000000000E+00 0. -1.
</event>
<event>
 7    1  0.6184948E-012  0.5930191E+02  0.7816164E-02  0.1266605E+00
        -11   -1    0    0    0    0  0.00000000000E+00  0.00000000000E+00  0.45593999997E+02  0.45594000000E+02  0.51100000000E-03 0.  1.
         11   -1    0    0    0    0 -0.00000000000E+00 -0.00000000000E+00 -0.45593999997E+02  0.45594000000E+02  0.51100000000E-03 0. -1.
    9900012    2    1    2    0    0  0.17175967215E+02  0.41749665985E+01  0.26538240811E+02  0.59301914928E+02  0.49999946930E+02 0.  0.
         12    1    1    2    0    0 -0.17175967215E+02 -0.41749665985E+01 -0.26538240811E+02  0.31886085072E+02  0.00000000000E+00 0. -1.
         11    1    3    3    0    0 -0.10694106608E+02  0.79279406109E+01  0.10576414955E+02  0.17002256087E+02  0.51100000000E-03 0. -1.
        -11    1    3    3    0    0  0.12162837218E+02 -0.11295653284E+02  0.18314281505E+02  0.24717186321E+02  0.51100000000E-03 0.  1.
         12    1    3    3    0    0  0.15707236605E+02  0.75426792719E+01 -0.23524556494E+01  0.17582472521E+02  0.00000000000E+00 0. -1.
</event>
<event>
 7    1  0.6184948E-012  0.5930196E+02  0.7816164E-02  0.1266605E+00
        -11   -1    0    0    0    0  0.00000000000E+00  0.00000000000E+00  0.45593999997E+02  0.45594000000E+02  0.51100000000E-03 0.  1.
         11   -1    0    0    0    0 -0.00000000000E+00 -0.00000000000E+00 -0.45593999997E+02  0.45594000000E+02  0.51100000000E-03 0. -1.
    9900012    2    1    2    0    0  0.12584578735E+02  0.28070472737E+02 -0.83902463882E+01  0.59301963933E+02  0.50000036303E+02 0.  0.
         12    1    1    2    0    0 -0.12584578735E+02 -0.28070472737E+02  0.83902463882E+01  0.31886036067E+02  0.00000000000E+00 0. -1.
         11    1    3    3    0    0  0.15549233354E+02  0.73263319049E+01  0.21257663690E+01  0.17319719397E+02  0.51100000000E-03 0. -1.
        -11    1    3    3    0    0  0.86358008353E+01  0.16634423105E+02  0.74804223921E+01  0.20180133982E+02  0.51100000000E-03 0.  1.
         12    1    3    3    0    0 -0.11600455455E+02  0.41097177264E+01 -0.17996435149E+02  0.21802110554E+02  0.00000000000E+00 0. -1.
</event>
<event>
 7    1  0.6184948E-012  0.5930195E+02  0.7816164E-02  0.1266605E+00
        -11   -1    0    0    0    0  0.00000000000E+00  0.00000000000E+00  0.45593999997E+02  0.45594000000E+02  0.51100000000E-03 0. -1.
         11   -1    0    0    0    0 -0.00000000000E+00 -0.00000000000E+00 -0.45593999997E+02  0.45594000000E+02  0.51100000000E-03 0.  1.
    9900012    2    1    2    0    0 -0.28930714608E+02 -0.12549918721E+02  0.47152063249E+01  0.59301954803E+02  0.50000019652E+02 0.  0.
         12    1    1    2    0    0  0.28930714608E+02  0.12549918721E+02 -0.47152063249E+01  0.31886045197E+02  0.00000000000E+00 0. -1.
         11    1    3    3    0    0  0.45966121982E+01 -0.92236376143E+01  0.14619948227E+02  0.17887068541E+02  0.51100000000E-03 0. -1.
        -11    1    3    3    0    0  0.49740333992E+00  0.96315131873E+00 -0.69053615345E+01  0.69899276626E+01  0.51100000000E-03 0.  1.
         12    1    3    3    0    0 -0.34024730146E+02 -0.42894324254E+01 -0.29993803681E+01  0.34424958600E+02  0.00000000000E+00 0. -1.
</event>
<event>
 7    1  0.6184948E-012  0.5930193E+02  0.7816164E-02  0.1266605E+00
        -11   -1    0    0    0    0  0.00000000000E+00  0.00000000000E+00  0.45593999997E+02  0.45594000000E+02  0.51100000000E-03 0.  1.
         11   -1    0    0    0    0 -0.00000000000E+00 -0.00000000000E+00 -0.45593999997E+02  0.45594000000E+02  0.51100000000E-03 0. -1.
    9900012    2    1    2    0    0 -0.52032605556E+01 -0.50333002179E+01  0.31053394590E+02  0.59301931772E+02  0.49999977648E+02 0.  0.
         12    1    1    2    0    0  0.52032605556E+01  0.50333002179E+01 -0.31053394590E+02  0.31886068228E+02  0.00000000000E+00 0. -1.
         11    1    3    3    0    0 -0.46246953455E+01  0.95883592374E+01  0.24155042245E+02  0.26396789691E+02  0.51100000000E-03 0. -1.
        -11    1    3    3    0    0  0.13509058614E+02 -0.56514133442E+01 -0.46948699413E+00  0.14651059884E+02  0.51100000000E-03 0.  1.
         12    1    3    3    0    0 -0.14087623824E+02 -0.89702461111E+01  0.73678393398E+01  0.18254082197E+02  0.00000000000E+00 0. -1.
</event>
<event>
 7    1  0.6184948E-012  0.5930187E+02  0.7816164E-02  0.1266605E+00
        -11   -1    0    0    0    0  0.00000000000E+00  0.00000000000E+00  0.45593999997E+02  0.45594000000E+02  0.51100000000E-03 0.  1.
         11   -1    0    0    0    0 -0.00000000000E+00 -0.00000000000E+00 -0.45593999997E+02  0.45594000000E+02  0.51100000000E-03 0. -1.
    9900012    2    1    2    0    0  0.46827366602E+01  0.18551952005E+02  0.25507294720E+02  0.59301874024E+02  0.49999872329E+02 0.  0.
         12    1    1    2    0    0 -0.46827366602E+01 -0.18551952005E+02 -0.25507294720E+02  0.31886125976E+02  0.00000000000E+00 0. -1.
         11    1    3    3    0    0  0.41807301057E+01  0.11262283302E+01  0.52933955818E+01  0.68386352085E+01  0.51100000000E-03 0. -1.
        -11    1    3    3    0    0  0.56311509514E-01 -0.11282132665E+02  0.20892191418E+02  0.23743911871E+02  0.51100000000E-03 0.  1.
         12    1    3    3    0    0  0.44569504491E+00  0.28707856340E+02 -0.67829227937E+00  0.28719326944E+02  0.00000000000E+00 0. -1.
</event>
<event>
 7    1  0.6184948E-012  0.5930193E+02  0.7816164E-02  0.1266605E+00
        -11   -1    0    0    0    0  0.00000000000E+00  0.00000000000E+00  0.45593999997E+02  0.45594000000E+02  0.51100000000E-03 0.  1.
         11   -1    0    0    0    0 -0.00000000000E+00 -0.00000000000E+00 -0.45593999997E+02  0.45594000000E+02  0.51100000000E-03 0. -1.
    9900012    2    1    2    0    0 -0.31829521282E+02 -0.49353260677E+00 -0.18328285640E+01  0.59301933137E+02  0.49999980138E+02 0.  0.
         12    1    1    2    0    0  0.31829521282E+02  0.49353260677E+00  0.18328285640E+01  0.31886066863E+02  0.00000000000E+00 0. -1.
         11    1    3    3    0    0 -0.39540359827E+02  0.58650217257E+01 -0.98708539383E+01  0.41173684470E+02  0.51100000000E-03 0. -1.
        -11    1    3    3    0    0 -0.32056212875E+01 -0.27849579643E+01  0.25658685233E+00  0.42541551189E+01  0.51100000000E-03 0.  1.
        -12    1    3    3    0    0  0.10916459833E+02 -0.35735963682E+01  0.77814385220E+01  0.13874093548E+02  0.00000000000E+00 0.  1.
</event>
<event>
 7    1  0.6184948E-012  0.5930191E+02  0.7816164E-02  0.1266605E+00
        -11   -1    0    0    0    0  0.00000000000E+00  0.00000000000E+00  0.45593999997E+02  0.45594000000E+02  0.51100000000E-03 0. -1.
         11   -1    0    0    0    0 -0.00000000000E+00 -0.00000000000E+00 -0.45593999997E+02  0.45594000000E+02  0.51100000000E-03 0.  1.
    9900012    2    1    2    0    0  0.11682752857E+02  0.25359082324E+02 -0.15399773667E+02  0.59301908995E+02  0.49999936108E+02 0.  0.
         12    1    1    2    0    0 -0.11682752857E+02 -0.25359082324E+02  0.15399773667E+02  0.31886091005E+02  0.00000000000E+00 0. -1.
         11    1    3    3    0    0  0.68719585083E+01 -0.66982210447E-01  0.16372090508E+01  0.70646128056E+01  0.51100000000E-03 0. -1.
        -11    1    3    3    0    0 -0.50463316060E+01 -0.23498726491E+01  0.10511160911E+02  0.11894194723E+02  0.51100000000E-03 0.  1.
        -12    1    3    3    0    0  0.98571259546E+01  0.27775937183E+02 -0.27548143629E+02  0.40343101466E+02  0.00000000000E+00 0.  1.
</event>
<event>
 7    1  0.6184948E-012  0.5930191E+02  0.7816164E-02  0.1266605E+00
        -11   -1    0    0    0    0  0.00000000000E+00  0.00000000000E+00  0.45593999997E+02  0.45594000000E+02  0.51100000000E-03 0.  1.
         11   -1    0    0    0    0 -0.00000000000E+00 -0.00000000000E+00 -0.45593999997E+02  0.45594000000E+02  0.51100000000E-03 0. -1.
    9900012    2    1    2    0    0 -0.12176012421E+02  0.85415864643E+01  0.28204770141E+02  0.59301905280E+02  0.49999929333E+02 0.  0.
         12    1    1    2    0    0  0.12176012421E+02 -0.85415864643E+01 -0.28204770141E+02  0.31886094720E+02  0.00000000000E+00 0. -1.
         11    1    3    3    0    0 -0.12604792191E+02 -0.15087822793E+02  0.13216522030E+02  0.23689652544E+02  0.51100000000E-03 0. -1.
        -11    1    3    3    0    0  0.42128778241E+01 -0.25084701676E+01  0.59235635145E+01  0.76895622186E+01  0.51100000000E-03 0.  1.
        -12    1    3    3    0    0 -0.37840980548E+01  0.26137879425E+02  0.90646845962E+01  0.27922690517E+02  0.00000000000E+00 0.  1.
</event>
<event>
 7    1  0.6184948E-012  0.5930196E+02  0.7816164E-02  0.1266605E+00
        -11   -1    0    0    0    0  0.00000000000E+00  0.00000000000E+00  0.45593999997E+02  0.45594000000E+02  0.51100000000E-03 0.  1.
         11   -1    0    0    0    0 -0.00000000000E+00 -0.00000000000E+00 -0.45593999997E+02  0.45594000000E+02  0.51100000000E-03 0. -1.
    9900012    2    1    2    0    0 -0.23015816485E+01  0.16450941815E+02  0.27217440700E+02  0.59301955357E+02  0.50000020662E+02 0.  0.
         12    1    1    2    0    0  0.23015816485E+01 -0.16450941815E+02 -0.27217440700E+02  0.31886044643E+02  0.00000000000E+00 0. -1.
         11    1    3    3    0    0 -0.89883481140E+01 -0.36606537862E+01 -0.98159801388E+01  0.13803776813E+02  0.51100000000E-03 0. -1.
        -11    1    3    3    0    0 -0.36195933169E+01  0.34896062562E+01  0.20718911851E+01  0.54379721356E+01  0.51100000000E-03 0.  1.
         12    1    3    3    0    0  0.10306359782E+02  0.16621989345E+02  0.34961529654E+02  0.40060206409E+02  0.00000000000E+00 0. -1.
</event>
<event>
 7    1  0.6184948E-012  0.5930196E+02  0.7816164E-02  0.1266605E+00
        -11   -1    0    0    0    0  0.00000000000E+00  0.00000000000E+00  0.45593999997E+02  0.45594000000E+02  0.51100000000E-03 0. -1.
         11   -1    0    0    0    0 -0.00000000000E+00 -0.00000000000E+00 -0.45593999997E+02  0.45594000000E+02  0.51100000000E-03 0.  1.
    9900012    2    1    2    0    0 -0.24407987507E+02  0.30294713373E+01 -0.20292652260E+02  0.59301964083E+02  0.50000036576E+02 0.  0.
         12    1    1    2    0    0  0.24407987507E+02 -0.30294713373E+01  0.20292652260E+02  0.31886035917E+02  0.00000000000E+00 0. -1.
         11    1    3    3    0    0  0.22617762894E+01  0.13573291701E+02  0.78150757695E+01  0.15824831409E+02  0.51100000000E-03 0. -1.
        -11    1    3    3    0    0 -0.10855076042E+02 -0.14539094115E+01 -0.12673917409E+01  0.11025099117E+02  0.51100000000E-03 0.  1.
        -12    1    3    3    0    0 -0.15814687755E+02 -0.90899109519E+01 -0.26840336289E+02  0.32452033557E+02  0.00000000000E+00 0.  1.
</event>
<event>
 7    1  0.6184948E-012  0.5930183E+02  0.7816164E-02  0.1266605E+00
        -11   -1    0    0    0    0  0.00000000000E+00  0.00000000000E+00  0.45593999997E+02  0.45594000000E+02  0.51100000000E-03 0.  1.
         11   -1    0    0    0    0 -0.00000000000E+00 -0.00000000000E+00 -0.45593999997E+02  0.45594000000E+02  0.51100000000E-03 0. -1.
    9900012    2    1    2    0    0  0.50228425804E+01 -0.14570429928E+02  0.27914185076E+02  0.59301825812E+02  0.49999784402E+02 0.  0.
         12    1    1    2    0    0 -0.50228425804E+01  0.14570429928E+02 -0.27914185076E+02  0.31886174188E+02  0.00000000000E+00 0. -1.
         11    1    3    3    0    0  0.14427798235E+02  0.18059292914E+01  0.62171772450E+01  0.15813792577E+02  0.51100000000E-03 0. -1.
        -11    1    3    3    0    0  0.10816586413E+02  0.12172058219E+01  0.63262199516E+01  0.12589725604E+02  0.51100000000E-03 0.  1.
         12    1    3    3    0    0 -0.20221542067E+02 -0.17593565041E+02  0.15370787880E+02  0.30898307631E+02  0.00000000000E+00 0. -1.
</event>
<event>
 7    1  0.6184948E-012  0.5930186E+02  0.7816164E-02  0.1266605E+00
        -11   -1    0    0    0    0  0.00000000000E+00  0.00000000000E+00  0.45593999997E+02  0.45594000000E+02  0.51100000000E-03 0. -1.
         11   -1    0    0    0    0 -0.00000000000E+00 -0.00000000000E+00 -0.45593999997E+02  0.45594000000E+02  0.51100000000E-03 0.  1.
    9900012    2    1    2    0    0 -0.15038417842E+02  0.87248045439E+01 -0.26729186533E+02  0.59301864482E+02  0.49999854928E+02 0.  0.
         12    1    1    2    0    0  0.15038417842E+02 -0.87248045439E+01  0.26729186533E+02  0.31886135518E+02  0.00000000000E+00 0. -1.
         11    1    3    3    0    0  0.96389649049E+00  0.16504559095E+02 -0.20973698676E+02  0.26706283976E+02  0.51100000000E-03 0. -1.
        -11    1    3    3    0    0  0.56472383252E+01 -0.40872791256E+01  0.45614026913E+01  0.83308790728E+01  0.51100000000E-03 0.  1.
        -12    1    3    3    0    0 -0.21649552658E+02 -0.36924754259E+01 -0.10316890548E+02  0.24264701433E+02  0.00000000000E+00 0.  1.
</event>
<event>
 7    1  0.6184948E-012  0.5930206E+02  0.7816164E-02  0.1266604E+00
        -11   -1    0    0    0    0  0.00000000000E+00  0.00000000000E+00  0.45593999997E+02  0.45594000000E+02  0.51100000000E-03 0.  1.
         11   -1    0    0    0    0 -0.00000000000E+00 -0.00000000000E+00 -0.45593999997E+02  0.45594000000E+02  0.51100000000E-03 0. -1.
    9900012    2    1    2    0    0 -0.12210282874E+02 -0.11031910741E+02  0.27311522585E+02  0.59302057512E+02  0.50000206968E+02 0.  0.
         12    1    1    2    0    0  0.12210282874E+02  0.11031910741E+02 -0.27311522585E+02  0.31885942488E+02  0.00000000000E+00 0. -1.
         11    1    3    3    0    0  0.49089938494E+01  0.13334762748E+02  0.14248293855E+02  0.20122822770E+02  0.51100000000E-03 0. -1.
        -11    1    3    3    0    0  0.34021469549E+01 -0.11809329350E+02  0.11806477459E+01  0.12346205609E+02  0.51100000000E-03 0.  1.
        -12    1    3    3    0    0 -0.20521423678E+02 -0.12557344140E+02  0.11882580983E+02  0.26833029133E+02  0.00000000000E+00 0.  1.
</event>
<event>
 7    1  0.6184948E-012  0.5930196E+02  0.7816164E-02  0.1266605E+00
        -11   -1    0    0    0    0  0.00000000000E+00  0.00000000000E+00  0.45593999997E+02  0.45594000000E+02  0.51100000000E-03 0.  1.
         11   -1    0    0    0    0 -0.00000000000E+00 -0.00000000000E+00 -0.45593999997E+02  0.45594000000E+02  0.51100000000E-03 0. -1.
    9900012    2    1    2    0    0 -0.23177668640E+02 -0.85719519507E+01  0.20150350088E+02  0.59301963989E+02  0.50000036404E+02 0.  0.
         12    1    1    2    0    0  0.23177668640E+02  0.85719519507E+01 -0.20150350088E+02  0.31886036011E+02  0.00000000000E+00 0. -1.
         11    1    3    3    0    0 -0.18122214349E+02  0.11284029676E+02  0.27496245216E-01  0.21348178726E+02  0.51100000000E-03 0. -1.
        -11    1    3    3    0    0 -0.99117417052E+01 -0.12260266353E+01  0.15018534060E+02  0.18036134023E+02  0.51100000000E-03 0.  1.
        -12    1    3    3    0    0  0.48562874134E+01 -0.18629954992E+02  0.51043197825E+01  0.19917651239E+02  0.00000000000E+00 0.  1.
</event>
<event>
 7    1  0.6184948E-012  0.5930193E+02  0.7816164E-02  0.1266605E+00
        -11   -1    0    0    0    0  0.00000000000E+00  0.00000000000E+00  0.45593999997E+02  0.45594000000E+02  0.51100000000E-03 0. -1.
         11   -1    0    0    0    0 -0.00000000000E+00 -0.00000000000E+00 -0.45593999997E+02  0.45594000000E+02  0.51100000000E-03 0.  1.
    9900012    2    1    2    0    0  0.11034521494E+02 -0.18934117761E+02 -0.23161602460E+02  0.59301932377E+02  0.49999978751E+02 0.  0.
         12    1    1    2    0    0 -0.11034521494E+02  0.18934117761E+02  0.23161602460E+02  0.31886067623E+02  0.00000000000E+00 0. -1.
         11    1    3    3    0    0 -0.75399395249E+00  0.49002618355E+01  0.71605623030E+01  0.87094618487E+01  0.51100000000E-03 0. -1.
        -11    1    3    3    0    0  0.12657814787E+02  0.18888220645E+01 -0.31793429663E+01  0.13186968792E+02  0.51100000000E-03 0.  1.
        -12    1    3    3    0    0 -0.86929934052E+00 -0.25723201661E+02 -0.27142821797E+02  0.37405501736E+02  0.00000000000E+00 0.  1.
</event>
<event>
 7    1  0.6184948E-012  0.5930197E+02  0.7816164E-02  0.1266605E+00
        -11   -1    0    0    0    0  0.00000000000E+00  0.00000000000E+00  0.45593999997E+02  0.45594000000E+02  0.51100000000E-03 0.  1.
         11   -1    0    0    0    0 -0.00000000000E+00 -0.00000000000E+00 -0.45593999997E+02  0.45594000000E+02  0.51100000000E-03 0. -1.
    9900012    2    1    2    0    0  0.29757008333E+02 -0.48677414699E+01  0.10370370909E+02  0.59301967875E+02  0.50000043491E+02 0.  0.
         12    1    1    2    0    0 -0.29757008333E+02  0.48677414699E+01 -0.10370370909E+02  0.31886032125E+02  0.00000000000E+00 0. -1.
         11    1    3    3    0    0  0.79514381631E+01  0.13119489247E+02  0.65906808668E+00  0.15355153466E+02  0.51100000000E-03 0. -1.
        -11    1    3    3    0    0  0.11478910318E+02 -0.35404675430E+01 -0.11261503997E+02  0.16465775568E+02  0.51100000000E-03 0.  1.
        -12    1    3    3    0    0  0.10326659851E+02 -0.14446763174E+02  0.20972806819E+02  0.27481038841E+02  0.00000000000E+00 0.  1.
</event>
<event>
 7    1  0.6184948E-012  0.5930194E+02  0.7816164E-02  0.1266605E+00
        -11   -1    0    0    0    0  0.00000000000E+00  0.00000000000E+00  0.45593999997E+02  0.45594000000E+02  0.51100000000E-03 0. -1.
         11   -1    0    0    0    0 -0.00000000000E+00 -0.00000000000E+00 -0.45593999997E+02  0.45594000000E+02  0.51100000000E-03 0.  1.
    9900012    2    1    2    0    0 -0.12540512871E+02 -0.23095682798E+02 -0.18056732444E+02  0.59301943274E+02  0.49999998625E+02 0.  0.
         12    1    1    2    0    0  0.12540512871E+02  0.23095682798E+02  0.18056732444E+02  0.31886056726E+02  0.00000000000E+00 0. -1.
         11    1    3    3    0    0  0.48456797953E+01 -0.65814278042E+01  0.10892972149E+02  0.13618099982E+02  0.51100000000E-03 0. -1.
        -11    1    3    3    0    0 -0.56327930650E+01  0.64681739496E+01 -0.30130335186E+01  0.90908747214E+01  0.51100000000E-03 0.  1.
        -12    1    3    3    0    0 -0.11753399602E+02 -0.22982428944E+02 -0.25936671075E+02  0.36592968570E+02  0.00000000000E+00 0.  1.
</event>
<event>
 7    1  0.6184948E-012  0.5930191E+02  0.7816164E-02  0.1266605E+00
        -11   -1    0    0    0    0  0.00000000000E+00  0.00000000000E+00  0.45593999997E+02  0.45594000000E+02  0.51100000000E-03 0. -1.
         11   -1    0    0    0    0 -0.00000000000E+00 -0.00000000000E+00 -0.45593999997E+02  0.45594000000E+02  0.51100000000E-03 0.  1.
    9900012    2    1    2    0    0  0.12862766614E+02 -0.12613897855E+02 -0.26308960760E+02  0.59301912119E+02  0.49999941807E+02 0.  0.
         12    1    1    2    0    0 -0.12862766614E+02  0.12613897855E+02  0.26308960760E+02  0.31886087881E+02  0.00000000000E+00 0. -1.
         11    1    3    3    0    0  0.94145396117E+01 -0.18688199681E+02 -0.27310797276E+00  0.20927421046E+02  0.51100000000E-03 0. -1.
        -11    1    3    3    0    0  0.12319237954E+02  0.73685811001E+01 -0.44942329417E+01  0.15041866280E+02  0.51100000000E-03 0.  1.
        -12    1    3    3    0    0 -0.88710109517E+01 -0.12942792739E+01 -0.21541619846E+02  0.23332624793E+02  0.00000000000E+00 0.  1.
</event>
<event>
 7    1  0.6184948E-012  0.5930195E+02  0.7816164E-02  0.1266605E+00
        -11   -1    0    0    0    0  0.00000000000E+00  0.00000000000E+00  0.45593999997E+02  0.45594000000E+02  0.51100000000E-03 0.  1.
         11   -1    0    0    0    0 -0.00000000000E+00 -0.00000000000E+00 -0.45593999997E+02  0.45594000000E+02  0.51100000000E-03 0. -1.
    9900012    2    1    2    0    0 -0.19367302543E+01  0.22204212638E+02  0.22802245072E+02  0.59301947198E+02  0.50000005782E+02 0.  0.
         12    1    1    2    0    0  0.19367302543E+01 -0.22204212638E+02 -0.22802245072E+02  0.31886052802E+02  0.00000000000E+00 0. -1.
         11    1    3    3    0    0 -0.13079816566E+01  0.16799653522E+01 -0.12370852513E+02  0.12552732442E+02  0.51100000000E-03 0. -1.
        -11    1    3    3    0    0  0.32006015182E+01 -0.31143136795E+01  0.33984851498E+00  0.44786490203E+01  0.51100000000E-03 0.  1.
         12    1    3    3    0    0 -0.38293501160E+01  0.23638560965E+02  0.34833249070E+02  0.42270565736E+02  0.00000000000E+00 0. -1.
</event>
<event>
 7    1  0.6184948E-012  0.5930194E+02  0.7816164E-02  0.1266605E+00
        -11   -1    0    0    0    0  0.00000000000E+00  0.00000000000E+00  0.45593999997E+02  0.45594000000E+02  0.51100000000E-03 0. -1.
         11   -1    0    0    0    0 -0.00000000000E+00 -0.00000000000E+00 -0.45593999997E+02  0.45594000000E+02  0.51100000000E-03 0.  1.
    9900012    2    1    2    0    0  0.15693434445E+02  0.41975888090E+01 -0.27437510749E+02  0.59301942975E+02  0.49999998080E+02 0.  0.
         12    1    1    2    0    0 -0.15693434445E+02 -0.41975888090E+01  0.27437510749E+02  0.31886057025E+02  0.00000000000E+00 0. -1.
         11    1    3    3    0    0  0.83383196690E+01 -0.16571708019E+02 -0.41302898771E+01  0.19005482796E+02  0.51100000000E-03 0. -1.
        -11    1    3    3    0    0  0.80566611888E+01 -0.15198987613E+01 -0.13805137452E+02  0.16056204473E+02  0.51100000000E-03 0.  1.
        -12    1    3    3    0    0 -0.70154641271E+00  0.22289195589E+02 -0.95020834198E+01  0.24240255706E+02  0.00000000000E+00 0.  1.
</event>
<event>
 7    1  0.6184948E-012  0.5930195E+02  0.7816164E-02  0.1266605E+00
        -11   -1    0    0    0    0  0.00000000000E+00  0.00000000000E+00  0.45593999997E+02  0.45594000000E+02  0.51100000000E-03 0. -1.
         11   -1    0    0    0    0 -0.00000000000E+00 -0.00000000000E+00 -0.45593999997E+02  0.45594000000E+02  0.51100000000E-03 0.  1.
    9900012    2    1    2    0    0 -0.71706539017E+01 -0.12353513182E+02 -0.28507764093E+02  0.59301950089E+02  0.50000011055E+02 0.  0.
         12    1    1    2    0    0  0.71706539017E+01  0.12353513182E+02  0.28507764093E+02  0.31886049911E+02  0.00000000000E+00 0. -1.
         11    1    3    3    0    0 -0.13566828221E+02  0.45547971473E+01 -0.88959806662E+01  0.16850622461E+02  0.51100000000E-03 0. -1.
        -11    1    3    3    0    0 -0.99639920548E+01 -0.20747793372E+01 -0.17529229108E+02  0.20269674895E+02  0.51100000000E-03 0.  1.
         12    1    3    3    0    0  0.16360166374E+02 -0.14833530992E+02 -0.20825543184E+01  0.22181652733E+02  0.00000000000E+00 0. -1.
</event>
<event>
 7    1  0.6184948E-012  0.5930194E+02  0.7816164E-02  0.1266605E+00
        -11   -1    0    0    0    0  0.00000000000E+00  0.00000000000E+00  0.45593999997E+02  0.45594000000E+02  0.51100000000E-03 0. -1.
         11   -1    0    0    0    0 -0.00000000000E+00 -0.00000000000E+00 -0.45593999997E+02  0.45594000000E+02  0.51100000000E-03 0.  1.
    9900012    2    1    2    0    0 -0.28194660040E+02  0.12986562336E+02  0.72890998195E+01  0.59301942980E+02  0.49999998089E+02 0.  0.
         12    1    1    2    0    0  0.28194660040E+02 -0.12986562336E+02 -0.72890998195E+01  0.31886057020E+02  0.00000000000E+00 0. -1.
         11    1    3    3    0    0  0.60040117661E+01  0.84511558419E+01 -0.11158625776E+02  0.15231057803E+02  0.51100000000E-03 0. -1.
        -11    1    3    3    0    0 -0.24881244710E+02  0.49234689473E-01  0.24228227810E+01  0.24998976637E+02  0.51100000000E-03 0.  1.
        -12    1    3    3    0    0 -0.93174270964E+01  0.44861718047E+01  0.16024902814E+02  0.19071908540E+02  0.00000000000E+00 0.  1.
</event>
<event>
 7    1  0.6184948E-012  0.5930176E+02  0.7816164E-02  0.1266605E+00
        -11   -1    0    0    0    0  0.00000000000E+00  0.00000000000E+00  0.45593999997E+02  0.45594000000E+02  0.51100000000E-03 0.  1.
         11   -1    0    0    0    0 -0.00000000000E+00 -0.00000000000E+00 -0.45593999997E+02  0.45594000000E+02  0.51100000000E-03 0. -1.
    9900012    2    1    2    0    0 -0.31349417198E+02  0.33934544831E+01 -0.47361215060E+01  0.59301759411E+02  0.49999663302E+02 0.  0.
         12    1    1    2    0    0  0.31349417198E+02 -0.33934544831E+01  0.47361215060E+01  0.31886240589E+02  0.00000000000E+00 0. -1.
         11    1    3    3    0    0  0.78825870524E+01 -0.12792431747E+02 -0.35517032032E+01  0.15440080458E+02  0.51100000000E-03 0.  1.
        -11    1    3    3    0    0 -0.98090674662E+01  0.41903422356E+01 -0.51430759266E+01  0.11841790526E+02  0.51100000000E-03 0. -1.
        -12    1    3    3    0    0 -0.29422936784E+02  0.11995543994E+02  0.39586576238E+01  0.32019888427E+02  0.00000000000E+00 0.  1.
</event>
<event>
 7    1  0.6184948E-012  0.5930193E+02  0.7816164E-02  0.1266605E+00
        -11   -1    0    0    0    0  0.00000000000E+00  0.00000000000E+00  0.45593999997E+02  0.45594000000E+02  0.51100000000E-03 0.  1.
         11   -1    0    0    0    0 -0.00000000000E+00 -0.00000000000E+00 -0.45593999997E+02  0.45594000000E+02  0.51100000000E-03 0. -1.
    9900012    2    1    2    0    0 -0.57313690371E+01 -0.26383011956E+02  0.16964946187E+02  0.59301932353E+02  0.49999978707E+02 0.  0.
         12    1    1    2    0    0  0.57313690371E+01  0.26383011956E+02 -0.16964946187E+02  0.31886067647E+02  0.00000000000E+00 0. -1.
         11    1    3    3    0    0 -0.10903472031E+02 -0.20097262809E+01  0.16375266111E+02  0.19775592091E+02  0.51100000000E-03 0. -1.
        -11    1    3    3    0    0 -0.46193060833E+01  0.56788806309E+01  0.28106076966E+01  0.78413767795E+01  0.51100000000E-03 0.  1.
        -12    1    3    3    0    0  0.97914090773E+01 -0.30052166306E+02 -0.22209276210E+01  0.31684963482E+02  0.00000000000E+00 0.  1.
</event>
<event>
 7    1  0.6184948E-012  0.5930193E+02  0.7816164E-02  0.1266605E+00
        -11   -1    0    0    0    0  0.00000000000E+00  0.00000000000E+00  0.45593999997E+02  0.45594000000E+02  0.51100000000E-03 0.  1.
         11   -1    0    0    0    0 -0.00000000000E+00 -0.00000000000E+00 -0.45593999997E+02  0.45594000000E+02  0.51100000000E-03 0. -1.
    9900012    2    1    2    0    0 -0.24885176648E+02 -0.14636259154E+02  0.13536221497E+02  0.59301931079E+02  0.49999976384E+02 0.  0.
         12    1    1    2    0    0  0.24885176648E+02  0.14636259154E+02 -0.13536221497E+02  0.31886068921E+02  0.00000000000E+00 0. -1.
         11    1    3    3    0    0 -0.52401020894E+00 -0.41933624629E-01  0.89588951467E+00  0.10387316360E+01  0.51100000000E-03 0. -1.
        -11    1    3    3    0    0 -0.15832751865E+02 -0.12620077991E+02  0.31514337578E+02  0.37457921370E+02  0.51100000000E-03 0.  1.
         12    1    3    3    0    0 -0.85284145741E+01 -0.19742475384E+01 -0.18874005595E+02  0.20805278073E+02  0.00000000000E+00 0. -1.
</event>
<event>
 7    1  0.6184948E-012  0.5930197E+02  0.7816164E-02  0.1266605E+00
        -11   -1    0    0    0    0  0.00000000000E+00  0.00000000000E+00  0.45593999997E+02  0.45594000000E+02  0.51100000000E-03 0.  1.
         11   -1    0    0    0    0 -0.00000000000E+00 -0.00000000000E+00 -0.45593999997E+02  0.45594000000E+02  0.51100000000E-03 0. -1.
    9900012    2    1    2    0    0 -0.17995072956E+02 -0.54809178186E+01  0.25745980985E+02  0.59301974100E+02  0.50000054845E+02 0.  0.
         12    1    1    2    0    0  0.17995072956E+02  0.54809178186E+01 -0.25745980985E+02  0.31886025900E+02  0.00000000000E+00 0. -1.
         11    1    3    3    0    0  0.50757409228E+01  0.14838640266E+02  0.69732016057E+01  0.17163156230E+02  0.51100000000E-03 0. -1.
        -11    1    3    3    0    0 -0.86677158888E+01 -0.12922570738E+02  0.20630977450E+02  0.25841040305E+02  0.51100000000E-03 0.  1.
        -12    1    3    3    0    0 -0.14403097990E+02 -0.73969873468E+01 -0.18581980713E+01  0.16297777566E+02  0.00000000000E+00 0.  1.
</event>
<event>
 7    1  0.6184948E-012  0.5930191E+02  0.7816164E-02  0.1266605E+00
        -11   -1    0    0    0    0  0.00000000000E+00  0.00000000000E+00  0.45593999997E+02  0.45594000000E+02  0.51100000000E-03 0.  1.
         11   -1    0    0    0    0 -0.00000000000E+00 -0.00000000000E+00 -0.45593999997E+02  0.45594000000E+02  0.51100000000E-03 0. -1.
    9900012    2    1    2    0    0  0.31877567280E+02 -0.55424012639E+00 -0.48610725346E+00  0.59301909332E+02  0.49999936724E+02 0.  0.
         12    1    1    2    0    0 -0.31877567280E+02  0.55424012639E+00  0.48610725346E+00  0.31886090668E+02  0.00000000000E+00 0. -1.
         11    1    3    3    0    0  0.24900769218E+02 -0.11606312963E+02  0.11991558149E+02  0.29975861544E+02  0.51100000000E-03 0. -1.
        -11    1    3    3    0    0  0.74768521590E+01  0.15416865722E+02 -0.11460256348E+01  0.17172549080E+02  0.51100000000E-03 0.  1.
         12    1    3    3    0    0 -0.50005409716E+00 -0.43647928855E+01 -0.11331639767E+02  0.12153498708E+02  0.00000000000E+00 0. -1.
</event>
<event>
 7    1  0.6184948E-012  0.5930194E+02  0.7816164E-02  0.1266605E+00
        -11   -1    0    0    0    0  0.00000000000E+00  0.00000000000E+00  0.45593999997E+02  0.45594000000E+02  0.51100000000E-03 0.  1.
         11   -1    0    0    0    0 -0.00000000000E+00 -0.00000000000E+00 -0.45593999997E+02  0.45594000000E+02  0.51100000000E-03 0. -1.
    9900012    2    1    2    0    0 -0.20823325236E+02 -0.20258510820E+02  0.13141633182E+02  0.59301942589E+02  0.49999997377E+02 0.  0.
         12    1    1    2    0    0  0.20823325236E+02  0.20258510820E+02 -0.13141633182E+02  0.31886057411E+02  0.00000000000E+00 0. -1.
         11    1    3    3    0    0 -0.80613929338E+01 -0.75735060933E+01  0.69660611353E+00  0.11082838577E+02  0.51100000000E-03 0. -1.
        -11    1    3    3    0    0 -0.15971071510E+02 -0.16030854123E+02  0.25661150615E+02  0.34213419301E+02  0.51100000000E-03 0.  1.
         12    1    3    3    0    0  0.32091392082E+01  0.33458493973E+01 -0.13216123547E+02  0.14005684712E+02  0.00000000000E+00 0. -1.
</event>
<event>
 7    1  0.6184948E-012  0.5930195E+02  0.7816164E-02  0.1266605E+00
        -11   -1    0    0    0    0  0.00000000000E+00  0.00000000000E+00  0.45593999997E+02  0.45594000000E+02  0.51100000000E-03 0.  1.
         11   -1    0    0    0    0 -0.00000000000E+00 -0.00000000000E+00 -0.45593999997E+02  0.45594000000E+02  0.51100000000E-03 0. -1.
    9900012    2    1    2    0    0  0.31087903363E+02  0.68758710645E+01  0.17277591724E+01  0.59301945208E+02  0.50000002153E+02 0.  0.
         12    1    1    2    0    0 -0.31087903363E+02 -0.68758710645E+01 -0.17277591724E+01  0.31886054792E+02  0.00000000000E+00 0. -1.
         11    1    3    3    0    0  0.76181123180E+01  0.11190683304E+02 -0.74985196994E+01  0.15475620377E+02  0.51100000000E-03 0. -1.
        -11    1    3    3    0    0 -0.50051433452E+01  0.52136815863E+01 -0.66843656708E+01  0.98445253959E+01  0.51100000000E-03 0.  1.
        -12    1    3    3    0    0  0.28474934391E+02 -0.95284938258E+01  0.15910644543E+02  0.33981799436E+02  0.00000000000E+00 0.  1.
</event>
<event>
 7    1  0.6184948E-012  0.5930193E+02  0.7816164E-02  0.1266605E+00
        -11   -1    0    0    0    0  0.00000000000E+00  0.00000000000E+00  0.45593999997E+02  0.45594000000E+02  0.51100000000E-03 0.  1.
         11   -1    0    0    0    0 -0.00000000000E+00 -0.00000000000E+00 -0.45593999997E+02  0.45594000000E+02  0.51100000000E-03 0. -1.
    9900012    2    1    2    0    0 -0.12707219088E+02 -0.26135183422E+02  0.13122504889E+02  0.59301931506E+02  0.49999977164E+02 0.  0.
         12    1    1    2    0    0  0.12707219088E+02  0.26135183422E+02 -0.13122504889E+02  0.31886068494E+02  0.00000000000E+00 0. -1.
         11    1    3    3    0    0 -0.59561308860E+01 -0.60882368666E+01  0.25411252469E+01  0.88881629742E+01  0.51100000000E-03 0. -1.
        -11    1    3    3    0    0 -0.12622222234E+02  0.11410196550E+02  0.11564348788E+01  0.17054337317E+02  0.51100000000E-03 0.  1.
         12    1    3    3    0    0  0.58711340322E+01 -0.31457143105E+02  0.94249447635E+01  0.33359431215E+02  0.00000000000E+00 0. -1.
</event>
<event>
 7    1  0.6184948E-012  0.5930193E+02  0.7816164E-02  0.1266605E+00
        -11   -1    0    0    0    0  0.00000000000E+00  0.00000000000E+00  0.45593999997E+02  0.45594000000E+02  0.51100000000E-03 0.  1.
         11   -1    0    0    0    0 -0.00000000000E+00 -0.00000000000E+00 -0.45593999997E+02  0.45594000000E+02  0.51100000000E-03 0. -1.
    9900012    2    1    2    0    0  0.20878248316E+01  0.28293561078E+02  0.14554605401E+02  0.59301934872E+02  0.49999983302E+02 0.  0.
         12    1    1    2    0    0 -0.20878248316E+01 -0.28293561078E+02 -0.14554605401E+02  0.31886065128E+02  0.00000000000E+00 0. -1.
         11    1    3    3    0    0 -0.84582948112E+00  0.35532655694E+01 -0.28571758010E+01  0.46373028300E+01  0.51100000000E-03 0. -1.
        -11    1    3    3    0    0 -0.21120167871E+02  0.14391462601E+02  0.71344624496E+01  0.26534435012E+02  0.51100000000E-03 0.  1.
        -12    1    3    3    0    0  0.24053822184E+02  0.10348832907E+02  0.10277318752E+02  0.28130197030E+02  0.00000000000E+00 0.  1.
</event>
<event>
 7    1  0.6184948E-012  0.5930196E+02  0.7816164E-02  0.1266605E+00
        -11   -1    0    0    0    0  0.00000000000E+00  0.00000000000E+00  0.45593999997E+02  0.45594000000E+02  0.51100000000E-03 0. -1.
         11   -1    0    0    0    0 -0.00000000000E+00 -0.00000000000E+00 -0.45593999997E+02  0.45594000000E+02  0.51100000000E-03 0.  1.
    9900012    2    1    2    0    0  0.28122044402E+02 -0.10114557970E+02 -0.11116030765E+02  0.59301955964E+02  0.50000021770E+02 0.  0.
         12    1    1    2    0    0 -0.28122044402E+02  0.10114557970E+02  0.11116030765E+02  0.31886044036E+02  0.00000000000E+00 0. -1.
         11    1    3    3    0    0  0.19183832438E+02  0.28162297224E+01  0.42250698572E+01  0.19844439836E+02  0.51100000000E-03 0. -1.
        -11    1    3    3    0    0  0.20453059947E+02 -0.58580994479E+01 -0.14830610688E+02  0.25934378805E+02  0.51100000000E-03 0.  1.
         12    1    3    3    0    0 -0.11514847984E+02 -0.70726882446E+01 -0.51048993442E+00  0.13523137323E+02  0.00000000000E+00 0. -1.
</event>
<event>
 7    1  0.6184948E-012  0.5930192E+02  0.7816164E-02  0.1266605E+00
        -11   -1    0    0    0    0  0.00000000000E+00  0.00000000000E+00  0.45593999997E+02  0.45594000000E+02  0.51100000000E-03 0. -1.
         11   -1    0    0    0    0 -0.00000000000E+00 -0.00000000000E+00 -0.45593999997E+02  0.45594000000E+02  0.51100000000E-03 0.  1.
    9900012    2    1    2    0    0  0.16655864075E+02 -0.20378160397E+02 -0.18000976547E+02  0.59301915482E+02  0.49999947939E+02 0.  0.
         12    1    1    2    0    0 -0.16655864075E+02  0.20378160397E+02  0.18000976547E+02  0.31886084518E+02  0.00000000000E+00 0. -1.
         11    1    3    3    0    0  0.14589279962E+02 -0.89623560997E+01  0.41945721518E+01  0.17628538013E+02  0.51100000000E-03 0. -1.
        -11    1    3    3    0    0  0.92023938501E+01  0.90765294310E+01 -0.12232971944E+02  0.17796433405E+02  0.51100000000E-03 0.  1.
         12    1    3    3    0    0 -0.71358097372E+01 -0.20492333729E+02 -0.99625767538E+01  0.23876944064E+02  0.00000000000E+00 0. -1.
</event>
<event>
 7    1  0.6184948E-012  0.5930196E+02  0.7816164E-02  0.1266605E+00
        -11   -1    0    0    0    0  0.00000000000E+00  0.00000000000E+00  0.45593999997E+02  0.45594000000E+02  0.51100000000E-03 0.  1.
         11   -1    0    0    0    0 -0.00000000000E+00 -0.00000000000E+00 -0.45593999997E+02  0.45594000000E+02  0.51100000000E-03 0. -1.
    9900012    2    1    2    0    0 -0.12854076152E+02  0.29175814613E+02 -0.51415677673E+00  0.59301956200E+02  0.50000022199E+02 0.  0.
         12    1    1    2    0    0  0.12854076152E+02 -0.29175814613E+02  0.51415677673E+00  0.31886043800E+02  0.00000000000E+00 0. -1.
         11    1    3    3    0    0 -0.20336301382E+01  0.16294222286E+02 -0.50270890048E+01  0.17172913427E+02  0.51100000000E-03 0. -1.
        -11    1    3    3    0    0  0.93650967619E+01  0.17676065631E+02 -0.26538179386E+01  0.20178976274E+02  0.51100000000E-03 0.  1.
         12    1    3    3    0    0 -0.20185542775E+02 -0.47944733039E+01  0.71667501667E+01  0.21950066500E+02  0.00000000000E+00 0. -1.
</event>
<event>
 7    1  0.6184948E-012  0.5930195E+02  0.7816164E-02  0.1266605E+00
        -11   -1    0    0    0    0  0.00000000000E+00  0.00000000000E+00  0.45593999997E+02  0.45594000000E+02  0.51100000000E-03 0.  1.
         11   -1    0    0    0    0 -0.00000000000E+00 -0.00000000000E+00 -0.45593999997E+02  0.45594000000E+02  0.51100000000E-03 0. -1.
    9900012    2    1    2    0    0 -0.16885892078E+02  0.20983605034E+01  0.26966349008E+02  0.59301945887E+02  0.50000003390E+02 0.  0.
         12    1    1    2    0    0  0.16885892078E+02 -0.20983605034E+01 -0.26966349008E+02  0.31886054113E+02  0.00000000000E+00 0. -1.
         11    1    3    3    0    0 -0.17196025296E+02 -0.15525886308E+02  0.24158665231E+02  0.33472339889E+02  0.51100000000E-03 0. -1.
        -11    1    3    3    0    0  0.11531692642E+01  0.49613180784E+00  0.78539968539E+01  0.79536917821E+01  0.51100000000E-03 0.  1.
        -12    1    3    3    0    0 -0.84303604657E+00  0.17128115004E+02 -0.50463130769E+01  0.17875914215E+02  0.00000000000E+00 0.  1.
</event>
<event>
 7    1  0.6184948E-012  0.5930195E+02  0.7816164E-02  0.1266605E+00
        -11   -1    0    0    0    0  0.00000000000E+00  0.00000000000E+00  0.45593999997E+02  0.45594000000E+02  0.51100000000E-03 0.  1.
         11   -1    0    0    0    0 -0.00000000000E+00 -0.00000000000E+00 -0.45593999997E+02  0.45594000000E+02  0.51100000000E-03 0. -1.
    9900012    2    1    2    0    0 -0.11263317440E+02 -0.17612075931E+02  0.24076392085E+02  0.59301949850E+02  0.50000010618E+02 0.  0.
         12    1    1    2    0    0  0.11263317440E+02  0.17612075931E+02 -0.24076392085E+02  0.31886050150E+02  0.00000000000E+00 0. -1.
         11    1    3    3    0    0 -0.11500507898E+02 -0.77539716418E+01  0.14029278037E+02  0.19728314694E+02  0.51100000000E-03 0. -1.
        -11    1    3    3    0    0 -0.18180852110E+02 -0.27954949009E+01  0.66372921983E+01  0.19555352801E+02  0.51100000000E-03 0.  1.
         12    1    3    3    0    0  0.18418042568E+02 -0.70626093879E+01  0.34098218496E+01  0.20018282355E+02  0.00000000000E+00 0. -1.
</event>
<event>
 7    1  0.6184948E-012  0.5930194E+02  0.7816164E-02  0.1266605E+00
        -11   -1    0    0    0    0  0.00000000000E+00  0.00000000000E+00  0.45593999997E+02  0.45594000000E+02  0.51100000000E-03 0. -1.
         11   -1    0    0    0    0 -0.00000000000E+00 -0.00000000000E+00 -0.45593999997E+02  0.45594000000E+02  0.51100000000E-03 0.  1.
    9900012    2    1    2    0    0  0.16177855309E+02  0.23696981388E+02 -0.13908654592E+02  0.59301943457E+02  0.49999998959E+02 0.  0.
         12    1    1    2    0    0 -0.16177855309E+02 -0.23696981388E+02  0.13908654592E+02  0.31886056543E+02  0.00000000000E+00 0. -1.
         11    1    3    3    0    0  0.18125699378E+02  0.77644545313E+01 -0.87499491561E+01  0.21572884430E+02  0.51100000000E-03 0. -1.
        -11    1    3    3    0    0  0.95871265066E+01 -0.27043527375E+01 -0.11204985297E+02  0.14992605316E+02  0.51100000000E-03 0.  1.
         12    1    3    3    0    0 -0.11534970576E+02  0.18636879594E+02  0.60462798610E+01  0.22736453711E+02  0.00000000000E+00 0. -1.
</event>
<event>
 7    1  0.6184948E-012  0.5930194E+02  0.7816164E-02  0.1266605E+00
        -11   -1    0    0    0    0  0.00000000000E+00  0.00000000000E+00  0.45593999997E+02  0.45594000000E+02  0.51100000000E-03 0.  1.
         11   -1    0    0    0    0 -0.00000000000E+00 -0.00000000000E+00 -0.45593999997E+02  0.45594000000E+02  0.51100000000E-03 0. -1.
    9900012    2    1    2    0    0  0.14253839018E+02 -0.25077563763E+02  0.13589141853E+02  0.59301938668E+02  0.49999990224E+02 0.  0.
         12    1    1    2    0    0 -0.14253839018E+02  0.25077563763E+02 -0.13589141853E+02  0.31886061332E+02  0.00000000000E+00 0. -1.
         11    1    3    3    0    0  0.83078651573E+01 -0.63072578052E+01 -0.41165608432E+01  0.11213750395E+02  0.51100000000E-03 0. -1.
        -11    1    3    3    0    0  0.60242053789E+01 -0.29321045680E+02  0.31332230459E+01  0.30097040671E+02  0.51100000000E-03 0.  1.
         12    1    3    3    0    0 -0.78231518423E-01  0.10550739723E+02  0.14572479650E+02  0.17991147601E+02  0.00000000000E+00 0. -1.
</event>
<event>
 7    1  0.6184948E-012  0.5930196E+02  0.7816164E-02  0.1266605E+00
        -11   -1    0    0    0    0  0.00000000000E+00  0.00000000000E+00  0.45593999997E+02  0.45594000000E+02  0.51100000000E-03 0.  1.
         11   -1    0    0    0    0 -0.00000000000E+00 -0.00000000000E+00 -0.45593999997E+02  0.45594000000E+02  0.51100000000E-03 0. -1.
    9900012    2    1    2    0    0  0.87318306653E+01  0.24939004828E+02  0.17847143230E+02  0.59301963087E+02  0.50000034759E+02 0.  0.
         12    1    1    2    0    0 -0.87318306653E+01 -0.24939004828E+02 -0.17847143230E+02  0.31886036913E+02  0.00000000000E+00 0. -1.
         11    1    3    3    0    0 -0.35444438677E+01 -0.73795443249E+01  0.55463031618E+01  0.98884900666E+01  0.51100000000E-03 0. -1.
        -11    1    3    3    0    0  0.14453580856E+02 -0.38532081809E+00  0.74977932109E+01  0.16287153680E+02  0.51100000000E-03 0.  1.
         12    1    3    3    0    0 -0.21773063234E+01  0.32703869971E+02  0.48030468569E+01  0.33126319340E+02  0.00000000000E+00 0. -1.
</event>
<event>
 7    1  0.6184948E-012  0.5930191E+02  0.7816164E-02  0.1266605E+00
        -11   -1    0    0    0    0  0.00000000000E+00  0.00000000000E+00  0.45593999997E+02  0.45594000000E+02  0.51100000000E-03 0.  1.
         11   -1    0    0    0    0 -0.00000000000E+00 -0.00000000000E+00 -0.45593999997E+02  0.45594000000E+02  0.51100000000E-03 0. -1.
    9900012    2    1    2    0    0  0.20014496479E+02  0.23146783367E+02  0.89648635792E+01  0.59301914813E+02  0.49999946720E+02 0.  0.
         12    1    1    2    0    0 -0.20014496479E+02 -0.23146783367E+02 -0.89648635792E+01  0.31886085187E+02  0.00000000000E+00 0. -1.
         11    1    3    3    0    0  0.31171202273E+01  0.94936843341E+01  0.18518112042E+02  0.21042028291E+02  0.51100000000E-03 0. -1.
        -11    1    3    3    0    0  0.24999927376E+01  0.14627699603E+02  0.69081798950E+01  0.16368949541E+02  0.51100000000E-03 0.  1.
         12    1    3    3    0    0  0.14397383514E+02 -0.97460056974E+00 -0.16461428358E+02  0.21890936981E+02  0.00000000000E+00 0. -1.
</event>
<event>
 7    1  0.6184948E-012  0.5930193E+02  0.7816164E-02  0.1266605E+00
        -11   -1    0    0    0    0  0.00000000000E+00  0.00000000000E+00  0.45593999997E+02  0.45594000000E+02  0.51100000000E-03 0.  1.
         11   -1    0    0    0    0 -0.00000000000E+00 -0.00000000000E+00 -0.45593999997E+02  0.45594000000E+02  0.51100000000E-03 0. -1.
    9900012    2    1    2    0    0  0.96574853932E+01 -0.83068753456E+01  0.29230978854E+02  0.59301932088E+02  0.49999978224E+02 0.  0.
         12    1    1    2    0    0 -0.96574853932E+01  0.83068753456E+01 -0.29230978854E+02  0.31886067912E+02  0.00000000000E+00 0. -1.
         11    1    3    3    0    0  0.80135767955E+01  0.20553859971E+01 -0.53344376200E+00  0.82901500084E+01  0.51100000000E-03 0. -1.
        -11    1    3    3    0    0  0.20675439571E+02 -0.29943258277E+01  0.17065577018E+02  0.26975427853E+02  0.51100000000E-03 0.  1.
         12    1    3    3    0    0 -0.19031530974E+02 -0.73679355150E+01  0.12698845599E+02  0.24036354226E+02  0.00000000000E+00 0. -1.
</event>
<event>
 7    1  0.6184948E-012  0.5930194E+02  0.7816164E-02  0.1266605E+00
        -11   -1    0    0    0    0  0.00000000000E+00  0.00000000000E+00  0.45593999997E+02  0.45594000000E+02  0.51100000000E-03 0.  1.
         11   -1    0    0    0    0 -0.00000000000E+00 -0.00000000000E+00 -0.45593999997E+02  0.45594000000E+02  0.51100000000E-03 0. -1.
    9900012    2    1    2    0    0  0.31108058000E+02 -0.20766493442E+01  0.66855775146E+01  0.59301942047E+02  0.49999996388E+02 0.  0.
         12    1    1    2    0    0 -0.31108058000E+02  0.20766493442E+01 -0.66855775146E+01  0.31886057953E+02  0.00000000000E+00 0. -1.
         11    1    3    3    0    0  0.21453579221E+02  0.68931096607E+01  0.58205939211E+01  0.23273382566E+02  0.51100000000E-03 0.  1.
        -11    1    3    3    0    0  0.93168084649E+01  0.59583691516E+01  0.12797898017E+02  0.16914232966E+02  0.51100000000E-03 0. -1.
        -12    1    3    3    0    0  0.33767031442E+00 -0.14928128157E+02 -0.11932914424E+02  0.19114326515E+02  0.00000000000E+00 0.  1.
</event>
<event>
 7    1  0.6184948E-012  0.5930194E+02  0.7816164E-02  0.1266605E+00
        -11   -1    0    0    0    0  0.00000000000E+00  0.00000000000E+00  0.45593999997E+02  0.45594000000E+02  0.51100000000E-03 0. -1.
         11   -1    0    0    0    0 -0.00000000000E+00 -0.00000000000E+00 -0.45593999997E+02  0.45594000000E+02  0.51100000000E-03 0.  1.
    9900012    2    1    2    0    0  0.31700677018E+02 -0.30568771762E+01 -0.15632100031E+01  0.59301936477E+02  0.49999986229E+02 0.  0.
         12    1    1    2    0    0 -0.31700677018E+02  0.30568771762E+01  0.15632100031E+01  0.31886063523E+02  0.00000000000E+00 0. -1.
         11    1    3    3    0    0  0.15281031953E+02 -0.70898083484E+01  0.15821645356E+02  0.23110598911E+02  0.51100000000E-03 0. -1.
        -11    1    3    3    0    0 -0.14587458561E+01 -0.93084056521E+01 -0.56348637227E+01  0.10978435439E+02  0.51100000000E-03 0.  1.
        -12    1    3    3    0    0  0.17878390921E+02  0.13341336824E+02 -0.11749991637E+02  0.25212902127E+02  0.00000000000E+00 0.  1.
</event>
<event>
 7    1  0.6184948E-012  0.5930192E+02  0.7816164E-02  0.1266605E+00
        -11   -1    0    0    0    0  0.00000000000E+00  0.00000000000E+00  0.45593999997E+02  0.45594000000E+02  0.51100000000E-03 0. -1.
         11   -1    0    0    0    0 -0.00000000000E+00 -0.00000000000E+00 -0.45593999997E+02  0.45594000000E+02  0.51100000000E-03 0.  1.
    9900012    2    1    2    0    0 -0.11070315167E+02 -0.29381820283E+02 -0.55568666885E+01  0.59301921401E+02  0.49999958734E+02 0.  0.
         12    1    1    2    0    0  0.11070315167E+02  0.29381820283E+02  0.55568666885E+01  0.31886078599E+02  0.00000000000E+00 0. -1.
         11    1    3    3    0    0  0.27163256448E+01 -0.15582420723E+02 -0.52589458877E+01  0.16668736386E+02  0.51100000000E-03 0. -1.
        -11    1    3    3    0    0 -0.32933667530E+01 -0.25108429403E+02 -0.62734657406E+01  0.26088998913E+02  0.51100000000E-03 0.  1.
         12    1    3    3    0    0 -0.10493274058E+02  0.11309029843E+02  0.59755449397E+01  0.16544186102E+02  0.00000000000E+00 0. -1.
</event>
<event>
 7    1  0.6184948E-012  0.5930194E+02  0.7816164E-02  0.1266605E+00
        -11   -1    0    0    0    0  0.00000000000E+00  0.00000000000E+00  0.45593999997E+02  0.45594000000E+02  0.51100000000E-03 0.  1.
         11   -1    0    0    0    0 -0.00000000000E+00 -0.00000000000E+00 -0.45593999997E+02  0.45594000000E+02  0.51100000000E-03 0. -1.
    9900012    2    1    2    0    0 -0.25636684686E+02 -0.84327397308E+01  0.16981469426E+02  0.59301937136E+02  0.49999987432E+02 0.  0.
         12    1    1    2    0    0  0.25636684686E+02  0.84327397308E+01 -0.16981469426E+02  0.31886062864E+02  0.00000000000E+00 0. -1.
         11    1    3    3    0    0  0.13414181974E+01  0.51687265594E+01 -0.75444028270E+01  0.92430055341E+01  0.51100000000E-03 0. -1.
        -11    1    3    3    0    0  0.23913700587E+01 -0.13999677045E+02  0.92825250969E+01  0.16966875981E+02  0.51100000000E-03 0.  1.
         12    1    3    3    0    0 -0.29369472942E+02  0.39821075466E+00  0.15243347156E+02  0.33092055621E+02  0.00000000000E+00 0. -1.
</event>
<event>
 7    1  0.6184948E-012  0.5930193E+02  0.7816164E-02  0.1266605E+00
        -11   -1    0    0    0    0  0.00000000000E+00  0.00000000000E+00  0.45593999997E+02  0.45594000000E+02  0.51100000000E-03 0.  1.
         11   -1    0    0    0    0 -0.00000000000E+00 -0.00000000000E+00 -0.45593999997E+02  0.45594000000E+02  0.51100000000E-03 0. -1.
    9900012    2    1    2    0    0 -0.28048035964E+02 -0.14455366114E+02 -0.45903864319E+01  0.59301928142E+02  0.49999971029E+02 0.  0.
         12    1    1    2    0    0  0.28048035964E+02  0.14455366114E+02  0.45903864319E+01  0.31886071858E+02  0.00000000000E+00 0. -1.
         11    1    3    3    0    0 -0.75694137315E+01  0.60245383482E+01  0.30379547260E+01  0.10140032334E+02  0.51100000000E-03 0.  1.
        -11    1    3    3    0    0  0.94254249893E+01  0.36160890251E+01 -0.54407536439E+00  0.10109933448E+02  0.51100000000E-03 0. -1.
         12    1    3    3    0    0 -0.29904047222E+02 -0.24095993487E+02 -0.70842657934E+01  0.39051962360E+02  0.00000000000E+00 0. -1.
</event>
<event>
 7    1  0.6184948E-012  0.5930188E+02  0.7816164E-02  0.1266605E+00
        -11   -1    0    0    0    0  0.00000000000E+00  0.00000000000E+00  0.45593999997E+02  0.45594000000E+02  0.51100000000E-03 0.  1.
         11   -1    0    0    0    0 -0.00000000000E+00 -0.00000000000E+00 -0.45593999997E+02  0.45594000000E+02  0.51100000000E-03 0. -1.
    9900012    2    1    2    0    0  0.26422357811E+02  0.17848182084E+02 -0.16196042033E+00  0.59301877200E+02  0.49999878123E+02 0.  0.
         12    1    1    2    0    0 -0.26422357811E+02 -0.17848182084E+02  0.16196042033E+00  0.31886122800E+02  0.00000000000E+00 0. -1.
         11    1    3    3    0    0  0.20096142675E+02 -0.56741309993E+01 -0.11704844511E+02  0.23938548375E+02  0.51100000000E-03 0. -1.
        -11    1    3    3    0    0  0.36659630601E+01  0.15391885450E+02 -0.51221689476E+01  0.16630876039E+02  0.51100000000E-03 0.  1.
        -12    1    3    3    0    0  0.26602520759E+01  0.81304276342E+01  0.16665053038E+02  0.18732452786E+02  0.00000000000E+00 0.  1.
</event>
<event>
 7    1  0.6184948E-012  0.5930197E+02  0.7816164E-02  0.1266605E+00
        -11   -1    0    0    0    0  0.00000000000E+00  0.00000000000E+00  0.45593999997E+02  0.45594000000E+02  0.51100000000E-03 0.  1.
         11   -1    0    0    0    0 -0.00000000000E+00 -0.00000000000E+00 -0.45593999997E+02  0.45594000000E+02  0.51100000000E-03 0. -1.
    9900012    2    1    2    0    0 -0.93732025435E+00 -0.20614620275E+02  0.24307981665E+02  0.59301966836E+02  0.50000041596E+02 0.  0.
         12    1    1    2    0    0  0.93732025435E+00  0.20614620275E+02 -0.24307981665E+02  0.31886033164E+02  0.00000000000E+00 0. -1.
         11    1    3    3    0    0 -0.10840904911E+02 -0.27822655663E+01  0.18419024729E+01  0.11342787397E+02  0.51100000000E-03 0. -1.
        -11    1    3    3    0    0 -0.13889942884E+02 -0.10315821194E+02  0.10965368723E+02  0.20483798273E+02  0.51100000000E-03 0.  1.
        -12    1    3    3    0    0  0.23793527540E+02 -0.75165335151E+01  0.11500710469E+02  0.27475381165E+02  0.00000000000E+00 0.  1.
</event>
<event>
 7    1  0.6184948E-012  0.5930194E+02  0.7816164E-02  0.1266605E+00
        -11   -1    0    0    0    0  0.00000000000E+00  0.00000000000E+00  0.45593999997E+02  0.45594000000E+02  0.51100000000E-03 0.  1.
         11   -1    0    0    0    0 -0.00000000000E+00 -0.00000000000E+00 -0.45593999997E+02  0.45594000000E+02  0.51100000000E-03 0. -1.
    9900012    2    1    2    0    0 -0.14811539544E+02  0.60778205055E+01  0.27575335837E+02  0.59301941099E+02  0.49999994658E+02 0.  0.
         12    1    1    2    0    0  0.14811539544E+02 -0.60778205055E+01 -0.27575335837E+02  0.31886058901E+02  0.00000000000E+00 0. -1.
         11    1    3    3    0    0 -0.13566529546E+02 -0.60037203356E+00  0.14197396104E+02  0.19646303135E+02  0.51100000000E-03 0. -1.
        -11    1    3    3    0    0  0.65818648077E+01 -0.68030453887E+01  0.20452536206E+02  0.22536827825E+02  0.51100000000E-03 0.  1.
         12    1    3    3    0    0 -0.78268748061E+01  0.13481237928E+02 -0.70745964729E+01  0.17118810138E+02  0.00000000000E+00 0. -1.
</event>
<event>
 7    1  0.6184948E-012  0.5930195E+02  0.7816164E-02  0.1266605E+00
        -11   -1    0    0    0    0  0.00000000000E+00  0.00000000000E+00  0.45593999997E+02  0.45594000000E+02  0.51100000000E-03 0. -1.
         11   -1    0    0    0    0 -0.00000000000E+00 -0.00000000000E+00 -0.45593999997E+02  0.45594000000E+02  0.51100000000E-03 0.  1.
    9900012    2    1    2    0    0 -0.54305478211E+01  0.17311372187E+01 -0.31372483039E+02  0.59301946971E+02  0.50000005369E+02 0.  0.
         12    1    1    2    0    0  0.54305478211E+01 -0.17311372187E+01  0.31372483039E+02  0.31886053029E+02  0.00000000000E+00 0. -1.
         11    1    3    3    0    0  0.79951071630E+01  0.80152613866E+01  0.52712566872E+01  0.12488086361E+02  0.51100000000E-03 0.  1.
        -11    1    3    3    0    0 -0.96303426426E+01  0.74785432821E+01 -0.73778219902E+01  0.14251468928E+02  0.51100000000E-03 0. -1.
         12    1    3    3    0    0 -0.37953123415E+01 -0.13762667450E+02 -0.29265917736E+02  0.32562391682E+02  0.00000000000E+00 0. -1.
</event>
<event>
 7    1  0.6184948E-012  0.5930196E+02  0.7816164E-02  0.1266605E+00
        -11   -1    0    0    0    0  0.00000000000E+00  0.00000000000E+00  0.45593999997E+02  0.45594000000E+02  0.51100000000E-03 0. -1.
         11   -1    0    0    0    0 -0.00000000000E+00 -0.00000000000E+00 -0.45593999997E+02  0.45594000000E+02  0.51100000000E-03 0.  1.
    9900012    2    1    2    0    0  0.16119775221E+02 -0.21099179500E+02 -0.17654952106E+02  0.59301955049E+02  0.50000020100E+02 0.  0.
         12    1    1    2    0    0 -0.16119775221E+02  0.21099179500E+02  0.17654952106E+02  0.31886044951E+02  0.00000000000E+00 0. -1.
         11    1    3    3    0    0 -0.12625265610E+02 -0.18944067681E+01  0.72701150322E+00  0.12787284884E+02  0.51100000000E-03 0. -1.
        -11    1    3    3    0    0  0.26010336085E+01  0.54812299778E+01  0.13761559324E+00  0.60686239144E+01  0.51100000000E-03 0.  1.
        -12    1    3    3    0    0  0.26144007223E+02 -0.24686002710E+02 -0.18519579202E+02  0.40446046250E+02  0.00000000000E+00 0.  1.
</event>
<event>
 7    1  0.6184948E-012  0.5930195E+02  0.7816164E-02  0.1266605E+00
        -11   -1    0    0    0    0  0.00000000000E+00  0.00000000000E+00  0.45593999997E+02  0.45594000000E+02  0.51100000000E-03 0.  1.
         11   -1    0    0    0    0 -0.00000000000E+00 -0.00000000000E+00 -0.45593999997E+02  0.45594000000E+02  0.51100000000E-03 0. -1.
    9900012    2    1    2    0    0  0.14939543010E+02 -0.28152864882E+02 -0.97286826027E+00  0.59301949459E+02  0.50000009906E+02 0.  0.
         12    1    1    2    0    0 -0.14939543010E+02  0.28152864882E+02  0.97286826027E+00  0.31886050541E+02  0.00000000000E+00 0. -1.
         11    1    3    3    0    0  0.48034037595E+01 -0.34438727877E+02  0.25248109941E+01  0.34863639172E+02  0.51100000000E-03 0. -1.
        -11    1    3    3    0    0 -0.24352088937E+01  0.28602923248E+00  0.67262741784E+01  0.71592471435E+01  0.51100000000E-03 0.  1.
        -12    1    3    3    0    0  0.12571348145E+02  0.59998337622E+01 -0.10223953433E+02  0.17279063144E+02  0.00000000000E+00 0.  1.
</event>
<event>
 7    1  0.6184948E-012  0.5930196E+02  0.7816164E-02  0.1266605E+00
        -11   -1    0    0    0    0  0.00000000000E+00  0.00000000000E+00  0.45593999997E+02  0.45594000000E+02  0.51100000000E-03 0. -1.
         11   -1    0    0    0    0 -0.00000000000E+00 -0.00000000000E+00 -0.45593999997E+02  0.45594000000E+02  0.51100000000E-03 0.  1.
    9900012    2    1    2    0    0 -0.31695878383E+01 -0.22964252564E+00 -0.31727285606E+02  0.59301957996E+02  0.50000025474E+02 0.  0.
         12    1    1    2    0    0  0.31695878383E+01  0.22964252564E+00  0.31727285606E+02  0.31886042004E+02  0.00000000000E+00 0. -1.
         11    1    3    3    0    0 -0.65635466880E+01  0.33391112036E+01 -0.41730762856E+01  0.84643000125E+01  0.51100000000E-03 0. -1.
        -11    1    3    3    0    0 -0.10856452056E+02 -0.21390350131E+01 -0.33537781610E+02  0.35316013614E+02  0.51100000000E-03 0.  1.
         12    1    3    3    0    0  0.14250410905E+02 -0.14297187161E+01  0.59835722893E+01  0.15521644369E+02  0.00000000000E+00 0. -1.
</event>
<event>
 7    1  0.6184948E-012  0.5930178E+02  0.7816164E-02  0.1266605E+00
        -11   -1    0    0    0    0  0.00000000000E+00  0.00000000000E+00  0.45593999997E+02  0.45594000000E+02  0.51100000000E-03 0.  1.
         11   -1    0    0    0    0 -0.00000000000E+00 -0.00000000000E+00 -0.45593999997E+02  0.45594000000E+02  0.51100000000E-03 0. -1.
    9900012    2    1    2    0    0  0.69237361629E+01  0.24821832992E+02  0.18779503238E+02  0.59301776369E+02  0.49999694231E+02 0.  0.
         12    1    1    2    0    0 -0.69237361629E+01 -0.24821832992E+02 -0.18779503238E+02  0.31886223631E+02  0.00000000000E+00 0. -1.
         11    1    3    3    0    0  0.56821398431E+01  0.18159945038E+01  0.35062742820E+01  0.69194298057E+01  0.51100000000E-03 0. -1.
        -11    1    3    3    0    0 -0.83614932430E+01 -0.33910104844E+01  0.21757513025E+02  0.23554254280E+02  0.51100000000E-03 0.  1.
         12    1    3    3    0    0  0.96030895629E+01  0.26396848973E+02 -0.64842840695E+01  0.28828092284E+02  0.00000000000E+00 0. -1.
</event>
<event>
 7    1  0.6184948E-012  0.5930188E+02  0.7816164E-02  0.1266605E+00
        -11   -1    0    0    0    0  0.00000000000E+00  0.00000000000E+00  0.45593999997E+02  0.45594000000E+02  0.51100000000E-03 0. -1.
         11   -1    0    0    0    0 -0.00000000000E+00 -0.00000000000E+00 -0.45593999997E+02  0.45594000000E+02  0.51100000000E-03 0.  1.
    9900012    2    1    2    0    0 -0.39434141711E+01  0.27689133491E+02 -0.15312930216E+02  0.59301882949E+02  0.49999888607E+02 0.  0.
         12    1    1    2    0    0  0.39434141711E+01 -0.27689133491E+02  0.15312930216E+02  0.31886117051E+02  0.00000000000E+00 0. -1.
         11    1    3    3    0    0  0.52117363859E+00 -0.54680046080E+01 -0.20930796676E+01  0.58780676341E+01  0.51100000000E-03 0.  1.
        -11    1    3    3    0    0 -0.20607647493E+02  0.10832111437E+02 -0.11101344727E+02  0.25792433549E+02  0.51100000000E-03 0. -1.
         12    1    3    3    0    0  0.16143059683E+02  0.22325026662E+02 -0.21185058210E+01  0.27631381766E+02  0.00000000000E+00 0. -1.
</event>
<event>
 7    1  0.6184948E-012  0.5930196E+02  0.7816164E-02  0.1266605E+00
        -11   -1    0    0    0    0  0.00000000000E+00  0.00000000000E+00  0.45593999997E+02  0.45594000000E+02  0.51100000000E-03 0.  1.
         11   -1    0    0    0    0 -0.00000000000E+00 -0.00000000000E+00 -0.45593999997E+02  0.45594000000E+02  0.51100000000E-03 0. -1.
    9900012    2    1    2    0    0 -0.22476593905E+01  0.14142679142E+02  0.28489511148E+02  0.59301959300E+02  0.50000027853E+02 0.  0.
         12    1    1    2    0    0  0.22476593905E+01 -0.14142679142E+02 -0.28489511148E+02  0.31886040700E+02  0.00000000000E+00 0. -1.
         11    1    3    3    0    0  0.13328080346E+02  0.13053492505E+02  0.23861300139E+02  0.30288496775E+02  0.51100000000E-03 0. -1.
        -11    1    3    3    0    0 -0.83448199279E+01 -0.11892428685E+01  0.14375744349E+02  0.16664703540E+02  0.51100000000E-03 0.  1.
         12    1    3    3    0    0 -0.72309198082E+01  0.22784295050E+01 -0.97475333395E+01  0.12348758986E+02  0.00000000000E+00 0. -1.
</event>
<event>
 7    1  0.6184948E-012  0.5930194E+02  0.7816164E-02  0.1266605E+00
        -11   -1    0    0    0    0  0.00000000000E+00  0.00000000000E+00  0.45593999997E+02  0.45594000000E+02  0.51100000000E-03 0. -1.
         11   -1    0    0    0    0 -0.00000000000E+00 -0.00000000000E+00 -0.45593999997E+02  0.45594000000E+02  0.51100000000E-03 0.  1.
    9900012    2    1    2    0    0  0.39409732874E+01  0.15184241270E+02 -0.27760197576E+02  0.59301936855E+02  0.49999986919E+02 0.  0.
         12    1    1    2    0    0 -0.39409732874E+01 -0.15184241270E+02  0.27760197576E+02  0.31886063145E+02  0.00000000000E+00 0. -1.
         11    1    3    3    0    0  0.12128818783E+00 -0.31443831761E+01  0.10205133125E+02  0.10679260215E+02  0.51100000000E-03 0. -1.
        -11    1    3    3    0    0  0.67968793903E+01  0.16219496915E+01  0.54074467431E-01  0.69879334969E+01  0.51100000000E-03 0.  1.
        -12    1    3    3    0    0 -0.29771942907E+01  0.16706674755E+02 -0.38019405169E+02  0.41634743143E+02  0.00000000000E+00 0.  1.
</event>
<event>
 7    1  0.6184948E-012  0.5930190E+02  0.7816164E-02  0.1266605E+00
        -11   -1    0    0    0    0  0.00000000000E+00  0.00000000000E+00  0.45593999997E+02  0.45594000000E+02  0.51100000000E-03 0.  1.
         11   -1    0    0    0    0 -0.00000000000E+00 -0.00000000000E+00 -0.45593999997E+02  0.45594000000E+02  0.51100000000E-03 0. -1.
    9900012    2    1    2    0    0 -0.27036489869E+02 -0.42323415420E+01  0.16365788402E+02  0.59301897551E+02  0.49999915238E+02 0.  0.
         12    1    1    2    0    0  0.27036489869E+02  0.42323415420E+01 -0.16365788402E+02  0.31886102449E+02  0.00000000000E+00 0. -1.
         11    1    3    3    0    0 -0.27027512645E+01 -0.20769059990E+01  0.13045837269E+00  0.34110735223E+01  0.51100000000E-03 0. -1.
        -11    1    3    3    0    0 -0.36100603414E+02 -0.98195533815E+01  0.46776931908E+01  0.37703554333E+02  0.51100000000E-03 0.  1.
         12    1    3    3    0    0  0.11766864810E+02  0.76641178386E+01  0.11557636839E+02  0.18187269696E+02  0.00000000000E+00 0. -1.
</event>
<event>
 7    1  0.6184948E-012  0.5930202E+02  0.7816164E-02  0.1266604E+00
        -11   -1    0    0    0    0  0.00000000000E+00  0.00000000000E+00  0.45593999997E+02  0.45594000000E+02  0.51100000000E-03 0.  1.
         11   -1    0    0    0    0 -0.00000000000E+00 -0.00000000000E+00 -0.45593999997E+02  0.45594000000E+02  0.51100000000E-03 0. -1.
    9900012    2    1    2    0    0  0.74272356386E+01 -0.30998456795E+02  0.80458527311E+00  0.59302023296E+02  0.50000144565E+02 0.  0.
         12    1    1    2    0    0 -0.74272356386E+01  0.30998456795E+02 -0.80458527311E+00  0.31885976704E+02  0.00000000000E+00 0. -1.
         11    1    3    3    0    0 -0.56307521487E+01 -0.11023616258E+02 -0.72582686968E+01  0.14349493019E+02  0.51100000000E-03 0. -1.
        -11    1    3    3    0    0 -0.38806180127E+01  0.83839746263E+01  0.75256502624E+01  0.11915772691E+02  0.51100000000E-03 0.  1.
        -12    1    3    3    0    0  0.16938605800E+02 -0.28358815164E+02  0.53720370754E+00  0.33036757586E+02  0.00000000000E+00 0.  1.
</event>
<event>
 7    1  0.6184948E-012  0.5930178E+02  0.7816164E-02  0.1266605E+00
        -11   -1    0    0    0    0  0.00000000000E+00  0.00000000000E+00  0.45593999997E+02  0.45594000000E+02  0.51100000000E-03 0.  1.
         11   -1    0    0    0    0 -0.00000000000E+00 -0.00000000000E+00 -0.45593999997E+02  0.45594000000E+02  0.51100000000E-03 0. -1.
    9900012    2    1    2    0    0 -0.24969012973E+02  0.17750084238E+02  0.88438480275E+01  0.59301784370E+02  0.49999708821E+02 0.  0.
         12    1    1    2    0    0  0.24969012973E+02 -0.17750084238E+02 -0.88438480275E+01  0.31886215630E+02  0.00000000000E+00 0. -1.
         11    1    3    3    0    0  0.45031391502E+01  0.15861432008E+02  0.19306010992E+02  0.25388685438E+02  0.51100000000E-03 0. -1.
        -11    1    3    3    0    0 -0.18009707150E+01 -0.19764942548E+01 -0.46667815482E+01  0.53785569938E+01  0.51100000000E-03 0.  1.
        -12    1    3    3    0    0 -0.27671181408E+02  0.38651464850E+01 -0.57953814165E+01  0.28534541938E+02  0.00000000000E+00 0.  1.
</event>
<event>
 7    1  0.6184948E-012  0.5930194E+02  0.7816164E-02  0.1266605E+00
        -11   -1    0    0    0    0  0.00000000000E+00  0.00000000000E+00  0.45593999997E+02  0.45594000000E+02  0.51100000000E-03 0.  1.
         11   -1    0    0    0    0 -0.00000000000E+00 -0.00000000000E+00 -0.45593999997E+02  0.45594000000E+02  0.51100000000E-03 0. -1.
    9900012    2    1    2    0    0 -0.93949638189E+01 -0.25820977279E+01  0.30360961655E+02  0.59301944013E+02  0.49999999973E+02 0.  0.
         12    1    1    2    0    0  0.93949638189E+01  0.25820977279E+01 -0.30360961655E+02  0.31886055987E+02  0.00000000000E+00 0. -1.
         11    1    3    3    0    0 -0.69641731755E+01  0.19853272902E+01  0.79296208358E+01  0.10738720563E+02  0.51100000000E-03 0. -1.
        -11    1    3    3    0    0 -0.10840157534E+02  0.13593524390E+02 -0.14001419199E+01  0.17442858664E+02  0.51100000000E-03 0.  1.
        -12    1    3    3    0    0  0.84093668911E+01 -0.18160949408E+02  0.23831482739E+02  0.31120364786E+02  0.00000000000E+00 0.  1.
</event>
<event>
 7    1  0.6184948E-012  0.5930194E+02  0.7816164E-02  0.1266605E+00
        -11   -1    0    0    0    0  0.00000000000E+00  0.00000000000E+00  0.45593999997E+02  0.45594000000E+02  0.51100000000E-03 0. -1.
         11   -1    0    0    0    0 -0.00000000000E+00 -0.00000000000E+00 -0.45593999997E+02  0.45594000000E+02  0.51100000000E-03 0.  1.
    9900012    2    1    2    0    0 -0.31398351698E+02  0.30509058988E+01  0.46428453150E+01  0.59301944603E+02  0.50000001050E+02 0.  0.
         12    1    1    2    0    0  0.31398351698E+02 -0.30509058988E+01 -0.46428453150E+01  0.31886055397E+02  0.00000000000E+00 0. -1.
         11    1    3    3    0    0  0.50796793458E+01 -0.27754848440E+01  0.85506450026E+01  0.10325695550E+02  0.51100000000E-03 0. -1.
        -11    1    3    3    0    0 -0.22579542026E+01 -0.37125205332E+01  0.99397686867E+01  0.10848049027E+02  0.51100000000E-03 0.  1.
        -12    1    3    3    0    0 -0.34220076841E+02  0.95389112759E+01 -0.13847568374E+02  0.38128200026E+02  0.00000000000E+00 0.  1.
</event>
<event>
 7    1  0.6184948E-012  0.5930196E+02  0.7816164E-02  0.1266605E+00
        -11   -1    0    0    0    0  0.00000000000E+00  0.00000000000E+00  0.45593999997E+02  0.45594000000E+02  0.51100000000E-03 0.  1.
         11   -1    0    0    0    0 -0.00000000000E+00 -0.00000000000E+00 -0.45593999997E+02  0.45594000000E+02  0.51100000000E-03 0. -1.
    9900012    2    1    2    0    0 -0.23911703799E+02  0.57850618760E+01 -0.20285042124E+02  0.59301961465E+02  0.50000031802E+02 0.  0.
         12    1    1    2    0    0  0.23911703799E+02 -0.57850618760E+01  0.20285042124E+02  0.31886038535E+02  0.00000000000E+00 0. -1.
         11    1    3    3    0    0 -0.34808442321E+01  0.15906320365E+02 -0.51075427457E+00  0.16290738912E+02  0.51100000000E-03 0. -1.
        -11    1    3    3    0    0 -0.90175852250E+01  0.10285353018E+02 -0.12485361074E+02  0.18519977629E+02  0.51100000000E-03 0.  1.
         12    1    3    3    0    0 -0.11413274341E+02 -0.20406611506E+02 -0.72889267759E+01  0.24491244924E+02  0.00000000000E+00 0. -1.
</event>
<event>
 7    1  0.6184948E-012  0.5930192E+02  0.7816164E-02  0.1266605E+00
        -11   -1    0    0    0    0  0.00000000000E+00  0.00000000000E+00  0.45593999997E+02  0.45594000000E+02  0.51100000000E-03 0.  1.
         11   -1    0    0    0    0 -0.00000000000E+00 -0.00000000000E+00 -0.45593999997E+02  0.45594000000E+02  0.51100000000E-03 0. -1.
    9900012    2    1    2    0    0 -0.13811165451E+02 -0.13665289352E+02  0.25283073458E+02  0.59301917963E+02  0.49999952464E+02 0.  0.
         12    1    1    2    0    0  0.13811165451E+02  0.13665289352E+02 -0.25283073458E+02  0.31886082037E+02  0.00000000000E+00 0. -1.
         11    1    3    3    0    0 -0.36002811832E+01  0.87795856847E+01 -0.32491748903E+01  0.10029969448E+02  0.51100000000E-03 0. -1.
        -11    1    3    3    0    0  0.98176955822E+01 -0.15549510916E+02  0.90633146585E+01  0.20501661131E+02  0.51100000000E-03 0.  1.
        -12    1    3    3    0    0 -0.20028579850E+02 -0.68953641212E+01  0.19468933690E+02  0.28770287384E+02  0.00000000000E+00 0.  1.
</event>
<event>
 7    1  0.6184948E-012  0.5930191E+02  0.7816164E-02  0.1266605E+00
        -11   -1    0    0    0    0  0.00000000000E+00  0.00000000000E+00  0.45593999997E+02  0.45594000000E+02  0.51100000000E-03 0. -1.
         11   -1    0    0    0    0 -0.00000000000E+00 -0.00000000000E+00 -0.45593999997E+02  0.45594000000E+02  0.51100000000E-03 0.  1.
    9900012    2    1    2    0    0  0.25124820387E+02  0.14669467817E+02 -0.13048861702E+02  0.59301910913E+02  0.49999939607E+02 0.  0.
         12    1    1    2    0    0 -0.25124820387E+02 -0.14669467817E+02  0.13048861702E+02  0.31886089087E+02  0.00000000000E+00 0. -1.
         11    1    3    3    0    0  0.80507065106E+01  0.18548871732E+02 -0.43889232784E+01  0.20691475676E+02  0.51100000000E-03 0. -1.
        -11    1    3    3    0    0  0.29006333342E+01  0.60683066897E+01 -0.17801327939E+02  0.19029590024E+02  0.51100000000E-03 0.  1.
         12    1    3    3    0    0  0.14173480542E+02 -0.99477106049E+01  0.91413895157E+01  0.19580845213E+02  0.00000000000E+00 0. -1.
</event>
<event>
 7    1  0.6184948E-012  0.5930195E+02  0.7816164E-02  0.1266605E+00
        -11   -1    0    0    0    0  0.00000000000E+00  0.00000000000E+00  0.45593999997E+02  0.45594000000E+02  0.51100000000E-03 0.  1.
         11   -1    0    0    0    0 -0.00000000000E+00 -0.00000000000E+00 -0.45593999997E+02  0.45594000000E+02  0.51100000000E-03 0. -1.
    9900012    2    1    2    0    0  0.14850722690E+02  0.27951498747E+02  0.38587884188E+01  0.59301945138E+02  0.50000002024E+02 0.  0.
         12    1    1    2    0    0 -0.14850722690E+02 -0.27951498747E+02 -0.38587884188E+01  0.31886054862E+02  0.00000000000E+00 0. -1.
         11    1    3    3    0    0 -0.44514206254E+01  0.83091389538E+01  0.40072881588E+00  0.94349096224E+01  0.51100000000E-03 0. -1.
        -11    1    3    3    0    0  0.66874297964E+01 -0.78447133833E+01  0.14396227721E+02  0.17706287533E+02  0.51100000000E-03 0.  1.
         12    1    3    3    0    0  0.12614713519E+02  0.27487073177E+02 -0.10938168118E+02  0.32160747982E+02  0.00000000000E+00 0. -1.
</event>
<event>
 7    1  0.6184948E-012  0.5930195E+02  0.7816164E-02  0.1266605E+00
        -11   -1    0    0    0    0  0.00000000000E+00  0.00000000000E+00  0.45593999997E+02  0.45594000000E+02  0.51100000000E-03 0. -1.
         11   -1    0    0    0    0 -0.00000000000E+00 -0.00000000000E+00 -0.45593999997E+02  0.45594000000E+02  0.51100000000E-03 0.  1.
    9900012    2    1    2    0    0 -0.25730371963E+00  0.23039707866E+02 -0.22041459313E+02  0.59301948624E+02  0.50000008382E+02 0.  0.
         12    1    1    2    0    0  0.25730371963E+00 -0.23039707866E+02  0.22041459313E+02  0.31886051376E+02  0.00000000000E+00 0. -1.
         11    1    3    3    0    0  0.10952570647E+02  0.10901706558E+02  0.25572146859E+01  0.15663503978E+02  0.51100000000E-03 0. -1.
        -11    1    3    3    0    0 -0.48617945819E+01 -0.47827746944E+00  0.72823312375E+01  0.87691587059E+01  0.51100000000E-03 0.  1.
        -12    1    3    3    0    0 -0.63480797843E+01  0.12616278777E+02 -0.31881005236E+02  0.34869285940E+02  0.00000000000E+00 0.  1.
</event>
<event>
 7    1  0.6184948E-012  0.5930210E+02  0.7816164E-02  0.1266604E+00
        -11   -1    0    0    0    0  0.00000000000E+00  0.00000000000E+00  0.45593999997E+02  0.45594000000E+02  0.51100000000E-03 0.  1.
         11   -1    0    0    0    0 -0.00000000000E+00 -0.00000000000E+00 -0.45593999997E+02  0.45594000000E+02  0.51100000000E-03 0. -1.
    9900012    2    1    2    0    0  0.12737972839E+02  0.21534513117E+02  0.19766627369E+02  0.59302097711E+02  0.50000280281E+02 0.  0.
         12    1    1    2    0    0 -0.12737972839E+02 -0.21534513117E+02 -0.19766627369E+02  0.31885902289E+02  0.00000000000E+00 0. -1.
         11    1    3    3    0    0 -0.49390599184E+01 -0.11694318137E+02 -0.40651149378E+01  0.13329536725E+02  0.51100000000E-03 0. -1.
        -11    1    3    3    0    0  0.57724718677E+01  0.21793012677E+02  0.11119929025E+02  0.25137813246E+02  0.51100000000E-03 0.  1.
        -12    1    3    3    0    0  0.11904560890E+02  0.11435818578E+02  0.12711813281E+02  0.20834747741E+02  0.00000000000E+00 0.  1.
</event>
<event>
 7    1  0.6184948E-012  0.5930197E+02  0.7816164E-02  0.1266605E+00
        -11   -1    0    0    0    0  0.00000000000E+00  0.00000000000E+00  0.45593999997E+02  0.45594000000E+02  0.51100000000E-03 0.  1.
         11   -1    0    0    0    0 -0.00000000000E+00 -0.00000000000E+00 -0.45593999997E+02  0.45594000000E+02  0.51100000000E-03 0. -1.
    9900012    2    1    2    0    0 -0.40804191378E+01  0.34380090162E+01  0.31436434881E+02  0.59301965998E+02  0.50000040068E+02 0.  0.
         12    1    1    2    0    0  0.40804191378E+01 -0.34380090162E+01 -0.31436434881E+02  0.31886034002E+02  0.00000000000E+00 0. -1.
         11    1    3    3    0    0  0.69258890151E+01  0.59485220988E+01  0.44259620376E+01  0.10146033414E+02  0.51100000000E-03 0. -1.
        -11    1    3    3    0    0 -0.16098311879E+01  0.15053622000E+02  0.24877991881E+02  0.29122458207E+02  0.51100000000E-03 0.  1.
        -12    1    3    3    0    0 -0.93964769650E+01 -0.17564135083E+02  0.21324809631E+01  0.20033474377E+02  0.00000000000E+00 0.  1.
</event>
<event>
 7    1  0.6184948E-012  0.5930195E+02  0.7816164E-02  0.1266605E+00
        -11   -1    0    0    0    0  0.00000000000E+00  0.00000000000E+00  0.45593999997E+02  0.45594000000E+02  0.51100000000E-03 0. -1.
         11   -1    0    0    0    0 -0.00000000000E+00 -0.00000000000E+00 -0.45593999997E+02  0.45594000000E+02  0.51100000000E-03 0.  1.
    9900012    2    1    2    0    0  0.30554324153E+02 -0.89684048976E+01  0.16495244581E+01  0.59301953807E+02  0.50000017836E+02 0.  0.
         12    1    1    2    0    0 -0.30554324153E+02  0.89684048976E+01 -0.16495244581E+01  0.31886046193E+02  0.00000000000E+00 0. -1.
         11    1    3    3    0    0  0.20739556564E+02 -0.80226506255E+01  0.12282317842E+02  0.25403689917E+02  0.51100000000E-03 0. -1.
        -11    1    3    3    0    0  0.11260535050E+02 -0.13316815442E+02  0.12553525135E+00  0.17439982296E+02  0.51100000000E-03 0.  1.
        -12    1    3    3    0    0 -0.14457674609E+01  0.12371061170E+02 -0.10758328636E+02  0.16458281595E+02  0.00000000000E+00 0.  1.
</event>
<event>
 7    1  0.6184948E-012  0.5930191E+02  0.7816164E-02  0.1266605E+00
        -11   -1    0    0    0    0  0.00000000000E+00  0.00000000000E+00  0.45593999997E+02  0.45594000000E+02  0.51100000000E-03 0.  1.
         11   -1    0    0    0    0 -0.00000000000E+00 -0.00000000000E+00 -0.45593999997E+02  0.45594000000E+02  0.51100000000E-03 0. -1.
    9900012    2    1    2    0    0 -0.11581350932E+02  0.29691058675E+02  0.10179550002E+01  0.59301907624E+02  0.49999933607E+02 0.  0.
         12    1    1    2    0    0  0.11581350932E+02 -0.29691058675E+02 -0.10179550002E+01  0.31886092376E+02  0.00000000000E+00 0. -1.
         11    1    3    3    0    0 -0.27703570961E+01  0.28079192353E+02  0.43179765174E+01  0.28544015889E+02  0.51100000000E-03 0. -1.
        -11    1    3    3    0    0 -0.17299188396E+01  0.88946152035E+01  0.10341659786E+02  0.13749790042E+02  0.51100000000E-03 0.  1.
        -12    1    3    3    0    0 -0.70810749966E+01 -0.72827488813E+01 -0.13641681304E+02  0.17008101692E+02  0.00000000000E+00 0.  1.
</event>
<event>
 7    1  0.6184948E-012  0.5930192E+02  0.7816164E-02  0.1266605E+00
        -11   -1    0    0    0    0  0.00000000000E+00  0.00000000000E+00  0.45593999997E+02  0.45594000000E+02  0.51100000000E-03 0.  1.
         11   -1    0    0    0    0 -0.00000000000E+00 -0.00000000000E+00 -0.45593999997E+02  0.45594000000E+02  0.51100000000E-03 0. -1.
    9900012    2    1    2    0    0 -0.75664185636E+01  0.15870314051E+01  0.30934648862E+02  0.59301923748E+02  0.49999963014E+02 0.  0.
         12    1    1    2    0    0  0.75664185636E+01 -0.15870314051E+01 -0.30934648862E+02  0.31886076252E+02  0.00000000000E+00 0. -1.
         11    1    3    3    0    0  0.16488713673E+02 -0.10473830306E+01  0.11920391731E+02  0.20373277328E+02  0.51100000000E-03 0. -1.
        -11    1    3    3    0    0  0.19440252874E+01 -0.59663498051E+01  0.16000718097E+01  0.64758624424E+01  0.51100000000E-03 0.  1.
        -12    1    3    3    0    0 -0.25999157524E+02  0.86007642408E+01  0.17414185321E+02  0.32452783977E+02  0.00000000000E+00 0.  1.
</event>
<event>
 7    1  0.6184948E-012  0.5930195E+02  0.7816164E-02  0.1266605E+00
        -11   -1    0    0    0    0  0.00000000000E+00  0.00000000000E+00  0.45593999997E+02  0.45594000000E+02  0.51100000000E-03 0. -1.
         11   -1    0    0    0    0 -0.00000000000E+00 -0.00000000000E+00 -0.45593999997E+02  0.45594000000E+02  0.51100000000E-03 0.  1.
    9900012    2    1    2    0    0  0.70392152393E+01 -0.23507915595E+02 -0.20360445803E+02  0.59301946621E+02  0.50000004730E+02 0.  0.
         12    1    1    2    0    0 -0.70392152393E+01  0.23507915595E+02  0.20360445803E+02  0.31886053379E+02  0.00000000000E+00 0. -1.
         11    1    3    3    0    0  0.23578225127E+01  0.83852719098E+01 -0.13537896009E+02  0.16098035303E+02  0.51100000000E-03 0. -1.
        -11    1    3    3    0    0  0.11988919114E+02 -0.32401035557E+01 -0.55597012359E+01  0.13606716381E+02  0.51100000000E-03 0.  1.
        -12    1    3    3    0    0 -0.73075263874E+01 -0.28653083949E+02 -0.12628485581E+01  0.29597194937E+02  0.00000000000E+00 0.  1.
</event>
<event>
 7    1  0.6184948E-012  0.5930196E+02  0.7816164E-02  0.1266605E+00
        -11   -1    0    0    0    0  0.00000000000E+00  0.00000000000E+00  0.45593999997E+02  0.45594000000E+02  0.51100000000E-03 0.  1.
         11   -1    0    0    0    0 -0.00000000000E+00 -0.00000000000E+00 -0.45593999997E+02  0.45594000000E+02  0.51100000000E-03 0. -1.
    9900012    2    1    2    0    0 -0.13691640289E+02 -0.24792825295E+02  0.14648346569E+02  0.59301964543E+02  0.50000037415E+02 0.  0.
         12    1    1    2    0    0  0.13691640289E+02  0.24792825295E+02 -0.14648346569E+02  0.31886035457E+02  0.00000000000E+00 0. -1.
         11    1    3    3    0    0 -0.21113272432E+00 -0.13677360862E+02 -0.60968929154E+01  0.14976210490E+02  0.51100000000E-03 0. -1.
        -11    1    3    3    0    0 -0.65432309894E+01  0.12466730734E+02  0.41918611062E+01  0.14690301113E+02  0.51100000000E-03 0.  1.
         12    1    3    3    0    0 -0.69372765754E+01 -0.23582195168E+02  0.16553378379E+02  0.29635452940E+02  0.00000000000E+00 0. -1.
</event>
<event>
 7    1  0.6184948E-012  0.5930184E+02  0.7816164E-02  0.1266605E+00
        -11   -1    0    0    0    0  0.00000000000E+00  0.00000000000E+00  0.45593999997E+02  0.45594000000E+02  0.51100000000E-03 0. -1.
         11   -1    0    0    0    0 -0.00000000000E+00 -0.00000000000E+00 -0.45593999997E+02  0.45594000000E+02  0.51100000000E-03 0.  1.
    9900012    2    1    2    0    0  0.21369723192E+02 -0.10577012756E+02 -0.21170469347E+02  0.59301842494E+02  0.49999814827E+02 0.  0.
         12    1    1    2    0    0 -0.21369723192E+02  0.10577012756E+02  0.21170469347E+02  0.31886157506E+02  0.00000000000E+00 0. -1.
         11    1    3    3    0    0  0.12096069412E+02  0.75152922927E+01 -0.13705202780E+02  0.19764288426E+02  0.51100000000E-03 0. -1.
        -11    1    3    3    0    0  0.17596518186E+02 -0.49001426690E+01 -0.13603486337E+02  0.22775067316E+02  0.51100000000E-03 0.  1.
         12    1    3    3    0    0 -0.83228644070E+01 -0.13192162379E+02  0.61382197703E+01  0.16762486753E+02  0.00000000000E+00 0. -1.
</event>
<event>
 7    1  0.6184948E-012  0.5930194E+02  0.7816164E-02  0.1266605E+00
        -11   -1    0    0    0    0  0.00000000000E+00  0.00000000000E+00  0.45593999997E+02  0.45594000000E+02  0.51100000000E-03 0. -1.
         11   -1    0    0    0    0 -0.00000000000E+00 -0.00000000000E+00 -0.45593999997E+02  0.45594000000E+02  0.51100000000E-03 0.  1.
    9900012    2    1    2    0    0  0.20542744513E+02  0.24378233854E+02 -0.64664805725E+00  0.59301940481E+02  0.49999993531E+02 0.  0.
         12    1    1    2    0    0 -0.20542744513E+02 -0.24378233854E+02  0.64664805725E+00  0.31886059519E+02  0.00000000000E+00 0. -1.
         11    1    3    3    0    0 -0.57090110121E+00  0.62605844694E+00 -0.54117533069E+01  0.54776775519E+01  0.51100000000E-03 0. -1.
        -11    1    3    3    0    0 -0.13891659120E+01  0.27049181831E+02  0.12461768383E+02  0.29814152531E+02  0.51100000000E-03 0.  1.
         12    1    3    3    0    0  0.22502811526E+02 -0.32970064234E+01 -0.76966631335E+01  0.24010110398E+02  0.00000000000E+00 0. -1.
</event>
<event>
 7    1  0.6184948E-012  0.5930196E+02  0.7816164E-02  0.1266605E+00
        -11   -1    0    0    0    0  0.00000000000E+00  0.00000000000E+00  0.45593999997E+02  0.45594000000E+02  0.51100000000E-03 0.  1.
         11   -1    0    0    0    0 -0.00000000000E+00 -0.00000000000E+00 -0.45593999997E+02  0.45594000000E+02  0.51100000000E-03 0. -1.
    9900012    2    1    2    0    0 -0.80261794819E+01 -0.99165010689E+00  0.30843419109E+02  0.59301961843E+02  0.50000032491E+02 0.  0.
         12    1    1    2    0    0  0.80261794819E+01  0.99165010689E+00 -0.30843419109E+02  0.31886038157E+02  0.00000000000E+00 0. -1.
         11    1    3    3    0    0  0.95946902574E+01  0.42687513152E+01  0.12909359966E+02  0.16641270803E+02  0.51100000000E-03 0. -1.
        -11    1    3    3    0    0 -0.35106010982E+01 -0.13690028295E+02  0.21607138953E+02  0.25818784805E+02  0.51100000000E-03 0.  1.
        -12    1    3    3    0    0 -0.14110268641E+02  0.84296268733E+01 -0.36730798106E+01  0.16841906235E+02  0.00000000000E+00 0.  1.
</event>
<event>
 7    1  0.6184948E-012  0.5930234E+02  0.7816164E-02  0.1266603E+00
        -11   -1    0    0    0    0  0.00000000000E+00  0.00000000000E+00  0.45593999997E+02  0.45594000000E+02  0.51100000000E-03 0.  1.
         11   -1    0    0    0    0 -0.00000000000E+00 -0.00000000000E+00 -0.45593999997E+02  0.45594000000E+02  0.51100000000E-03 0. -1.
    9900012    2    1    2    0    0 -0.25916656904E+02  0.12484529944E+02  0.13753502386E+02  0.59302338318E+02  0.50000719085E+02 0.  0.
         12    1    1    2    0    0  0.25916656904E+02 -0.12484529944E+02 -0.13753502386E+02  0.31885661682E+02  0.00000000000E+00 0. -1.
         11    1    3    3    0    0 -0.88432776645E+00 -0.99527838788E+01 -0.77589724509E+01  0.12650754772E+02  0.51100000000E-03 0. -1.
        -11    1    3    3    0    0 -0.14108790406E+01  0.15273235243E+02  0.14212815446E+02  0.20910916231E+02  0.51100000000E-03 0.  1.
        -12    1    3    3    0    0 -0.23621450097E+02  0.71640785797E+01  0.72996593909E+01  0.25740667315E+02  0.00000000000E+00 0.  1.
</event>
<event>
 7    1  0.6184948E-012  0.5930199E+02  0.7816164E-02  0.1266605E+00
        -11   -1    0    0    0    0  0.00000000000E+00  0.00000000000E+00  0.45593999997E+02  0.45594000000E+02  0.51100000000E-03 0.  1.
         11   -1    0    0    0    0 -0.00000000000E+00 -0.00000000000E+00 -0.45593999997E+02  0.45594000000E+02  0.51100000000E-03 0. -1.
    9900012    2    1    2    0    0  0.31470582948E+02 -0.37846481001E+00  0.51163380888E+01  0.59301988299E+02  0.50000080741E+02 0.  0.
         12    1    1    2    0    0 -0.31470582948E+02  0.37846481001E+00 -0.51163380888E+01  0.31886011701E+02  0.00000000000E+00 0. -1.
         11    1    3    3    0    0  0.12312253587E+02  0.72708351219E+01 -0.47233480090E+01  0.15058773138E+02  0.51100000000E-03 0. -1.
        -11    1    3    3    0    0 -0.58157591990E+01  0.10508734936E+02  0.65446169684E+00  0.12028503041E+02  0.51100000000E-03 0.  1.
        -12    1    3    3    0    0  0.24974088561E+02 -0.18158034868E+02  0.91852244010E+01  0.32214712121E+02  0.00000000000E+00 0.  1.
</event>
<event>
 7    1  0.6184948E-012  0.5930194E+02  0.7816164E-02  0.1266605E+00
        -11   -1    0    0    0    0  0.00000000000E+00  0.00000000000E+00  0.45593999997E+02  0.45594000000E+02  0.51100000000E-03 0.  1.
         11   -1    0    0    0    0 -0.00000000000E+00 -0.00000000000E+00 -0.45593999997E+02  0.45594000000E+02  0.51100000000E-03 0. -1.
    9900012    2    1    2    0    0  0.61980421057E+01 -0.71225968873E+01  0.30456094946E+02  0.59301939852E+02  0.49999992385E+02 0.  0.
         12    1    1    2    0    0 -0.61980421057E+01  0.71225968873E+01 -0.30456094946E+02  0.31886060148E+02  0.00000000000E+00 0. -1.
         11    1    3    3    0    0  0.85358053429E+01 -0.47556521759E+01  0.16988771434E+01  0.99177812176E+01  0.51100000000E-03 0. -1.
        -11    1    3    3    0    0  0.17559408707E+02  0.47949839820E+01  0.84588244254E+01  0.20071781596E+02  0.51100000000E-03 0.  1.
         12    1    3    3    0    0 -0.19897171944E+02 -0.71619286934E+01  0.20298393377E+02  0.29312377039E+02  0.00000000000E+00 0. -1.
</event>
<event>
 7    1  0.6184948E-012  0.5930174E+02  0.7816164E-02  0.1266605E+00
        -11   -1    0    0    0    0  0.00000000000E+00  0.00000000000E+00  0.45593999997E+02  0.45594000000E+02  0.51100000000E-03 0. -1.
         11   -1    0    0    0    0 -0.00000000000E+00 -0.00000000000E+00 -0.45593999997E+02  0.45594000000E+02  0.51100000000E-03 0.  1.
    9900012    2    1    2    0    0 -0.15982191454E+02  0.22430075133E+02 -0.16068442717E+02  0.59301740177E+02  0.49999628223E+02 0.  0.
         12    1    1    2    0    0  0.15982191454E+02 -0.22430075133E+02  0.16068442717E+02  0.31886259823E+02  0.00000000000E+00 0. -1.
         11    1    3    3    0    0  0.12721114658E+02  0.29986944857E+01 -0.81338842966E+01  0.15394122280E+02  0.51100000000E-03 0. -1.
        -11    1    3    3    0    0 -0.12961502807E+01 -0.57081132035E+01  0.12033282984E+00  0.58546598659E+01  0.51100000000E-03 0.  1.
        -12    1    3    3    0    0 -0.27407155831E+02  0.25139493851E+02 -0.80548912505E+01  0.38052958031E+02  0.00000000000E+00 0.  1.
</event>
<event>
 7    1  0.6184948E-012  0.5930194E+02  0.7816164E-02  0.1266605E+00
        -11   -1    0    0    0    0  0.00000000000E+00  0.00000000000E+00  0.45593999997E+02  0.45594000000E+02  0.51100000000E-03 0.  1.
         11   -1    0    0    0    0 -0.00000000000E+00 -0.00000000000E+00 -0.45593999997E+02  0.45594000000E+02  0.51100000000E-03 0. -1.
    9900012    2    1    2    0    0  0.16317168438E+02 -0.68940344882E+01  0.26513074739E+02  0.59301939887E+02  0.49999992449E+02 0.  0.
         12    1    1    2    0    0 -0.16317168438E+02  0.68940344882E+01 -0.26513074739E+02  0.31886060113E+02  0.00000000000E+00 0. -1.
         11    1    3    3    0    0 -0.89889367744E+01  0.87220297871E+01  0.62363516942E+00  0.12540482807E+02  0.51100000000E-03 0. -1.
        -11    1    3    3    0    0  0.76884318054E+01 -0.13836934355E+02  0.24275798049E+02  0.28980805841E+02  0.51100000000E-03 0.  1.
         12    1    3    3    0    0  0.17617673407E+02 -0.17791299199E+01  0.16136415207E+01  0.17780651240E+02  0.00000000000E+00 0. -1.
</event>
<event>
 7    1  0.6184948E-012  0.5930193E+02  0.7816164E-02  0.1266605E+00
        -11   -1    0    0    0    0  0.00000000000E+00  0.00000000000E+00  0.45593999997E+02  0.45594000000E+02  0.51100000000E-03 0.  1.
         11   -1    0    0    0    0 -0.00000000000E+00 -0.00000000000E+00 -0.45593999997E+02  0.45594000000E+02  0.51100000000E-03 0. -1.
    9900012    2    1    2    0    0 -0.31451491091E+01 -0.24740502826E+02  0.19867982719E+02  0.59301934387E+02  0.49999982417E+02 0.  0.
         12    1    1    2    0    0  0.31451491091E+01  0.24740502826E+02 -0.19867982719E+02  0.31886065613E+02  0.00000000000E+00 0. -1.
         11    1    3    3    0    0 -0.19955263352E+02 -0.29511324156E+02  0.61370477074E+01  0.36149607794E+02  0.51100000000E-03 0.  1.
        -11    1    3    3    0    0  0.63291994404E+01  0.32035485907E+01  0.20576229969E+01  0.73861560901E+01  0.51100000000E-03 0. -1.
        -12    1    3    3    0    0  0.10480914802E+02  0.15672727390E+01  0.11673312014E+02  0.15766170502E+02  0.00000000000E+00 0.  1.
</event>
<event>
 7    1  0.6184948E-012  0.5930175E+02  0.7816164E-02  0.1266605E+00
        -11   -1    0    0    0    0  0.00000000000E+00  0.00000000000E+00  0.45593999997E+02  0.45594000000E+02  0.51100000000E-03 0.  1.
         11   -1    0    0    0    0 -0.00000000000E+00 -0.00000000000E+00 -0.45593999997E+02  0.45594000000E+02  0.51100000000E-03 0. -1.
    9900012    2    1    2    0    0 -0.31446793924E+01  0.20423194366E+02  0.24284502898E+02  0.59301749709E+02  0.49999645609E+02 0.  0.
         12    1    1    2    0    0  0.31446793924E+01 -0.20423194366E+02 -0.24284502898E+02  0.31886250291E+02  0.00000000000E+00 0. -1.
         11    1    3    3    0    0  0.66586707971E+01  0.70604128335E+01  0.21614625312E+02  0.23693445377E+02  0.51100000000E-03 0. -1.
        -11    1    3    3    0    0 -0.28215928384E+01 -0.79755118364E+01  0.89294112115E+01  0.12300591857E+02  0.51100000000E-03 0.  1.
         12    1    3    3    0    0 -0.69817573512E+01  0.21338293369E+02 -0.62595336257E+01  0.23307712475E+02  0.00000000000E+00 0. -1.
</event>
<event>
 7    1  0.6184948E-012  0.5930195E+02  0.7816164E-02  0.1266605E+00
        -11   -1    0    0    0    0  0.00000000000E+00  0.00000000000E+00  0.45593999997E+02  0.45594000000E+02  0.51100000000E-03 0. -1.
         11   -1    0    0    0    0 -0.00000000000E+00 -0.00000000000E+00 -0.45593999997E+02  0.45594000000E+02  0.51100000000E-03 0.  1.
    9900012    2    1    2    0    0  0.19110981296E+02 -0.19765395544E+02 -0.16149914210E+02  0.59301949819E+02  0.50000010563E+02 0.  0.
         12    1    1    2    0    0 -0.19110981296E+02  0.19765395544E+02  0.16149914210E+02  0.31886050181E+02  0.00000000000E+00 0. -1.
         11    1    3    3    0    0  0.13982016184E+02 -0.21898381819E+02  0.62949187653E+00  0.25989077767E+02  0.51100000000E-03 0. -1.
        -11    1    3    3    0    0  0.35190522241E+01 -0.12962732472E+02 -0.96615681774E+01  0.16545756604E+02  0.51100000000E-03 0.  1.
        -12    1    3    3    0    0  0.16099128876E+01  0.15095718746E+02 -0.71178379095E+01  0.16767115449E+02  0.00000000000E+00 0.  1.
</event>
<event>
 7    1  0.6184948E-012  0.5930195E+02  0.7816164E-02  0.1266605E+00
        -11   -1    0    0    0    0  0.00000000000E+00  0.00000000000E+00  0.45593999997E+02  0.45594000000E+02  0.51100000000E-03 0.  1.
         11   -1    0    0    0    0 -0.00000000000E+00 -0.00000000000E+00 -0.45593999997E+02  0.45594000000E+02  0.51100000000E-03 0. -1.
    9900012    2    1    2    0    0 -0.12593848752E+02 -0.29079898604E+02 -0.35319686681E+01  0.59301947691E+02  0.50000006681E+02 0.  0.
         12    1    1    2    0    0  0.12593848752E+02  0.29079898604E+02  0.35319686681E+01  0.31886052309E+02  0.00000000000E+00 0. -1.
         11    1    3    3    0    0 -0.96024318640E+01 -0.42592811428E+01 -0.62645293582E+01  0.12230801360E+02  0.51100000000E-03 0. -1.
        -11    1    3    3    0    0  0.79551880954E+01 -0.14861389171E+02 -0.15970827626E+02  0.23220965550E+02  0.51100000000E-03 0.  1.
        -12    1    3    3    0    0 -0.10946604983E+02 -0.99592282897E+01  0.18703388317E+02  0.23850180781E+02  0.00000000000E+00 0.  1.
</event>
<event>
 7    1  0.6184948E-012  0.5930194E+02  0.7816164E-02  0.1266605E+00
        -11   -1    0    0    0    0  0.00000000000E+00  0.00000000000E+00  0.45593999997E+02  0.45594000000E+02  0.51100000000E-03 0. -1.
         11   -1    0    0    0    0 -0.00000000000E+00 -0.00000000000E+00 -0.45593999997E+02  0.45594000000E+02  0.51100000000E-03 0.  1.
    9900012    2    1    2    0    0  0.29681909077E+02 -0.11406359598E+02  0.23664008461E+01  0.59301943193E+02  0.49999998478E+02 0.  0.
         12    1    1    2    0    0 -0.29681909077E+02  0.11406359598E+02 -0.23664008461E+01  0.31886056807E+02  0.00000000000E+00 0. -1.
         11    1    3    3    0    0 -0.75977159253E+00 -0.17662621013E+02  0.42526600097E+01  0.18183249197E+02  0.51100000000E-03 0. -1.
        -11    1    3    3    0    0  0.10416411212E+02 -0.70014390782E+01  0.82836280060E+01  0.15037960796E+02  0.51100000000E-03 0.  1.
        -12    1    3    3    0    0  0.20025269458E+02  0.13257700493E+02 -0.10169887170E+02  0.26080733200E+02  0.00000000000E+00 0.  1.
</event>
<event>
 7    1  0.6184948E-012  0.5930192E+02  0.7816164E-02  0.1266605E+00
        -11   -1    0    0    0    0  0.00000000000E+00  0.00000000000E+00  0.45593999997E+02  0.45594000000E+02  0.51100000000E-03 0.  1.
         11   -1    0    0    0    0 -0.00000000000E+00 -0.00000000000E+00 -0.45593999997E+02  0.45594000000E+02  0.51100000000E-03 0. -1.
    9900012    2    1    2    0    0 -0.24072146149E+02 -0.10827529144E+02  0.17889064881E+02  0.59301917614E+02  0.49999951828E+02 0.  0.
         12    1    1    2    0    0  0.24072146149E+02  0.10827529144E+02 -0.17889064881E+02  0.31886082386E+02  0.00000000000E+00 0. -1.
         11    1    3    3    0    0 -0.10991506937E+02 -0.22616608578E+02  0.14722706330E+02  0.29139016631E+02  0.51100000000E-03 0. -1.
        -11    1    3    3    0    0  0.40238404528E+01  0.10536159665E+01  0.83370332220E+01  0.93170554254E+01  0.51100000000E-03 0.  1.
         12    1    3    3    0    0 -0.17104479665E+02  0.10735463467E+02 -0.51706746701E+01  0.20845845558E+02  0.00000000000E+00 0. -1.
</event>
<event>
 7    1  0.6184948E-012  0.5930176E+02  0.7816164E-02  0.1266605E+00
        -11   -1    0    0    0    0  0.00000000000E+00  0.00000000000E+00  0.45593999997E+02  0.45594000000E+02  0.51100000000E-03 0. -1.
         11   -1    0    0    0    0 -0.00000000000E+00 -0.00000000000E+00 -0.45593999997E+02  0.45594000000E+02  0.51100000000E-03 0.  1.
    9900012    2    1    2    0    0  0.25907288571E+02 -0.18452998709E+02  0.22430833888E+01  0.59301761816E+02  0.49999667688E+02 0.  0.
         12    1    1    2    0    0 -0.25907288571E+02  0.18452998709E+02 -0.22430833888E+01  0.31886238184E+02  0.00000000000E+00 0. -1.
         11    1    3    3    0    0  0.15000415815E+02 -0.69357873187E+01  0.14440609561E+02  0.21946499154E+02  0.51100000000E-03 0. -1.
        -11    1    3    3    0    0  0.20310315318E+02 -0.15018686131E+02 -0.82618841723E+01  0.26576842772E+02  0.51100000000E-03 0.  1.
         12    1    3    3    0    0 -0.94034425616E+01  0.35014747405E+01 -0.39356419998E+01  0.10778419890E+02  0.00000000000E+00 0. -1.
</event>
<event>
 7    1  0.6184948E-012  0.5930194E+02  0.7816164E-02  0.1266605E+00
        -11   -1    0    0    0    0  0.00000000000E+00  0.00000000000E+00  0.45593999997E+02  0.45594000000E+02  0.51100000000E-03 0. -1.
         11   -1    0    0    0    0 -0.00000000000E+00 -0.00000000000E+00 -0.45593999997E+02  0.45594000000E+02  0.51100000000E-03 0.  1.
    9900012    2    1    2    0    0 -0.30874431453E+02  0.73138486926E+01 -0.31619350581E+01  0.59301941392E+02  0.49999995193E+02 0.  0.
         12    1    1    2    0    0  0.30874431453E+02 -0.73138486926E+01  0.31619350581E+01  0.31886058608E+02  0.00000000000E+00 0. -1.
         11    1    3    3    0    0 -0.16763516666E+02 -0.15282392719E+02 -0.90020082218E+01  0.24404982493E+02  0.51100000000E-03 0. -1.
        -11    1    3    3    0    0 -0.12660656439E+02  0.43204686594E+01 -0.41655546804E+01  0.14011085503E+02  0.51100000000E-03 0.  1.
         12    1    3    3    0    0 -0.14502583479E+01  0.18275772752E+02  0.10005627844E+02  0.20885873396E+02  0.00000000000E+00 0. -1.
</event>
<event>
 7    1  0.6184948E-012  0.5930195E+02  0.7816164E-02  0.1266605E+00
        -11   -1    0    0    0    0  0.00000000000E+00  0.00000000000E+00  0.45593999997E+02  0.45594000000E+02  0.51100000000E-03 0. -1.
         11   -1    0    0    0    0 -0.00000000000E+00 -0.00000000000E+00 -0.45593999997E+02  0.45594000000E+02  0.51100000000E-03 0.  1.
    9900012    2    1    2    0    0 -0.19171215174E+02  0.12610232834E+02 -0.22139707405E+02  0.59301951211E+02  0.50000013101E+02 0.  0.
         12    1    1    2    0    0  0.19171215174E+02 -0.12610232834E+02  0.22139707405E+02  0.31886048789E+02  0.00000000000E+00 0. -1.
         11    1    3    3    0    0 -0.35664109969E+01  0.14195621129E+02  0.51394562679E+01  0.15512864262E+02  0.51100000000E-03 0. -1.
        -11    1    3    3    0    0 -0.16915551550E+02  0.98461210661E+01 -0.76066952545E+01  0.20998661797E+02  0.51100000000E-03 0.  1.
         12    1    3    3    0    0  0.13107473737E+01 -0.11431509361E+02 -0.19672468418E+02  0.22790425152E+02  0.00000000000E+00 0. -1.
</event>
<event>
 7    1  0.6184948E-012  0.5930197E+02  0.7816164E-02  0.1266605E+00
        -11   -1    0    0    0    0  0.00000000000E+00  0.00000000000E+00  0.45593999997E+02  0.45594000000E+02  0.51100000000E-03 0.  1.
         11   -1    0    0    0    0 -0.00000000000E+00 -0.00000000000E+00 -0.45593999997E+02  0.45594000000E+02  0.51100000000E-03 0. -1.
    9900012    2    1    2    0    0  0.21743128438E+02  0.21041156259E+01  0.23227741034E+02  0.59301970295E+02  0.50000047905E+02 0.  0.
         12    1    1    2    0    0 -0.21743128438E+02 -0.21041156259E+01 -0.23227741034E+02  0.31886029705E+02  0.00000000000E+00 0. -1.
         11    1    3    3    0    0  0.82024632915E+01 -0.19870752632E+02  0.11871881588E+01  0.21529900840E+02  0.51100000000E-03 0. -1.
        -11    1    3    3    0    0 -0.12933680321E+01  0.12483416485E+02  0.12627990506E+02  0.17803781410E+02  0.51100000000E-03 0.  1.
        -12    1    3    3    0    0  0.14834033178E+02  0.94914517726E+01  0.94125623685E+01  0.19968288044E+02  0.00000000000E+00 0.  1.
</event>
<event>
 7    1  0.6184948E-012  0.5930208E+02  0.7816164E-02  0.1266604E+00
        -11   -1    0    0    0    0  0.00000000000E+00  0.00000000000E+00  0.45593999997E+02  0.45594000000E+02  0.51100000000E-03 0. -1.
         11   -1    0    0    0    0 -0.00000000000E+00 -0.00000000000E+00 -0.45593999997E+02  0.45594000000E+02  0.51100000000E-03 0.  1.
    9900012    2    1    2    0    0 -0.20993583002E+02 -0.11883975130E+02 -0.20850714674E+02  0.59302083131E+02  0.50000253690E+02 0.  0.
         12    1    1    2    0    0  0.20993583002E+02  0.11883975130E+02  0.20850714674E+02  0.31885916869E+02  0.00000000000E+00 0. -1.
         11    1    3    3    0    0 -0.17221166911E+02 -0.78515950523E+01 -0.14202340023E+02  0.23662683640E+02  0.51100000000E-03 0. -1.
        -11    1    3    3    0    0 -0.94939252039E+01  0.13491034871E+02 -0.43667745780E+01  0.17064916002E+02  0.51100000000E-03 0.  1.
        -12    1    3    3    0    0  0.57215091124E+01 -0.17523414949E+02 -0.22816000732E+01  0.18574483489E+02  0.00000000000E+00 0.  1.
</event>
<event>
 7    1  0.6184948E-012  0.5930188E+02  0.7816164E-02  0.1266605E+00
        -11   -1    0    0    0    0  0.00000000000E+00  0.00000000000E+00  0.45593999997E+02  0.45594000000E+02  0.51100000000E-03 0.  1.
         11   -1    0    0    0    0 -0.00000000000E+00 -0.00000000000E+00 -0.45593999997E+02  0.45594000000E+02  0.51100000000E-03 0. -1.
    9900012    2    1    2    0    0  0.28194796399E+02  0.10438907062E+02  0.10621088718E+02  0.59301876840E+02  0.49999877465E+02 0.  0.
         12    1    1    2    0    0 -0.28194796399E+02 -0.10438907062E+02 -0.10621088718E+02  0.31886123160E+02  0.00000000000E+00 0. -1.
         11    1    3    3    0    0  0.42164746774E+01 -0.56143428371E+01  0.11007551214E+02  0.13056250924E+02  0.51100000000E-03 0. -1.
        -11    1    3    3    0    0  0.11895773031E+02 -0.10577715983E+02  0.46224428897E+01  0.16576020933E+02  0.51100000000E-03 0.  1.
         12    1    3    3    0    0  0.12082548691E+02  0.26630965882E+02 -0.50089053857E+01  0.29669604983E+02  0.00000000000E+00 0. -1.
</event>
<event>
 7    1  0.6184948E-012  0.5930192E+02  0.7816164E-02  0.1266605E+00
        -11   -1    0    0    0    0  0.00000000000E+00  0.00000000000E+00  0.45593999997E+02  0.45594000000E+02  0.51100000000E-03 0.  1.
         11   -1    0    0    0    0 -0.00000000000E+00 -0.00000000000E+00 -0.45593999997E+02  0.45594000000E+02  0.51100000000E-03 0. -1.
    9900012    2    1    2    0    0  0.11314334221E+02  0.28558210922E+02  0.85519917930E+01  0.59301919438E+02  0.49999955155E+02 0.  0.
         12    1    1    2    0    0 -0.11314334221E+02 -0.28558210922E+02 -0.85519917930E+01  0.31886080562E+02  0.00000000000E+00 0. -1.
         11    1    3    3    0    0 -0.49673089131E+00  0.73165128458E+01 -0.41668214505E+01  0.84344829754E+01  0.51100000000E-03 0. -1.
        -11    1    3    3    0    0  0.65374200389E+01  0.33382298635E+02  0.15436061006E+02  0.37354888603E+02  0.51100000000E-03 0.  1.
         12    1    3    3    0    0  0.52736450732E+01 -0.12140600558E+02 -0.27172477626E+01  0.13512547860E+02  0.00000000000E+00 0. -1.
</event>
<event>
 7    1  0.6184948E-012  0.5930195E+02  0.7816164E-02  0.1266605E+00
        -11   -1    0    0    0    0  0.00000000000E+00  0.00000000000E+00  0.45593999997E+02  0.45594000000E+02  0.51100000000E-03 0. -1.
         11   -1    0    0    0    0 -0.00000000000E+00 -0.00000000000E+00 -0.45593999997E+02  0.45594000000E+02  0.51100000000E-03 0.  1.
    9900012    2    1    2    0    0  0.10512762604E+02 -0.19738622818E+01 -0.30038405335E+02  0.59301951249E+02  0.50000013170E+02 0.  0.
         12    1    1    2    0    0 -0.10512762604E+02  0.19738622818E+01  0.30038405335E+02  0.31886048751E+02  0.00000000000E+00 0. -1.
         11    1    3    3    0    0  0.66606735118E+01  0.20628539080E+02 -0.22396692850E+02  0.31169104047E+02  0.51100000000E-03 0.  1.
        -11    1    3    3    0    0 -0.40458533771E+00  0.15213177385E+01  0.13141778415E+01  0.20506488284E+01  0.51100000000E-03 0. -1.
         12    1    3    3    0    0  0.42566744298E+01 -0.24123719101E+02 -0.89558903269E+01  0.26082198374E+02  0.00000000000E+00 0. -1.
</event>
<event>
 7    1  0.6184948E-012  0.5930196E+02  0.7816164E-02  0.1266605E+00
        -11   -1    0    0    0    0  0.00000000000E+00  0.00000000000E+00  0.45593999997E+02  0.45594000000E+02  0.51100000000E-03 0.  1.
         11   -1    0    0    0    0 -0.00000000000E+00 -0.00000000000E+00 -0.45593999997E+02  0.45594000000E+02  0.51100000000E-03 0. -1.
    9900012    2    1    2    0    0 -0.11389090023E+02 -0.79696721171E+01  0.28696557196E+02  0.59301961674E+02  0.50000032182E+02 0.  0.
         12    1    1    2    0    0  0.11389090023E+02  0.79696721171E+01 -0.28696557196E+02  0.31886038326E+02  0.00000000000E+00 0. -1.
         11    1    3    3    0    0  0.30431131138E+01 -0.30776281765E+01 -0.18162501759E+01  0.46937296022E+01  0.51100000000E-03 0. -1.
        -11    1    3    3    0    0  0.14897899612E+02  0.23072081091E+01  0.95689745827E+01  0.17855976505E+02  0.51100000000E-03 0.  1.
        -12    1    3    3    0    0 -0.29330102749E+02 -0.71992520497E+01  0.20943832790E+02  0.36752255567E+02  0.00000000000E+00 0.  1.
</event>
<event>
 7    1  0.6184948E-012  0.5930199E+02  0.7816164E-02  0.1266605E+00
        -11   -1    0    0    0    0  0.00000000000E+00  0.00000000000E+00  0.45593999997E+02  0.45594000000E+02  0.51100000000E-03 0. -1.
         11   -1    0    0    0    0 -0.00000000000E+00 -0.00000000000E+00 -0.45593999997E+02  0.45594000000E+02  0.51100000000E-03 0.  1.
    9900012    2    1    2    0    0 -0.12216375339E+02 -0.27761357732E+02  0.98379301781E+01  0.59301989278E+02  0.50000082526E+02 0.  0.
         12    1    1    2    0    0  0.12216375339E+02  0.27761357732E+02 -0.98379301781E+01  0.31886010722E+02  0.00000000000E+00 0. -1.
         11    1    3    3    0    0  0.53231999343E+01 -0.21990292541E+01 -0.22271562658E+01  0.61751447347E+01  0.51100000000E-03 0. -1.
        -11    1    3    3    0    0  0.32193878913E+01 -0.29065437033E+02  0.13112305750E+02  0.32048348642E+02  0.51100000000E-03 0.  1.
        -12    1    3    3    0    0 -0.20758963164E+02  0.35031085552E+01 -0.10472193063E+01  0.21078495902E+02  0.00000000000E+00 0.  1.
</event>
<event>
 7    1  0.6184948E-012  0.5930177E+02  0.7816164E-02  0.1266605E+00
        -11   -1    0    0    0    0  0.00000000000E+00  0.00000000000E+00  0.45593999997E+02  0.45594000000E+02  0.51100000000E-03 0. -1.
         11   -1    0    0    0    0 -0.00000000000E+00 -0.00000000000E+00 -0.45593999997E+02  0.45594000000E+02  0.51100000000E-03 0.  1.
    9900012    2    1    2    0    0 -0.11497651439E+02  0.29702301296E+02  0.15195787242E+01  0.59301767698E+02  0.49999678416E+02 0.  0.
         12    1    1    2    0    0  0.11497651439E+02 -0.29702301296E+02 -0.15195787242E+01  0.31886232302E+02  0.00000000000E+00 0. -1.
         11    1    3    3    0    0 -0.15835144296E+02  0.24752940327E+02  0.17113220519E+02  0.34004737412E+02  0.51100000000E-03 0. -1.
        -11    1    3    3    0    0  0.27997572646E+01  0.37981299196E+01  0.36451905763E+01  0.59625368951E+01  0.51100000000E-03 0.  1.
        -12    1    3    3    0    0  0.15377355922E+01  0.11512310499E+01 -0.19238832371E+02  0.19334493391E+02  0.00000000000E+00 0.  1.
</event>
<event>
 7    1  0.6184948E-012  0.5930191E+02  0.7816164E-02  0.1266605E+00
        -11   -1    0    0    0    0  0.00000000000E+00  0.00000000000E+00  0.45593999997E+02  0.45594000000E+02  0.51100000000E-03 0. -1.
         11   -1    0    0    0    0 -0.00000000000E+00 -0.00000000000E+00 -0.45593999997E+02  0.45594000000E+02  0.51100000000E-03 0.  1.
    9900012    2    1    2    0    0  0.98569049641E+01 -0.21205328794E+02 -0.21677129549E+02  0.59301913846E+02  0.49999944955E+02 0.  0.
         12    1    1    2    0    0 -0.98569049641E+01  0.21205328794E+02  0.21677129549E+02  0.31886086154E+02  0.00000000000E+00 0. -1.
         11    1    3    3    0    0  0.12857249979E+02  0.43967339271E+01  0.93690292928E+01  0.16505116068E+02  0.51100000000E-03 0. -1.
        -11    1    3    3    0    0  0.74330290660E+00 -0.23988791940E+00 -0.88554601774E+01  0.88898380547E+01  0.51100000000E-03 0.  1.
        -12    1    3    3    0    0 -0.37436479220E+01 -0.25362174802E+02 -0.22190698665E+02  0.33906959723E+02  0.00000000000E+00 0.  1.
</event>
<event>
 7    1  0.6184948E-012  0.5930195E+02  0.7816164E-02  0.1266605E+00
        -11   -1    0    0    0    0  0.00000000000E+00  0.00000000000E+00  0.45593999997E+02  0.45594000000E+02  0.51100000000E-03 0. -1.
         11   -1    0    0    0    0 -0.00000000000E+00 -0.00000000000E+00 -0.45593999997E+02  0.45594000000E+02  0.51100000000E-03 0.  1.
    9900012    2    1    2    0    0  0.53610357009E+01  0.30073428562E+02 -0.91415569156E+01  0.59301954900E+02  0.50000019829E+02 0.  0.
         12    1    1    2    0    0 -0.53610357009E+01 -0.30073428562E+02  0.91415569156E+01  0.31886045100E+02  0.00000000000E+00 0. -1.
         11    1    3    3    0    0  0.50275319010E+01  0.17902510413E+02 -0.13256625618E+02  0.22836682752E+02  0.51100000000E-03 0. -1.
        -11    1    3    3    0    0 -0.15005158621E+02 -0.14261782834E+01 -0.16748149217E+01  0.15165545655E+02  0.51100000000E-03 0.  1.
         12    1    3    3    0    0  0.15338662421E+02  0.13597096433E+02  0.57898836240E+01  0.21299726492E+02  0.00000000000E+00 0. -1.
</event>
<event>
 7    1  0.6184948E-012  0.5930195E+02  0.7816164E-02  0.1266605E+00
        -11   -1    0    0    0    0  0.00000000000E+00  0.00000000000E+00  0.45593999997E+02  0.45594000000E+02  0.51100000000E-03 0.  1.
         11   -1    0    0    0    0 -0.00000000000E+00 -0.00000000000E+00 -0.45593999997E+02  0.45594000000E+02  0.51100000000E-03 0. -1.
    9900012    2    1    2    0    0 -0.15320576953E+02  0.21509832732E+02  0.17869733283E+02  0.59301947407E+02  0.50000006163E+02 0.  0.
         12    1    1    2    0    0  0.15320576953E+02 -0.21509832732E+02 -0.17869733283E+02  0.31886052593E+02  0.00000000000E+00 0. -1.
         11    1    3    3    0    0  0.66396340562E+01 -0.91841366702E+01  0.12225873931E+02  0.16670485909E+02  0.51100000000E-03 0. -1.
        -11    1    3    3    0    0 -0.22161953263E+01  0.17898267931E+02 -0.13521801462E+01  0.18085571821E+02  0.51100000000E-03 0.  1.
        -12    1    3    3    0    0 -0.19744015683E+02  0.12795701471E+02  0.69960394982E+01  0.24545889678E+02  0.00000000000E+00 0.  1.
</event>
<event>
 7    1  0.6184948E-012  0.5930195E+02  0.7816164E-02  0.1266605E+00
        -11   -1    0    0    0    0  0.00000000000E+00  0.00000000000E+00  0.45593999997E+02  0.45594000000E+02  0.51100000000E-03 0.  1.
         11   -1    0    0    0    0 -0.00000000000E+00 -0.00000000000E+00 -0.45593999997E+02  0.45594000000E+02  0.51100000000E-03 0. -1.
    9900012    2    1    2    0    0  0.17989131534E+02 -0.25895608444E+02 -0.47464536704E+01  0.59301949562E+02  0.50000010094E+02 0.  0.
         12    1    1    2    0    0 -0.17989131534E+02  0.25895608444E+02  0.47464536704E+01  0.31886050438E+02  0.00000000000E+00 0. -1.
         11    1    3    3    0    0 -0.51594929264E+00 -0.17031709070E+02 -0.93633479394E+01  0.19442674775E+02  0.51100000000E-03 0. -1.
        -11    1    3    3    0    0  0.17234026097E+02 -0.19637357104E+02 -0.34312284255E+01  0.26351675057E+02  0.51100000000E-03 0.  1.
         12    1    3    3    0    0  0.12710547298E+01  0.10773457729E+02  0.80481226945E+01  0.13507599730E+02  0.00000000000E+00 0. -1.
</event>
<event>
 7    1  0.6184948E-012  0.5930192E+02  0.7816164E-02  0.1266605E+00
        -11   -1    0    0    0    0  0.00000000000E+00  0.00000000000E+00  0.45593999997E+02  0.45594000000E+02  0.51100000000E-03 0.  1.
         11   -1    0    0    0    0 -0.00000000000E+00 -0.00000000000E+00 -0.45593999997E+02  0.45594000000E+02  0.51100000000E-03 0. -1.
    9900012    2    1    2    0    0 -0.11915505976E+02  0.28235605387E+02  0.88030333087E+01  0.59301920127E+02  0.49999956410E+02 0.  0.
         12    1    1    2    0    0  0.11915505976E+02 -0.28235605387E+02 -0.88030333087E+01  0.31886079873E+02  0.00000000000E+00 0. -1.
         11    1    3    3    0    0  0.31268088219E+01  0.38876004512E+01  0.20065252271E+01  0.53774077794E+01  0.51100000000E-03 0. -1.
        -11    1    3    3    0    0  0.11116253958E+02  0.35381857541E+00 -0.97227354705E+01  0.14772537864E+02  0.51100000000E-03 0.  1.
        -12    1    3    3    0    0 -0.26158568756E+02  0.23994186361E+02  0.16519243552E+02  0.39151974484E+02  0.00000000000E+00 0.  1.
</event>
<event>
 7    1  0.6184948E-012  0.5930194E+02  0.7816164E-02  0.1266605E+00
        -11   -1    0    0    0    0  0.00000000000E+00  0.00000000000E+00  0.45593999997E+02  0.45594000000E+02  0.51100000000E-03 0.  1.
         11   -1    0    0    0    0 -0.00000000000E+00 -0.00000000000E+00 -0.45593999997E+02  0.45594000000E+02  0.51100000000E-03 0. -1.
    9900012    2    1    2    0    0  0.10229874354E+02  0.29074628249E+02  0.81692248683E+01  0.59301943925E+02  0.49999999812E+02 0.  0.
         12    1    1    2    0    0 -0.10229874354E+02 -0.29074628249E+02 -0.81692248683E+01  0.31886056075E+02  0.00000000000E+00 0. -1.
         11    1    3    3    0    0 -0.23792261884E+01 -0.12469454717E+01 -0.57886975683E+01  0.63815836643E+01  0.51100000000E-03 0. -1.
        -11    1    3    3    0    0 -0.70044356756E+01  0.21909879545E+01  0.16976134319E+02  0.18494639332E+02  0.51100000000E-03 0.  1.
        -12    1    3    3    0    0  0.19613536218E+02  0.28130585766E+02 -0.30182118821E+01  0.34425720929E+02  0.00000000000E+00 0.  1.
</event>
<event>
 7    1  0.6184948E-012  0.5930197E+02  0.7816164E-02  0.1266605E+00
        -11   -1    0    0    0    0  0.00000000000E+00  0.00000000000E+00  0.45593999997E+02  0.45594000000E+02  0.51100000000E-03 0. -1.
         11   -1    0    0    0    0 -0.00000000000E+00 -0.00000000000E+00 -0.45593999997E+02  0.45594000000E+02  0.51100000000E-03 0.  1.
    9900012    2    1    2    0    0  0.15629015196E+02 -0.25623695733E+02 -0.10764723000E+02  0.59301966062E+02  0.50000040185E+02 0.  0.
         12    1    1    2    0    0 -0.15629015196E+02  0.25623695733E+02  0.10764723000E+02  0.31886033938E+02  0.00000000000E+00 0. -1.
         11    1    3    3    0    0  0.89083898774E+01  0.17874496035E+01  0.77095692226E+01  0.11916033071E+02  0.51100000000E-03 0. -1.
        -11    1    3    3    0    0  0.18458123531E+02 -0.18592968686E+02 -0.19514407092E+02  0.32668224519E+02  0.51100000000E-03 0.  1.
         12    1    3    3    0    0 -0.11737498212E+02 -0.88181766508E+01  0.10401148689E+01  0.14717708472E+02  0.00000000000E+00 0. -1.
</event>
<event>
 7    1  0.6184948E-012  0.5930209E+02  0.7816164E-02  0.1266604E+00
        -11   -1    0    0    0    0  0.00000000000E+00  0.00000000000E+00  0.45593999997E+02  0.45594000000E+02  0.51100000000E-03 0.  1.
         11   -1    0    0    0    0 -0.00000000000E+00 -0.00000000000E+00 -0.45593999997E+02  0.45594000000E+02  0.51100000000E-03 0. -1.
    9900012    2    1    2    0    0  0.30091127213E+02 -0.85966205896E+01  0.61100833284E+01  0.59302094951E+02  0.50000275247E+02 0.  0.
         12    1    1    2    0    0 -0.30091127213E+02  0.85966205896E+01 -0.61100833284E+01  0.31885905049E+02  0.00000000000E+00 0. -1.
         11    1    3    3    0    0  0.14762504198E+02 -0.20848605903E+02  0.26634068837E+01  0.25684423972E+02  0.51100000000E-03 0. -1.
        -11    1    3    3    0    0  0.20656683385E+02  0.66388692497E+00  0.26794013354E+01  0.20840309645E+02  0.51100000000E-03 0.  1.
         12    1    3    3    0    0 -0.53280603697E+01  0.11588098389E+02  0.76727510931E+00  0.12777361334E+02  0.00000000000E+00 0. -1.
</event>
<event>
 7    1  0.6184948E-012  0.5930195E+02  0.7816164E-02  0.1266605E+00
        -11   -1    0    0    0    0  0.00000000000E+00  0.00000000000E+00  0.45593999997E+02  0.45594000000E+02  0.51100000000E-03 0.  1.
         11   -1    0    0    0    0 -0.00000000000E+00 -0.00000000000E+00 -0.45593999997E+02  0.45594000000E+02  0.51100000000E-03 0. -1.
    9900012    2    1    2    0    0  0.18276745025E+02  0.68883136814E+01  0.25203806818E+02  0.59301950508E+02  0.50000011819E+02 0.  0.
         12    1    1    2    0    0 -0.18276745025E+02 -0.68883136814E+01 -0.25203806818E+02  0.31886049492E+02  0.00000000000E+00 0. -1.
         11    1    3    3    0    0  0.84273600409E+01  0.11406209879E+02  0.17437986044E+02  0.22476774204E+02  0.51100000000E-03 0. -1.
        -11    1    3    3    0    0  0.16280464045E+02 -0.62077437732E+01  0.17721980305E+02  0.24852729799E+02  0.51100000000E-03 0.  1.
         12    1    3    3    0    0 -0.64310790615E+01  0.16898475752E+01 -0.99561595308E+01  0.11972446505E+02  0.00000000000E+00 0. -1.
</event>
<event>
 7    1  0.6184948E-012  0.5930194E+02  0.7816164E-02  0.1266605E+00
        -11   -1    0    0    0    0  0.00000000000E+00  0.00000000000E+00  0.45593999997E+02  0.45594000000E+02  0.51100000000E-03 0.  1.
         11   -1    0    0    0    0 -0.00000000000E+00 -0.00000000000E+00 -0.45593999997E+02  0.45594000000E+02  0.51100000000E-03 0. -1.
    9900012    2    1    2    0    0 -0.23814629462E+01  0.17850153905E+02  0.26313899103E+02  0.59301942761E+02  0.49999997690E+02 0.  0.
         12    1    1    2    0    0  0.23814629462E+01 -0.17850153905E+02 -0.26313899103E+02  0.31886057239E+02  0.00000000000E+00 0. -1.
         11    1    3    3    0    0  0.11168934687E+02  0.39749209920E+01  0.16876875124E-02  0.11855171953E+02  0.51100000000E-03 0. -1.
        -11    1    3    3    0    0  0.70692553985E-01 -0.62097502875E+01  0.21922150215E+02  0.22784790242E+02  0.51100000000E-03 0.  1.
        -12    1    3    3    0    0 -0.13621090187E+02  0.20084983201E+02  0.43900612006E+01  0.24661980566E+02  0.00000000000E+00 0.  1.
</event>
<event>
 7    1  0.6184948E-012  0.5930192E+02  0.7816164E-02  0.1266605E+00
        -11   -1    0    0    0    0  0.00000000000E+00  0.00000000000E+00  0.45593999997E+02  0.45594000000E+02  0.51100000000E-03 0. -1.
         11   -1    0    0    0    0 -0.00000000000E+00 -0.00000000000E+00 -0.45593999997E+02  0.45594000000E+02  0.51100000000E-03 0.  1.
    9900012    2    1    2    0    0 -0.20690466452E+02  0.20938953087E+02 -0.12255088337E+02  0.59301916068E+02  0.49999949008E+02 0.  0.
         12    1    1    2    0    0  0.20690466452E+02 -0.20938953087E+02  0.12255088337E+02  0.31886083932E+02  0.00000000000E+00 0. -1.
         11    1    3    3    0    0 -0.22185250475E+02  0.25072062527E+02 -0.32412760943E+00  0.33479825521E+02  0.51100000000E-03 0. -1.
        -11    1    3    3    0    0 -0.35626571774E+01 -0.71723594050E+00  0.59256952676E+01  0.69513177329E+01  0.51100000000E-03 0.  1.
        -12    1    3    3    0    0  0.50574412006E+01 -0.34158734994E+01 -0.17856655995E+02  0.18870772814E+02  0.00000000000E+00 0.  1.
</event>
<event>
 7    1  0.6184948E-012  0.5930196E+02  0.7816164E-02  0.1266605E+00
        -11   -1    0    0    0    0  0.00000000000E+00  0.00000000000E+00  0.45593999997E+02  0.45594000000E+02  0.51100000000E-03 0. -1.
         11   -1    0    0    0    0 -0.00000000000E+00 -0.00000000000E+00 -0.45593999997E+02  0.45594000000E+02  0.51100000000E-03 0.  1.
    9900012    2    1    2    0    0  0.13452456254E+01  0.19286975669E+02 -0.25355914952E+02  0.59301960119E+02  0.50000029346E+02 0.  0.
         12    1    1    2    0    0 -0.13452456254E+01 -0.19286975669E+02  0.25355914952E+02  0.31886039881E+02  0.00000000000E+00 0. -1.
         11    1    3    3    0    0 -0.34356619723E+01  0.10343271525E+02 -0.24535683063E+01  0.11171706974E+02  0.51100000000E-03 0. -1.
        -11    1    3    3    0    0  0.18398715783E+02  0.17287006896E+02 -0.19249468483E+02  0.31747368190E+02  0.51100000000E-03 0.  1.
        -12    1    3    3    0    0 -0.13617808185E+02 -0.83433027513E+01 -0.36528781629E+01  0.16382884954E+02  0.00000000000E+00 0.  1.
</event>
<event>
 7    1  0.6184948E-012  0.5930196E+02  0.7816164E-02  0.1266605E+00
        -11   -1    0    0    0    0  0.00000000000E+00  0.00000000000E+00  0.45593999997E+02  0.45594000000E+02  0.51100000000E-03 0.  1.
         11   -1    0    0    0    0 -0.00000000000E+00 -0.00000000000E+00 -0.45593999997E+02  0.45594000000E+02  0.51100000000E-03 0. -1.
    9900012    2    1    2    0    0  0.22763512781E+02  0.22328047857E+02  0.20288518947E-01  0.59301958432E+02  0.50000026271E+02 0.  0.
         12    1    1    2    0    0 -0.22763512781E+02 -0.22328047857E+02 -0.20288518947E-01  0.31886041568E+02  0.00000000000E+00 0. -1.
         11    1    3    3    0    0 -0.12356111143E+01  0.16875188428E+02 -0.57043470939E+01  0.17856043664E+02  0.51100000000E-03 0. -1.
        -11    1    3    3    0    0  0.13621222692E+02  0.13397415056E+02 -0.95361872748E+01  0.21353390967E+02  0.51100000000E-03 0.  1.
        -12    1    3    3    0    0  0.10377901203E+02 -0.79445556268E+01  0.15260822888E+02  0.20092523801E+02  0.00000000000E+00 0.  1.
</event>
<event>
 7    1  0.6184948E-012  0.5930194E+02  0.7816164E-02  0.1266605E+00
        -11   -1    0    0    0    0  0.00000000000E+00  0.00000000000E+00  0.45593999997E+02  0.45594000000E+02  0.51100000000E-03 0. -1.
         11   -1    0    0    0    0 -0.00000000000E+00 -0.00000000000E+00 -0.45593999997E+02  0.45594000000E+02  0.51100000000E-03 0.  1.
    9900012    2    1    2    0    0  0.21551698354E+02  0.96492069090E+01 -0.21427509402E+02  0.59301936350E+02  0.49999985998E+02 0.  0.
         12    1    1    2    0    0 -0.21551698354E+02 -0.96492069090E+01  0.21427509402E+02  0.31886063650E+02  0.00000000000E+00 0. -1.
         11    1    3    3    0    0 -0.68552727389E+01  0.52250062073E+00 -0.20129104249E+02  0.21270839414E+02  0.51100000000E-03 0. -1.
        -11    1    3    3    0    0  0.49078232727E+01  0.49296841050E+01 -0.10376299670E+02  0.12492241983E+02  0.51100000000E-03 0.  1.
         12    1    3    3    0    0  0.23499147820E+02  0.41970221833E+01  0.90778945173E+01  0.25538854953E+02  0.00000000000E+00 0. -1.
</event>
<event>
 7    1  0.6184948E-012  0.5930189E+02  0.7816164E-02  0.1266605E+00
        -11   -1    0    0    0    0  0.00000000000E+00  0.00000000000E+00  0.45593999997E+02  0.45594000000E+02  0.51100000000E-03 0. -1.
         11   -1    0    0    0    0 -0.00000000000E+00 -0.00000000000E+00 -0.45593999997E+02  0.45594000000E+02  0.51100000000E-03 0.  1.
    9900012    2    1    2    0    0  0.20095518396E+01 -0.22731536896E+02 -0.22270227487E+02  0.59301888595E+02  0.49999898904E+02 0.  0.
         12    1    1    2    0    0 -0.20095518396E+01  0.22731536896E+02  0.22270227487E+02  0.31886111405E+02  0.00000000000E+00 0. -1.
         11    1    3    3    0    0 -0.51300280342E+01  0.83572496808E+01 -0.13520330415E+02  0.16702100007E+02  0.51100000000E-03 0. -1.
        -11    1    3    3    0    0  0.51773049212E+01  0.40000868588E+01 -0.16196309004E+01  0.67400582816E+01  0.51100000000E-03 0.  1.
        -12    1    3    3    0    0  0.19622749527E+01 -0.35088873435E+02 -0.71302661713E+01  0.35859730306E+02  0.00000000000E+00 0.  1.
</event>
<event>
 7    1  0.6184948E-012  0.5930193E+02  0.7816164E-02  0.1266605E+00
        -11   -1    0    0    0    0  0.00000000000E+00  0.00000000000E+00  0.45593999997E+02  0.45594000000E+02  0.51100000000E-03 0. -1.
         11   -1    0    0    0    0 -0.00000000000E+00 -0.00000000000E+00 -0.45593999997E+02  0.45594000000E+02  0.51100000000E-03 0.  1.
    9900012    2    1    2    0    0  0.24782604479E+02 -0.16937502642E+02 -0.10754775461E+02  0.59301926618E+02  0.49999968249E+02 0.  0.
         12    1    1    2    0    0 -0.24782604479E+02  0.16937502642E+02  0.10754775461E+02  0.31886073382E+02  0.00000000000E+00 0. -1.
         11    1    3    3    0    0  0.11558391784E+02  0.57907048353E+01 -0.11325586976E+01  0.12977340736E+02  0.51100000000E-03 0. -1.
        -11    1    3    3    0    0 -0.97659921399E+01 -0.83534690100E+00  0.54136583739E+01  0.11197325760E+02  0.51100000000E-03 0.  1.
        -12    1    3    3    0    0  0.22990204835E+02 -0.21892860576E+02 -0.15035875137E+02  0.35127260122E+02  0.00000000000E+00 0.  1.
</event>
<event>
 7    1  0.6184948E-012  0.5930193E+02  0.7816164E-02  0.1266605E+00
        -11   -1    0    0    0    0  0.00000000000E+00  0.00000000000E+00  0.45593999997E+02  0.45594000000E+02  0.51100000000E-03 0. -1.
         11   -1    0    0    0    0 -0.00000000000E+00 -0.00000000000E+00 -0.45593999997E+02  0.45594000000E+02  0.51100000000E-03 0.  1.
    9900012    2    1    2    0    0 -0.19324901172E+02  0.15708258752E+02 -0.19912812626E+02  0.59301932431E+02  0.49999978851E+02 0.  0.
         12    1    1    2    0    0  0.19324901172E+02 -0.15708258752E+02  0.19912812626E+02  0.31886067569E+02  0.00000000000E+00 0. -1.
         11    1    3    3    0    0 -0.12759473581E+02  0.15253639829E+02 -0.28563121398E+02  0.34804160647E+02  0.51100000000E-03 0. -1.
        -11    1    3    3    0    0  0.52938892219E+01 -0.35248160494E+01 -0.33282927920E+01  0.71782396482E+01  0.51100000000E-03 0.  1.
         12    1    3    3    0    0 -0.11859316813E+02  0.39794349722E+01  0.11978601564E+02  0.17319532136E+02  0.00000000000E+00 0. -1.
</event>
<event>
 7    1  0.6184948E-012  0.5930199E+02  0.7816164E-02  0.1266605E+00
        -11   -1    0    0    0    0  0.00000000000E+00  0.00000000000E+00  0.45593999997E+02  0.45594000000E+02  0.51100000000E-03 0. -1.
         11   -1    0    0    0    0 -0.00000000000E+00 -0.00000000000E+00 -0.45593999997E+02  0.45594000000E+02  0.51100000000E-03 0.  1.
    9900012    2    1    2    0    0  0.22857822019E+02  0.12680403731E+02  0.18260475212E+02  0.59301990197E+02  0.50000084201E+02 0.  0.
         12    1    1    2    0    0 -0.22857822019E+02 -0.12680403731E+02 -0.18260475212E+02  0.31886009803E+02  0.00000000000E+00 0. -1.
         11    1    3    3    0    0  0.13495097022E+02  0.16891318379E+01 -0.10745257088E+01  0.13642778887E+02  0.51100000000E-03 0. -1.
        -11    1    3    3    0    0  0.18726581336E+02  0.18183089990E+02  0.21300136550E+02  0.33689841606E+02  0.51100000000E-03 0.  1.
        -12    1    3    3    0    0 -0.93638563390E+01 -0.71918180966E+01 -0.19651356294E+01  0.11969369704E+02  0.00000000000E+00 0.  1.
</event>
<event>
 7    1  0.6184948E-012  0.5930192E+02  0.7816164E-02  0.1266605E+00
        -11   -1    0    0    0    0  0.00000000000E+00  0.00000000000E+00  0.45593999997E+02  0.45594000000E+02  0.51100000000E-03 0. -1.
         11   -1    0    0    0    0 -0.00000000000E+00 -0.00000000000E+00 -0.45593999997E+02  0.45594000000E+02  0.51100000000E-03 0.  1.
    9900012    2    1    2    0    0 -0.21092365563E+01 -0.31350641982E+02  0.54231234630E+01  0.59301923107E+02  0.49999961846E+02 0.  0.
         12    1    1    2    0    0  0.21092365563E+01  0.31350641982E+02 -0.54231234630E+01  0.31886076893E+02  0.00000000000E+00 0. -1.
         11    1    3    3    0    0  0.52538864863E+01 -0.10122347926E+02  0.14385054995E+02  0.18357425153E+02  0.51100000000E-03 0. -1.
        -11    1    3    3    0    0 -0.74933049412E+01 -0.29443853803E+02 -0.24883747232E+01  0.30484129555E+02  0.51100000000E-03 0.  1.
         12    1    3    3    0    0  0.13018189857E+00  0.82155597472E+01 -0.64735568092E+01  0.10460368399E+02  0.00000000000E+00 0. -1.
</event>
<event>
 7    1  0.6184948E-012  0.5930195E+02  0.7816164E-02  0.1266605E+00
        -11   -1    0    0    0    0  0.00000000000E+00  0.00000000000E+00  0.45593999997E+02  0.45594000000E+02  0.51100000000E-03 0.  1.
         11   -1    0    0    0    0 -0.00000000000E+00 -0.00000000000E+00 -0.45593999997E+02  0.45594000000E+02  0.51100000000E-03 0. -1.
    9900012    2    1    2    0    0  0.10747875614E+02  0.96415767033E+01  0.28429616167E+02  0.59301954354E+02  0.50000018832E+02 0.  0.
         12    1    1    2    0    0 -0.10747875614E+02 -0.96415767033E+01 -0.28429616167E+02  0.31886045646E+02  0.00000000000E+00 0. -1.
         11    1    3    3    0    0 -0.12312258388E+02  0.17089137239E+02  0.18110976603E+02  0.27778369138E+02  0.51100000000E-03 0. -1.
        -11    1    3    3    0    0  0.30348012449E+01 -0.69125810251E+01 -0.22464438904E+01  0.78765668561E+01  0.51100000000E-03 0.  1.
        -12    1    3    3    0    0  0.20025332757E+02 -0.53497951009E+00  0.12565083454E+02  0.23647018360E+02  0.00000000000E+00 0.  1.
</event>
<event>
 7    1  0.6184948E-012  0.5930197E+02  0.7816164E-02  0.1266605E+00
        -11   -1    0    0    0    0  0.00000000000E+00  0.00000000000E+00  0.45593999997E+02  0.45594000000E+02  0.51100000000E-03 0.  1.
         11   -1    0    0    0    0 -0.00000000000E+00 -0.00000000000E+00 -0.45593999997E+02  0.45594000000E+02  0.51100000000E-03 0. -1.
    9900012    2    1    2    0    0  0.76653650436E+01 -0.28968099394E+02  0.10900027584E+02  0.59301965360E+02  0.50000038905E+02 0.  0.
         12    1    1    2    0    0 -0.76653650436E+01  0.28968099394E+02 -0.10900027584E+02  0.31886034640E+02  0.00000000000E+00 0. -1.
         11    1    3    3    0    0 -0.46404708763E+01  0.42334876854E+01  0.49775114503E+01  0.80144874093E+01  0.51100000000E-03 0. -1.
        -11    1    3    3    0    0 -0.11273501383E+01 -0.53980292554E+01  0.17470503056E+02  0.18320155990E+02  0.51100000000E-03 0.  1.
        -12    1    3    3    0    0  0.13433186058E+02 -0.27803557824E+02 -0.11547986923E+02  0.32967321961E+02  0.00000000000E+00 0.  1.
</event>
<event>
 7    1  0.6184948E-012  0.5930197E+02  0.7816164E-02  0.1266605E+00
        -11   -1    0    0    0    0  0.00000000000E+00  0.00000000000E+00  0.45593999997E+02  0.45594000000E+02  0.51100000000E-03 0.  1.
         11   -1    0    0    0    0 -0.00000000000E+00 -0.00000000000E+00 -0.45593999997E+02  0.45594000000E+02  0.51100000000E-03 0. -1.
    9900012    2    1    2    0    0  0.21537408273E+02  0.98293066279E+01  0.21359859785E+02  0.59301971180E+02  0.50000049519E+02 0.  0.
         12    1    1    2    0    0 -0.21537408273E+02 -0.98293066279E+01 -0.21359859785E+02  0.31886028820E+02  0.00000000000E+00 0. -1.
         11    1    3    3    0    0  0.43651700515E+01  0.16419996752E+02 -0.76707314584E+01  0.18641650257E+02  0.51100000000E-03 0. -1.
        -11    1    3    3    0    0 -0.29128328084E+01  0.24650852298E+01  0.12630481358E+02  0.13194328318E+02  0.51100000000E-03 0.  1.
         12    1    3    3    0    0  0.20085071029E+02 -0.90557753542E+01  0.16400109886E+02  0.27465992605E+02  0.00000000000E+00 0. -1.
</event>
<event>
 7    1  0.6184948E-012  0.5930190E+02  0.7816164E-02  0.1266605E+00
        -11   -1    0    0    0    0  0.00000000000E+00  0.00000000000E+00  0.45593999997E+02  0.45594000000E+02  0.51100000000E-03 0.  1.
         11   -1    0    0    0    0 -0.00000000000E+00 -0.00000000000E+00 -0.45593999997E+02  0.45594000000E+02  0.51100000000E-03 0. -1.
    9900012    2    1    2    0    0 -0.63284448848E+01  0.30713920759E+02  0.57731371101E+01  0.59301901851E+02  0.49999923080E+02 0.  0.
         12    1    1    2    0    0  0.63284448848E+01 -0.30713920759E+02 -0.57731371101E+01  0.31886098149E+02  0.00000000000E+00 0. -1.
         11    1    3    3    0    0 -0.83805369967E+01  0.78267498150E+01 -0.82144937550E-01  0.11467264760E+02  0.51100000000E-03 0. -1.
        -11    1    3    3    0    0  0.95578536788E+01  0.26705095181E+02  0.17601635857E+02  0.33381615609E+02  0.51100000000E-03 0.  1.
         12    1    3    3    0    0 -0.75057615670E+01 -0.38179242366E+01 -0.11746353809E+02  0.14453021483E+02  0.00000000000E+00 0. -1.
</event>
<event>
 7    1  0.6184948E-012  0.5930195E+02  0.7816164E-02  0.1266605E+00
        -11   -1    0    0    0    0  0.00000000000E+00  0.00000000000E+00  0.45593999997E+02  0.45594000000E+02  0.51100000000E-03 0.  1.
         11   -1    0    0    0    0 -0.00000000000E+00 -0.00000000000E+00 -0.45593999997E+02  0.45594000000E+02  0.51100000000E-03 0. -1.
    9900012    2    1    2    0    0  0.21523001502E+02 -0.23080710379E+01  0.23412670332E+02  0.59301954187E+02  0.50000018527E+02 0.  0.
         12    1    1    2    0    0 -0.21523001502E+02  0.23080710379E+01 -0.23412670332E+02  0.31886045813E+02  0.00000000000E+00 0. -1.
         11    1    3    3    0    0  0.10353065011E+02 -0.42292573824E+01  0.96051882098E+01  0.14742191626E+02  0.51100000000E-03 0. -1.
        -11    1    3    3    0    0  0.14416691463E+02  0.11771638424E+02  0.23762258343E+02  0.30183727168E+02  0.51100000000E-03 0.  1.
         12    1    3    3    0    0 -0.32467549716E+01 -0.98504520798E+01 -0.99547762208E+01  0.14376035393E+02  0.00000000000E+00 0. -1.
</event>
<event>
 7    1  0.6184948E-012  0.5930200E+02  0.7816164E-02  0.1266605E+00
        -11   -1    0    0    0    0  0.00000000000E+00  0.00000000000E+00  0.45593999997E+02  0.45594000000E+02  0.51100000000E-03 0.  1.
         11   -1    0    0    0    0 -0.00000000000E+00 -0.00000000000E+00 -0.45593999997E+02  0.45594000000E+02  0.51100000000E-03 0. -1.
    9900012    2    1    2    0    0  0.26748589438E+01  0.22192219965E+02  0.22739122058E+02  0.59301997282E+02  0.50000097123E+02 0.  0.
         12    1    1    2    0    0 -0.26748589438E+01 -0.22192219965E+02 -0.22739122058E+02  0.31886002718E+02  0.00000000000E+00 0. -1.
         11    1    3    3    0    0 -0.25211939996E+01 -0.29358360009E+01  0.83284416105E+01  0.91835990836E+01  0.51100000000E-03 0. -1.
        -11    1    3    3    0    0 -0.38602328314E+01  0.24010691070E+02  0.25846088374E+02  0.35488518815E+02  0.51100000000E-03 0.  1.
        -12    1    3    3    0    0  0.90562857748E+01  0.11173648956E+01 -0.11435407926E+02  0.14629879384E+02  0.00000000000E+00 0.  1.
</event>
<event>
 7    1  0.6184948E-012  0.5930195E+02  0.7816164E-02  0.1266605E+00
        -11   -1    0    0    0    0  0.00000000000E+00  0.00000000000E+00  0.45593999997E+02  0.45594000000E+02  0.51100000000E-03 0.  1.
         11   -1    0    0    0    0 -0.00000000000E+00 -0.00000000000E+00 -0.45593999997E+02  0.45594000000E+02  0.51100000000E-03 0. -1.
    9900012    2    1    2    0    0 -0.11192439754E+02  0.94777658908E+00  0.29842106152E+02  0.59301948384E+02  0.50000007944E+02 0.  0.
         12    1    1    2    0    0  0.11192439754E+02 -0.94777658908E+00 -0.29842106152E+02  0.31886051616E+02  0.00000000000E+00 0. -1.
         11    1    3    3    0    0 -0.25393615989E+01  0.19560061947E+02  0.84978406203E+01  0.21476910303E+02  0.51100000000E-03 0. -1.
        -11    1    3    3    0    0 -0.93287174395E+01 -0.21760877662E+00 -0.39507042324E+00  0.93396147430E+01  0.51100000000E-03 0.  1.
         12    1    3    3    0    0  0.67563928413E+00 -0.18394676581E+02  0.21739335955E+02  0.28485423338E+02  0.00000000000E+00 0. -1.
</event>
<event>
 7    1  0.6184948E-012  0.5930183E+02  0.7816164E-02  0.1266605E+00
        -11   -1    0    0    0    0  0.00000000000E+00  0.00000000000E+00  0.45593999997E+02  0.45594000000E+02  0.51100000000E-03 0.  1.
         11   -1    0    0    0    0 -0.00000000000E+00 -0.00000000000E+00 -0.45593999997E+02  0.45594000000E+02  0.51100000000E-03 0. -1.
    9900012    2    1    2    0    0  0.15186687298E+02 -0.22419853809E+02  0.16835752867E+02  0.59301829165E+02  0.49999790518E+02 0.  0.
         12    1    1    2    0    0 -0.15186687298E+02  0.22419853809E+02 -0.16835752867E+02  0.31886170835E+02  0.00000000000E+00 0. -1.
         11    1    3    3    0    0  0.10135972704E+00 -0.93073546186E+00 -0.91840554947E+01  0.92316530419E+01  0.51100000000E-03 0. -1.
        -11    1    3    3    0    0  0.26697294026E+01  0.90112390265E+01  0.89512423788E+01  0.12979007060E+02  0.51100000000E-03 0.  1.
        -12    1    3    3    0    0  0.12415598168E+02 -0.30500357374E+02  0.17068565983E+02  0.37091169064E+02  0.00000000000E+00 0.  1.
</event>
<event>
 7    1  0.6184948E-012  0.5930196E+02  0.7816164E-02  0.1266605E+00
        -11   -1    0    0    0    0  0.00000000000E+00  0.00000000000E+00  0.45593999997E+02  0.45594000000E+02  0.51100000000E-03 0.  1.
         11   -1    0    0    0    0 -0.00000000000E+00 -0.00000000000E+00 -0.45593999997E+02  0.45594000000E+02  0.51100000000E-03 0. -1.
    9900012    2    1    2    0    0 -0.24832575580E+01  0.31666418917E+02 -0.27912315455E+01  0.59301958718E+02  0.50000026791E+02 0.  0.
         12    1    1    2    0    0  0.24832575580E+01 -0.31666418917E+02  0.27912315455E+01  0.31886041282E+02  0.00000000000E+00 0. -1.
         11    1    3    3    0    0 -0.64141506242E-01  0.49667579798E+01 -0.14818676037E+02  0.15629010164E+02  0.51100000000E-03 0. -1.
        -11    1    3    3    0    0  0.12231786421E+02  0.20423777321E+01 -0.41677241463E+00  0.12408126585E+02  0.51100000000E-03 0.  1.
        -12    1    3    3    0    0 -0.14650902473E+02  0.24657283205E+02  0.12444216906E+02  0.31264821968E+02  0.00000000000E+00 0.  1.
</event>
<event>
 7    1  0.6184948E-012  0.5930193E+02  0.7816164E-02  0.1266605E+00
        -11   -1    0    0    0    0  0.00000000000E+00  0.00000000000E+00  0.45593999997E+02  0.45594000000E+02  0.51100000000E-03 0.  1.
         11   -1    0    0    0    0 -0.00000000000E+00 -0.00000000000E+00 -0.45593999997E+02  0.45594000000E+02  0.51100000000E-03 0. -1.
    9900012    2    1    2    0    0 -0.24474783713E+02 -0.70205118535E+01  0.19194243646E+02  0.59301927591E+02  0.49999970024E+02 0.  0.
         12    1    1    2    0    0  0.24474783713E+02  0.70205118535E+01 -0.19194243646E+02  0.31886072409E+02  0.00000000000E+00 0. -1.
         11    1    3    3    0    0 -0.65067189779E+01  0.94705322303E+01  0.18189763310E+02  0.21515014806E+02  0.51100000000E-03 0. -1.
        -11    1    3    3    0    0 -0.73610157508E+01 -0.11206406559E+02  0.14552402526E+02  0.19787382859E+02  0.51100000000E-03 0.  1.
         12    1    3    3    0    0 -0.10607048984E+02 -0.52846375245E+01 -0.13547922189E+02  0.17999529926E+02  0.00000000000E+00 0. -1.
</event>
<event>
 7    1  0.6184948E-012  0.5930196E+02  0.7816164E-02  0.1266605E+00
        -11   -1    0    0    0    0  0.00000000000E+00  0.00000000000E+00  0.45593999997E+02  0.45594000000E+02  0.51100000000E-03 0. -1.
         11   -1    0    0    0    0 -0.00000000000E+00 -0.00000000000E+00 -0.45593999997E+02  0.45594000000E+02  0.51100000000E-03 0.  1.
    9900012    2    1    2    0    0  0.81786376800E+01 -0.29444108224E+02 -0.91035077199E+01  0.59301961108E+02  0.50000031150E+02 0.  0.
         12    1    1    2    0    0 -0.81786376800E+01  0.29444108224E+02  0.91035077199E+01  0.31886038892E+02  0.00000000000E+00 0. -1.
         11    1    3    3    0    0 -0.73982614115E+01 -0.21622805672E+02  0.47394188056E+01  0.23339710537E+02  0.51100000000E-03 0. -1.
        -11    1    3    3    0    0 -0.57641309373E+01  0.97724818669E+00  0.37439124761E+01  0.69424131519E+01  0.51100000000E-03 0.  1.
        -12    1    3    3    0    0  0.21341030029E+02 -0.87985507386E+01 -0.17586839002E+02  0.29019837420E+02  0.00000000000E+00 0.  1.
</event>
<event>
 7    1  0.6184948E-012  0.5930195E+02  0.7816164E-02  0.1266605E+00
        -11   -1    0    0    0    0  0.00000000000E+00  0.00000000000E+00  0.45593999997E+02  0.45594000000E+02  0.51100000000E-03 0.  1.
         11   -1    0    0    0    0 -0.00000000000E+00 -0.00000000000E+00 -0.45593999997E+02  0.45594000000E+02  0.51100000000E-03 0. -1.
    9900012    2    1    2    0    0 -0.26884047741E+02 -0.69332776931E+01 -0.15681123334E+02  0.59301953028E+02  0.50000016414E+02 0.  0.
         12    1    1    2    0    0  0.26884047741E+02  0.69332776931E+01  0.15681123334E+02  0.31886046972E+02  0.00000000000E+00 0. -1.
         11    1    3    3    0    0  0.53591137621E+01  0.51146833149E+00 -0.58124203069E+01  0.79224952038E+01  0.51100000000E-03 0. -1.
        -11    1    3    3    0    0 -0.30495427281E+02 -0.65916907301E+01 -0.22584380501E+02  0.38515915082E+02  0.51100000000E-03 0.  1.
        -12    1    3    3    0    0 -0.17477342221E+01 -0.85305529453E+00  0.12715677474E+02  0.12863542742E+02  0.00000000000E+00 0.  1.
</event>
<event>
 7    1  0.6184948E-012  0.5930196E+02  0.7816164E-02  0.1266605E+00
        -11   -1    0    0    0    0  0.00000000000E+00  0.00000000000E+00  0.45593999997E+02  0.45594000000E+02  0.51100000000E-03 0. -1.
         11   -1    0    0    0    0 -0.00000000000E+00 -0.00000000000E+00 -0.45593999997E+02  0.45594000000E+02  0.51100000000E-03 0.  1.
    9900012    2    1    2    0    0 -0.12737777537E+02 -0.10036817075E+02 -0.27454161064E+02  0.59301958645E+02  0.50000026658E+02 0.  0.
         12    1    1    2    0    0  0.12737777537E+02  0.10036817075E+02  0.27454161064E+02  0.31886041355E+02  0.00000000000E+00 0. -1.
         11    1    3    3    0    0 -0.84930471025E+01 -0.18757117774E+02 -0.22598636430E+01  0.20713963894E+02  0.51100000000E-03 0. -1.
        -11    1    3    3    0    0 -0.11148687332E+02  0.40488305009E+01  0.19763768963E+00  0.11862770274E+02  0.51100000000E-03 0.  1.
         12    1    3    3    0    0  0.69039568977E+01  0.46714701978E+01 -0.25391935111E+02  0.26725224476E+02  0.00000000000E+00 0. -1.
</event>
<event>
 7    1  0.6184948E-012  0.5930193E+02  0.7816164E-02  0.1266605E+00
        -11   -1    0    0    0    0  0.00000000000E+00  0.00000000000E+00  0.45593999997E+02  0.45594000000E+02  0.51100000000E-03 0.  1.
         11   -1    0    0    0    0 -0.00000000000E+00 -0.00000000000E+00 -0.45593999997E+02  0.45594000000E+02  0.51100000000E-03 0. -1.
    9900012    2    1    2    0    0 -0.13487842412E+01  0.45733515717E+01  0.31527557916E+02  0.59301926681E+02  0.49999968364E+02 0.  0.
         12    1    1    2    0    0  0.13487842412E+01 -0.45733515717E+01 -0.31527557916E+02  0.31886073319E+02  0.00000000000E+00 0. -1.
         11    1    3    3    0    0  0.43579874662E+01  0.24879461221E+01  0.17702359120E+02  0.18399876340E+02  0.51100000000E-03 0. -1.
        -11    1    3    3    0    0  0.36309267942E+01  0.18540992713E+02  0.30775019335E+01  0.19142180090E+02  0.51100000000E-03 0.  1.
         12    1    3    3    0    0 -0.93376985016E+01 -0.16455587264E+02  0.10747696863E+02  0.21759870251E+02  0.00000000000E+00 0. -1.
</event>
<event>
 7    1  0.6184948E-012  0.5930179E+02  0.7816164E-02  0.1266605E+00
        -11   -1    0    0    0    0  0.00000000000E+00  0.00000000000E+00  0.45593999997E+02  0.45594000000E+02  0.51100000000E-03 0.  1.
         11   -1    0    0    0    0 -0.00000000000E+00 -0.00000000000E+00 -0.45593999997E+02  0.45594000000E+02  0.51100000000E-03 0. -1.
    9900012    2    1    2    0    0 -0.98104488044E+00  0.28656259194E+02  0.13949424427E+02  0.59301794803E+02  0.49999727849E+02 0.  0.
         12    1    1    2    0    0  0.98104488044E+00 -0.28656259194E+02 -0.13949424427E+02  0.31886205197E+02  0.00000000000E+00 0. -1.
         11    1    3    3    0    0  0.32835995182E+00  0.29801269043E+02 -0.84235573651E+01  0.30970627629E+02  0.51100000000E-03 0. -1.
        -11    1    3    3    0    0 -0.10300532486E+01 -0.88428552393E+01  0.77497952310E+01  0.11803237897E+02  0.51100000000E-03 0.  1.
        -12    1    3    3    0    0 -0.27935158370E+00  0.76978453904E+01  0.14623186561E+02  0.16527929276E+02  0.00000000000E+00 0.  1.
</event>
<event>
 7    1  0.6184948E-012  0.5930158E+02  0.7816164E-02  0.1266606E+00
        -11   -1    0    0    0    0  0.00000000000E+00  0.00000000000E+00  0.45593999997E+02  0.45594000000E+02  0.51100000000E-03 0.  1.
         11   -1    0    0    0    0 -0.00000000000E+00 -0.00000000000E+00 -0.45593999997E+02  0.45594000000E+02  0.51100000000E-03 0. -1.
    9900012    2    1    2    0    0  0.57595038665E+01 -0.20296129025E+02  0.23908976016E+02  0.59301578559E+02  0.49999333468E+02 0.  0.
         12    1    1    2    0    0 -0.57595038665E+01  0.20296129025E+02 -0.23908976016E+02  0.31886421441E+02  0.00000000000E+00 0. -1.
         11    1    3    3    0    0  0.23553571297E+00  0.51140149794E+01 -0.78627582620E+01  0.93825153359E+01  0.51100000000E-03 0. -1.
        -11    1    3    3    0    0  0.14983117517E+02 -0.46794745456E+01  0.12186569577E+02  0.19872185860E+02  0.51100000000E-03 0.  1.
         12    1    3    3    0    0 -0.94591493632E+01 -0.20730669459E+02  0.19585164701E+02  0.30046877363E+02  0.00000000000E+00 0. -1.
</event>
<event>
 7    1  0.6184948E-012  0.5930195E+02  0.7816164E-02  0.1266605E+00
        -11   -1    0    0    0    0  0.00000000000E+00  0.00000000000E+00  0.45593999997E+02  0.45594000000E+02  0.51100000000E-03 0.  1.
         11   -1    0    0    0    0 -0.00000000000E+00 -0.00000000000E+00 -0.45593999997E+02  0.45594000000E+02  0.51100000000E-03 0. -1.
    9900012    2    1    2    0    0 -0.47013064821E+00  0.16426935913E+02  0.27324991120E+02  0.59301946841E+02  0.50000005131E+02 0.  0.
         12    1    1    2    0    0  0.47013064821E+00 -0.16426935913E+02 -0.27324991120E+02  0.31886053159E+02  0.00000000000E+00 0. -1.
         11    1    3    3    0    0 -0.49893866382E+01  0.80781873465E+01 -0.11763011025E+02  0.15116862057E+02  0.51100000000E-03 0. -1.
        -11    1    3    3    0    0  0.11783437612E+00 -0.57602697440E+01  0.12543017177E+02  0.13802966081E+02  0.51100000000E-03 0.  1.
        -12    1    3    3    0    0  0.44014216138E+01  0.14109018311E+02  0.26544984968E+02  0.30382118703E+02  0.00000000000E+00 0.  1.
</event>
<event>
 7    1  0.6184948E-012  0.5930193E+02  0.7816164E-02  0.1266605E+00
        -11   -1    0    0    0    0  0.00000000000E+00  0.00000000000E+00  0.45593999997E+02  0.45594000000E+02  0.51100000000E-03 0. -1.
         11   -1    0    0    0    0 -0.00000000000E+00 -0.00000000000E+00 -0.45593999997E+02  0.45594000000E+02  0.51100000000E-03 0.  1.
    9900012    2    1    2    0    0 -0.10651842259E+02  0.18104555774E+02 -0.23989264709E+02  0.59301929302E+02  0.49999973145E+02 0.  0.
         12    1    1    2    0    0  0.10651842259E+02 -0.18104555774E+02  0.23989264709E+02  0.31886070698E+02  0.00000000000E+00 0. -1.
         11    1    3    3    0    0 -0.89999297871E+00  0.25097600508E+02 -0.22297736421E+02  0.33584052590E+02  0.51100000000E-03 0. -1.
        -11    1    3    3    0    0 -0.14766924615E+02 -0.74323586019E+00 -0.67374615910E+01  0.16248318408E+02  0.51100000000E-03 0.  1.
         12    1    3    3    0    0  0.50150753350E+01 -0.62498088740E+01  0.50459333035E+01  0.94695583044E+01  0.00000000000E+00 0. -1.
</event>
<event>
 7    1  0.6184948E-012  0.5930198E+02  0.7816164E-02  0.1266605E+00
        -11   -1    0    0    0    0  0.00000000000E+00  0.00000000000E+00  0.45593999997E+02  0.45594000000E+02  0.51100000000E-03 0. -1.
         11   -1    0    0    0    0 -0.00000000000E+00 -0.00000000000E+00 -0.45593999997E+02  0.45594000000E+02  0.51100000000E-03 0.  1.
    9900012    2    1    2    0    0 -0.11809731252E+02 -0.96484046293E+01 -0.28002794946E+02  0.59301984430E+02  0.50000073685E+02 0.  0.
         12    1    1    2    0    0  0.11809731252E+02  0.96484046293E+01  0.28002794946E+02  0.31886015570E+02  0.00000000000E+00 0. -1.
         11    1    3    3    0    0  0.77263470529E+01 -0.32352148701E+01 -0.10618549417E+02  0.13524668056E+02  0.51100000000E-03 0. -1.
        -11    1    3    3    0    0 -0.36451002140E+00 -0.16406898824E+02 -0.17723692860E+02  0.24154678334E+02  0.51100000000E-03 0.  1.
        -12    1    3    3    0    0 -0.19171568284E+02  0.99937090652E+01  0.33944733068E+00  0.21622638040E+02  0.00000000000E+00 0.  1.
</event>
<event>
 7    1  0.6184948E-012  0.5930196E+02  0.7816164E-02  0.1266605E+00
        -11   -1    0    0    0    0  0.00000000000E+00  0.00000000000E+00  0.45593999997E+02  0.45594000000E+02  0.51100000000E-03 0.  1.
         11   -1    0    0    0    0 -0.00000000000E+00 -0.00000000000E+00 -0.45593999997E+02  0.45594000000E+02  0.51100000000E-03 0. -1.
    9900012    2    1    2    0    0  0.14616081727E+02 -0.20429604675E+02  0.19639776075E+02  0.59301962358E+02  0.50000033430E+02 0.  0.
         12    1    1    2    0    0 -0.14616081727E+02  0.20429604675E+02 -0.19639776075E+02  0.31886037642E+02  0.00000000000E+00 0. -1.
         11    1    3    3    0    0  0.19790042742E+02 -0.28824204968E+01  0.22852637887E+02  0.30367699918E+02  0.51100000000E-03 0. -1.
        -11    1    3    3    0    0 -0.62316094526E+01 -0.13179346334E+02  0.81592718750E+01  0.16706341429E+02  0.51100000000E-03 0.  1.
        -12    1    3    3    0    0  0.10576484376E+01 -0.43678378439E+01 -0.11372133687E+02  0.12227921011E+02  0.00000000000E+00 0.  1.
</event>
<event>
 7    1  0.6184948E-012  0.5930189E+02  0.7816164E-02  0.1266605E+00
        -11   -1    0    0    0    0  0.00000000000E+00  0.00000000000E+00  0.45593999997E+02  0.45594000000E+02  0.51100000000E-03 0. -1.
         11   -1    0    0    0    0 -0.00000000000E+00 -0.00000000000E+00 -0.45593999997E+02  0.45594000000E+02  0.51100000000E-03 0.  1.
    9900012    2    1    2    0    0 -0.27752549664E+02  0.13777890430E+02  0.75292735064E+01  0.59301886454E+02  0.49999894999E+02 0.  0.
         12    1    1    2    0    0  0.27752549664E+02 -0.13777890430E+02 -0.75292735064E+01  0.31886113546E+02  0.00000000000E+00 0. -1.
         11    1    3    3    0    0 -0.24279980006E+02  0.46927181189E+01  0.12290105493E+02  0.27614954748E+02  0.51100000000E-03 0. -1.
        -11    1    3    3    0    0 -0.13227733475E+02 -0.42191828658E+01 -0.60371924557E+01  0.15140083552E+02  0.51100000000E-03 0.  1.
         12    1    3    3    0    0  0.97551638176E+01  0.13304355177E+02  0.12763604695E+01  0.16546848154E+02  0.00000000000E+00 0. -1.
</event>
<event>
 7    1  0.6184948E-012  0.5930197E+02  0.7816164E-02  0.1266605E+00
        -11   -1    0    0    0    0  0.00000000000E+00  0.00000000000E+00  0.45593999997E+02  0.45594000000E+02  0.51100000000E-03 0.  1.
         11   -1    0    0    0    0 -0.00000000000E+00 -0.00000000000E+00 -0.45593999997E+02  0.45594000000E+02  0.51100000000E-03 0. -1.
    9900012    2    1    2    0    0 -0.43790524100E+01 -0.25630475423E+02  0.18455933344E+02  0.59301970991E+02  0.50000049174E+02 0.  0.
         12    1    1    2    0    0  0.43790524100E+01  0.25630475423E+02 -0.18455933344E+02  0.31886029009E+02  0.00000000000E+00 0. -1.
         11    1    3    3    0    0  0.43065129746E+01 -0.61242545143E+00 -0.51601194838E+01  0.67489223052E+01  0.51100000000E-03 0. -1.
        -11    1    3    3    0    0  0.72793211853E+01 -0.17879080317E+00 -0.69416940427E+01  0.10060198781E+02  0.51100000000E-03 0.  1.
        -12    1    3    3    0    0 -0.15964886570E+02 -0.24839259168E+02  0.30557746870E+02  0.42492849904E+02  0.00000000000E+00 0.  1.
</event>
<event>
 7    1  0.6184948E-012  0.5930194E+02  0.7816164E-02  0.1266605E+00
        -11   -1    0    0    0    0  0.00000000000E+00  0.00000000000E+00  0.45593999997E+02  0.45594000000E+02  0.51100000000E-03 0.  1.
         11   -1    0    0    0    0 -0.00000000000E+00 -0.00000000000E+00 -0.45593999997E+02  0.45594000000E+02  0.51100000000E-03 0. -1.
    9900012    2    1    2    0    0 -0.92296968898E+01  0.30375048040E+02  0.29815896485E+01  0.59301941527E+02  0.49999995440E+02 0.  0.
         12    1    1    2    0    0  0.92296968898E+01 -0.30375048040E+02 -0.29815896485E+01  0.31886058473E+02  0.00000000000E+00 0. -1.
         11    1    3    3    0    0  0.49397833775E+01  0.17433310929E+02 -0.23341286688E+01  0.18269371819E+02  0.51100000000E-03 0.  1.
        -11    1    3    3    0    0 -0.34394888153E+01 -0.64131665606E+01 -0.11243344799E+02  0.13392967975E+02  0.51100000000E-03 0. -1.
         12    1    3    3    0    0 -0.10729991452E+02  0.19354903672E+02  0.16559063116E+02  0.27639601734E+02  0.00000000000E+00 0. -1.
</event>
<event>
 7    1  0.6184948E-012  0.5930193E+02  0.7816164E-02  0.1266605E+00
        -11   -1    0    0    0    0  0.00000000000E+00  0.00000000000E+00  0.45593999997E+02  0.45594000000E+02  0.51100000000E-03 0.  1.
         11   -1    0    0    0    0 -0.00000000000E+00 -0.00000000000E+00 -0.45593999997E+02  0.45594000000E+02  0.51100000000E-03 0. -1.
    9900012    2    1    2    0    0  0.13659136851E+02  0.28803759366E+02 -0.70209762299E+00  0.59301929151E+02  0.49999972869E+02 0.  0.
         12    1    1    2    0    0 -0.13659136851E+02 -0.28803759366E+02  0.70209762299E+00  0.31886070849E+02  0.00000000000E+00 0. -1.
         11    1    3    3    0    0  0.86147064043E+00 -0.19289529397E+01 -0.43628949918E+01  0.48474574860E+01  0.51100000000E-03 0. -1.
        -11    1    3    3    0    0 -0.74926307677E+01 -0.75792358402E+01  0.30937314066E+01  0.11097545045E+02  0.51100000000E-03 0.  1.
        -12    1    3    3    0    0  0.20290296978E+02  0.38311948146E+02  0.56706596222E+00  0.43356926620E+02  0.00000000000E+00 0.  1.
</event>
<event>
 7    1  0.6184948E-012  0.5930192E+02  0.7816164E-02  0.1266605E+00
        -11   -1    0    0    0    0  0.00000000000E+00  0.00000000000E+00  0.45593999997E+02  0.45594000000E+02  0.51100000000E-03 0.  1.
         11   -1    0    0    0    0 -0.00000000000E+00 -0.00000000000E+00 -0.45593999997E+02  0.45594000000E+02  0.51100000000E-03 0. -1.
    9900012    2    1    2    0    0 -0.47359976806E-01 -0.13981498557E+02  0.28657241616E+02  0.59301920876E+02  0.49999957776E+02 0.  0.
         12    1    1    2    0    0  0.47359976806E-01  0.13981498557E+02 -0.28657241616E+02  0.31886079124E+02  0.00000000000E+00 0. -1.
         11    1    3    3    0    0 -0.15720123316E+01 -0.60825951630E+01 -0.78429497821E+01  0.10048932691E+02  0.51100000000E-03 0. -1.
        -11    1    3    3    0    0 -0.64790495307E+01 -0.11736389577E+02  0.19091213004E+01  0.13541257974E+02  0.51100000000E-03 0.  1.
         12    1    3    3    0    0  0.80037018855E+01  0.38374861827E+01  0.34591070098E+02  0.35711730210E+02  0.00000000000E+00 0. -1.
</event>
<event>
 7    1  0.6184948E-012  0.5930196E+02  0.7816164E-02  0.1266605E+00
        -11   -1    0    0    0    0  0.00000000000E+00  0.00000000000E+00  0.45593999997E+02  0.45594000000E+02  0.51100000000E-03 0. -1.
         11   -1    0    0    0    0 -0.00000000000E+00 -0.00000000000E+00 -0.45593999997E+02  0.45594000000E+02  0.51100000000E-03 0.  1.
    9900012    2    1    2    0    0  0.19648013190E+02 -0.24982202823E+02 -0.25621865828E+01  0.59301957908E+02  0.50000025314E+02 0.  0.
         12    1    1    2    0    0 -0.19648013190E+02  0.24982202823E+02  0.25621865828E+01  0.31886042092E+02  0.00000000000E+00 0. -1.
         11    1    3    3    0    0  0.12792544977E+02 -0.68304125494E+01  0.82360725777E+00  0.14525221918E+02  0.51100000000E-03 0. -1.
        -11    1    3    3    0    0  0.89179105631E+01  0.84303316135E+01 -0.11591225294E+02  0.16880643471E+02  0.51100000000E-03 0.  1.
         12    1    3    3    0    0 -0.20624423503E+01 -0.26582121888E+02  0.82054314536E+01  0.27896092519E+02  0.00000000000E+00 0. -1.
</event>
<event>
 7    1  0.6184948E-012  0.5930195E+02  0.7816164E-02  0.1266605E+00
        -11   -1    0    0    0    0  0.00000000000E+00  0.00000000000E+00  0.45593999997E+02  0.45594000000E+02  0.51100000000E-03 0.  1.
         11   -1    0    0    0    0 -0.00000000000E+00 -0.00000000000E+00 -0.45593999997E+02  0.45594000000E+02  0.51100000000E-03 0. -1.
    9900012    2    1    2    0    0  0.27043202274E+02 -0.14296299399E+02 -0.90000718507E+01  0.59301948832E+02  0.50000008762E+02 0.  0.
         12    1    1    2    0    0 -0.27043202274E+02  0.14296299399E+02  0.90000718507E+01  0.31886051168E+02  0.00000000000E+00 0. -1.
         11    1    3    3    0    0  0.24095858890E+02 -0.79067661887E+00  0.39500640089E+01  0.24430280209E+02  0.51100000000E-03 0. -1.
        -11    1    3    3    0    0  0.14690760026E+02 -0.13234248567E+02 -0.41735989113E+01  0.20208480730E+02  0.51100000000E-03 0.  1.
         12    1    3    3    0    0 -0.11743416642E+02 -0.27137421308E+00 -0.87765369483E+01  0.14663187893E+02  0.00000000000E+00 0. -1.
</event>
<event>
 7    1  0.6184948E-012  0.5930192E+02  0.7816164E-02  0.1266605E+00
        -11   -1    0    0    0    0  0.00000000000E+00  0.00000000000E+00  0.45593999997E+02  0.45594000000E+02  0.51100000000E-03 0.  1.
         11   -1    0    0    0    0 -0.00000000000E+00 -0.00000000000E+00 -0.45593999997E+02  0.45594000000E+02  0.51100000000E-03 0. -1.
    9900012    2    1    2    0    0  0.27634624128E+02  0.10576056204E+02 -0.11882613883E+02  0.59301922658E+02  0.49999961027E+02 0.  0.
         12    1    1    2    0    0 -0.27634624128E+02 -0.10576056204E+02  0.11882613883E+02  0.31886077342E+02  0.00000000000E+00 0. -1.
         11    1    3    3    0    0 -0.65122611926E+01  0.81741194570E+01 -0.23701028556E+01  0.10716490216E+02  0.51100000000E-03 0. -1.
        -11    1    3    3    0    0  0.22896383667E+01  0.94038315750E+01 -0.12525221267E+02  0.15828950066E+02  0.51100000000E-03 0.  1.
        -12    1    3    3    0    0  0.31857246954E+02 -0.70018948276E+01  0.30127102400E+01  0.32756482376E+02  0.00000000000E+00 0.  1.
</event>
<event>
 7    1  0.6184948E-012  0.5930205E+02  0.7816164E-02  0.1266604E+00
        -11   -1    0    0    0    0  0.00000000000E+00  0.00000000000E+00  0.45593999997E+02  0.45594000000E+02  0.51100000000E-03 0. -1.
         11   -1    0    0    0    0 -0.00000000000E+00 -0.00000000000E+00 -0.45593999997E+02  0.45594000000E+02  0.51100000000E-03 0.  1.
    9900012    2    1    2    0    0  0.25585818753E+01  0.31754249114E+02  0.13546673500E+01  0.59302050090E+02  0.50000193432E+02 0.  0.
         12    1    1    2    0    0 -0.25585818753E+01 -0.31754249114E+02 -0.13546673500E+01  0.31885949910E+02  0.00000000000E+00 0. -1.
         11    1    3    3    0    0 -0.15608670145E+01  0.18557348057E+02  0.14350541547E+02  0.23510625591E+02  0.51100000000E-03 0. -1.
        -11    1    3    3    0    0  0.11002384441E+02  0.13959228176E+02  0.33067896201E+01  0.18078920668E+02  0.51100000000E-03 0.  1.
        -12    1    3    3    0    0 -0.68829355514E+01 -0.76232711847E+00 -0.16302663817E+02  0.17712503831E+02  0.00000000000E+00 0.  1.
</event>
<event>
 7    1  0.6184948E-012  0.5930196E+02  0.7816164E-02  0.1266605E+00
        -11   -1    0    0    0    0  0.00000000000E+00  0.00000000000E+00  0.45593999997E+02  0.45594000000E+02  0.51100000000E-03 0.  1.
         11   -1    0    0    0    0 -0.00000000000E+00 -0.00000000000E+00 -0.45593999997E+02  0.45594000000E+02  0.51100000000E-03 0. -1.
    9900012    2    1    2    0    0 -0.25160349063E+01 -0.19491103770E+02  0.25109483519E+02  0.59301957279E+02  0.50000024167E+02 0.  0.
         12    1    1    2    0    0  0.25160349063E+01  0.19491103770E+02 -0.25109483519E+02  0.31886042721E+02  0.00000000000E+00 0. -1.
         11    1    3    3    0    0  0.37834178780E+01 -0.67358707093E+01 -0.65956984284E+01  0.10158220468E+02  0.51100000000E-03 0. -1.
        -11    1    3    3    0    0  0.13356499096E+02  0.93757632409E+00  0.89617708482E+01  0.16111748957E+02  0.51100000000E-03 0.  1.
        -12    1    3    3    0    0 -0.19655951880E+02 -0.13692809385E+02  0.22743411099E+02  0.33031987854E+02  0.00000000000E+00 0.  1.
</event>
<event>
 7    1  0.6184948E-012  0.5930195E+02  0.7816164E-02  0.1266605E+00
        -11   -1    0    0    0    0  0.00000000000E+00  0.00000000000E+00  0.45593999997E+02  0.45594000000E+02  0.51100000000E-03 0.  1.
         11   -1    0    0    0    0 -0.00000000000E+00 -0.00000000000E+00 -0.45593999997E+02  0.45594000000E+02  0.51100000000E-03 0. -1.
    9900012    2    1    2    0    0  0.40377371928E+01  0.65445427823E+01  0.30944883813E+02  0.59301949820E+02  0.50000010564E+02 0.  0.
         12    1    1    2    0    0 -0.40377371928E+01 -0.65445427823E+01 -0.30944883813E+02  0.31886050180E+02  0.00000000000E+00 0. -1.
         11    1    3    3    0    0 -0.14514490610E+02 -0.20722800042E-01 -0.42733209437E+01  0.15130503602E+02  0.51100000000E-03 0. -1.
        -11    1    3    3    0    0  0.17709345152E+02  0.23968133201E+01  0.14477477149E+02  0.22999194870E+02  0.51100000000E-03 0.  1.
        -12    1    3    3    0    0  0.84288265100E+00  0.41684522622E+01  0.20740727608E+02  0.21172251348E+02  0.00000000000E+00 0.  1.
</event>
<event>
 7    1  0.6184948E-012  0.5930208E+02  0.7816164E-02  0.1266604E+00
        -11   -1    0    0    0    0  0.00000000000E+00  0.00000000000E+00  0.45593999997E+02  0.45594000000E+02  0.51100000000E-03 0.  1.
         11   -1    0    0    0    0 -0.00000000000E+00 -0.00000000000E+00 -0.45593999997E+02  0.45594000000E+02  0.51100000000E-03 0. -1.
    9900012    2    1    2    0    0 -0.17628427204E+02 -0.48685289515E+00  0.26565270801E+02  0.59302077021E+02  0.50000242548E+02 0.  0.
         12    1    1    2    0    0  0.17628427204E+02  0.48685289515E+00 -0.26565270801E+02  0.31885922979E+02  0.00000000000E+00 0. -1.
         11    1    3    3    0    0 -0.16448899462E+02  0.61273018075E+01  0.46177937120E+01  0.18150320658E+02  0.51100000000E-03 0. -1.
        -11    1    3    3    0    0 -0.45095474860E+01 -0.16684493591E+02  0.57575391456E+00  0.17292768366E+02  0.51100000000E-03 0.  1.
        -12    1    3    3    0    0  0.33300197439E+01  0.10070338888E+02  0.21371723175E+02  0.23858987998E+02  0.00000000000E+00 0.  1.
</event>
<event>
 7    1  0.6184948E-012  0.5930195E+02  0.7816164E-02  0.1266605E+00
        -11   -1    0    0    0    0  0.00000000000E+00  0.00000000000E+00  0.45593999997E+02  0.45594000000E+02  0.51100000000E-03 0. -1.
         11   -1    0    0    0    0 -0.00000000000E+00 -0.00000000000E+00 -0.45593999997E+02  0.45594000000E+02  0.51100000000E-03 0.  1.
    9900012    2    1    2    0    0 -0.16046558618E+02 -0.18787480132E+02 -0.20155856442E+02  0.59301952862E+02  0.50000016111E+02 0.  0.
         12    1    1    2    0    0  0.16046558618E+02  0.18787480132E+02  0.20155856442E+02  0.31886047138E+02  0.00000000000E+00 0. -1.
         11    1    3    3    0    0 -0.94396501681E+00 -0.95172748115E+01 -0.42726424340E+01  0.10474973194E+02  0.51100000000E-03 0. -1.
        -11    1    3    3    0    0  0.14319386709E+02 -0.80112035468E+01 -0.84423534218E+01  0.18452575688E+02  0.51100000000E-03 0.  1.
         12    1    3    3    0    0 -0.29421980310E+02 -0.12590017736E+01 -0.74408605859E+01  0.30374403979E+02  0.00000000000E+00 0. -1.
</event>
<event>
 7    1  0.6184948E-012  0.5930196E+02  0.7816164E-02  0.1266605E+00
        -11   -1    0    0    0    0  0.00000000000E+00  0.00000000000E+00  0.45593999997E+02  0.45594000000E+02  0.51100000000E-03 0. -1.
         11   -1    0    0    0    0 -0.00000000000E+00 -0.00000000000E+00 -0.45593999997E+02  0.45594000000E+02  0.51100000000E-03 0.  1.
    9900012    2    1    2    0    0  0.43895114067E+01  0.90857189090E+01 -0.30247340723E+02  0.59301957296E+02  0.50000024199E+02 0.  0.
         12    1    1    2    0    0 -0.43895114067E+01 -0.90857189090E+01  0.30247340723E+02  0.31886042704E+02  0.00000000000E+00 0. -1.
         11    1    3    3    0    0 -0.79652053475E+01  0.20624512117E+02 -0.12570925671E+02  0.25433111661E+02  0.51100000000E-03 0. -1.
        -11    1    3    3    0    0 -0.66294829942E+01 -0.29963861635E+01 -0.82998228653E+01  0.11037002975E+02  0.51100000000E-03 0.  1.
         12    1    3    3    0    0  0.18984199748E+02 -0.85424070447E+01 -0.93765921870E+01  0.22831842660E+02  0.00000000000E+00 0. -1.
</event>
<event>
 7    1  0.6184948E-012  0.5930203E+02  0.7816164E-02  0.1266604E+00
        -11   -1    0    0    0    0  0.00000000000E+00  0.00000000000E+00  0.45593999997E+02  0.45594000000E+02  0.51100000000E-03 0.  1.
         11   -1    0    0    0    0 -0.00000000000E+00 -0.00000000000E+00 -0.45593999997E+02  0.45594000000E+02  0.51100000000E-03 0. -1.
    9900012    2    1    2    0    0 -0.23552232505E+02  0.63578161697E+01  0.20532551496E+02  0.59302028894E+02  0.50000154776E+02 0.  0.
         12    1    1    2    0    0  0.23552232505E+02 -0.63578161697E+01 -0.20532551496E+02  0.31885971106E+02  0.00000000000E+00 0. -1.
         11    1    3    3    0    0  0.74569696863E+00  0.16038939843E+02  0.10523773885E+02  0.19197746542E+02  0.51100000000E-03 0. -1.
        -11    1    3    3    0    0 -0.88160475974E+01  0.10276081811E+02  0.43349309838E+01  0.14216616318E+02  0.51100000000E-03 0.  1.
        -12    1    3    3    0    0 -0.15481881876E+02 -0.19957205484E+02  0.56738466267E+01  0.25887666035E+02  0.00000000000E+00 0.  1.
</event>
<event>
 7    1  0.6184948E-012  0.5930192E+02  0.7816164E-02  0.1266605E+00
        -11   -1    0    0    0    0  0.00000000000E+00  0.00000000000E+00  0.45593999997E+02  0.45594000000E+02  0.51100000000E-03 0. -1.
         11   -1    0    0    0    0 -0.00000000000E+00 -0.00000000000E+00 -0.45593999997E+02  0.45594000000E+02  0.51100000000E-03 0.  1.
    9900012    2    1    2    0    0  0.11908332315E+02 -0.80151173822E+01 -0.28472290188E+02  0.59301924768E+02  0.49999964875E+02 0.  0.
         12    1    1    2    0    0 -0.11908332315E+02  0.80151173822E+01  0.28472290188E+02  0.31886075232E+02  0.00000000000E+00 0. -1.
         11    1    3    3    0    0  0.21683116825E+02  0.54735898497E+01 -0.11217532539E+02  0.25019008326E+02  0.51100000000E-03 0. -1.
        -11    1    3    3    0    0 -0.42151246931E+01 -0.32241171169E+00 -0.19378269541E+02  0.19834025213E+02  0.51100000000E-03 0.  1.
         12    1    3    3    0    0 -0.55596598165E+01 -0.13166295520E+02  0.21235118925E+01  0.14448891229E+02  0.00000000000E+00 0. -1.
</event>
<event>
 7    1  0.6184948E-012  0.5930193E+02  0.7816164E-02  0.1266605E+00
        -11   -1    0    0    0    0  0.00000000000E+00  0.00000000000E+00  0.45593999997E+02  0.45594000000E+02  0.51100000000E-03 0.  1.
         11   -1    0    0    0    0 -0.00000000000E+00 -0.00000000000E+00 -0.45593999997E+02  0.45594000000E+02  0.51100000000E-03 0. -1.
    9900012    2    1    2    0    0 -0.28048902940E-02  0.73625554944E+01  0.31024412607E+02  0.59301930802E+02  0.49999975880E+02 0.  0.
         12    1    1    2    0    0  0.28048902940E-02 -0.73625554944E+01 -0.31024412607E+02  0.31886069198E+02  0.00000000000E+00 0. -1.
         11    1    3    3    0    0  0.87721144074E+01 -0.35953237018E+01 -0.80329517937E+01  0.12425967104E+02  0.51100000000E-03 0. -1.
        -11    1    3    3    0    0  0.63012526031E+01 -0.13479129371E+01  0.10439436888E+02  0.12268027407E+02  0.51100000000E-03 0.  1.
        -12    1    3    3    0    0 -0.15076171901E+02  0.12305792133E+02  0.28617927513E+02  0.34607936291E+02  0.00000000000E+00 0.  1.
</event>
<event>
 7    1  0.6184948E-012  0.5930195E+02  0.7816164E-02  0.1266605E+00
        -11   -1    0    0    0    0  0.00000000000E+00  0.00000000000E+00  0.45593999997E+02  0.45594000000E+02  0.51100000000E-03 0.  1.
         11   -1    0    0    0    0 -0.00000000000E+00 -0.00000000000E+00 -0.45593999997E+02  0.45594000000E+02  0.51100000000E-03 0. -1.
    9900012    2    1    2    0    0  0.46215655227E+01  0.24673127004E+02  0.19662100057E+02  0.59301949089E+02  0.50000009231E+02 0.  0.
         12    1    1    2    0    0 -0.46215655227E+01 -0.24673127004E+02 -0.19662100057E+02  0.31886050911E+02  0.00000000000E+00 0. -1.
         11    1    3    3    0    0 -0.16939309552E+01  0.15816751401E+01  0.63142014770E+01  0.67260864463E+01  0.51100000000E-03 0. -1.
        -11    1    3    3    0    0 -0.19466235259E+02  0.11215187042E+02  0.61163022249E+01  0.23283554040E+02  0.51100000000E-03 0.  1.
         12    1    3    3    0    0  0.25781731737E+02  0.11876264822E+02  0.72315963549E+01  0.29292308603E+02  0.00000000000E+00 0. -1.
</event>
<event>
 7    1  0.6184948E-012  0.5930187E+02  0.7816164E-02  0.1266605E+00
        -11   -1    0    0    0    0  0.00000000000E+00  0.00000000000E+00  0.45593999997E+02  0.45594000000E+02  0.51100000000E-03 0. -1.
         11   -1    0    0    0    0 -0.00000000000E+00 -0.00000000000E+00 -0.45593999997E+02  0.45594000000E+02  0.51100000000E-03 0.  1.
    9900012    2    1    2    0    0 -0.20027266007E+01 -0.27343740771E+02 -0.16279876722E+02  0.59301867289E+02  0.49999860047E+02 0.  0.
         12    1    1    2    0    0  0.20027266007E+01  0.27343740771E+02  0.16279876722E+02  0.31886132711E+02  0.00000000000E+00 0. -1.
         11    1    3    3    0    0 -0.15715110269E+02 -0.22748233636E+02 -0.34047529025E+01  0.27857479550E+02  0.51100000000E-03 0. -1.
        -11    1    3    3    0    0 -0.72141756689E+01 -0.17220720235E+01 -0.19772471296E+01  0.76758953294E+01  0.51100000000E-03 0.  1.
         12    1    3    3    0    0  0.20926559338E+02 -0.28734351114E+01 -0.10897876690E+02  0.23768492409E+02  0.00000000000E+00 0. -1.
</event>
<event>
 7    1  0.6184948E-012  0.5930191E+02  0.7816164E-02  0.1266605E+00
        -11   -1    0    0    0    0  0.00000000000E+00  0.00000000000E+00  0.45593999997E+02  0.45594000000E+02  0.51100000000E-03 0. -1.
         11   -1    0    0    0    0 -0.00000000000E+00 -0.00000000000E+00 -0.45593999997E+02  0.45594000000E+02  0.51100000000E-03 0.  1.
    9900012    2    1    2    0    0  0.15040896909E+02  0.78469575493E+01  0.26998503327E+02  0.59301913622E+02  0.49999944547E+02 0.  0.
         12    1    1    2    0    0 -0.15040896909E+02 -0.78469575493E+01 -0.26998503327E+02  0.31886086378E+02  0.00000000000E+00 0. -1.
         11    1    3    3    0    0 -0.99840540343E+01 -0.12604595261E+01 -0.31220555949E+01  0.10536475909E+02  0.51100000000E-03 0. -1.
        -11    1    3    3    0    0 -0.18468441563E+01  0.92310183869E+01  0.15456269038E+01  0.95399945799E+01  0.51100000000E-03 0.  1.
         12    1    3    3    0    0  0.26871795100E+02 -0.12360131161E+00  0.28574932018E+02  0.39225443133E+02  0.00000000000E+00 0. -1.
</event>
<event>
 7    1  0.6184948E-012  0.5930195E+02  0.7816164E-02  0.1266605E+00
        -11   -1    0    0    0    0  0.00000000000E+00  0.00000000000E+00  0.45593999997E+02  0.45594000000E+02  0.51100000000E-03 0. -1.
         11   -1    0    0    0    0 -0.00000000000E+00 -0.00000000000E+00 -0.45593999997E+02  0.45594000000E+02  0.51100000000E-03 0.  1.
    9900012    2    1    2    0    0 -0.33346802227E+01 -0.84287440576E+01 -0.30570510071E+02  0.59301954391E+02  0.50000018900E+02 0.  0.
         12    1    1    2    0    0  0.33346802227E+01  0.84287440576E+01  0.30570510071E+02  0.31886045609E+02  0.00000000000E+00 0. -1.
         11    1    3    3    0    0 -0.32442824855E+01  0.21365063273E+01  0.52551878160E+01  0.65350613902E+01  0.51100000000E-03 0. -1.
        -11    1    3    3    0    0 -0.14457818501E+02 -0.16784602770E+02 -0.15172904061E+02  0.26850855180E+02  0.51100000000E-03 0.  1.
        -12    1    3    3    0    0  0.14367420764E+02  0.62193523852E+01 -0.20652793826E+02  0.25916037821E+02  0.00000000000E+00 0.  1.
</event>
<event>
 7    1  0.6184948E-012  0.5930192E+02  0.7816164E-02  0.1266605E+00
        -11   -1    0    0    0    0  0.00000000000E+00  0.00000000000E+00  0.45593999997E+02  0.45594000000E+02  0.51100000000E-03 0.  1.
         11   -1    0    0    0    0 -0.00000000000E+00 -0.00000000000E+00 -0.45593999997E+02  0.45594000000E+02  0.51100000000E-03 0. -1.
    9900012    2    1    2    0    0  0.42903129807E+01 -0.25422827491E+02  0.18761526090E+02  0.59301924601E+02  0.49999964570E+02 0.  0.
         12    1    1    2    0    0 -0.42903129807E+01  0.25422827491E+02 -0.18761526090E+02  0.31886075399E+02  0.00000000000E+00 0. -1.
         11    1    3    3    0    0  0.42257413804E+01  0.63227015151E+01  0.80680362205E+01  0.11087229292E+02  0.51100000000E-03 0. -1.
        -11    1    3    3    0    0  0.10709750919E+02 -0.31756704526E+01 -0.67865235291E+01  0.13070598665E+02  0.51100000000E-03 0.  1.
        -12    1    3    3    0    0 -0.10645179319E+02 -0.28569858554E+02  0.17480013399E+02  0.35144096644E+02  0.00000000000E+00 0.  1.
</event>
<event>
 7    1  0.6184948E-012  0.5930195E+02  0.7816164E-02  0.1266605E+00
        -11   -1    0    0    0    0  0.00000000000E+00  0.00000000000E+00  0.45593999997E+02  0.45594000000E+02  0.51100000000E-03 0.  1.
         11   -1    0    0    0    0 -0.00000000000E+00 -0.00000000000E+00 -0.45593999997E+02  0.45594000000E+02  0.51100000000E-03 0. -1.
    9900012    2    1    2    0    0 -0.29806293431E+02  0.18811318993E+00  0.11325620296E+02  0.59301949919E+02  0.50000010745E+02 0.  0.
         12    1    1    2    0    0  0.29806293431E+02 -0.18811318993E+00 -0.11325620296E+02  0.31886050081E+02  0.00000000000E+00 0. -1.
         11    1    3    3    0    0 -0.71799614840E+00 -0.37111203888E+01 -0.92112959430E+01  0.99567015733E+01  0.51100000000E-03 0. -1.
        -11    1    3    3    0    0  0.24001955901E+01  0.61396794644E+01 -0.53739858968E+01  0.85050765709E+01  0.51100000000E-03 0.  1.
        -12    1    3    3    0    0 -0.31488492872E+02 -0.22404458858E+01  0.25910902136E+02  0.40840171775E+02  0.00000000000E+00 0.  1.
</event>
<event>
 7    1  0.6184948E-012  0.5930194E+02  0.7816164E-02  0.1266605E+00
        -11   -1    0    0    0    0  0.00000000000E+00  0.00000000000E+00  0.45593999997E+02  0.45594000000E+02  0.51100000000E-03 0. -1.
         11   -1    0    0    0    0 -0.00000000000E+00 -0.00000000000E+00 -0.45593999997E+02  0.45594000000E+02  0.51100000000E-03 0.  1.
    9900012    2    1    2    0    0  0.71337832645E+01  0.87381971258E+01 -0.29824049256E+02  0.59301939304E+02  0.49999991386E+02 0.  0.
         12    1    1    2    0    0 -0.71337832645E+01 -0.87381971258E+01  0.29824049256E+02  0.31886060696E+02  0.00000000000E+00 0. -1.
         11    1    3    3    0    0  0.16828611778E+02  0.10585118330E+01 -0.50635305903E+01  0.17605736678E+02  0.51100000000E-03 0. -1.
        -11    1    3    3    0    0  0.10740794547E+02  0.26956133840E+01 -0.14631860529E+02  0.18349995690E+02  0.51100000000E-03 0.  1.
         12    1    3    3    0    0 -0.20435623061E+02  0.49840719088E+01 -0.10128658136E+02  0.23346206936E+02  0.00000000000E+00 0. -1.
</event>
<event>
 7    1  0.6184948E-012  0.5930196E+02  0.7816164E-02  0.1266605E+00
        -11   -1    0    0    0    0  0.00000000000E+00  0.00000000000E+00  0.45593999997E+02  0.45594000000E+02  0.51100000000E-03 0.  1.
         11   -1    0    0    0    0 -0.00000000000E+00 -0.00000000000E+00 -0.45593999997E+02  0.45594000000E+02  0.51100000000E-03 0. -1.
    9900012    2    1    2    0    0  0.28932548749E+02 -0.51894530839E+01  0.12357045595E+02  0.59301962676E+02  0.50000034009E+02 0.  0.
         12    1    1    2    0    0 -0.28932548749E+02  0.51894530839E+01 -0.12357045595E+02  0.31886037324E+02  0.00000000000E+00 0. -1.
         11    1    3    3    0    0 -0.10640156098E+02  0.13840786312E+01  0.24399702809E+01  0.11003728944E+02  0.51100000000E-03 0. -1.
        -11    1    3    3    0    0  0.12611195539E+02  0.92765048790E+01  0.60536145568E+01  0.16785173373E+02  0.51100000000E-03 0.  1.
         12    1    3    3    0    0  0.26961509307E+02 -0.15850036594E+02  0.38634607576E+01  0.31513060359E+02  0.00000000000E+00 0. -1.
</event>
<event>
 7    1  0.6184948E-012  0.5930192E+02  0.7816164E-02  0.1266605E+00
        -11   -1    0    0    0    0  0.00000000000E+00  0.00000000000E+00  0.45593999997E+02  0.45594000000E+02  0.51100000000E-03 0.  1.
         11   -1    0    0    0    0 -0.00000000000E+00 -0.00000000000E+00 -0.45593999997E+02  0.45594000000E+02  0.51100000000E-03 0. -1.
    9900012    2    1    2    0    0  0.50846043423E+01 -0.25246955883E+02  0.18800527992E+02  0.59301924114E+02  0.49999963681E+02 0.  0.
         12    1    1    2    0    0 -0.50846043423E+01  0.25246955883E+02 -0.18800527992E+02  0.31886075886E+02  0.00000000000E+00 0. -1.
         11    1    3    3    0    0 -0.18988299137E+02 -0.15326249391E+02  0.93951176572E+01  0.26147995345E+02  0.51100000000E-03 0. -1.
        -11    1    3    3    0    0  0.67464638712E+01 -0.43498032630E+01 -0.54151074999E+01  0.96829206694E+01  0.51100000000E-03 0.  1.
        -12    1    3    3    0    0  0.17326439609E+02 -0.55709032291E+01  0.14820517834E+02  0.23471008099E+02  0.00000000000E+00 0.  1.
</event>
<event>
 7    1  0.6184948E-012  0.5930185E+02  0.7816164E-02  0.1266605E+00
        -11   -1    0    0    0    0  0.00000000000E+00  0.00000000000E+00  0.45593999997E+02  0.45594000000E+02  0.51100000000E-03 0.  1.
         11   -1    0    0    0    0 -0.00000000000E+00 -0.00000000000E+00 -0.45593999997E+02  0.45594000000E+02  0.51100000000E-03 0. -1.
    9900012    2    1    2    0    0  0.98320449145E+01 -0.21677230195E+02  0.21216864595E+02  0.59301846902E+02  0.49999822866E+02 0.  0.
         12    1    1    2    0    0 -0.98320449145E+01  0.21677230195E+02 -0.21216864595E+02  0.31886153098E+02  0.00000000000E+00 0. -1.
         11    1    3    3    0    0  0.37647093832E+01  0.28529819776E+01  0.31930678009E+01  0.57015984730E+01  0.51100000000E-03 0. -1.
        -11    1    3    3    0    0 -0.17709847616E+02 -0.46802674858E+01  0.12115941780E+01  0.18357874796E+02  0.51100000000E-03 0.  1.
         12    1    3    3    0    0  0.23777183147E+02 -0.19849944686E+02  0.16812202616E+02  0.35242373633E+02  0.00000000000E+00 0. -1.
</event>
<event>
 7    1  0.6184948E-012  0.5930195E+02  0.7816164E-02  0.1266605E+00
        -11   -1    0    0    0    0  0.00000000000E+00  0.00000000000E+00  0.45593999997E+02  0.45594000000E+02  0.51100000000E-03 0. -1.
         11   -1    0    0    0    0 -0.00000000000E+00 -0.00000000000E+00 -0.45593999997E+02  0.45594000000E+02  0.51100000000E-03 0.  1.
    9900012    2    1    2    0    0 -0.10437191137E+02 -0.29580103851E+02 -0.57273662773E+01  0.59301949333E+02  0.50000009676E+02 0.  0.
         12    1    1    2    0    0  0.10437191137E+02  0.29580103851E+02  0.57273662773E+01  0.31886050667E+02  0.00000000000E+00 0. -1.
         11    1    3    3    0    0  0.13053619874E+01  0.28461534596E+01  0.11906750882E+02  0.12311591134E+02  0.51100000000E-03 0. -1.
        -11    1    3    3    0    0 -0.40401138707E+01  0.87281540773E+00 -0.11559732397E+02  0.12276470998E+02  0.51100000000E-03 0.  1.
         12    1    3    3    0    0 -0.77024392533E+01 -0.33299072718E+02 -0.60743847621E+01  0.34713887201E+02  0.00000000000E+00 0. -1.
</event>
<event>
 7    1  0.6184948E-012  0.5930195E+02  0.7816164E-02  0.1266605E+00
        -11   -1    0    0    0    0  0.00000000000E+00  0.00000000000E+00  0.45593999997E+02  0.45594000000E+02  0.51100000000E-03 0.  1.
         11   -1    0    0    0    0 -0.00000000000E+00 -0.00000000000E+00 -0.45593999997E+02  0.45594000000E+02  0.51100000000E-03 0. -1.
    9900012    2    1    2    0    0  0.74059380392E+01 -0.29348687969E+02  0.10026292946E+02  0.59301953616E+02  0.50000017487E+02 0.  0.
         12    1    1    2    0    0 -0.74059380392E+01  0.29348687969E+02 -0.10026292946E+02  0.31886046384E+02  0.00000000000E+00 0. -1.
         11    1    3    3    0    0 -0.74229526501E+01 -0.30012138426E+02  0.14898819798E+02  0.34319142043E+02  0.51100000000E-03 0.  1.
        -11    1    3    3    0    0  0.16039700657E+02 -0.60625259861E+01 -0.11139394209E+01  0.17183337272E+02  0.51100000000E-03 0. -1.
        -12    1    3    3    0    0 -0.12108099678E+01  0.67259764432E+01 -0.37585874311E+01  0.77994743009E+01  0.00000000000E+00 0.  1.
</event>
<event>
 7    1  0.6184948E-012  0.5930190E+02  0.7816164E-02  0.1266605E+00
        -11   -1    0    0    0    0  0.00000000000E+00  0.00000000000E+00  0.45593999997E+02  0.45594000000E+02  0.51100000000E-03 0.  1.
         11   -1    0    0    0    0 -0.00000000000E+00 -0.00000000000E+00 -0.45593999997E+02  0.45594000000E+02  0.51100000000E-03 0. -1.
    9900012    2    1    2    0    0  0.25464894948E+02 -0.10455941845E+02  0.16091481174E+02  0.59301900192E+02  0.49999920055E+02 0.  0.
         12    1    1    2    0    0 -0.25464894948E+02  0.10455941845E+02 -0.16091481174E+02  0.31886099808E+02  0.00000000000E+00 0. -1.
         11    1    3    3    0    0  0.34262970261E+01 -0.55197875097E+01  0.14173714442E+02  0.15591720457E+02  0.51100000000E-03 0. -1.
        -11    1    3    3    0    0  0.26844008870E+02 -0.27777633154E+01  0.14092027530E+02  0.30445065633E+02  0.51100000000E-03 0.  1.
         12    1    3    3    0    0 -0.48054109478E+01 -0.21583910201E+01 -0.12174260798E+02  0.13265114102E+02  0.00000000000E+00 0. -1.
</event>
<event>
 7    1  0.6184948E-012  0.5930195E+02  0.7816164E-02  0.1266605E+00
        -11   -1    0    0    0    0  0.00000000000E+00  0.00000000000E+00  0.45593999997E+02  0.45594000000E+02  0.51100000000E-03 0. -1.
         11   -1    0    0    0    0 -0.00000000000E+00 -0.00000000000E+00 -0.45593999997E+02  0.45594000000E+02  0.51100000000E-03 0.  1.
    9900012    2    1    2    0    0 -0.29125918444E+02 -0.48302978937E+01 -0.12044463373E+02  0.59301952881E+02  0.50000016146E+02 0.  0.
         12    1    1    2    0    0  0.29125918444E+02  0.48302978937E+01  0.12044463373E+02  0.31886047119E+02  0.00000000000E+00 0. -1.
         11    1    3    3    0    0 -0.22821302756E+02 -0.19845276434E+01  0.75816919894E+00  0.22919970119E+02  0.51100000000E-03 0. -1.
        -11    1    3    3    0    0 -0.18647893464E+02 -0.76642588860E+01 -0.11121051349E+02  0.23025259570E+02  0.51100000000E-03 0.  1.
         12    1    3    3    0    0  0.12343277776E+02  0.48184886357E+01 -0.16815812237E+01  0.13356723191E+02  0.00000000000E+00 0. -1.
</event>
<event>
 7    1  0.6184948E-012  0.5930200E+02  0.7816164E-02  0.1266605E+00
        -11   -1    0    0    0    0  0.00000000000E+00  0.00000000000E+00  0.45593999997E+02  0.45594000000E+02  0.51100000000E-03 0. -1.
         11   -1    0    0    0    0 -0.00000000000E+00 -0.00000000000E+00 -0.45593999997E+02  0.45594000000E+02  0.51100000000E-03 0.  1.
    9900012    2    1    2    0    0  0.10440967740E+02  0.14486895165E+01 -0.30093258623E+02  0.59302004278E+02  0.50000109882E+02 0.  0.
         12    1    1    2    0    0 -0.10440967740E+02 -0.14486895165E+01  0.30093258623E+02  0.31885995722E+02  0.00000000000E+00 0. -1.
         11    1    3    3    0    0 -0.86439816002E+01  0.42222595988E+01 -0.19999296495E+02  0.22192741034E+02  0.51100000000E-03 0. -1.
        -11    1    3    3    0    0  0.68828916826E+01 -0.88129783747E+01 -0.18128914880E+02  0.21300242739E+02  0.51100000000E-03 0.  1.
        -12    1    3    3    0    0  0.12202057657E+02  0.60394082924E+01  0.80349527527E+01  0.15809020505E+02  0.00000000000E+00 0.  1.
</event>
<event>
 7    1  0.6184948E-012  0.5930193E+02  0.7816164E-02  0.1266605E+00
        -11   -1    0    0    0    0  0.00000000000E+00  0.00000000000E+00  0.45593999997E+02  0.45594000000E+02  0.51100000000E-03 0. -1.
         11   -1    0    0    0    0 -0.00000000000E+00 -0.00000000000E+00 -0.45593999997E+02  0.45594000000E+02  0.51100000000E-03 0.  1.
    9900012    2    1    2    0    0  0.19821318489E+02  0.95239363421E+01 -0.23089635233E+02  0.59301932741E+02  0.49999979415E+02 0.  0.
         12    1    1    2    0    0 -0.19821318489E+02 -0.95239363421E+01  0.23089635233E+02  0.31886067259E+02  0.00000000000E+00 0. -1.
         11    1    3    3    0    0  0.62316697199E+01  0.71483326743E+01 -0.16777557777E+02  0.19272229054E+02  0.51100000000E-03 0. -1.
        -11    1    3    3    0    0  0.22172227615E+02  0.12590525107E+02 -0.76510771511E+01  0.26620818577E+02  0.51100000000E-03 0.  1.
         12    1    3    3    0    0 -0.85825788468E+01 -0.10214921439E+02  0.13389996945E+01  0.13408885109E+02  0.00000000000E+00 0. -1.
</event>
<event>
 7    1  0.6184948E-012  0.5930195E+02  0.7816164E-02  0.1266605E+00
        -11   -1    0    0    0    0  0.00000000000E+00  0.00000000000E+00  0.45593999997E+02  0.45594000000E+02  0.51100000000E-03 0.  1.
         11   -1    0    0    0    0 -0.00000000000E+00 -0.00000000000E+00 -0.45593999997E+02  0.45594000000E+02  0.51100000000E-03 0. -1.
    9900012    2    1    2    0    0  0.15592677424E+02  0.22640757050E+02  0.16155018967E+02  0.59301951219E+02  0.50000013115E+02 0.  0.
         12    1    1    2    0    0 -0.15592677424E+02 -0.22640757050E+02 -0.16155018967E+02  0.31886048781E+02  0.00000000000E+00 0. -1.
         11    1    3    3    0    0  0.31861587073E+01 -0.74846776544E+01  0.94205090836E+01  0.12446605905E+02  0.51100000000E-03 0. -1.
        -11    1    3    3    0    0  0.14980897787E+02  0.14122683231E+02  0.17811256398E+02  0.27223488661E+02  0.51100000000E-03 0.  1.
         12    1    3    3    0    0 -0.25743790705E+01  0.16002751473E+02 -0.11076746514E+02  0.19631856653E+02  0.00000000000E+00 0. -1.
</event>
<event>
 7    1  0.6184948E-012  0.5930198E+02  0.7816164E-02  0.1266605E+00
        -11   -1    0    0    0    0  0.00000000000E+00  0.00000000000E+00  0.45593999997E+02  0.45594000000E+02  0.51100000000E-03 0.  1.
         11   -1    0    0    0    0 -0.00000000000E+00 -0.00000000000E+00 -0.45593999997E+02  0.45594000000E+02  0.51100000000E-03 0. -1.
    9900012    2    1    2    0    0 -0.82518203678E+01 -0.30797335066E+02 -0.38712103721E+00  0.59301980348E+02  0.50000066240E+02 0.  0.
         12    1    1    2    0    0  0.82518203678E+01  0.30797335066E+02  0.38712103721E+00  0.31886019652E+02  0.00000000000E+00 0. -1.
         11    1    3    3    0    0 -0.21897068754E+01 -0.11074622109E+02 -0.10505159797E+02  0.15420779931E+02  0.51100000000E-03 0. -1.
        -11    1    3    3    0    0 -0.10491308374E+02  0.33766272972E+01 -0.84721672806E+01  0.13901323031E+02  0.51100000000E-03 0.  1.
        -12    1    3    3    0    0  0.44291948821E+01 -0.23099340254E+02  0.18590206041E+02  0.29979877387E+02  0.00000000000E+00 0.  1.
</event>
<event>
 7    1  0.6184948E-012  0.5930195E+02  0.7816164E-02  0.1266605E+00
        -11   -1    0    0    0    0  0.00000000000E+00  0.00000000000E+00  0.45593999997E+02  0.45594000000E+02  0.51100000000E-03 0.  1.
         11   -1    0    0    0    0 -0.00000000000E+00 -0.00000000000E+00 -0.45593999997E+02  0.45594000000E+02  0.51100000000E-03 0. -1.
    9900012    2    1    2    0    0  0.14628851900E+02  0.27357891903E+02  0.73663159893E+01  0.59301950252E+02  0.50000011351E+02 0.  0.
         12    1    1    2    0    0 -0.14628851900E+02 -0.27357891903E+02 -0.73663159893E+01  0.31886049748E+02  0.00000000000E+00 0. -1.
         11    1    3    3    0    0  0.13018713369E+02  0.28294233325E+02 -0.50930749179E+01  0.31559308446E+02  0.51100000000E-03 0. -1.
        -11    1    3    3    0    0  0.55492638743E+01 -0.65173392556E+01 -0.43474844237E+01  0.96005552754E+01  0.51100000000E-03 0.  1.
        -12    1    3    3    0    0 -0.39391253425E+01  0.55809978335E+01  0.16806875331E+02  0.18142086530E+02  0.00000000000E+00 0.  1.
</event>
<event>
 7    1  0.6184948E-012  0.5930194E+02  0.7816164E-02  0.1266605E+00
        -11   -1    0    0    0    0  0.00000000000E+00  0.00000000000E+00  0.45593999997E+02  0.45594000000E+02  0.51100000000E-03 0.  1.
         11   -1    0    0    0    0 -0.00000000000E+00 -0.00000000000E+00 -0.45593999997E+02  0.45594000000E+02  0.51100000000E-03 0. -1.
    9900012    2    1    2    0    0 -0.12667882666E+02  0.21728622517E+01  0.29180893084E+02  0.59301935602E+02  0.49999984633E+02 0.  0.
         12    1    1    2    0    0  0.12667882666E+02 -0.21728622517E+01 -0.29180893084E+02  0.31886064398E+02  0.00000000000E+00 0. -1.
         11    1    3    3    0    0 -0.84532036855E+00 -0.94542458361E+01 -0.80676884703E+01  0.12457324286E+02  0.51100000000E-03 0. -1.
        -11    1    3    3    0    0 -0.78693520249E+01 -0.40579242496E+01  0.36921183645E+01  0.95929760130E+01  0.51100000000E-03 0.  1.
        -12    1    3    3    0    0 -0.39532102728E+01  0.15685032337E+02  0.33556463190E+02  0.37251635303E+02  0.00000000000E+00 0.  1.
</event>
<event>
 7    1  0.6184948E-012  0.5930194E+02  0.7816164E-02  0.1266605E+00
        -11   -1    0    0    0    0  0.00000000000E+00  0.00000000000E+00  0.45593999997E+02  0.45594000000E+02  0.51100000000E-03 0.  1.
         11   -1    0    0    0    0 -0.00000000000E+00 -0.00000000000E+00 -0.45593999997E+02  0.45594000000E+02  0.51100000000E-03 0. -1.
    9900012    2    1    2    0    0 -0.12932140105E+01  0.31645235515E+02 -0.36915493215E+01  0.59301939258E+02  0.49999991301E+02 0.  0.
         12    1    1    2    0    0  0.12932140105E+01 -0.31645235515E+02  0.36915493215E+01  0.31886060742E+02  0.00000000000E+00 0. -1.
         11    1    3    3    0    0  0.82309356986E+01 -0.24472393589E+01  0.93841504180E+01  0.12720045687E+02  0.51100000000E-03 0.  1.
        -11    1    3    3    0    0  0.45525168436E+01  0.62969495876E+01 -0.13323934093E+02  0.15424143532E+02  0.51100000000E-03 0. -1.
        -12    1    3    3    0    0 -0.14076666553E+02  0.27795525286E+02  0.24823435366E+00  0.31157750038E+02  0.00000000000E+00 0.  1.
</event>
<event>
 7    1  0.6184948E-012  0.5930195E+02  0.7816164E-02  0.1266605E+00
        -11   -1    0    0    0    0  0.00000000000E+00  0.00000000000E+00  0.45593999997E+02  0.45594000000E+02  0.51100000000E-03 0.  1.
         11   -1    0    0    0    0 -0.00000000000E+00 -0.00000000000E+00 -0.45593999997E+02  0.45594000000E+02  0.51100000000E-03 0. -1.
    9900012    2    1    2    0    0  0.95545507816E+01 -0.19002575270E+02  0.23755693157E+02  0.59301948741E+02  0.50000008596E+02 0.  0.
         12    1    1    2    0    0 -0.95545507816E+01  0.19002575270E+02 -0.23755693157E+02  0.31886051259E+02  0.00000000000E+00 0. -1.
         11    1    3    3    0    0  0.66756316646E+01 -0.21768358166E+02  0.12033790205E+02  0.25753399432E+02  0.51100000000E-03 0.  1.
        -11    1    3    3    0    0 -0.45301562192E+01 -0.64547653697E+01  0.18362015716E+02  0.19983741711E+02  0.51100000000E-03 0. -1.
         12    1    3    3    0    0  0.74090753363E+01  0.92205482652E+01 -0.66401127644E+01  0.13564807598E+02  0.00000000000E+00 0. -1.
</event>
<event>
 7    1  0.6184948E-012  0.5930194E+02  0.7816164E-02  0.1266605E+00
        -11   -1    0    0    0    0  0.00000000000E+00  0.00000000000E+00  0.45593999997E+02  0.45594000000E+02  0.51100000000E-03 0. -1.
         11   -1    0    0    0    0 -0.00000000000E+00 -0.00000000000E+00 -0.45593999997E+02  0.45594000000E+02  0.51100000000E-03 0.  1.
    9900012    2    1    2    0    0  0.93859195436E+01  0.42419614719E+01 -0.30176669337E+02  0.59301935723E+02  0.49999984853E+02 0.  0.
         12    1    1    2    0    0 -0.93859195436E+01 -0.42419614719E+01  0.30176669337E+02  0.31886064277E+02  0.00000000000E+00 0. -1.
         11    1    3    3    0    0  0.16924784004E+02 -0.49734563124E+01 -0.24697343636E+02  0.30350327250E+02  0.51100000000E-03 0. -1.
        -11    1    3    3    0    0 -0.10670931810E+02  0.31767942710E+01 -0.14102801937E+02  0.17968022436E+02  0.51100000000E-03 0.  1.
         12    1    3    3    0    0  0.31320673496E+01  0.60386235133E+01  0.86234762360E+01  0.10983586036E+02  0.00000000000E+00 0. -1.
</event>
<event>
 7    1  0.6184948E-012  0.5930195E+02  0.7816164E-02  0.1266605E+00
        -11   -1    0    0    0    0  0.00000000000E+00  0.00000000000E+00  0.45593999997E+02  0.45594000000E+02  0.51100000000E-03 0.  1.
         11   -1    0    0    0    0 -0.00000000000E+00 -0.00000000000E+00 -0.45593999997E+02  0.45594000000E+02  0.51100000000E-03 0. -1.
    9900012    2    1    2    0    0 -0.99101739380E+01 -0.65673310656E+01  0.29586798239E+02  0.59301952662E+02  0.50000015747E+02 0.  0.
         12    1    1    2    0    0  0.99101739380E+01  0.65673310656E+01 -0.29586798239E+02  0.31886047338E+02  0.00000000000E+00 0. -1.
         11    1    3    3    0    0 -0.82531625804E+01  0.28656629317E+00 -0.45380025692E+01  0.94228594597E+01  0.51100000000E-03 0. -1.
        -11    1    3    3    0    0  0.11878773298E+02  0.93624424268E+01  0.12174434635E+02  0.19415906937E+02  0.51100000000E-03 0.  1.
        -12    1    3    3    0    0 -0.13535784655E+02 -0.16216339786E+02  0.21950366173E+02  0.30463186265E+02  0.00000000000E+00 0.  1.
</event>
<event>
 7    1  0.6184948E-012  0.5930191E+02  0.7816164E-02  0.1266605E+00
        -11   -1    0    0    0    0  0.00000000000E+00  0.00000000000E+00  0.45593999997E+02  0.45594000000E+02  0.51100000000E-03 0. -1.
         11   -1    0    0    0    0 -0.00000000000E+00 -0.00000000000E+00 -0.45593999997E+02  0.45594000000E+02  0.51100000000E-03 0.  1.
    9900012    2    1    2    0    0  0.17534371345E+02  0.87274436945E+01 -0.25161487363E+02  0.59301907448E+02  0.49999933288E+02 0.  0.
         12    1    1    2    0    0 -0.17534371345E+02 -0.87274436945E+01  0.25161487363E+02  0.31886092552E+02  0.00000000000E+00 0. -1.
         11    1    3    3    0    0  0.14000922669E+02 -0.17476652497E+02 -0.77301590839E+01  0.23689967873E+02  0.51100000000E-03 0.  1.
        -11    1    3    3    0    0 -0.29970905083E+01  0.14041380430E+02 -0.13547209462E+01  0.14421448783E+02  0.51100000000E-03 0. -1.
        -12    1    3    3    0    0  0.65305391842E+01  0.12162715761E+02 -0.16076607332E+02  0.21190490793E+02  0.00000000000E+00 0.  1.
</event>
<event>
 7    1  0.6184948E-012  0.5930191E+02  0.7816164E-02  0.1266605E+00
        -11   -1    0    0    0    0  0.00000000000E+00  0.00000000000E+00  0.45593999997E+02  0.45594000000E+02  0.51100000000E-03 0. -1.
         11   -1    0    0    0    0 -0.00000000000E+00 -0.00000000000E+00 -0.45593999997E+02  0.45594000000E+02  0.51100000000E-03 0.  1.
    9900012    2    1    2    0    0 -0.12348268507E+02  0.29392591937E+02  0.56412323417E+00  0.59301914776E+02  0.49999946652E+02 0.  0.
         12    1    1    2    0    0  0.12348268507E+02 -0.29392591937E+02 -0.56412323417E+00  0.31886085224E+02  0.00000000000E+00 0. -1.
         11    1    3    3    0    0 -0.30904068504E+01  0.35075474864E+02 -0.21905020913E+01  0.35279425323E+02  0.51100000000E-03 0. -1.
        -11    1    3    3    0    0 -0.82399067710E+01  0.55198292513E+00  0.10924686333E+02  0.13694872050E+02  0.51100000000E-03 0.  1.
         12    1    3    3    0    0 -0.10179548861E+01 -0.62348658529E+01 -0.81700610071E+01  0.10327617403E+02  0.00000000000E+00 0. -1.
</event>
<event>
 7    1  0.6184948E-012  0.5930192E+02  0.7816164E-02  0.1266605E+00
        -11   -1    0    0    0    0  0.00000000000E+00  0.00000000000E+00  0.45593999997E+02  0.45594000000E+02  0.51100000000E-03 0.  1.
         11   -1    0    0    0    0 -0.00000000000E+00 -0.00000000000E+00 -0.45593999997E+02  0.45594000000E+02  0.51100000000E-03 0. -1.
    9900012    2    1    2    0    0  0.41198590171E+01  0.28169621083E+02  0.14360399576E+02  0.59301923630E+02  0.49999962800E+02 0.  0.
         12    1    1    2    0    0 -0.41198590171E+01 -0.28169621083E+02 -0.14360399576E+02  0.31886076370E+02  0.00000000000E+00 0. -1.
         11    1    3    3    0    0  0.10311846601E+02  0.64170438555E+01 -0.12137108401E+02  0.17170382429E+02  0.51100000000E-03 0. -1.
        -11    1    3    3    0    0 -0.94715408097E+01  0.12822277638E+02  0.22685372991E+01  0.16101774774E+02  0.51100000000E-03 0.  1.
        -12    1    3    3    0    0  0.32795532258E+01  0.89302995895E+01  0.24228970679E+02  0.26029766427E+02  0.00000000000E+00 0.  1.
</event>
<event>
 7    1  0.6184948E-012  0.5930198E+02  0.7816164E-02  0.1266605E+00
        -11   -1    0    0    0    0  0.00000000000E+00  0.00000000000E+00  0.45593999997E+02  0.45594000000E+02  0.51100000000E-03 0.  1.
         11   -1    0    0    0    0 -0.00000000000E+00 -0.00000000000E+00 -0.45593999997E+02  0.45594000000E+02  0.51100000000E-03 0. -1.
    9900012    2    1    2    0    0 -0.17237054116E+02 -0.26466084236E+02 -0.43759065997E+01  0.59301980996E+02  0.50000067421E+02 0.  0.
         12    1    1    2    0    0  0.17237054116E+02  0.26466084236E+02  0.43759065997E+01  0.31886019004E+02  0.00000000000E+00 0. -1.
         11    1    3    3    0    0  0.53466572563E+01 -0.22022654610E+02  0.22815284847E+01  0.22776949584E+02  0.51100000000E-03 0. -1.
        -11    1    3    3    0    0 -0.18265142325E+02 -0.14253634445E+02  0.12545799739E+01  0.23202488880E+02  0.51100000000E-03 0.  1.
        -12    1    3    3    0    0 -0.43185690476E+01  0.98102048197E+01 -0.79120150583E+01  0.13322542532E+02  0.00000000000E+00 0.  1.
</event>
<event>
 7    1  0.6184948E-012  0.5930194E+02  0.7816164E-02  0.1266605E+00
        -11   -1    0    0    0    0  0.00000000000E+00  0.00000000000E+00  0.45593999997E+02  0.45594000000E+02  0.51100000000E-03 0.  1.
         11   -1    0    0    0    0 -0.00000000000E+00 -0.00000000000E+00 -0.45593999997E+02  0.45594000000E+02  0.51100000000E-03 0. -1.
    9900012    2    1    2    0    0 -0.14450602602E+02  0.11221766998E+02 -0.26114609328E+02  0.59301940500E+02  0.49999993566E+02 0.  0.
         12    1    1    2    0    0  0.14450602602E+02 -0.11221766998E+02  0.26114609328E+02  0.31886059500E+02  0.00000000000E+00 0. -1.
         11    1    3    3    0    0 -0.92686347128E+01 -0.51230610187E+01 -0.15066902643E+02  0.18416430141E+02  0.51100000000E-03 0. -1.
        -11    1    3    3    0    0 -0.12965793601E+02  0.20996868198E+02  0.22612630294E+01  0.24780911779E+02  0.51100000000E-03 0.  1.
         12    1    3    3    0    0  0.77838257121E+01 -0.46520401818E+01 -0.13308969714E+02  0.16104598580E+02  0.00000000000E+00 0. -1.
</event>
<event>
 7    1  0.6184948E-012  0.5930187E+02  0.7816164E-02  0.1266605E+00
        -11   -1    0    0    0    0  0.00000000000E+00  0.00000000000E+00  0.45593999997E+02  0.45594000000E+02  0.51100000000E-03 0.  1.
         11   -1    0    0    0    0 -0.00000000000E+00 -0.00000000000E+00 -0.45593999997E+02  0.45594000000E+02  0.51100000000E-03 0. -1.
    9900012    2    1    2    0    0  0.21182162722E+02  0.13855541716E+02  0.19392407693E+02  0.59301866180E+02  0.49999858025E+02 0.  0.
         12    1    1    2    0    0 -0.21182162722E+02 -0.13855541716E+02 -0.19392407693E+02  0.31886133820E+02  0.00000000000E+00 0. -1.
         11    1    3    3    0    0 -0.13417611433E+01 -0.19155675980E+01 -0.92870411347E+01  0.95769961620E+01  0.51100000000E-03 0. -1.
        -11    1    3    3    0    0  0.34351476422E+01  0.20745705985E+01 -0.63705530680E+01  0.75291453131E+01  0.51100000000E-03 0.  1.
        -12    1    3    3    0    0  0.19088776223E+02  0.13696538716E+02  0.35050001896E+02  0.42195724705E+02  0.00000000000E+00 0.  1.
</event>
<event>
 7    1  0.6184948E-012  0.5930195E+02  0.7816164E-02  0.1266605E+00
        -11   -1    0    0    0    0  0.00000000000E+00  0.00000000000E+00  0.45593999997E+02  0.45594000000E+02  0.51100000000E-03 0.  1.
         11   -1    0    0    0    0 -0.00000000000E+00 -0.00000000000E+00 -0.45593999997E+02  0.45594000000E+02  0.51100000000E-03 0. -1.
    9900012    2    1    2    0    0  0.21992567174E+02 -0.15600335101E+02  0.17019884869E+02  0.59301953724E+02  0.50000017683E+02 0.  0.
         12    1    1    2    0    0 -0.21992567174E+02  0.15600335101E+02 -0.17019884869E+02  0.31886046276E+02  0.00000000000E+00 0. -1.
         11    1    3    3    0    0  0.88638219254E+01 -0.32174427676E+01  0.12748115913E+02  0.15856662217E+02  0.51100000000E-03 0.  1.
        -11    1    3    3    0    0  0.26442209610E+02 -0.24801779256E+01  0.39440058526E+01  0.26849523534E+02  0.51100000000E-03 0. -1.
         12    1    3    3    0    0 -0.13313464361E+02 -0.99027144073E+01  0.32776310398E+00  0.16595767972E+02  0.00000000000E+00 0. -1.
</event>
<event>
 7    1  0.6184948E-012  0.5930198E+02  0.7816164E-02  0.1266605E+00
        -11   -1    0    0    0    0  0.00000000000E+00  0.00000000000E+00  0.45593999997E+02  0.45594000000E+02  0.51100000000E-03 0.  1.
         11   -1    0    0    0    0 -0.00000000000E+00 -0.00000000000E+00 -0.45593999997E+02  0.45594000000E+02  0.51100000000E-03 0. -1.
    9900012    2    1    2    0    0 -0.22719940797E+02 -0.14714939544E+02  0.16852103240E+02  0.59301975801E+02  0.50000057946E+02 0.  0.
         12    1    1    2    0    0  0.22719940797E+02  0.14714939544E+02 -0.16852103240E+02  0.31886024199E+02  0.00000000000E+00 0. -1.
         11    1    3    3    0    0  0.75994522385E+01 -0.59045616956E+01 -0.26985542261E-01  0.96237337673E+01  0.51100000000E-03 0. -1.
        -11    1    3    3    0    0 -0.76610648714E+01 -0.19913547750E+02  0.57304749607E+01  0.22092524584E+02  0.51100000000E-03 0.  1.
        -12    1    3    3    0    0 -0.22658328164E+02  0.11103169901E+02  0.11148613822E+02  0.27585717450E+02  0.00000000000E+00 0.  1.
</event>
<event>
 7    1  0.6184948E-012  0.5930188E+02  0.7816164E-02  0.1266605E+00
        -11   -1    0    0    0    0  0.00000000000E+00  0.00000000000E+00  0.45593999997E+02  0.45594000000E+02  0.51100000000E-03 0. -1.
         11   -1    0    0    0    0 -0.00000000000E+00 -0.00000000000E+00 -0.45593999997E+02  0.45594000000E+02  0.51100000000E-03 0.  1.
    9900012    2    1    2    0    0  0.36418102246E+01 -0.19499152536E+02 -0.24964868601E+02  0.59301883968E+02  0.49999890465E+02 0.  0.
         12    1    1    2    0    0 -0.36418102246E+01  0.19499152536E+02  0.24964868601E+02  0.31886116032E+02  0.00000000000E+00 0. -1.
         11    1    3    3    0    0  0.99535277884E+01 -0.87111919433E+01 -0.20502376775E+01  0.13385105726E+02  0.51100000000E-03 0. -1.
        -11    1    3    3    0    0  0.13758402698E+02  0.43842207541E+01 -0.10547478755E+02  0.17881955843E+02  0.51100000000E-03 0.  1.
        -12    1    3    3    0    0 -0.20070120262E+02 -0.15172181347E+02 -0.12367152169E+02  0.28034822398E+02  0.00000000000E+00 0.  1.
</event>
<event>
 7    1  0.6184948E-012  0.5930194E+02  0.7816164E-02  0.1266605E+00
        -11   -1    0    0    0    0  0.00000000000E+00  0.00000000000E+00  0.45593999997E+02  0.45594000000E+02  0.51100000000E-03 0. -1.
         11   -1    0    0    0    0 -0.00000000000E+00 -0.00000000000E+00 -0.45593999997E+02  0.45594000000E+02  0.51100000000E-03 0.  1.
    9900012    2    1    2    0    0 -0.28990861653E+02  0.23525224642E+01 -0.13065852314E+02  0.59301938499E+02  0.49999989917E+02 0.  0.
         12    1    1    2    0    0  0.28990861653E+02 -0.23525224642E+01  0.13065852314E+02  0.31886061501E+02  0.00000000000E+00 0. -1.
         11    1    3    3    0    0 -0.26210172972E+02 -0.11125075534E+02 -0.10889390368E+02  0.30484738734E+02  0.51100000000E-03 0. -1.
        -11    1    3    3    0    0 -0.13502845696E+02  0.33291359851E+01 -0.20193438858E+01  0.14053033064E+02  0.51100000000E-03 0.  1.
         12    1    3    3    0    0  0.10722157015E+02  0.10148462013E+02 -0.15711806029E+00  0.14764166701E+02  0.00000000000E+00 0. -1.
</event>
<event>
 7    1  0.6184948E-012  0.5930194E+02  0.7816164E-02  0.1266605E+00
        -11   -1    0    0    0    0  0.00000000000E+00  0.00000000000E+00  0.45593999997E+02  0.45594000000E+02  0.51100000000E-03 0.  1.
         11   -1    0    0    0    0 -0.00000000000E+00 -0.00000000000E+00 -0.45593999997E+02  0.45594000000E+02  0.51100000000E-03 0. -1.
    9900012    2    1    2    0    0  0.13720036141E+02  0.28733405206E+02 -0.16949076210E+01  0.59301942259E+02  0.49999996774E+02 0.  0.
         12    1    1    2    0    0 -0.13720036141E+02 -0.28733405206E+02  0.16949076210E+01  0.31886057741E+02  0.00000000000E+00 0. -1.
         11    1    3    3    0    0 -0.35826725652E+01 -0.51295898470E+01  0.10618795574E+01  0.63463235943E+01  0.51100000000E-03 0. -1.
        -11    1    3    3    0    0  0.14196133081E+02  0.84228526454E+01  0.14571495993E+02  0.22018245545E+02  0.51100000000E-03 0.  1.
         12    1    3    3    0    0  0.31065756258E+01  0.25440142407E+02 -0.17328283172E+02  0.30937373119E+02  0.00000000000E+00 0. -1.
</event>
<event>
 7    1  0.6184948E-012  0.5930192E+02  0.7816164E-02  0.1266605E+00
        -11   -1    0    0    0    0  0.00000000000E+00  0.00000000000E+00  0.45593999997E+02  0.45594000000E+02  0.51100000000E-03 0. -1.
         11   -1    0    0    0    0 -0.00000000000E+00 -0.00000000000E+00 -0.45593999997E+02  0.45594000000E+02  0.51100000000E-03 0.  1.
    9900012    2    1    2    0    0 -0.78830293519E+01  0.16006877694E+02 -0.26426493856E+02  0.59301923684E+02  0.49999962898E+02 0.  0.
         12    1    1    2    0    0  0.78830293519E+01 -0.16006877694E+02  0.26426493856E+02  0.31886076316E+02  0.00000000000E+00 0. -1.
         11    1    3    3    0    0 -0.14077730523E+02  0.14100976645E+02 -0.89908772516E+01  0.21859915669E+02  0.51100000000E-03 0. -1.
        -11    1    3    3    0    0 -0.89535260317E+01 -0.26778424944E+01 -0.19361288093E+02  0.21498742887E+02  0.51100000000E-03 0.  1.
        -12    1    3    3    0    0  0.15148227203E+02  0.45837435437E+01  0.19256714887E+01  0.15943265128E+02  0.00000000000E+00 0.  1.
</event>
<event>
 7    1  0.6184948E-012  0.5930192E+02  0.7816164E-02  0.1266605E+00
        -11   -1    0    0    0    0  0.00000000000E+00  0.00000000000E+00  0.45593999997E+02  0.45594000000E+02  0.51100000000E-03 0.  1.
         11   -1    0    0    0    0 -0.00000000000E+00 -0.00000000000E+00 -0.45593999997E+02  0.45594000000E+02  0.51100000000E-03 0. -1.
    9900012    2    1    2    0    0  0.10502954259E+02  0.55608611893E+01  0.29588622185E+02  0.59301924855E+02  0.49999965034E+02 0.  0.
         12    1    1    2    0    0 -0.10502954259E+02 -0.55608611893E+01 -0.29588622185E+02  0.31886075145E+02  0.00000000000E+00 0. -1.
         11    1    3    3    0    0  0.78359481605E+01  0.15405924385E+02  0.19144293736E+02  0.25792413083E+02  0.51100000000E-03 0. -1.
        -11    1    3    3    0    0 -0.65105846933E+01  0.77276446744E+01 -0.17201719980E+01  0.10250034011E+02  0.51100000000E-03 0.  1.
        -12    1    3    3    0    0  0.91775907914E+01 -0.17572707870E+02  0.12164500447E+02  0.23259477762E+02  0.00000000000E+00 0.  1.
</event>
<event>
 7    1  0.6184948E-012  0.5930193E+02  0.7816164E-02  0.1266605E+00
        -11   -1    0    0    0    0  0.00000000000E+00  0.00000000000E+00  0.45593999997E+02  0.45594000000E+02  0.51100000000E-03 0. -1.
         11   -1    0    0    0    0 -0.00000000000E+00 -0.00000000000E+00 -0.45593999997E+02  0.45594000000E+02  0.51100000000E-03 0.  1.
    9900012    2    1    2    0    0  0.24003589473E+02 -0.13571669906E+02 -0.16011209367E+02  0.59301931616E+02  0.49999977364E+02 0.  0.
         12    1    1    2    0    0 -0.24003589473E+02  0.13571669906E+02  0.16011209367E+02  0.31886068384E+02  0.00000000000E+00 0. -1.
         11    1    3    3    0    0  0.70710749356E+01  0.62854192340E+01 -0.66022473399E+01  0.11536735495E+02  0.51100000000E-03 0. -1.
        -11    1    3    3    0    0  0.18258280750E+02  0.59644035750E+01  0.23692306548E+01  0.19353350617E+02  0.51100000000E-03 0.  1.
         12    1    3    3    0    0 -0.13257662125E+01 -0.25821492715E+02 -0.11778192682E+02  0.28411845504E+02  0.00000000000E+00 0. -1.
</event>
<event>
 7    1  0.6184948E-012  0.5930195E+02  0.7816164E-02  0.1266605E+00
        -11   -1    0    0    0    0  0.00000000000E+00  0.00000000000E+00  0.45593999997E+02  0.45594000000E+02  0.51100000000E-03 0.  1.
         11   -1    0    0    0    0 -0.00000000000E+00 -0.00000000000E+00 -0.45593999997E+02  0.45594000000E+02  0.51100000000E-03 0. -1.
    9900012    2    1    2    0    0 -0.14933260406E+01  0.31623310962E+02 -0.38021673145E+01  0.59301948266E+02  0.50000007730E+02 0.  0.
         12    1    1    2    0    0  0.14933260406E+01 -0.31623310962E+02  0.38021673145E+01  0.31886051734E+02  0.00000000000E+00 0. -1.
         11    1    3    3    0    0 -0.14753426370E+02  0.73677696099E+01 -0.86733574478E+01  0.18632625911E+02  0.51100000000E-03 0. -1.
        -11    1    3    3    0    0 -0.67340219557E+01  0.16855472798E+02 -0.20217189607E+01  0.18263114815E+02  0.51100000000E-03 0.  1.
        -12    1    3    3    0    0  0.19994122285E+02  0.74000685544E+01  0.68929090940E+01  0.22406207540E+02  0.00000000000E+00 0.  1.
</event>
<event>
 7    1  0.6184948E-012  0.5930197E+02  0.7816164E-02  0.1266605E+00
        -11   -1    0    0    0    0  0.00000000000E+00  0.00000000000E+00  0.45593999997E+02  0.45594000000E+02  0.51100000000E-03 0.  1.
         11   -1    0    0    0    0 -0.00000000000E+00 -0.00000000000E+00 -0.45593999997E+02  0.45594000000E+02  0.51100000000E-03 0. -1.
    9900012    2    1    2    0    0 -0.16552059794E+02 -0.50923930395E+01  0.26773419919E+02  0.59301965997E+02  0.50000040067E+02 0.  0.
         12    1    1    2    0    0  0.16552059794E+02  0.50923930395E+01 -0.26773419919E+02  0.31886034003E+02  0.00000000000E+00 0. -1.
         11    1    3    3    0    0  0.10736458281E+02  0.31468003673E+01 -0.51251314991E+00  0.11199846381E+02  0.51100000000E-03 0. -1.
        -11    1    3    3    0    0 -0.19154168045E+02  0.64820981928E+01  0.23234944892E+02  0.30801987190E+02  0.51100000000E-03 0.  1.
        -12    1    3    3    0    0 -0.81343500294E+01 -0.14721291600E+02  0.40509881769E+01  0.17300132426E+02  0.00000000000E+00 0.  1.
</event>
<event>
 7    1  0.6184948E-012  0.5930192E+02  0.7816164E-02  0.1266605E+00
        -11   -1    0    0    0    0  0.00000000000E+00  0.00000000000E+00  0.45593999997E+02  0.45594000000E+02  0.51100000000E-03 0.  1.
         11   -1    0    0    0    0 -0.00000000000E+00 -0.00000000000E+00 -0.45593999997E+02  0.45594000000E+02  0.51100000000E-03 0. -1.
    9900012    2    1    2    0    0  0.29071602892E+02  0.54554981937E+01  0.11908042095E+02  0.59301921192E+02  0.49999958353E+02 0.  0.
         12    1    1    2    0    0 -0.29071602892E+02 -0.54554981937E+01 -0.11908042095E+02  0.31886078808E+02  0.00000000000E+00 0. -1.
         11    1    3    3    0    0  0.26308271651E+02  0.20421428030E+02  0.54832622263E+01  0.33752422801E+02  0.51100000000E-03 0.  1.
        -11    1    3    3    0    0 -0.64596988856E+01 -0.62820527063E+00 -0.16340028502E+01  0.66927062636E+01  0.51100000000E-03 0. -1.
        -12    1    3    3    0    0  0.92230301263E+01 -0.14337724565E+02  0.80587827190E+01  0.18856792127E+02  0.00000000000E+00 0.  1.
</event>
<event>
 7    1  0.6184948E-012  0.5930191E+02  0.7816164E-02  0.1266605E+00
        -11   -1    0    0    0    0  0.00000000000E+00  0.00000000000E+00  0.45593999997E+02  0.45594000000E+02  0.51100000000E-03 0.  1.
         11   -1    0    0    0    0 -0.00000000000E+00 -0.00000000000E+00 -0.45593999997E+02  0.45594000000E+02  0.51100000000E-03 0. -1.
    9900012    2    1    2    0    0 -0.22408223610E+02  0.15458802925E+02  0.16601797697E+02  0.59301909616E+02  0.49999937241E+02 0.  0.
         12    1    1    2    0    0  0.22408223610E+02 -0.15458802925E+02 -0.16601797697E+02  0.31886090384E+02  0.00000000000E+00 0. -1.
         11    1    3    3    0    0  0.17215228930E+01  0.61851807559E+01 -0.52414212838E+00  0.64416478704E+01  0.51100000000E-03 0. -1.
        -11    1    3    3    0    0 -0.48698738451E+01 -0.12237880058E+02  0.19888855083E+02  0.23854725661E+02  0.51100000000E-03 0.  1.
         12    1    3    3    0    0 -0.19259872657E+02  0.21511502227E+02 -0.27629152574E+01  0.29005536085E+02  0.00000000000E+00 0. -1.
</event>
<event>
 7    1  0.6184948E-012  0.5930199E+02  0.7816164E-02  0.1266605E+00
        -11   -1    0    0    0    0  0.00000000000E+00  0.00000000000E+00  0.45593999997E+02  0.45594000000E+02  0.51100000000E-03 0.  1.
         11   -1    0    0    0    0 -0.00000000000E+00 -0.00000000000E+00 -0.45593999997E+02  0.45594000000E+02  0.51100000000E-03 0. -1.
    9900012    2    1    2    0    0  0.15600091163E+02 -0.27687641092E+02  0.25979045306E+01  0.59301993328E+02  0.50000089912E+02 0.  0.
         12    1    1    2    0    0 -0.15600091163E+02  0.27687641092E+02 -0.25979045306E+01  0.31886006672E+02  0.00000000000E+00 0. -1.
         11    1    3    3    0    0  0.54840452694E+01  0.36638114214E+01  0.56285915170E+00  0.66192958337E+01  0.51100000000E-03 0. -1.
        -11    1    3    3    0    0  0.24665406668E+02 -0.25804473977E+02  0.69246543825E+01  0.36362123177E+02  0.51100000000E-03 0.  1.
        -12    1    3    3    0    0 -0.14549360775E+02 -0.55469785364E+01 -0.48896090036E+01  0.16320574317E+02  0.00000000000E+00 0.  1.
</event>
<event>
 7    1  0.6184948E-012  0.5930200E+02  0.7816164E-02  0.1266605E+00
        -11   -1    0    0    0    0  0.00000000000E+00  0.00000000000E+00  0.45593999997E+02  0.45594000000E+02  0.51100000000E-03 0.  1.
         11   -1    0    0    0    0 -0.00000000000E+00 -0.00000000000E+00 -0.45593999997E+02  0.45594000000E+02  0.51100000000E-03 0. -1.
    9900012    2    1    2    0    0 -0.17486789712E+02  0.10860937821E+02  0.24350964062E+02  0.59301996243E+02  0.50000095229E+02 0.  0.
         12    1    1    2    0    0  0.17486789712E+02 -0.10860937821E+02 -0.24350964062E+02  0.31886003757E+02  0.00000000000E+00 0. -1.
         11    1    3    3    0    0 -0.83030262975E+01 -0.39277334563E+01  0.90472367036E+01  0.12892626886E+02  0.51100000000E-03 0. -1.
        -11    1    3    3    0    0 -0.68338226090E+01 -0.47834672427E+01 -0.10832854924E+02  0.13672360308E+02  0.51100000000E-03 0.  1.
        -12    1    3    3    0    0 -0.23499408061E+01  0.19572138520E+02  0.26136582283E+02  0.32737009049E+02  0.00000000000E+00 0.  1.
</event>
<event>
 7    1  0.6184948E-012  0.5930194E+02  0.7816164E-02  0.1266605E+00
        -11   -1    0    0    0    0  0.00000000000E+00  0.00000000000E+00  0.45593999997E+02  0.45594000000E+02  0.51100000000E-03 0. -1.
         11   -1    0    0    0    0 -0.00000000000E+00 -0.00000000000E+00 -0.45593999997E+02  0.45594000000E+02  0.51100000000E-03 0.  1.
    9900012    2    1    2    0    0 -0.28871486048E+02 -0.66478511400E+01  0.11788294093E+02  0.59301944913E+02  0.50000001614E+02 0.  0.
         12    1    1    2    0    0  0.28871486048E+02  0.66478511400E+01 -0.11788294093E+02  0.31886055087E+02  0.00000000000E+00 0. -1.
         11    1    3    3    0    0  0.80331740856E-01 -0.15871058750E+02  0.76637562055E+01  0.17624701940E+02  0.51100000000E-03 0. -1.
        -11    1    3    3    0    0  0.50205657695E+00  0.10649773123E+02 -0.34958880320E+01  0.11220114160E+02  0.51100000000E-03 0.  1.
        -12    1    3    3    0    0 -0.29453874366E+02 -0.14265655121E+01  0.76204259198E+01  0.30457128813E+02  0.00000000000E+00 0.  1.
</event>
<event>
 7    1  0.6184948E-012  0.5930200E+02  0.7816164E-02  0.1266605E+00
        -11   -1    0    0    0    0  0.00000000000E+00  0.00000000000E+00  0.45593999997E+02  0.45594000000E+02  0.51100000000E-03 0.  1.
         11   -1    0    0    0    0 -0.00000000000E+00 -0.00000000000E+00 -0.45593999997E+02  0.45594000000E+02  0.51100000000E-03 0. -1.
    9900012    2    1    2    0    0  0.13557632836E+02 -0.22948369719E+02  0.17500860102E+02  0.59301997033E+02  0.50000096670E+02 0.  0.
         12    1    1    2    0    0 -0.13557632836E+02  0.22948369719E+02 -0.17500860102E+02  0.31886002967E+02  0.00000000000E+00 0. -1.
         11    1    3    3    0    0 -0.11821695425E+02 -0.20980258475E+02  0.55394538666E+01  0.24710509461E+02  0.51100000000E-03 0. -1.
        -11    1    3    3    0    0  0.44036825615E+01 -0.68742508621E+01  0.10074828038E+02  0.12967262829E+02  0.51100000000E-03 0.  1.
         12    1    3    3    0    0  0.20975645699E+02  0.49061396180E+01  0.18865781968E+01  0.21624224743E+02  0.00000000000E+00 0. -1.
</event>
<event>
 7    1  0.6184948E-012  0.5930195E+02  0.7816164E-02  0.1266605E+00
        -11   -1    0    0    0    0  0.00000000000E+00  0.00000000000E+00  0.45593999997E+02  0.45594000000E+02  0.51100000000E-03 0. -1.
         11   -1    0    0    0    0 -0.00000000000E+00 -0.00000000000E+00 -0.45593999997E+02  0.45594000000E+02  0.51100000000E-03 0.  1.
    9900012    2    1    2    0    0  0.27733153390E+02 -0.56477904425E+01 -0.14686560356E+02  0.59301946796E+02  0.50000005049E+02 0.  0.
         12    1    1    2    0    0 -0.27733153390E+02  0.56477904425E+01  0.14686560356E+02  0.31886053204E+02  0.00000000000E+00 0. -1.
         11    1    3    3    0    0  0.28586726708E+02 -0.78110677509E+01  0.54350288129E+01  0.30128943920E+02  0.51100000000E-03 0. -1.
        -11    1    3    3    0    0 -0.81109123455E+01 -0.17211015195E+01 -0.99583401467E+00  0.83510942494E+01  0.51100000000E-03 0.  1.
        -12    1    3    3    0    0  0.72573390276E+01  0.38843788278E+01 -0.19125755154E+02  0.20821908627E+02  0.00000000000E+00 0.  1.
</event>
<event>
 7    1  0.6184948E-012  0.5930199E+02  0.7816164E-02  0.1266605E+00
        -11   -1    0    0    0    0  0.00000000000E+00  0.00000000000E+00  0.45593999997E+02  0.45594000000E+02  0.51100000000E-03 0. -1.
         11   -1    0    0    0    0 -0.00000000000E+00 -0.00000000000E+00 -0.45593999997E+02  0.45594000000E+02  0.51100000000E-03 0.  1.
    9900012    2    1    2    0    0 -0.26509218216E+02  0.15678080863E+02  0.82569152528E+01  0.59301991791E+02  0.50000087109E+02 0.  0.
         12    1    1    2    0    0  0.26509218216E+02 -0.15678080863E+02 -0.82569152528E+01  0.31886008209E+02  0.00000000000E+00 0. -1.
         11    1    3    3    0    0  0.84203284734E+01 -0.58927012770E+01  0.42782730161E+01  0.11132361843E+02  0.51100000000E-03 0. -1.
        -11    1    3    3    0    0 -0.11689997199E+02  0.66087725433E+01 -0.10426783298E+02  0.17001462268E+02  0.51100000000E-03 0.  1.
        -12    1    3    3    0    0 -0.23239549491E+02  0.14962009597E+02  0.14405425535E+02  0.31168167680E+02  0.00000000000E+00 0.  1.
</event>
<event>
 7    1  0.6184948E-012  0.5930194E+02  0.7816164E-02  0.1266605E+00
        -11   -1    0    0    0    0  0.00000000000E+00  0.00000000000E+00  0.45593999997E+02  0.45594000000E+02  0.51100000000E-03 0. -1.
         11   -1    0    0    0    0 -0.00000000000E+00 -0.00000000000E+00 -0.45593999997E+02  0.45594000000E+02  0.51100000000E-03 0.  1.
    9900012    2    1    2    0    0  0.48298522813E+01  0.21217040060E+02 -0.23307301368E+02  0.59301944129E+02  0.50000000184E+02 0.  0.
         12    1    1    2    0    0 -0.48298522813E+01 -0.21217040060E+02  0.23307301368E+02  0.31886055871E+02  0.00000000000E+00 0. -1.
         11    1    3    3    0    0 -0.97975485648E+01 -0.23908189477E+01  0.83247462641E+01  0.13077055240E+02  0.51100000000E-03 0. -1.
        -11    1    3    3    0    0  0.41082102429E+01 -0.28382032337E+01 -0.69126661521E+01  0.85274698819E+01  0.51100000000E-03 0.  1.
        -12    1    3    3    0    0  0.10519190603E+02  0.26446062242E+02 -0.24719381480E+02  0.37697419007E+02  0.00000000000E+00 0.  1.
</event>
<event>
 7    1  0.6184948E-012  0.5930191E+02  0.7816164E-02  0.1266605E+00
        -11   -1    0    0    0    0  0.00000000000E+00  0.00000000000E+00  0.45593999997E+02  0.45594000000E+02  0.51100000000E-03 0.  1.
         11   -1    0    0    0    0 -0.00000000000E+00 -0.00000000000E+00 -0.45593999997E+02  0.45594000000E+02  0.51100000000E-03 0. -1.
    9900012    2    1    2    0    0  0.72877963786E+01  0.78770998153E+01  0.30026022611E+02  0.59301910378E+02  0.49999938630E+02 0.  0.
         12    1    1    2    0    0 -0.72877963786E+01 -0.78770998153E+01 -0.30026022611E+02  0.31886089622E+02  0.00000000000E+00 0. -1.
         11    1    3    3    0    0  0.11801470795E+02  0.44158007265E+01 -0.45706660395E+01  0.13403917237E+02  0.51100000000E-03 0. -1.
        -11    1    3    3    0    0  0.43795807025E+01  0.13779058280E+02  0.93712202661E+01  0.17229711076E+02  0.51100000000E-03 0.  1.
        -12    1    3    3    0    0 -0.88932551189E+01 -0.10317759192E+02  0.25225468385E+02  0.28668282065E+02  0.00000000000E+00 0.  1.
</event>
<event>
 7    1  0.6184948E-012  0.5930194E+02  0.7816164E-02  0.1266605E+00
        -11   -1    0    0    0    0  0.00000000000E+00  0.00000000000E+00  0.45593999997E+02  0.45594000000E+02  0.51100000000E-03 0.  1.
         11   -1    0    0    0    0 -0.00000000000E+00 -0.00000000000E+00 -0.45593999997E+02  0.45594000000E+02  0.51100000000E-03 0. -1.
    9900012    2    1    2    0    0  0.10475238015E+02 -0.26462322724E+02  0.14378310504E+02  0.59301938023E+02  0.49999989050E+02 0.  0.
         12    1    1    2    0    0 -0.10475238015E+02  0.26462322724E+02 -0.14378310504E+02  0.31886061977E+02  0.00000000000E+00 0. -1.
         11    1    3    3    0    0  0.25694172030E+01 -0.27169682813E+01  0.12283477790E+02  0.12840079761E+02  0.51100000000E-03 0. -1.
        -11    1    3    3    0    0 -0.10702166698E+02 -0.47948310767E+00  0.11012763133E+02  0.15363828565E+02  0.51100000000E-03 0.  1.
         12    1    3    3    0    0  0.18607987510E+02 -0.23265871335E+02 -0.89179304181E+01  0.31098029698E+02  0.00000000000E+00 0. -1.
</event>
<event>
 7    1  0.6184948E-012  0.5930195E+02  0.7816164E-02  0.1266605E+00
        -11   -1    0    0    0    0  0.00000000000E+00  0.00000000000E+00  0.45593999997E+02  0.45594000000E+02  0.51100000000E-03 0.  1.
         11   -1    0    0    0    0 -0.00000000000E+00 -0.00000000000E+00 -0.45593999997E+02  0.45594000000E+02  0.51100000000E-03 0. -1.
    9900012    2    1    2    0    0 -0.24666520520E+02 -0.62403971448E+01  0.19218230561E+02  0.59301950119E+02  0.50000011110E+02 0.  0.
         12    1    1    2    0    0  0.24666520520E+02  0.62403971448E+01 -0.19218230561E+02  0.31886049881E+02  0.00000000000E+00 0. -1.
         11    1    3    3    0    0 -0.33675674208E+01 -0.53492057440E+01  0.11960982644E+02  0.13528474359E+02  0.51100000000E-03 0. -1.
        -11    1    3    3    0    0 -0.45872577971E+01  0.14540593075E+02  0.15344629304E+02  0.21631676538E+02  0.51100000000E-03 0.  1.
         12    1    3    3    0    0 -0.16711695302E+02 -0.15431784476E+02 -0.80873813867E+01  0.24141799222E+02  0.00000000000E+00 0. -1.
</event>
<event>
 7    1  0.6184948E-012  0.5930192E+02  0.7816164E-02  0.1266605E+00
        -11   -1    0    0    0    0  0.00000000000E+00  0.00000000000E+00  0.45593999997E+02  0.45594000000E+02  0.51100000000E-03 0. -1.
         11   -1    0    0    0    0 -0.00000000000E+00 -0.00000000000E+00 -0.45593999997E+02  0.45594000000E+02  0.51100000000E-03 0.  1.
    9900012    2    1    2    0    0 -0.17639497301E+02 -0.24792615433E+02 -0.95339747950E+01  0.59301916509E+02  0.49999949812E+02 0.  0.
         12    1    1    2    0    0  0.17639497301E+02  0.24792615433E+02  0.95339747950E+01  0.31886083491E+02  0.00000000000E+00 0. -1.
         11    1    3    3    0    0  0.13450183074E+01 -0.28740616412E+01  0.65018793609E+01  0.72348973766E+01  0.51100000000E-03 0. -1.
        -11    1    3    3    0    0  0.93203222000E+01 -0.18933274967E+01 -0.14525050461E+02  0.17361744903E+02  0.51100000000E-03 0.  1.
        -12    1    3    3    0    0 -0.28304837808E+02 -0.20025226295E+02 -0.15108036949E+01  0.34705274229E+02  0.00000000000E+00 0.  1.
</event>
<event>
 7    1  0.6184948E-012  0.5930194E+02  0.7816164E-02  0.1266605E+00
        -11   -1    0    0    0    0  0.00000000000E+00  0.00000000000E+00  0.45593999997E+02  0.45594000000E+02  0.51100000000E-03 0.  1.
         11   -1    0    0    0    0 -0.00000000000E+00 -0.00000000000E+00 -0.45593999997E+02  0.45594000000E+02  0.51100000000E-03 0. -1.
    9900012    2    1    2    0    0 -0.78903525250E+01  0.17359346865E+02  0.25556144570E+02  0.59301935460E+02  0.49999984375E+02 0.  0.
         12    1    1    2    0    0  0.78903525250E+01 -0.17359346865E+02 -0.25556144570E+02  0.31886064540E+02  0.00000000000E+00 0. -1.
         11    1    3    3    0    0 -0.93915369249E+01 -0.34285756613E+01 -0.24930536497E+01  0.10303951360E+02  0.51100000000E-03 0. -1.
        -11    1    3    3    0    0  0.13212748546E+02  0.41408431534E+01 -0.59430859788E+00  0.13859166971E+02  0.51100000000E-03 0.  1.
         12    1    3    3    0    0 -0.11711564147E+02  0.16647079372E+02  0.28643506818E+02  0.35138817129E+02  0.00000000000E+00 0. -1.
</event>
<event>
 7    1  0.6184948E-012  0.5930194E+02  0.7816164E-02  0.1266605E+00
        -11   -1    0    0    0    0  0.00000000000E+00  0.00000000000E+00  0.45593999997E+02  0.45594000000E+02  0.51100000000E-03 0.  1.
         11   -1    0    0    0    0 -0.00000000000E+00 -0.00000000000E+00 -0.45593999997E+02  0.45594000000E+02  0.51100000000E-03 0. -1.
    9900012    2    1    2    0    0 -0.25060062463E+02  0.19715817045E+02  0.22361865919E-01  0.59301942350E+02  0.49999996939E+02 0.  0.
         12    1    1    2    0    0  0.25060062463E+02 -0.19715817045E+02 -0.22361865919E-01  0.31886057650E+02  0.00000000000E+00 0. -1.
         11    1    3    3    0    0 -0.11470436962E+02  0.11767388495E+02 -0.17277339727E+02  0.23844261875E+02  0.51100000000E-03 0. -1.
        -11    1    3    3    0    0 -0.18498685201E+02  0.11423350125E+02  0.58346742005E+01  0.22510835292E+02  0.51100000000E-03 0.  1.
        -12    1    3    3    0    0  0.49090596991E+01 -0.34749215751E+01  0.11465027392E+02  0.12946845183E+02  0.00000000000E+00 0.  1.
</event>
<event>
 7    1  0.6184948E-012  0.5930193E+02  0.7816164E-02  0.1266605E+00
        -11   -1    0    0    0    0  0.00000000000E+00  0.00000000000E+00  0.45593999997E+02  0.45594000000E+02  0.51100000000E-03 0.  1.
         11   -1    0    0    0    0 -0.00000000000E+00 -0.00000000000E+00 -0.45593999997E+02  0.45594000000E+02  0.51100000000E-03 0. -1.
    9900012    2    1    2    0    0  0.27525191389E+02 -0.69060285134E+01  0.14539333169E+02  0.59301927808E+02  0.49999970419E+02 0.  0.
         12    1    1    2    0    0 -0.27525191389E+02  0.69060285134E+01 -0.14539333169E+02  0.31886072192E+02  0.00000000000E+00 0. -1.
         11    1    3    3    0    0  0.65922707831E+01  0.66615963304E+01 -0.95240294052E+01  0.13361962285E+02  0.51100000000E-03 0. -1.
        -11    1    3    3    0    0  0.14905135460E+02 -0.19637851669E+02  0.51556906763E+01  0.25187088515E+02  0.51100000000E-03 0.  1.
        -12    1    3    3    0    0  0.60277851458E+01  0.60702268253E+01  0.18907671898E+02  0.20752877007E+02  0.00000000000E+00 0.  1.
</event>
<event>
 7    1  0.6184948E-012  0.5930193E+02  0.7816164E-02  0.1266605E+00
        -11   -1    0    0    0    0  0.00000000000E+00  0.00000000000E+00  0.45593999997E+02  0.45594000000E+02  0.51100000000E-03 0.  1.
         11   -1    0    0    0    0 -0.00000000000E+00 -0.00000000000E+00 -0.45593999997E+02  0.45594000000E+02  0.51100000000E-03 0. -1.
    9900012    2    1    2    0    0 -0.94627625533E+01  0.27884649400E+02  0.12232083765E+02  0.59301930620E+02  0.49999975547E+02 0.  0.
         12    1    1    2    0    0  0.94627625533E+01 -0.27884649400E+02 -0.12232083765E+02  0.31886069380E+02  0.00000000000E+00 0. -1.
         11    1    3    3    0    0  0.40980752328E+01  0.24281701368E+02 -0.50941500972E+00  0.24630362276E+02  0.51100000000E-03 0. -1.
        -11    1    3    3    0    0 -0.20443746049E+01 -0.16040853074E+01  0.19951997570E+02  0.20120506070E+02  0.51100000000E-03 0.  1.
         12    1    3    3    0    0 -0.11516463181E+02  0.52070333396E+01 -0.72104987959E+01  0.14551062274E+02  0.00000000000E+00 0. -1.
</event>
<event>
 7    1  0.6184948E-012  0.5930196E+02  0.7816164E-02  0.1266605E+00
        -11   -1    0    0    0    0  0.00000000000E+00  0.00000000000E+00  0.45593999997E+02  0.45594000000E+02  0.51100000000E-03 0. -1.
         11   -1    0    0    0    0 -0.00000000000E+00 -0.00000000000E+00 -0.45593999997E+02  0.45594000000E+02  0.51100000000E-03 0.  1.
    9900012    2    1    2    0    0 -0.28370317144E+02  0.44285671762E+01 -0.13864794801E+02  0.59301958588E+02  0.50000026554E+02 0.  0.
         12    1    1    2    0    0  0.28370317144E+02 -0.44285671762E+01  0.13864794801E+02  0.31886041412E+02  0.00000000000E+00 0. -1.
         11    1    3    3    0    0 -0.18495594480E+02 -0.15942966391E+01  0.11252428639E+02  0.21708200006E+02  0.51100000000E-03 0. -1.
        -11    1    3    3    0    0 -0.13036476566E+02  0.59161280972E+00 -0.14778856300E+01  0.13133311584E+02  0.51100000000E-03 0.  1.
        -12    1    3    3    0    0  0.31617539026E+01  0.54312510056E+01 -0.23639337810E+02  0.24460446998E+02  0.00000000000E+00 0.  1.
</event>
<event>
 7    1  0.6184948E-012  0.5930175E+02  0.7816164E-02  0.1266605E+00
        -11   -1    0    0    0    0  0.00000000000E+00  0.00000000000E+00  0.45593999997E+02  0.45594000000E+02  0.51100000000E-03 0. -1.
         11   -1    0    0    0    0 -0.00000000000E+00 -0.00000000000E+00 -0.45593999997E+02  0.45594000000E+02  0.51100000000E-03 0.  1.
    9900012    2    1    2    0    0 -0.18363151767E+02 -0.21170961386E+02  0.15209149274E+02  0.59301746372E+02  0.49999639522E+02 0.  0.
         12    1    1    2    0    0  0.18363151767E+02  0.21170961386E+02 -0.15209149274E+02  0.31886253628E+02  0.00000000000E+00 0. -1.
         11    1    3    3    0    0  0.92833847235E+01 -0.11804108305E+02  0.40698880351E+01  0.15558990767E+02  0.51100000000E-03 0. -1.
        -11    1    3    3    0    0  0.22058014419E+01  0.75981165249E+01  0.12427258396E+01  0.80088265370E+01  0.51100000000E-03 0.  1.
        -12    1    3    3    0    0 -0.29852337932E+02 -0.16964969605E+02  0.98965353988E+01  0.35733929068E+02  0.00000000000E+00 0.  1.
</event>
<event>
 7    1  0.6184948E-012  0.5930196E+02  0.7816164E-02  0.1266605E+00
        -11   -1    0    0    0    0  0.00000000000E+00  0.00000000000E+00  0.45593999997E+02  0.45594000000E+02  0.51100000000E-03 0. -1.
         11   -1    0    0    0    0 -0.00000000000E+00 -0.00000000000E+00 -0.45593999997E+02  0.45594000000E+02  0.51100000000E-03 0.  1.
    9900012    2    1    2    0    0  0.14583883062E+02  0.18375529250E+02 -0.21595602196E+02  0.59301956743E+02  0.50000023190E+02 0.  0.
         12    1    1    2    0    0 -0.14583883062E+02 -0.18375529250E+02  0.21595602196E+02  0.31886043257E+02  0.00000000000E+00 0. -1.
         11    1    3    3    0    0 -0.23525407397E+00 -0.67250883002E+01  0.38832106951E+01  0.77692652606E+01  0.51100000000E-03 0. -1.
        -11    1    3    3    0    0 -0.90105613047E+01  0.14964939080E+02 -0.16761143525E+02  0.24208997278E+02  0.51100000000E-03 0.  1.
         12    1    3    3    0    0  0.23829698440E+02  0.10135678470E+02 -0.87176693663E+01  0.27323694205E+02  0.00000000000E+00 0. -1.
</event>
<event>
 7    1  0.6184948E-012  0.5930194E+02  0.7816164E-02  0.1266605E+00
        -11   -1    0    0    0    0  0.00000000000E+00  0.00000000000E+00  0.45593999997E+02  0.45594000000E+02  0.51100000000E-03 0.  1.
         11   -1    0    0    0    0 -0.00000000000E+00 -0.00000000000E+00 -0.45593999997E+02  0.45594000000E+02  0.51100000000E-03 0. -1.
    9900012    2    1    2    0    0 -0.98343185719E+01  0.12011521570E+02  0.27851938291E+02  0.59301938175E+02  0.49999989325E+02 0.  0.
         12    1    1    2    0    0  0.98343185719E+01 -0.12011521570E+02 -0.27851938291E+02  0.31886061825E+02  0.00000000000E+00 0. -1.
         11    1    3    3    0    0 -0.10377233152E+02 -0.89095124092E+00  0.14421781128E+02  0.17789562478E+02  0.51100000000E-03 0. -1.
        -11    1    3    3    0    0  0.21273197305E+01 -0.86478710000E+01  0.17395880602E+02  0.19542973783E+02  0.51100000000E-03 0.  1.
        -12    1    3    3    0    0 -0.15844051507E+01  0.21550343811E+02 -0.39657234403E+01  0.21969401914E+02  0.00000000000E+00 0.  1.
</event>
<event>
 7    1  0.6184948E-012  0.5930194E+02  0.7816164E-02  0.1266605E+00
        -11   -1    0    0    0    0  0.00000000000E+00  0.00000000000E+00  0.45593999997E+02  0.45594000000E+02  0.51100000000E-03 0. -1.
         11   -1    0    0    0    0 -0.00000000000E+00 -0.00000000000E+00 -0.45593999997E+02  0.45594000000E+02  0.51100000000E-03 0.  1.
    9900012    2    1    2    0    0  0.28417414601E+02 -0.14408248332E+02 -0.12544828699E+01  0.59301940352E+02  0.49999993296E+02 0.  0.
         12    1    1    2    0    0 -0.28417414601E+02  0.14408248332E+02  0.12544828699E+01  0.31886059648E+02  0.00000000000E+00 0. -1.
         11    1    3    3    0    0 -0.29117220682E+00 -0.19029920976E+02 -0.74913266904E+01  0.20453426350E+02  0.51100000000E-03 0. -1.
        -11    1    3    3    0    0  0.14670670879E+02 -0.22929421657E+01 -0.87048488698E+01  0.17212221296E+02  0.51100000000E-03 0.  1.
        -12    1    3    3    0    0  0.14037915929E+02  0.69146148098E+01  0.14941692690E+02  0.21636292706E+02  0.00000000000E+00 0.  1.
</event>
<event>
 7    1  0.6184948E-012  0.5930195E+02  0.7816164E-02  0.1266605E+00
        -11   -1    0    0    0    0  0.00000000000E+00  0.00000000000E+00  0.45593999997E+02  0.45594000000E+02  0.51100000000E-03 0. -1.
         11   -1    0    0    0    0 -0.00000000000E+00 -0.00000000000E+00 -0.45593999997E+02  0.45594000000E+02  0.51100000000E-03 0.  1.
    9900012    2    1    2    0    0  0.10482650199E+02 -0.40968672562E+01 -0.29833706990E+02  0.59301947417E+02  0.50000006182E+02 0.  0.
         12    1    1    2    0    0 -0.10482650199E+02  0.40968672562E+01  0.29833706990E+02  0.31886052583E+02  0.00000000000E+00 0. -1.
         11    1    3    3    0    0 -0.11412911643E+01 -0.18302992696E+02 -0.10775085690E+02  0.21269803926E+02  0.51100000000E-03 0. -1.
        -11    1    3    3    0    0  0.79514557897E+00 -0.26566111148E+01 -0.17732466137E+02  0.17947985810E+02  0.51100000000E-03 0.  1.
        -12    1    3    3    0    0  0.10828795785E+02  0.16862736555E+02 -0.13261551640E+01  0.20084157681E+02  0.00000000000E+00 0.  1.
</event>
<event>
 7    1  0.6184948E-012  0.5930201E+02  0.7816164E-02  0.1266605E+00
        -11   -1    0    0    0    0  0.00000000000E+00  0.00000000000E+00  0.45593999997E+02  0.45594000000E+02  0.51100000000E-03 0. -1.
         11   -1    0    0    0    0 -0.00000000000E+00 -0.00000000000E+00 -0.45593999997E+02  0.45594000000E+02  0.51100000000E-03 0.  1.
    9900012    2    1    2    0    0 -0.30779000204E+02  0.73168460386E+01 -0.39791277731E+01  0.59302007036E+02  0.50000114911E+02 0.  0.
         12    1    1    2    0    0  0.30779000204E+02 -0.73168460386E+01  0.39791277731E+01  0.31885992964E+02  0.00000000000E+00 0. -1.
         11    1    3    3    0    0 -0.10059752106E+01  0.13131221039E+02 -0.15944478495E+01  0.13265866587E+02  0.51100000000E-03 0. -1.
        -11    1    3    3    0    0 -0.16281603636E+02  0.57375675975E+01 -0.16092367506E+02  0.23600309132E+02  0.51100000000E-03 0.  1.
         12    1    3    3    0    0 -0.13491421357E+02 -0.11551942598E+02  0.13707687583E+02  0.22435831317E+02  0.00000000000E+00 0. -1.
</event>
<event>
 7    1  0.6184948E-012  0.5930195E+02  0.7816164E-02  0.1266605E+00
        -11   -1    0    0    0    0  0.00000000000E+00  0.00000000000E+00  0.45593999997E+02  0.45594000000E+02  0.51100000000E-03 0.  1.
         11   -1    0    0    0    0 -0.00000000000E+00 -0.00000000000E+00 -0.45593999997E+02  0.45594000000E+02  0.51100000000E-03 0. -1.
    9900012    2    1    2    0    0  0.45737914490E+01 -0.13243996021E+02  0.28642574722E+02  0.59301951553E+02  0.50000013725E+02 0.  0.
         12    1    1    2    0    0 -0.45737914490E+01  0.13243996021E+02 -0.28642574722E+02  0.31886048447E+02  0.00000000000E+00 0. -1.
         11    1    3    3    0    0  0.12517250607E+02  0.39741950474E+01  0.34330667668E+02  0.36756911348E+02  0.51100000000E-03 0. -1.
        -11    1    3    3    0    0 -0.69946700167E+00 -0.27399284176E+01  0.30407529444E+01  0.41524258632E+01  0.51100000000E-03 0.  1.
         12    1    3    3    0    0 -0.72439921564E+01 -0.14478262651E+02 -0.87288458905E+01  0.18392614342E+02  0.00000000000E+00 0. -1.
</event>
<event>
 7    1  0.6184948E-012  0.5930192E+02  0.7816164E-02  0.1266605E+00
        -11   -1    0    0    0    0  0.00000000000E+00  0.00000000000E+00  0.45593999997E+02  0.45594000000E+02  0.51100000000E-03 0. -1.
         11   -1    0    0    0    0 -0.00000000000E+00 -0.00000000000E+00 -0.45593999997E+02  0.45594000000E+02  0.51100000000E-03 0.  1.
    9900012    2    1    2    0    0 -0.19353228644E+02  0.18343470121E+02 -0.17484034314E+02  0.59301924498E+02  0.49999964383E+02 0.  0.
         12    1    1    2    0    0  0.19353228644E+02 -0.18343470121E+02  0.17484034314E+02  0.31886075502E+02  0.00000000000E+00 0. -1.
         11    1    3    3    0    0 -0.16200573911E+01  0.78627226816E+01 -0.78541804853E+01  0.11230990396E+02  0.51100000000E-03 0. -1.
        -11    1    3    3    0    0 -0.23720992319E+02  0.22710345519E+02 -0.10358580154E+02  0.34434654830E+02  0.51100000000E-03 0.  1.
         12    1    3    3    0    0  0.59878210660E+01 -0.12229598080E+02  0.72872632586E+00  0.13636279272E+02  0.00000000000E+00 0. -1.
</event>
<event>
 7    1  0.6184948E-012  0.5930197E+02  0.7816164E-02  0.1266605E+00
        -11   -1    0    0    0    0  0.00000000000E+00  0.00000000000E+00  0.45593999997E+02  0.45594000000E+02  0.51100000000E-03 0.  1.
         11   -1    0    0    0    0 -0.00000000000E+00 -0.00000000000E+00 -0.45593999997E+02  0.45594000000E+02  0.51100000000E-03 0. -1.
    9900012    2    1    2    0    0  0.17415012727E+02  0.10883121838E+02  0.24392496472E+02  0.59301970248E+02  0.50000047820E+02 0.  0.
         12    1    1    2    0    0 -0.17415012727E+02 -0.10883121838E+02 -0.24392496472E+02  0.31886029752E+02  0.00000000000E+00 0. -1.
         11    1    3    3    0    0  0.13089788150E+02  0.22735498698E+02  0.98792203462E+01  0.28032917254E+02  0.51100000000E-03 0. -1.
        -11    1    3    3    0    0 -0.47003234577E+00  0.26122671606E+00  0.17819719173E+02  0.17827831093E+02  0.51100000000E-03 0.  1.
         12    1    3    3    0    0  0.47952569224E+01 -0.12113603576E+02 -0.33064430478E+01  0.13441221901E+02  0.00000000000E+00 0. -1.
</event>
<event>
 7    1  0.6184948E-012  0.5930192E+02  0.7816164E-02  0.1266605E+00
        -11   -1    0    0    0    0  0.00000000000E+00  0.00000000000E+00  0.45593999997E+02  0.45594000000E+02  0.51100000000E-03 0.  1.
         11   -1    0    0    0    0 -0.00000000000E+00 -0.00000000000E+00 -0.45593999997E+02  0.45594000000E+02  0.51100000000E-03 0. -1.
    9900012    2    1    2    0    0 -0.16525976343E+02  0.25334073735E+02 -0.10089550552E+02  0.59301918139E+02  0.49999952785E+02 0.  0.
         12    1    1    2    0    0  0.16525976343E+02 -0.25334073735E+02  0.10089550552E+02  0.31886081861E+02  0.00000000000E+00 0. -1.
         11    1    3    3    0    0  0.76660464113E+01  0.11686313964E+02 -0.12823530441E+02  0.18967897482E+02  0.51100000000E-03 0. -1.
        -11    1    3    3    0    0 -0.10350925828E+02  0.21594306067E+02  0.41783726351E+01  0.24308733372E+02  0.51100000000E-03 0.  1.
         12    1    3    3    0    0 -0.13841096927E+02 -0.79465462961E+01 -0.14443927461E+01  0.16025287285E+02  0.00000000000E+00 0. -1.
</event>
<event>
 7    1  0.6184948E-012  0.5930194E+02  0.7816164E-02  0.1266605E+00
        -11   -1    0    0    0    0  0.00000000000E+00  0.00000000000E+00  0.45593999997E+02  0.45594000000E+02  0.51100000000E-03 0. -1.
         11   -1    0    0    0    0 -0.00000000000E+00 -0.00000000000E+00 -0.45593999997E+02  0.45594000000E+02  0.51100000000E-03 0.  1.
    9900012    2    1    2    0    0  0.11662519033E+02  0.29004145326E+02  0.62822030800E+01  0.59301939223E+02  0.49999991238E+02 0.  0.
         12    1    1    2    0    0 -0.11662519033E+02 -0.29004145326E+02 -0.62822030800E+01  0.31886060777E+02  0.00000000000E+00 0. -1.
         11    1    3    3    0    0  0.11391492532E+02  0.20121321709E+02 -0.11586607149E+02  0.25862775468E+02  0.51100000000E-03 0.  1.
        -11    1    3    3    0    0  0.21575906971E+01 -0.49508202586E+01 -0.45276053146E+01  0.70473419809E+01  0.51100000000E-03 0. -1.
         12    1    3    3    0    0 -0.18865641967E+01  0.13833643876E+02  0.22396415544E+02  0.26391821775E+02  0.00000000000E+00 0. -1.
</event>
<event>
 7    1  0.6184948E-012  0.5930194E+02  0.7816164E-02  0.1266605E+00
        -11   -1    0    0    0    0  0.00000000000E+00  0.00000000000E+00  0.45593999997E+02  0.45594000000E+02  0.51100000000E-03 0. -1.
         11   -1    0    0    0    0 -0.00000000000E+00 -0.00000000000E+00 -0.45593999997E+02  0.45594000000E+02  0.51100000000E-03 0.  1.
    9900012    2    1    2    0    0 -0.73601867708E+01  0.27383296659E+02 -0.14584358457E+02  0.59301940400E+02  0.49999993385E+02 0.  0.
         12    1    1    2    0    0  0.73601867708E+01 -0.27383296659E+02  0.14584358457E+02  0.31886059600E+02  0.00000000000E+00 0. -1.
         11    1    3    3    0    0 -0.17762926839E+02  0.13231092865E+02 -0.20682683083E+02  0.30304401793E+02  0.51100000000E-03 0. -1.
        -11    1    3    3    0    0  0.42877036522E+01 -0.13822477052E+01 -0.66219083125E+01  0.80090374757E+01  0.51100000000E-03 0.  1.
         12    1    3    3    0    0  0.61150364158E+01  0.15534451499E+02  0.12720232939E+02  0.20988501132E+02  0.00000000000E+00 0. -1.
</event>
<event>
 7    1  0.6184948E-012  0.5930196E+02  0.7816164E-02  0.1266605E+00
        -11   -1    0    0    0    0  0.00000000000E+00  0.00000000000E+00  0.45593999997E+02  0.45594000000E+02  0.51100000000E-03 0.  1.
         11   -1    0    0    0    0 -0.00000000000E+00 -0.00000000000E+00 -0.45593999997E+02  0.45594000000E+02  0.51100000000E-03 0. -1.
    9900012    2    1    2    0    0 -0.17373054063E+02  0.26377555479E+02  0.43727911101E+01  0.59301956931E+02  0.50000023533E+02 0.  0.
         12    1    1    2    0    0  0.17373054063E+02 -0.26377555479E+02 -0.43727911101E+01  0.31886043069E+02  0.00000000000E+00 0. -1.
         11    1    3    3    0    0 -0.47601139287E+00  0.75974947171E+01 -0.34907259002E+01  0.83745853864E+01  0.51100000000E-03 0. -1.
        -11    1    3    3    0    0 -0.76090003795E+00  0.28931231177E+02 -0.28130859682E+01  0.29077629876E+02  0.51100000000E-03 0.  1.
         12    1    3    3    0    0 -0.16136142632E+02 -0.10151170415E+02  0.10676602978E+02  0.21849741669E+02  0.00000000000E+00 0. -1.
</event>
<event>
 7    1  0.6184948E-012  0.5930192E+02  0.7816164E-02  0.1266605E+00
        -11   -1    0    0    0    0  0.00000000000E+00  0.00000000000E+00  0.45593999997E+02  0.45594000000E+02  0.51100000000E-03 0.  1.
         11   -1    0    0    0    0 -0.00000000000E+00 -0.00000000000E+00 -0.45593999997E+02  0.45594000000E+02  0.51100000000E-03 0. -1.
    9900012    2    1    2    0    0 -0.63923065719E+00  0.21514549667E+02  0.23525249242E+02  0.59301924432E+02  0.49999964263E+02 0.  0.
         12    1    1    2    0    0  0.63923065719E+00 -0.21514549667E+02 -0.23525249242E+02  0.31886075568E+02  0.00000000000E+00 0. -1.
         11    1    3    3    0    0 -0.12554133722E+02  0.26140602585E+02  0.51000218200E+01  0.29443973914E+02  0.51100000000E-03 0. -1.
        -11    1    3    3    0    0  0.33682660715E+01  0.68958729272E+01  0.11752310245E+02  0.14036205902E+02  0.51100000000E-03 0.  1.
         12    1    3    3    0    0  0.85466369936E+01 -0.11521925845E+02  0.66729171764E+01  0.15821744617E+02  0.00000000000E+00 0. -1.
</event>
<event>
 7    1  0.6184948E-012  0.5930197E+02  0.7816164E-02  0.1266605E+00
        -11   -1    0    0    0    0  0.00000000000E+00  0.00000000000E+00  0.45593999997E+02  0.45594000000E+02  0.51100000000E-03 0.  1.
         11   -1    0    0    0    0 -0.00000000000E+00 -0.00000000000E+00 -0.45593999997E+02  0.45594000000E+02  0.51100000000E-03 0. -1.
    9900012    2    1    2    0    0  0.31480813136E+02 -0.13558708134E+01  0.48825328338E+01  0.59301966878E+02  0.50000041674E+02 0.  0.
         12    1    1    2    0    0 -0.31480813136E+02  0.13558708134E+01 -0.48825328338E+01  0.31886033122E+02  0.00000000000E+00 0. -1.
         11    1    3    3    0    0  0.16893135547E+01  0.64815663859E+01  0.31756387187E+01  0.74127703751E+01  0.51100000000E-03 0. -1.
        -11    1    3    3    0    0  0.38124917782E+02  0.24362305457E+01  0.41827130864E+01  0.38430972719E+02  0.51100000000E-03 0.  1.
         12    1    3    3    0    0 -0.83334182004E+01 -0.10273667745E+02 -0.24758189713E+01  0.13458223784E+02  0.00000000000E+00 0. -1.
</event>
<event>
 7    1  0.6184948E-012  0.5930196E+02  0.7816164E-02  0.1266605E+00
        -11   -1    0    0    0    0  0.00000000000E+00  0.00000000000E+00  0.45593999997E+02  0.45594000000E+02  0.51100000000E-03 0.  1.
         11   -1    0    0    0    0 -0.00000000000E+00 -0.00000000000E+00 -0.45593999997E+02  0.45594000000E+02  0.51100000000E-03 0. -1.
    9900012    2    1    2    0    0  0.21804912623E+02 -0.12747080744E+02  0.19462199977E+02  0.59301960580E+02  0.50000030187E+02 0.  0.
         12    1    1    2    0    0 -0.21804912623E+02  0.12747080744E+02 -0.19462199977E+02  0.31886039420E+02  0.00000000000E+00 0. -1.
         11    1    3    3    0    0  0.19047986169E+02  0.13842338533E+02  0.10484953473E+02  0.25775382883E+02  0.51100000000E-03 0. -1.
        -11    1    3    3    0    0 -0.17658517394E+01 -0.35511808203E+01  0.92313268368E+01  0.10047214192E+02  0.51100000000E-03 0.  1.
         12    1    3    3    0    0  0.45227781927E+01 -0.23038238457E+02 -0.25408033293E+00  0.23479363505E+02  0.00000000000E+00 0. -1.
</event>
<event>
 7    1  0.6184948E-012  0.5930197E+02  0.7816164E-02  0.1266605E+00
        -11   -1    0    0    0    0  0.00000000000E+00  0.00000000000E+00  0.45593999997E+02  0.45594000000E+02  0.51100000000E-03 0.  1.
         11   -1    0    0    0    0 -0.00000000000E+00 -0.00000000000E+00 -0.45593999997E+02  0.45594000000E+02  0.51100000000E-03 0. -1.
    9900012    2    1    2    0    0  0.81904405368E+01 -0.16537541625E+02  0.26002788744E+02  0.59301974508E+02  0.50000055589E+02 0.  0.
         12    1    1    2    0    0 -0.81904405368E+01  0.16537541625E+02 -0.26002788744E+02  0.31886025492E+02  0.00000000000E+00 0. -1.
         11    1    3    3    0    0 -0.78255873597E+01 -0.37164343366E+00  0.49565694197E+01  0.92706805057E+01  0.51100000000E-03 0. -1.
        -11    1    3    3    0    0 -0.57222399948E+01 -0.33950776398E+01 -0.87547113608E+01  0.10996160876E+02  0.51100000000E-03 0.  1.
        -12    1    3    3    0    0  0.21738267891E+02 -0.12770820552E+02  0.29800930685E+02  0.39035133126E+02  0.00000000000E+00 0.  1.
</event>
<event>
 7    1  0.6184948E-012  0.5930197E+02  0.7816164E-02  0.1266605E+00
        -11   -1    0    0    0    0  0.00000000000E+00  0.00000000000E+00  0.45593999997E+02  0.45594000000E+02  0.51100000000E-03 0.  1.
         11   -1    0    0    0    0 -0.00000000000E+00 -0.00000000000E+00 -0.45593999997E+02  0.45594000000E+02  0.51100000000E-03 0. -1.
    9900012    2    1    2    0    0 -0.14770226864E+02 -0.38652540981E+00  0.28256150139E+02  0.59301968196E+02  0.50000044078E+02 0.  0.
         12    1    1    2    0    0  0.14770226864E+02  0.38652540981E+00 -0.28256150139E+02  0.31886031804E+02  0.00000000000E+00 0. -1.
         11    1    3    3    0    0  0.11410131584E+02  0.62532807246E+01  0.64311244004E+01  0.14513923794E+02  0.51100000000E-03 0. -1.
        -11    1    3    3    0    0 -0.13582093773E+02 -0.80969656674E+01 -0.37412675066E+01  0.16249037113E+02  0.51100000000E-03 0.  1.
        -12    1    3    3    0    0 -0.12598264675E+02  0.14571595330E+01  0.25566293245E+02  0.28539007289E+02  0.00000000000E+00 0.  1.
</event>
<event>
 7    1  0.6184948E-012  0.5930195E+02  0.7816164E-02  0.1266605E+00
        -11   -1    0    0    0    0  0.00000000000E+00  0.00000000000E+00  0.45593999997E+02  0.45594000000E+02  0.51100000000E-03 0.  1.
         11   -1    0    0    0    0 -0.00000000000E+00 -0.00000000000E+00 -0.45593999997E+02  0.45594000000E+02  0.51100000000E-03 0. -1.
    9900012    2    1    2    0    0  0.74732274310E+01 -0.20668902606E+02  0.23101239585E+02  0.59301953937E+02  0.50000018072E+02 0.  0.
         12    1    1    2    0    0 -0.74732274310E+01  0.20668902606E+02 -0.23101239585E+02  0.31886046063E+02  0.00000000000E+00 0. -1.
         11    1    3    3    0    0  0.82882586640E+01 -0.19901394113E+02  0.17304338739E+01  0.21627647144E+02  0.51100000000E-03 0. -1.
        -11    1    3    3    0    0  0.44317560045E+01 -0.12842449637E+02  0.20351352713E+02  0.24469297731E+02  0.51100000000E-03 0.  1.
        -12    1    3    3    0    0 -0.52467872375E+01  0.12074941143E+02  0.10194529984E+01  0.13205009062E+02  0.00000000000E+00 0.  1.
</event>
<event>
 7    1  0.6184948E-012  0.5930196E+02  0.7816164E-02  0.1266605E+00
        -11   -1    0    0    0    0  0.00000000000E+00  0.00000000000E+00  0.45593999997E+02  0.45594000000E+02  0.51100000000E-03 0. -1.
         11   -1    0    0    0    0 -0.00000000000E+00 -0.00000000000E+00 -0.45593999997E+02  0.45594000000E+02  0.51100000000E-03 0.  1.
    9900012    2    1    2    0    0 -0.12912475149E+02 -0.28041782722E+02 -0.79778490648E+01  0.59301958095E+02  0.50000025655E+02 0.  0.
         12    1    1    2    0    0  0.12912475149E+02  0.28041782722E+02  0.79778490648E+01  0.31886041905E+02  0.00000000000E+00 0. -1.
         11    1    3    3    0    0 -0.21514344912E+02 -0.21324704889E+02  0.48182686630E+01  0.30672883607E+02  0.51100000000E-03 0. -1.
        -11    1    3    3    0    0  0.29704535712E+01 -0.33073304327E+00  0.67100206994E+01  0.73455671539E+01  0.51100000000E-03 0.  1.
        -12    1    3    3    0    0  0.56314161919E+01 -0.63863447896E+01 -0.19506138427E+02  0.21283507334E+02  0.00000000000E+00 0.  1.
</event>
<event>
 7    1  0.6184948E-012  0.5930194E+02  0.7816164E-02  0.1266605E+00
        -11   -1    0    0    0    0  0.00000000000E+00  0.00000000000E+00  0.45593999997E+02  0.45594000000E+02  0.51100000000E-03 0.  1.
         11   -1    0    0    0    0 -0.00000000000E+00 -0.00000000000E+00 -0.45593999997E+02  0.45594000000E+02  0.51100000000E-03 0. -1.
    9900012    2    1    2    0    0 -0.25949571507E+01  0.20561043032E+02  0.24232834708E+02  0.59301943938E+02  0.49999999836E+02 0.  0.
         12    1    1    2    0    0  0.25949571507E+01 -0.20561043032E+02 -0.24232834708E+02  0.31886056062E+02  0.00000000000E+00 0. -1.
         11    1    3    3    0    0 -0.46083163291E+01  0.10281296542E+02 -0.59296390258E+01  0.12731938470E+02  0.51100000000E-03 0.  1.
        -11    1    3    3    0    0 -0.19130037619E+01  0.15007573316E+02 -0.65748708484E+00  0.15143286624E+02  0.51100000000E-03 0. -1.
         12    1    3    3    0    0  0.39263629402E+01 -0.47278268259E+01  0.30819960819E+02  0.31426718844E+02  0.00000000000E+00 0. -1.
</event>
<event>
 7    1  0.6184948E-012  0.5930192E+02  0.7816164E-02  0.1266605E+00
        -11   -1    0    0    0    0  0.00000000000E+00  0.00000000000E+00  0.45593999997E+02  0.45594000000E+02  0.51100000000E-03 0. -1.
         11   -1    0    0    0    0 -0.00000000000E+00 -0.00000000000E+00 -0.45593999997E+02  0.45594000000E+02  0.51100000000E-03 0.  1.
    9900012    2    1    2    0    0 -0.24699004325E+02  0.43844882494E+01 -0.19683935002E+02  0.59301923900E+02  0.49999963292E+02 0.  0.
         12    1    1    2    0    0  0.24699004325E+02 -0.43844882494E+01  0.19683935002E+02  0.31886076100E+02  0.00000000000E+00 0. -1.
         11    1    3    3    0    0 -0.28857541639E+02  0.41643596567E+01  0.50451199298E+01  0.29589742077E+02  0.51100000000E-03 0. -1.
        -11    1    3    3    0    0  0.71720277074E+01 -0.54880753278E+01 -0.91842952905E+01  0.12880536964E+02  0.51100000000E-03 0.  1.
        -12    1    3    3    0    0 -0.30134903935E+01  0.57082039205E+01 -0.15544759642E+02  0.16831644859E+02  0.00000000000E+00 0.  1.
</event>
<event>
 7    1  0.6184948E-012  0.5930195E+02  0.7816164E-02  0.1266605E+00
        -11   -1    0    0    0    0  0.00000000000E+00  0.00000000000E+00  0.45593999997E+02  0.45594000000E+02  0.51100000000E-03 0.  1.
         11   -1    0    0    0    0 -0.00000000000E+00 -0.00000000000E+00 -0.45593999997E+02  0.45594000000E+02  0.51100000000E-03 0. -1.
    9900012    2    1    2    0    0 -0.26796723046E+02 -0.14119462957E+02  0.99647737558E+01  0.59301947936E+02  0.50000007129E+02 0.  0.
         12    1    1    2    0    0  0.26796723046E+02  0.14119462957E+02 -0.99647737558E+01  0.31886052064E+02  0.00000000000E+00 0. -1.
         11    1    3    3    0    0  0.40576227904E+01 -0.86697682469E+01  0.10569300920E+01  0.96304873004E+01  0.51100000000E-03 0. -1.
        -11    1    3    3    0    0  0.20975953442E+01  0.11570682867E+02  0.27362035271E+01  0.12073417836E+02  0.51100000000E-03 0.  1.
        -12    1    3    3    0    0 -0.32951941181E+02 -0.17020377577E+02  0.61716401367E+01  0.37598042800E+02  0.00000000000E+00 0.  1.
</event>
<event>
 7    1  0.6184948E-012  0.5930195E+02  0.7816164E-02  0.1266605E+00
        -11   -1    0    0    0    0  0.00000000000E+00  0.00000000000E+00  0.45593999997E+02  0.45594000000E+02  0.51100000000E-03 0.  1.
         11   -1    0    0    0    0 -0.00000000000E+00 -0.00000000000E+00 -0.45593999997E+02  0.45594000000E+02  0.51100000000E-03 0. -1.
    9900012    2    1    2    0    0  0.23619376658E+02  0.12667043754E+02  0.17273998257E+02  0.59301953413E+02  0.50000017117E+02 0.  0.
         12    1    1    2    0    0 -0.23619376658E+02 -0.12667043754E+02 -0.17273998257E+02  0.31886046587E+02  0.00000000000E+00 0. -1.
         11    1    3    3    0    0 -0.12254317927E+02 -0.41710847891E+01  0.92006159135E+00  0.12977394568E+02  0.51100000000E-03 0. -1.
        -11    1    3    3    0    0  0.70196507701E+01 -0.34689863455E+01  0.48614063185E+01  0.92164328703E+01  0.51100000000E-03 0.  1.
        -12    1    3    3    0    0  0.28854043815E+02  0.20307114888E+02  0.11492530347E+02  0.37108125975E+02  0.00000000000E+00 0.  1.
</event>
<event>
 7    1  0.6184948E-012  0.5930216E+02  0.7816164E-02  0.1266604E+00
        -11   -1    0    0    0    0  0.00000000000E+00  0.00000000000E+00  0.45593999997E+02  0.45594000000E+02  0.51100000000E-03 0. -1.
         11   -1    0    0    0    0 -0.00000000000E+00 -0.00000000000E+00 -0.45593999997E+02  0.45594000000E+02  0.51100000000E-03 0.  1.
    9900012    2    1    2    0    0  0.20263166571E+02  0.29955757681E+01  0.24436396559E+02  0.59302158777E+02  0.50000391650E+02 0.  0.
         12    1    1    2    0    0 -0.20263166571E+02 -0.29955757681E+01 -0.24436396559E+02  0.31885841223E+02  0.00000000000E+00 0. -1.
         11    1    3    3    0    0 -0.73202039804E+01 -0.32983328017E+01  0.14544446078E+02  0.16613407163E+02  0.51100000000E-03 0. -1.
        -11    1    3    3    0    0  0.99959419140E+01  0.38771803358E+01  0.19684027750E+02  0.22414556226E+02  0.51100000000E-03 0.  1.
        -12    1    3    3    0    0  0.17587428637E+02  0.24167282339E+01 -0.97920772681E+01  0.20274195388E+02  0.00000000000E+00 0.  1.
</event>
<event>
 7    1  0.6184948E-012  0.5930191E+02  0.7816164E-02  0.1266605E+00
        -11   -1    0    0    0    0  0.00000000000E+00  0.00000000000E+00  0.45593999997E+02  0.45594000000E+02  0.51100000000E-03 0. -1.
         11   -1    0    0    0    0 -0.00000000000E+00 -0.00000000000E+00 -0.45593999997E+02  0.45594000000E+02  0.51100000000E-03 0.  1.
    9900012    2    1    2    0    0  0.28248033336E+02 -0.55165660504E+01 -0.13723669125E+02  0.59301906125E+02  0.49999930874E+02 0.  0.
         12    1    1    2    0    0 -0.28248033336E+02  0.55165660504E+01  0.13723669125E+02  0.31886093875E+02  0.00000000000E+00 0. -1.
         11    1    3    3    0    0  0.42071934431E+01  0.27364086148E+01  0.53308044644E+01  0.73216040096E+01  0.51100000000E-03 0. -1.
        -11    1    3    3    0    0  0.18419584818E+02 -0.24394529931E+02 -0.79055665752E+01  0.31573282670E+02  0.51100000000E-03 0.  1.
         12    1    3    3    0    0  0.56212550751E+01  0.16141555266E+02 -0.11148907014E+02  0.20407019445E+02  0.00000000000E+00 0. -1.
</event>
<event>
 7    1  0.6184948E-012  0.5930197E+02  0.7816164E-02  0.1266605E+00
        -11   -1    0    0    0    0  0.00000000000E+00  0.00000000000E+00  0.45593999997E+02  0.45594000000E+02  0.51100000000E-03 0.  1.
         11   -1    0    0    0    0 -0.00000000000E+00 -0.00000000000E+00 -0.45593999997E+02  0.45594000000E+02  0.51100000000E-03 0. -1.
    9900012    2    1    2    0    0 -0.31130334032E+02 -0.68290209709E+01  0.99292904041E+00  0.59301966499E+02  0.50000040983E+02 0.  0.
         12    1    1    2    0    0  0.31130334032E+02  0.68290209709E+01 -0.99292904041E+00  0.31886033501E+02  0.00000000000E+00 0. -1.
         11    1    3    3    0    0 -0.12568430180E+02 -0.12830835360E+02  0.42596364250E+01  0.18459151550E+02  0.51100000000E-03 0. -1.
        -11    1    3    3    0    0 -0.18085789879E+02 -0.47976635298E+01  0.11931917421E+02  0.22191981085E+02  0.51100000000E-03 0.  1.
         12    1    3    3    0    0 -0.47611397281E+00  0.10799477919E+02 -0.15198624805E+02  0.18650833864E+02  0.00000000000E+00 0. -1.
</event>
<event>
 7    1  0.6184948E-012  0.5930190E+02  0.7816164E-02  0.1266605E+00
        -11   -1    0    0    0    0  0.00000000000E+00  0.00000000000E+00  0.45593999997E+02  0.45594000000E+02  0.51100000000E-03 0.  1.
         11   -1    0    0    0    0 -0.00000000000E+00 -0.00000000000E+00 -0.45593999997E+02  0.45594000000E+02  0.51100000000E-03 0. -1.
    9900012    2    1    2    0    0  0.35423221529E+01 -0.20801999903E+02  0.23905066296E+02  0.59301898940E+02  0.49999917770E+02 0.  0.
         12    1    1    2    0    0 -0.35423221529E+01  0.20801999903E+02 -0.23905066296E+02  0.31886101060E+02  0.00000000000E+00 0. -1.
         11    1    3    3    0    0 -0.71900629573E+01 -0.96481465866E+01 -0.49612888146E+01  0.13015303487E+02  0.51100000000E-03 0. -1.
        -11    1    3    3    0    0 -0.67876447209E+01 -0.81976979891E+01 -0.18490057526E+01  0.10802462484E+02  0.51100000000E-03 0.  1.
        -12    1    3    3    0    0  0.17520029831E+02 -0.29561553275E+01  0.30715360864E+02  0.35484132969E+02  0.00000000000E+00 0.  1.
</event>
<event>
 7    1  0.6184948E-012  0.5930194E+02  0.7816164E-02  0.1266605E+00
        -11   -1    0    0    0    0  0.00000000000E+00  0.00000000000E+00  0.45593999997E+02  0.45594000000E+02  0.51100000000E-03 0.  1.
         11   -1    0    0    0    0 -0.00000000000E+00 -0.00000000000E+00 -0.45593999997E+02  0.45594000000E+02  0.51100000000E-03 0. -1.
    9900012    2    1    2    0    0  0.30434966711E+02  0.93738075914E+01 -0.16017102309E+01  0.59301938106E+02  0.49999989200E+02 0.  0.
         12    1    1    2    0    0 -0.30434966711E+02 -0.93738075914E+01  0.16017102309E+01  0.31886061894E+02  0.00000000000E+00 0. -1.
         11    1    3    3    0    0  0.28017450251E+01 -0.50831597483E+01 -0.70662042030E+01  0.91443715099E+01  0.51100000000E-03 0. -1.
        -11    1    3    3    0    0  0.19714146662E+02 -0.79736832987E+00 -0.13998620870E+02  0.24191832535E+02  0.51100000000E-03 0.  1.
        -12    1    3    3    0    0  0.79190750235E+01  0.15254335670E+02  0.19463114842E+02  0.25965734061E+02  0.00000000000E+00 0.  1.
</event>
<event>
 7    1  0.6184948E-012  0.5930192E+02  0.7816164E-02  0.1266605E+00
        -11   -1    0    0    0    0  0.00000000000E+00  0.00000000000E+00  0.45593999997E+02  0.45594000000E+02  0.51100000000E-03 0.  1.
         11   -1    0    0    0    0 -0.00000000000E+00 -0.00000000000E+00 -0.45593999997E+02  0.45594000000E+02  0.51100000000E-03 0. -1.
    9900012    2    1    2    0    0 -0.24855641330E+02  0.25329049685E+01  0.19811699701E+02  0.59301922183E+02  0.49999960161E+02 0.  0.
         12    1    1    2    0    0  0.24855641330E+02 -0.25329049685E+01 -0.19811699701E+02  0.31886077817E+02  0.00000000000E+00 0. -1.
         11    1    3    3    0    0  0.12701031101E+00  0.93058585945E+01 -0.32190451485E+01  0.98477097708E+01  0.51100000000E-03 0. -1.
        -11    1    3    3    0    0  0.51547015641E+01 -0.12086929881E+02  0.62086437287E+01  0.14533137286E+02  0.51100000000E-03 0.  1.
         12    1    3    3    0    0 -0.30137353205E+02  0.53139762552E+01  0.16822101121E+02  0.34921075126E+02  0.00000000000E+00 0. -1.
</event>
<event>
 7    1  0.6184948E-012  0.5930195E+02  0.7816164E-02  0.1266605E+00
        -11   -1    0    0    0    0  0.00000000000E+00  0.00000000000E+00  0.45593999997E+02  0.45594000000E+02  0.51100000000E-03 0. -1.
         11   -1    0    0    0    0 -0.00000000000E+00 -0.00000000000E+00 -0.45593999997E+02  0.45594000000E+02  0.51100000000E-03 0.  1.
    9900012    2    1    2    0    0 -0.38141858647E+01 -0.22150766719E+02  0.22616709758E+02  0.59301952263E+02  0.50000015018E+02 0.  0.
         12    1    1    2    0    0  0.38141858647E+01  0.22150766719E+02 -0.22616709758E+02  0.31886047737E+02  0.00000000000E+00 0. -1.
         11    1    3    3    0    0 -0.15816250920E+02 -0.53401489744E+01 -0.71081857745E+00  0.16708568088E+02  0.51100000000E-03 0. -1.
        -11    1    3    3    0    0 -0.69288296023E+01 -0.13641037918E+02  0.51114442801E+01  0.16131133191E+02  0.51100000000E-03 0.  1.
        -12    1    3    3    0    0  0.18930894658E+02 -0.31695798270E+01  0.18216084055E+02  0.26462250984E+02  0.00000000000E+00 0.  1.
</event>
<event>
 7    1  0.6184948E-012  0.5930197E+02  0.7816164E-02  0.1266605E+00
        -11   -1    0    0    0    0  0.00000000000E+00  0.00000000000E+00  0.45593999997E+02  0.45594000000E+02  0.51100000000E-03 0.  1.
         11   -1    0    0    0    0 -0.00000000000E+00 -0.00000000000E+00 -0.45593999997E+02  0.45594000000E+02  0.51100000000E-03 0. -1.
    9900012    2    1    2    0    0  0.10521780294E+02 -0.15062752440E+02  0.26060013750E+02  0.59301973464E+02  0.50000053685E+02 0.  0.
         12    1    1    2    0    0 -0.10521780294E+02  0.15062752440E+02 -0.26060013750E+02  0.31886026536E+02  0.00000000000E+00 0. -1.
         11    1    3    3    0    0 -0.12458210417E+02 -0.13870455411E+01  0.12460424270E+02  0.17674644985E+02  0.51100000000E-03 0. -1.
        -11    1    3    3    0    0  0.14832963601E+02  0.12071521566E+01  0.18710659583E+02  0.23907379777E+02  0.51100000000E-03 0.  1.
        -12    1    3    3    0    0  0.81470271095E+01 -0.14882859056E+02 -0.51110701029E+01  0.17719948702E+02  0.00000000000E+00 0.  1.
</event>
<event>
 7    1  0.6184948E-012  0.5930194E+02  0.7816164E-02  0.1266605E+00
        -11   -1    0    0    0    0  0.00000000000E+00  0.00000000000E+00  0.45593999997E+02  0.45594000000E+02  0.51100000000E-03 0. -1.
         11   -1    0    0    0    0 -0.00000000000E+00 -0.00000000000E+00 -0.45593999997E+02  0.45594000000E+02  0.51100000000E-03 0.  1.
    9900012    2    1    2    0    0  0.15825834883E+02  0.24540708953E+02 -0.12806938201E+02  0.59301935462E+02  0.49999984378E+02 0.  0.
         12    1    1    2    0    0 -0.15825834883E+02 -0.24540708953E+02  0.12806938201E+02  0.31886064538E+02  0.00000000000E+00 0. -1.
         11    1    3    3    0    0  0.53311360977E+01  0.88860267162E+00 -0.95446131109E+00  0.54883169967E+01  0.51100000000E-03 0. -1.
        -11    1    3    3    0    0  0.16282564720E+02  0.26284439102E+02 -0.24637486158E+02  0.39534786925E+02  0.51100000000E-03 0.  1.
         12    1    3    3    0    0 -0.57878659347E+01 -0.26323328207E+01  0.12785009268E+02  0.14278831540E+02  0.00000000000E+00 0. -1.
</event>
<event>
 7    1  0.6184948E-012  0.5930195E+02  0.7816164E-02  0.1266605E+00
        -11   -1    0    0    0    0  0.00000000000E+00  0.00000000000E+00  0.45593999997E+02  0.45594000000E+02  0.51100000000E-03 0. -1.
         11   -1    0    0    0    0 -0.00000000000E+00 -0.00000000000E+00 -0.45593999997E+02  0.45594000000E+02  0.51100000000E-03 0.  1.
    9900012    2    1    2    0    0  0.27194675048E+02 -0.10414231800E+02  0.12988984480E+02  0.59301948303E+02  0.50000007798E+02 0.  0.
         12    1    1    2    0    0 -0.27194675048E+02  0.10414231800E+02 -0.12988984480E+02  0.31886051697E+02  0.00000000000E+00 0. -1.
         11    1    3    3    0    0  0.15430422968E+02 -0.55111749354E+01  0.62533768513E+01  0.17537836937E+02  0.51100000000E-03 0. -1.
        -11    1    3    3    0    0  0.20980530309E+02 -0.74647562728E+01 -0.84488434219E+01  0.23817812529E+02  0.51100000000E-03 0.  1.
         12    1    3    3    0    0 -0.92162782277E+01  0.25616994085E+01  0.15184451051E+02  0.17946298837E+02  0.00000000000E+00 0. -1.
</event>
<event>
 7    1  0.6184948E-012  0.5930193E+02  0.7816164E-02  0.1266605E+00
        -11   -1    0    0    0    0  0.00000000000E+00  0.00000000000E+00  0.45593999997E+02  0.45594000000E+02  0.51100000000E-03 0.  1.
         11   -1    0    0    0    0 -0.00000000000E+00 -0.00000000000E+00 -0.45593999997E+02  0.45594000000E+02  0.51100000000E-03 0. -1.
    9900012    2    1    2    0    0 -0.20090835570E+02  0.19660484358E+02  0.15051414023E+02  0.59301931205E+02  0.49999976615E+02 0.  0.
         12    1    1    2    0    0  0.20090835570E+02 -0.19660484358E+02 -0.15051414023E+02  0.31886068795E+02  0.00000000000E+00 0. -1.
         11    1    3    3    0    0 -0.16359943566E+01  0.15970474208E+02 -0.82584182248E+01  0.18053642176E+02  0.51100000000E-03 0. -1.
        -11    1    3    3    0    0 -0.87984973176E+01 -0.69398243040E+01 -0.27094485199E+01  0.11528912696E+02  0.51100000000E-03 0.  1.
         12    1    3    3    0    0 -0.96563438960E+01  0.10629834453E+02  0.26019280768E+02  0.29719376333E+02  0.00000000000E+00 0. -1.
</event>
<event>
 7    1  0.6184948E-012  0.5930179E+02  0.7816164E-02  0.1266605E+00
        -11   -1    0    0    0    0  0.00000000000E+00  0.00000000000E+00  0.45593999997E+02  0.45594000000E+02  0.51100000000E-03 0. -1.
         11   -1    0    0    0    0 -0.00000000000E+00 -0.00000000000E+00 -0.45593999997E+02  0.45594000000E+02  0.51100000000E-03 0.  1.
    9900012    2    1    2    0    0  0.19707614120E+01  0.23481337171E+02 -0.21481934176E+02  0.59301786806E+02  0.49999713265E+02 0.  0.
         12    1    1    2    0    0 -0.19707614120E+01 -0.23481337171E+02  0.21481934176E+02  0.31886213194E+02  0.00000000000E+00 0. -1.
         11    1    3    3    0    0 -0.16549639838E+01 -0.20259824028E+01  0.11747083084E+02  0.12034844068E+02  0.51100000000E-03 0. -1.
        -11    1    3    3    0    0  0.71347028655E+01  0.79876687075E+01 -0.14479663564E+01  0.10807564165E+02  0.51100000000E-03 0.  1.
        -12    1    3    3    0    0 -0.35089774697E+01  0.17519650866E+02 -0.31781050904E+02  0.36459378573E+02  0.00000000000E+00 0.  1.
</event>
<event>
 7    1  0.6184948E-012  0.5930207E+02  0.7816164E-02  0.1266604E+00
        -11   -1    0    0    0    0  0.00000000000E+00  0.00000000000E+00  0.45593999997E+02  0.45594000000E+02  0.51100000000E-03 0.  1.
         11   -1    0    0    0    0 -0.00000000000E+00 -0.00000000000E+00 -0.45593999997E+02  0.45594000000E+02  0.51100000000E-03 0. -1.
    9900012    2    1    2    0    0  0.80523461785E+01 -0.21543524955E+02  0.22085028374E+02  0.59302074817E+02  0.50000238528E+02 0.  0.
         12    1    1    2    0    0 -0.80523461785E+01  0.21543524955E+02 -0.22085028374E+02  0.31885925183E+02  0.00000000000E+00 0. -1.
         11    1    3    3    0    0  0.18885827509E+02 -0.38711529408E+01 -0.24726246702E+01  0.19436413733E+02  0.51100000000E-03 0. -1.
        -11    1    3    3    0    0 -0.11858479360E+02  0.16543082949E+01  0.80481471757E+01  0.14426813297E+02  0.51100000000E-03 0.  1.
        -12    1    3    3    0    0  0.10249980301E+01 -0.19326680309E+02  0.16509505869E+02  0.25438847787E+02  0.00000000000E+00 0.  1.
</event>
<event>
 7    1  0.6184948E-012  0.5930195E+02  0.7816164E-02  0.1266605E+00
        -11   -1    0    0    0    0  0.00000000000E+00  0.00000000000E+00  0.45593999997E+02  0.45594000000E+02  0.51100000000E-03 0.  1.
         11   -1    0    0    0    0 -0.00000000000E+00 -0.00000000000E+00 -0.45593999997E+02  0.45594000000E+02  0.51100000000E-03 0. -1.
    9900012    2    1    2    0    0  0.25311063062E+02 -0.58938805721E+01  0.18475179008E+02  0.59301953194E+02  0.50000016717E+02 0.  0.
         12    1    1    2    0    0 -0.25311063062E+02  0.58938805721E+01 -0.18475179008E+02  0.31886046806E+02  0.00000000000E+00 0. -1.
         11    1    3    3    0    0  0.37513088687E+01 -0.16246788717E+02 -0.61376333262E+01  0.17767976952E+02  0.51100000000E-03 0. -1.
        -11    1    3    3    0    0  0.83969414889E+01 -0.14804814582E+01 -0.27382085345E+01  0.89553468920E+01  0.51100000000E-03 0.  1.
        -12    1    3    3    0    0  0.13162812704E+02  0.11833389603E+02  0.27351020869E+02  0.32578629351E+02  0.00000000000E+00 0.  1.
</event>
<event>
 7    1  0.6184948E-012  0.5930199E+02  0.7816164E-02  0.1266605E+00
        -11   -1    0    0    0    0  0.00000000000E+00  0.00000000000E+00  0.45593999997E+02  0.45594000000E+02  0.51100000000E-03 0.  1.
         11   -1    0    0    0    0 -0.00000000000E+00 -0.00000000000E+00 -0.45593999997E+02  0.45594000000E+02  0.51100000000E-03 0. -1.
    9900012    2    1    2    0    0  0.41710662167E+01  0.12784647329E+02  0.28911465031E+02  0.59301987221E+02  0.50000078775E+02 0.  0.
         12    1    1    2    0    0 -0.41710662167E+01 -0.12784647329E+02 -0.28911465031E+02  0.31886012779E+02  0.00000000000E+00 0. -1.
         11    1    3    3    0    0  0.47423391177E+01 -0.72488657223E+01  0.39503848610E+00  0.86713257484E+01  0.51100000000E-03 0. -1.
        -11    1    3    3    0    0 -0.89074565605E+01 -0.25937834784E+01 -0.40379022645E+01  0.10118060588E+02  0.51100000000E-03 0.  1.
         12    1    3    3    0    0  0.83361836595E+01  0.22627296529E+02  0.32554328809E+02  0.40512600885E+02  0.00000000000E+00 0. -1.
</event>
<event>
 7    1  0.6184948E-012  0.5930195E+02  0.7816164E-02  0.1266605E+00
        -11   -1    0    0    0    0  0.00000000000E+00  0.00000000000E+00  0.45593999997E+02  0.45594000000E+02  0.51100000000E-03 0.  1.
         11   -1    0    0    0    0 -0.00000000000E+00 -0.00000000000E+00 -0.45593999997E+02  0.45594000000E+02  0.51100000000E-03 0. -1.
    9900012    2    1    2    0    0 -0.23909699029E+02  0.15160831024E+02 -0.14669559519E+02  0.59301945345E+02  0.50000002403E+02 0.  0.
         12    1    1    2    0    0  0.23909699029E+02 -0.15160831024E+02  0.14669559519E+02  0.31886054655E+02  0.00000000000E+00 0. -1.
         11    1    3    3    0    0 -0.22487921976E+02  0.12347798146E+02 -0.23617727595E+02  0.34870787357E+02  0.51100000000E-03 0. -1.
        -11    1    3    3    0    0 -0.43952024025E+01  0.10715215346E+02 -0.70936253449E+00  0.11603311577E+02  0.51100000000E-03 0.  1.
         12    1    3    3    0    0  0.29734253495E+01 -0.79021824687E+01  0.96575306107E+01  0.12827846412E+02  0.00000000000E+00 0. -1.
</event>
<event>
 7    1  0.6184948E-012  0.5930197E+02  0.7816164E-02  0.1266605E+00
        -11   -1    0    0    0    0  0.00000000000E+00  0.00000000000E+00  0.45593999997E+02  0.45594000000E+02  0.51100000000E-03 0. -1.
         11   -1    0    0    0    0 -0.00000000000E+00 -0.00000000000E+00 -0.45593999997E+02  0.45594000000E+02  0.51100000000E-03 0.  1.
    9900012    2    1    2    0    0 -0.11366701854E+02  0.29067945994E+02  0.65246993629E+01  0.59301967053E+02  0.50000041992E+02 0.  0.
         12    1    1    2    0    0  0.11366701854E+02 -0.29067945994E+02 -0.65246993629E+01  0.31886032947E+02  0.00000000000E+00 0. -1.
         11    1    3    3    0    0 -0.22230379745E+01 -0.24557162051E+01  0.24715586801E+01  0.41329217857E+01  0.51100000000E-03 0. -1.
        -11    1    3    3    0    0  0.23675824190E+01 -0.10377467281E+02  0.48757104846E+01  0.11707682378E+02  0.51100000000E-03 0.  1.
         12    1    3    3    0    0 -0.11511246299E+02  0.41901129480E+02 -0.82256980175E+00  0.43461362889E+02  0.00000000000E+00 0. -1.
</event>
<event>
 7    1  0.6184948E-012  0.5930189E+02  0.7816164E-02  0.1266605E+00
        -11   -1    0    0    0    0  0.00000000000E+00  0.00000000000E+00  0.45593999997E+02  0.45594000000E+02  0.51100000000E-03 0.  1.
         11   -1    0    0    0    0 -0.00000000000E+00 -0.00000000000E+00 -0.45593999997E+02  0.45594000000E+02  0.51100000000E-03 0. -1.
    9900012    2    1    2    0    0 -0.31871286509E+02  0.94347114213E+00 -0.23511651756E+00  0.59301885133E+02  0.49999892590E+02 0.  0.
         12    1    1    2    0    0  0.31871286509E+02 -0.94347114213E+00  0.23511651756E+00  0.31886114867E+02  0.00000000000E+00 0. -1.
         11    1    3    3    0    0 -0.77081413790E+00 -0.74003919057E+01 -0.70462100966E+01  0.10247391462E+02  0.51100000000E-03 0. -1.
        -11    1    3    3    0    0  0.13055116038E+01 -0.93626176204E+01  0.75826599873E+01  0.12118568480E+02  0.51100000000E-03 0.  1.
         12    1    3    3    0    0 -0.32405983975E+02  0.17706480668E+02 -0.77156640824E+00  0.36935925191E+02  0.00000000000E+00 0. -1.
</event>
<event>
 7    1  0.6184948E-012  0.5930195E+02  0.7816164E-02  0.1266605E+00
        -11   -1    0    0    0    0  0.00000000000E+00  0.00000000000E+00  0.45593999997E+02  0.45594000000E+02  0.51100000000E-03 0. -1.
         11   -1    0    0    0    0 -0.00000000000E+00 -0.00000000000E+00 -0.45593999997E+02  0.45594000000E+02  0.51100000000E-03 0.  1.
    9900012    2    1    2    0    0  0.20845131877E+02  0.30103108977E+01 -0.23940312184E+02  0.59301952234E+02  0.50000014965E+02 0.  0.
         12    1    1    2    0    0 -0.20845131877E+02 -0.30103108977E+01  0.23940312184E+02  0.31886047766E+02  0.00000000000E+00 0. -1.
         11    1    3    3    0    0  0.16517161166E+02 -0.54732853341E+01 -0.13426187517E+02  0.21978079462E+02  0.51100000000E-03 0. -1.
        -11    1    3    3    0    0  0.10519201642E+02  0.16287458385E+02 -0.16707140566E+02  0.25594207352E+02  0.51100000000E-03 0.  1.
         12    1    3    3    0    0 -0.61912309310E+01 -0.78038621530E+01  0.61930158983E+01  0.11729665420E+02  0.00000000000E+00 0. -1.
</event>
<event>
 7    1  0.6184948E-012  0.5930193E+02  0.7816164E-02  0.1266605E+00
        -11   -1    0    0    0    0  0.00000000000E+00  0.00000000000E+00  0.45593999997E+02  0.45594000000E+02  0.51100000000E-03 0. -1.
         11   -1    0    0    0    0 -0.00000000000E+00 -0.00000000000E+00 -0.45593999997E+02  0.45594000000E+02  0.51100000000E-03 0.  1.
    9900012    2    1    2    0    0 -0.90344788712E+01 -0.10059773024E+02 -0.28877333103E+02  0.59301933938E+02  0.49999981599E+02 0.  0.
         12    1    1    2    0    0  0.90344788712E+01  0.10059773024E+02  0.28877333103E+02  0.31886066062E+02  0.00000000000E+00 0. -1.
         11    1    3    3    0    0 -0.13440488063E+02  0.86118506167E+01  0.78769881250E+00  0.15982213867E+02  0.51100000000E-03 0. -1.
        -11    1    3    3    0    0  0.58487659527E+01  0.84290672095E+00  0.18777633540E+01  0.62003669556E+01  0.51100000000E-03 0.  1.
         12    1    3    3    0    0 -0.14427567608E+01 -0.19514530362E+02 -0.31542795269E+02  0.37119353115E+02  0.00000000000E+00 0. -1.
</event>
<event>
 7    1  0.6184948E-012  0.5930194E+02  0.7816164E-02  0.1266605E+00
        -11   -1    0    0    0    0  0.00000000000E+00  0.00000000000E+00  0.45593999997E+02  0.45594000000E+02  0.51100000000E-03 0.  1.
         11   -1    0    0    0    0 -0.00000000000E+00 -0.00000000000E+00 -0.45593999997E+02  0.45594000000E+02  0.51100000000E-03 0. -1.
    9900012    2    1    2    0    0  0.25498603602E+02 -0.17996160188E+02  0.65329943227E+01  0.59301943769E+02  0.49999999527E+02 0.  0.
         12    1    1    2    0    0 -0.25498603602E+02  0.17996160188E+02 -0.65329943227E+01  0.31886056231E+02  0.00000000000E+00 0. -1.
         11    1    3    3    0    0 -0.11371664034E+00  0.53436187763E+01 -0.32511089796E+01  0.62559494051E+01  0.51100000000E-03 0. -1.
        -11    1    3    3    0    0  0.24046324013E+02  0.17201517120E+01  0.13552439353E+02  0.27655980061E+02  0.51100000000E-03 0.  1.
        -12    1    3    3    0    0  0.15659962295E+01 -0.25059930676E+02 -0.37683360505E+01  0.25390014303E+02  0.00000000000E+00 0.  1.
</event>
<event>
 7    1  0.6184948E-012  0.5930192E+02  0.7816164E-02  0.1266605E+00
        -11   -1    0    0    0    0  0.00000000000E+00  0.00000000000E+00  0.45593999997E+02  0.45594000000E+02  0.51100000000E-03 0. -1.
         11   -1    0    0    0    0 -0.00000000000E+00 -0.00000000000E+00 -0.45593999997E+02  0.45594000000E+02  0.51100000000E-03 0.  1.
    9900012    2    1    2    0    0  0.13344328833E+02 -0.51525392662E+01 -0.28497409666E+02  0.59301919486E+02  0.49999955241E+02 0.  0.
         12    1    1    2    0    0 -0.13344328833E+02  0.51525392662E+01  0.28497409666E+02  0.31886080514E+02  0.00000000000E+00 0. -1.
         11    1    3    3    0    0 -0.35844367266E+01  0.46801358371E+01  0.31566334982E+01  0.66870167791E+01  0.51100000000E-03 0. -1.
        -11    1    3    3    0    0 -0.84070561673E+00  0.54768905642E+01 -0.28399710931E+02  0.28935215524E+02  0.51100000000E-03 0.  1.
        -12    1    3    3    0    0  0.17769471176E+02 -0.15309565668E+02 -0.32543322334E+01  0.23679687183E+02  0.00000000000E+00 0.  1.
</event>
<event>
 7    1  0.6184948E-012  0.5930195E+02  0.7816164E-02  0.1266605E+00
        -11   -1    0    0    0    0  0.00000000000E+00  0.00000000000E+00  0.45593999997E+02  0.45594000000E+02  0.51100000000E-03 0. -1.
         11   -1    0    0    0    0 -0.00000000000E+00 -0.00000000000E+00 -0.45593999997E+02  0.45594000000E+02  0.51100000000E-03 0.  1.
    9900012    2    1    2    0    0 -0.20780648854E+02 -0.21974977361E+02 -0.10098762316E+02  0.59301952940E+02  0.50000016254E+02 0.  0.
         12    1    1    2    0    0  0.20780648854E+02  0.21974977361E+02  0.10098762316E+02  0.31886047060E+02  0.00000000000E+00 0. -1.
         11    1    3    3    0    0 -0.20597980496E+02 -0.91857881128E+01  0.97700360526E+01  0.24578631135E+02  0.51100000000E-03 0. -1.
        -11    1    3    3    0    0 -0.12062001594E+02 -0.11050853138E+02 -0.12969055008E+02  0.20876053880E+02  0.51100000000E-03 0.  1.
         12    1    3    3    0    0  0.11879333235E+02 -0.17383361094E+01 -0.68997433607E+01  0.13847267925E+02  0.00000000000E+00 0. -1.
</event>
<event>
 7    1  0.6184948E-012  0.5930194E+02  0.7816164E-02  0.1266605E+00
        -11   -1    0    0    0    0  0.00000000000E+00  0.00000000000E+00  0.45593999997E+02  0.45594000000E+02  0.51100000000E-03 0.  1.
         11   -1    0    0    0    0 -0.00000000000E+00 -0.00000000000E+00 -0.45593999997E+02  0.45594000000E+02  0.51100000000E-03 0. -1.
    9900012    2    1    2    0    0 -0.41452134357E+01 -0.31062584849E+02  0.58867701284E+01  0.59301936673E+02  0.49999986587E+02 0.  0.
         12    1    1    2    0    0  0.41452134357E+01  0.31062584849E+02 -0.58867701284E+01  0.31886063327E+02  0.00000000000E+00 0. -1.
         11    1    3    3    0    0 -0.15852103055E+01  0.12096634734E+00  0.74339360163E+00  0.17550381414E+01  0.51100000000E-03 0. -1.
        -11    1    3    3    0    0  0.81051663246E+01 -0.25357833656E+02  0.23514756565E+02  0.35519814547E+02  0.51100000000E-03 0.  1.
         12    1    3    3    0    0 -0.10665169455E+02 -0.58257175402E+01 -0.18371380038E+02  0.22027083985E+02  0.00000000000E+00 0. -1.
</event>
<event>
 7    1  0.6184948E-012  0.5930192E+02  0.7816164E-02  0.1266605E+00
        -11   -1    0    0    0    0  0.00000000000E+00  0.00000000000E+00  0.45593999997E+02  0.45594000000E+02  0.51100000000E-03 0. -1.
         11   -1    0    0    0    0 -0.00000000000E+00 -0.00000000000E+00 -0.45593999997E+02  0.45594000000E+02  0.51100000000E-03 0.  1.
    9900012    2    1    2    0    0 -0.13754400500E+02  0.28699583613E+02 -0.19677966136E+01  0.59301923788E+02  0.49999963087E+02 0.  0.
         12    1    1    2    0    0  0.13754400500E+02 -0.28699583613E+02  0.19677966136E+01  0.31886076212E+02  0.00000000000E+00 0. -1.
         11    1    3    3    0    0 -0.74423293823E+01  0.60056148496E+01  0.11614455372E+02  0.15044974250E+02  0.51100000000E-03 0. -1.
        -11    1    3    3    0    0 -0.88218462647E+01 -0.72759457310E+01 -0.46125475947E+00  0.11444523320E+02  0.51100000000E-03 0.  1.
        -12    1    3    3    0    0  0.25097751470E+01  0.29969914495E+02 -0.13120997226E+02  0.32812426218E+02  0.00000000000E+00 0.  1.
</event>
<event>
 7    1  0.6184948E-012  0.5930194E+02  0.7816164E-02  0.1266605E+00
        -11   -1    0    0    0    0  0.00000000000E+00  0.00000000000E+00  0.45593999997E+02  0.45594000000E+02  0.51100000000E-03 0. -1.
         11   -1    0    0    0    0 -0.00000000000E+00 -0.00000000000E+00 -0.45593999997E+02  0.45594000000E+02  0.51100000000E-03 0.  1.
    9900012    2    1    2    0    0 -0.16887800044E+02 -0.18782983839E+01 -0.26981382830E+02  0.59301940122E+02  0.49999992876E+02 0.  0.
         12    1    1    2    0    0  0.16887800044E+02  0.18782983839E+01  0.26981382830E+02  0.31886059878E+02  0.00000000000E+00 0. -1.
         11    1    3    3    0    0  0.10493653132E+01 -0.51908762832E+01  0.78342537879E+01  0.94563151821E+01  0.51100000000E-03 0. -1.
        -11    1    3    3    0    0 -0.10138850433E+02 -0.13302250321E+02 -0.12109406099E+02  0.20649064580E+02  0.51100000000E-03 0.  1.
         12    1    3    3    0    0 -0.77983149248E+01  0.16614828220E+02 -0.22706230519E+02  0.29196560360E+02  0.00000000000E+00 0. -1.
</event>
<event>
 7    1  0.6184948E-012  0.5930196E+02  0.7816164E-02  0.1266605E+00
        -11   -1    0    0    0    0  0.00000000000E+00  0.00000000000E+00  0.45593999997E+02  0.45594000000E+02  0.51100000000E-03 0.  1.
         11   -1    0    0    0    0 -0.00000000000E+00 -0.00000000000E+00 -0.45593999997E+02  0.45594000000E+02  0.51100000000E-03 0. -1.
    9900012    2    1    2    0    0 -0.23121477333E+02  0.13916334738E+02  0.16983882907E+02  0.59301962849E+02  0.50000034326E+02 0.  0.
         12    1    1    2    0    0  0.23121477333E+02 -0.13916334738E+02 -0.16983882907E+02  0.31886037151E+02  0.00000000000E+00 0. -1.
         11    1    3    3    0    0  0.38134544061E+01 -0.88871200474E+01 -0.31287922547E+01  0.10164284455E+02  0.51100000000E-03 0. -1.
        -11    1    3    3    0    0 -0.17461798684E+01  0.36238706899E+01 -0.65900082613E+01  0.77207377921E+01  0.51100000000E-03 0.  1.
        -12    1    3    3    0    0 -0.25188751871E+02  0.19179584095E+02  0.26702683423E+02  0.41416940602E+02  0.00000000000E+00 0.  1.
</event>
<event>
 7    1  0.6184948E-012  0.5930194E+02  0.7816164E-02  0.1266605E+00
        -11   -1    0    0    0    0  0.00000000000E+00  0.00000000000E+00  0.45593999997E+02  0.45594000000E+02  0.51100000000E-03 0. -1.
         11   -1    0    0    0    0 -0.00000000000E+00 -0.00000000000E+00 -0.45593999997E+02  0.45594000000E+02  0.51100000000E-03 0.  1.
    9900012    2    1    2    0    0 -0.30090182895E+02 -0.55234877342E+01 -0.89884738625E+01  0.59301942141E+02  0.49999996559E+02 0.  0.
         12    1    1    2    0    0  0.30090182895E+02  0.55234877342E+01  0.89884738625E+01  0.31886057859E+02  0.00000000000E+00 0. -1.
         11    1    3    3    0    0  0.13259297038E+01  0.23598421805E+01 -0.68242955370E+01  0.73415226304E+01  0.51100000000E-03 0. -1.
        -11    1    3    3    0    0 -0.29381556704E+02  0.11666517575E+02 -0.53067737020E+01  0.32055348291E+02  0.51100000000E-03 0.  1.
         12    1    3    3    0    0 -0.20345558950E+01 -0.19549847489E+02  0.31425953765E+01  0.19905071219E+02  0.00000000000E+00 0. -1.
</event>
<event>
 7    1  0.6184948E-012  0.5930188E+02  0.7816164E-02  0.1266605E+00
        -11   -1    0    0    0    0  0.00000000000E+00  0.00000000000E+00  0.45593999997E+02  0.45594000000E+02  0.51100000000E-03 0. -1.
         11   -1    0    0    0    0 -0.00000000000E+00 -0.00000000000E+00 -0.45593999997E+02  0.45594000000E+02  0.51100000000E-03 0.  1.
    9900012    2    1    2    0    0  0.42065087729E+01 -0.23996406326E+02  0.20571889563E+02  0.59301876485E+02  0.49999876818E+02 0.  0.
         12    1    1    2    0    0 -0.42065087729E+01  0.23996406326E+02 -0.20571889563E+02  0.31886123515E+02  0.00000000000E+00 0. -1.
         11    1    3    3    0    0  0.39702111395E+01  0.25686063290E+01  0.24635058362E+02  0.25084784546E+02  0.51100000000E-03 0. -1.
        -11    1    3    3    0    0 -0.64002150906E+01 -0.70720865269E+01  0.60304041725E+01  0.11284632728E+02  0.51100000000E-03 0.  1.
        -12    1    3    3    0    0  0.66365127240E+01 -0.19492926128E+02 -0.10093572971E+02  0.22932459212E+02  0.00000000000E+00 0.  1.
</event>
<event>
 7    1  0.6184948E-012  0.5930191E+02  0.7816164E-02  0.1266605E+00
        -11   -1    0    0    0    0  0.00000000000E+00  0.00000000000E+00  0.45593999997E+02  0.45594000000E+02  0.51100000000E-03 0.  1.
         11   -1    0    0    0    0 -0.00000000000E+00 -0.00000000000E+00 -0.45593999997E+02  0.45594000000E+02  0.51100000000E-03 0. -1.
    9900012    2    1    2    0    0  0.23018510789E+02  0.73765616166E+01  0.20795603701E+02  0.59301911599E+02  0.49999940857E+02 0.  0.
         12    1    1    2    0    0 -0.23018510789E+02 -0.73765616166E+01 -0.20795603701E+02  0.31886088401E+02  0.00000000000E+00 0. -1.
         11    1    3    3    0    0  0.20470437690E+02  0.74367032466E+01  0.41171690633E+01  0.22165163111E+02  0.51100000000E-03 0.  1.
        -11    1    3    3    0    0 -0.30197629570E+01  0.14657510178E+02  0.11184876161E+01  0.15007084585E+02  0.51100000000E-03 0. -1.
        -12    1    3    3    0    0  0.55678360562E+01 -0.14717651808E+02  0.15559947022E+02  0.22129663902E+02  0.00000000000E+00 0.  1.
</event>
<event>
 7    1  0.6184948E-012  0.5930193E+02  0.7816164E-02  0.1266605E+00
        -11   -1    0    0    0    0  0.00000000000E+00  0.00000000000E+00  0.45593999997E+02  0.45594000000E+02  0.51100000000E-03 0.  1.
         11   -1    0    0    0    0 -0.00000000000E+00 -0.00000000000E+00 -0.45593999997E+02  0.45594000000E+02  0.51100000000E-03 0. -1.
    9900012    2    1    2    0    0  0.22210386921E+02  0.10762272369E+02  0.20188946482E+02  0.59301931666E+02  0.49999977455E+02 0.  0.
         12    1    1    2    0    0 -0.22210386921E+02 -0.10762272369E+02 -0.20188946482E+02  0.31886068334E+02  0.00000000000E+00 0. -1.
         11    1    3    3    0    0  0.10292637817E+02 -0.16864238521E+02  0.71747677177E+01  0.21019472548E+02  0.51100000000E-03 0. -1.
        -11    1    3    3    0    0 -0.37163612239E+01 -0.48241242657E+00  0.22177706692E+01  0.43546032538E+01  0.51100000000E-03 0.  1.
        -12    1    3    3    0    0  0.15634110329E+02  0.28108923317E+02  0.10796408095E+02  0.33927855864E+02  0.00000000000E+00 0.  1.
</event>
<event>
 7    1  0.6184948E-012  0.5930194E+02  0.7816164E-02  0.1266605E+00
        -11   -1    0    0    0    0  0.00000000000E+00  0.00000000000E+00  0.45593999997E+02  0.45594000000E+02  0.51100000000E-03 0.  1.
         11   -1    0    0    0    0 -0.00000000000E+00 -0.00000000000E+00 -0.45593999997E+02  0.45594000000E+02  0.51100000000E-03 0. -1.
    9900012    2    1    2    0    0 -0.98248558622E-01 -0.20082354820E+02  0.24767117698E+02  0.59301941182E+02  0.49999994810E+02 0.  0.
         12    1    1    2    0    0  0.98248558622E-01  0.20082354820E+02 -0.24767117698E+02  0.31886058818E+02  0.00000000000E+00 0. -1.
         11    1    3    3    0    0  0.36978713423E+01 -0.18272302096E+02  0.54386047322E+01  0.19419827446E+02  0.51100000000E-03 0. -1.
        -11    1    3    3    0    0  0.94307482712E+01  0.42213556083E+01  0.22716049458E+02  0.24955515610E+02  0.51100000000E-03 0.  1.
         12    1    3    3    0    0 -0.13226868172E+02 -0.60314083324E+01 -0.33875364926E+01  0.14926598126E+02  0.00000000000E+00 0. -1.
</event>
<event>
 7    1  0.6184948E-012  0.5930178E+02  0.7816164E-02  0.1266605E+00
        -11   -1    0    0    0    0  0.00000000000E+00  0.00000000000E+00  0.45593999997E+02  0.45594000000E+02  0.51100000000E-03 0.  1.
         11   -1    0    0    0    0 -0.00000000000E+00 -0.00000000000E+00 -0.45593999997E+02  0.45594000000E+02  0.51100000000E-03 0. -1.
    9900012    2    1    2    0    0 -0.16423395462E+02  0.93084567796E+01  0.25697383162E+02  0.59301783738E+02  0.49999707670E+02 0.  0.
         12    1    1    2    0    0  0.16423395462E+02 -0.93084567796E+01 -0.25697383162E+02  0.31886216262E+02  0.00000000000E+00 0. -1.
         11    1    3    3    0    0 -0.23494451429E+01  0.11199572561E+02  0.11467762359E+02  0.16200613933E+02  0.51100000000E-03 0. -1.
        -11    1    3    3    0    0 -0.12510608444E+02  0.28836571541E+01  0.26716611460E+02  0.29641324707E+02  0.51100000000E-03 0.  1.
         12    1    3    3    0    0 -0.15633418755E+01 -0.47747729357E+01 -0.12486990657E+02  0.13459845098E+02  0.00000000000E+00 0. -1.
</event>
<event>
 7    1  0.6184948E-012  0.5930196E+02  0.7816164E-02  0.1266605E+00
        -11   -1    0    0    0    0  0.00000000000E+00  0.00000000000E+00  0.45593999997E+02  0.45594000000E+02  0.51100000000E-03 0.  1.
         11   -1    0    0    0    0 -0.00000000000E+00 -0.00000000000E+00 -0.45593999997E+02  0.45594000000E+02  0.51100000000E-03 0. -1.
    9900012    2    1    2    0    0 -0.14405672173E+02 -0.23636132132E+01  0.28348011864E+02  0.59301955485E+02  0.50000020896E+02 0.  0.
         12    1    1    2    0    0  0.14405672173E+02  0.23636132132E+01 -0.28348011864E+02  0.31886044515E+02  0.00000000000E+00 0. -1.
         11    1    3    3    0    0 -0.93102299153E+01 -0.84681243873E+01  0.30598481433E+01  0.12951918106E+02  0.51100000000E-03 0. -1.
        -11    1    3    3    0    0 -0.18752262135E+02 -0.60729551494E+01  0.17870769528E+02  0.26606249702E+02  0.51100000000E-03 0.  1.
         12    1    3    3    0    0  0.13656819877E+02  0.12177466324E+02  0.74173941924E+01  0.19743787677E+02  0.00000000000E+00 0. -1.
</event>
<event>
 7    1  0.6184948E-012  0.5930191E+02  0.7816164E-02  0.1266605E+00
        -11   -1    0    0    0    0  0.00000000000E+00  0.00000000000E+00  0.45593999997E+02  0.45594000000E+02  0.51100000000E-03 0. -1.
         11   -1    0    0    0    0 -0.00000000000E+00 -0.00000000000E+00 -0.45593999997E+02  0.45594000000E+02  0.51100000000E-03 0.  1.
    9900012    2    1    2    0    0  0.87572724820E+01 -0.17780262234E+02 -0.24977897705E+02  0.59301907103E+02  0.49999932659E+02 0.  0.
         12    1    1    2    0    0 -0.87572724820E+01  0.17780262234E+02  0.24977897705E+02  0.31886092897E+02  0.00000000000E+00 0. -1.
         11    1    3    3    0    0 -0.42389446308E+01 -0.31724880903E+01  0.74600487825E+01  0.91479866837E+01  0.51100000000E-03 0. -1.
        -11    1    3    3    0    0  0.77779958042E+01 -0.18761654880E+02 -0.36901138821E+01  0.20642525361E+02  0.51100000000E-03 0.  1.
        -12    1    3    3    0    0  0.52182213086E+01  0.41538807358E+01 -0.28747832605E+02  0.29511395059E+02  0.00000000000E+00 0.  1.
</event>
<event>
 7    1  0.6184948E-012  0.5930188E+02  0.7816164E-02  0.1266605E+00
        -11   -1    0    0    0    0  0.00000000000E+00  0.00000000000E+00  0.45593999997E+02  0.45594000000E+02  0.51100000000E-03 0.  1.
         11   -1    0    0    0    0 -0.00000000000E+00 -0.00000000000E+00 -0.45593999997E+02  0.45594000000E+02  0.51100000000E-03 0. -1.
    9900012    2    1    2    0    0  0.70110456228E+01 -0.29062946967E+02  0.11086696551E+02  0.59301882526E+02  0.49999887836E+02 0.  0.
         12    1    1    2    0    0 -0.70110456228E+01  0.29062946967E+02 -0.11086696551E+02  0.31886117474E+02  0.00000000000E+00 0. -1.
         11    1    3    3    0    0  0.11995587068E+02 -0.33715865581E+01  0.16569326045E+02  0.20731721368E+02  0.51100000000E-03 0. -1.
        -11    1    3    3    0    0 -0.72299701423E+01 -0.77595585737E+01  0.10146326811E+02  0.14677573557E+02  0.51100000000E-03 0.  1.
         12    1    3    3    0    0  0.22454286966E+01 -0.17931801835E+02 -0.15628956305E+02  0.23892587601E+02  0.00000000000E+00 0. -1.
</event>
<event>
 7    1  0.6184948E-012  0.5930195E+02  0.7816164E-02  0.1266605E+00
        -11   -1    0    0    0    0  0.00000000000E+00  0.00000000000E+00  0.45593999997E+02  0.45594000000E+02  0.51100000000E-03 0.  1.
         11   -1    0    0    0    0 -0.00000000000E+00 -0.00000000000E+00 -0.45593999997E+02  0.45594000000E+02  0.51100000000E-03 0. -1.
    9900012    2    1    2    0    0 -0.20656534820E+02 -0.24062855035E+02 -0.33176577798E+01  0.59301948561E+02  0.50000008268E+02 0.  0.
         12    1    1    2    0    0  0.20656534820E+02  0.24062855035E+02  0.33176577798E+01  0.31886051439E+02  0.00000000000E+00 0. -1.
         11    1    3    3    0    0 -0.78566052109E+01 -0.33664650034E+00  0.44990221255E+01  0.90598441847E+01  0.51100000000E-03 0. -1.
        -11    1    3    3    0    0 -0.21825287656E+02 -0.78560712123E+01  0.95119800190E+01  0.25070676104E+02  0.51100000000E-03 0.  1.
         12    1    3    3    0    0  0.90253580472E+01 -0.15870137323E+02 -0.17328659924E+02  0.25171428273E+02  0.00000000000E+00 0. -1.
</event>
<event>
 7    1  0.6184948E-012  0.5930194E+02  0.7816164E-02  0.1266605E+00
        -11   -1    0    0    0    0  0.00000000000E+00  0.00000000000E+00  0.45593999997E+02  0.45594000000E+02  0.51100000000E-03 0.  1.
         11   -1    0    0    0    0 -0.00000000000E+00 -0.00000000000E+00 -0.45593999997E+02  0.45594000000E+02  0.51100000000E-03 0. -1.
    9900012    2    1    2    0    0  0.53225954170E+01 -0.15178564032E+02  0.27531837681E+02  0.59301938561E+02  0.49999990029E+02 0.  0.
         12    1    1    2    0    0 -0.53225954170E+01  0.15178564032E+02 -0.27531837681E+02  0.31886061439E+02  0.00000000000E+00 0. -1.
         11    1    3    3    0    0  0.10683364728E+02 -0.10201991946E+02  0.44838611196E+01  0.15437614207E+02  0.51100000000E-03 0. -1.
        -11    1    3    3    0    0  0.71555826099E+01 -0.16252984351E+01  0.28776445669E+02  0.29697268950E+02  0.51100000000E-03 0.  1.
        -12    1    3    3    0    0 -0.12516351921E+02 -0.33512736502E+01 -0.57284691077E+01  0.14167055404E+02  0.00000000000E+00 0.  1.
</event>
<event>
 7    1  0.6184948E-012  0.5930193E+02  0.7816164E-02  0.1266605E+00
        -11   -1    0    0    0    0  0.00000000000E+00  0.00000000000E+00  0.45593999997E+02  0.45594000000E+02  0.51100000000E-03 0.  1.
         11   -1    0    0    0    0 -0.00000000000E+00 -0.00000000000E+00 -0.45593999997E+02  0.45594000000E+02  0.51100000000E-03 0. -1.
    9900012    2    1    2    0    0  0.50243910439E+01  0.18317366269E+02  0.25611535612E+02  0.59301934567E+02  0.49999982746E+02 0.  0.
         12    1    1    2    0    0 -0.50243910439E+01 -0.18317366269E+02 -0.25611535612E+02  0.31886065433E+02  0.00000000000E+00 0. -1.
         11    1    3    3    0    0 -0.17929467575E+02  0.64504724771E+00  0.82278206117E+01  0.19737753818E+02  0.51100000000E-03 0. -1.
        -11    1    3    3    0    0 -0.42999697742E+00  0.53810437846E+01  0.11199458188E+02  0.12432553783E+02  0.51100000000E-03 0.  1.
         12    1    3    3    0    0  0.23383855597E+02  0.12291275236E+02  0.61842568123E+01  0.27131626966E+02  0.00000000000E+00 0. -1.
</event>
<event>
 7    1  0.6184948E-012  0.5930206E+02  0.7816164E-02  0.1266604E+00
        -11   -1    0    0    0    0  0.00000000000E+00  0.00000000000E+00  0.45593999997E+02  0.45594000000E+02  0.51100000000E-03 0.  1.
         11   -1    0    0    0    0 -0.00000000000E+00 -0.00000000000E+00 -0.45593999997E+02  0.45594000000E+02  0.51100000000E-03 0. -1.
    9900012    2    1    2    0    0 -0.26412972540E+02  0.90889989765E+01  0.15377201134E+02  0.59302057400E+02  0.50000206763E+02 0.  0.
         12    1    1    2    0    0  0.26412972540E+02 -0.90889989765E+01 -0.15377201134E+02  0.31885942600E+02  0.00000000000E+00 0. -1.
         11    1    3    3    0    0  0.30931338212E+01 -0.65464852967E+01  0.16359852313E+02  0.17890464346E+02  0.51100000000E-03 0. -1.
        -11    1    3    3    0    0 -0.14112243468E+02  0.73939554701E+01 -0.12707521676E+02  0.20379084881E+02  0.51100000000E-03 0.  1.
        -12    1    3    3    0    0 -0.15393862894E+02  0.82415288031E+01  0.11724870498E+02  0.21032508172E+02  0.00000000000E+00 0.  1.
</event>
<event>
 7    1  0.6184948E-012  0.5930196E+02  0.7816164E-02  0.1266605E+00
        -11   -1    0    0    0    0  0.00000000000E+00  0.00000000000E+00  0.45593999997E+02  0.45594000000E+02  0.51100000000E-03 0. -1.
         11   -1    0    0    0    0 -0.00000000000E+00 -0.00000000000E+00 -0.45593999997E+02  0.45594000000E+02  0.51100000000E-03 0.  1.
    9900012    2    1    2    0    0 -0.74654605517E+01  0.26410337618E+02 -0.16232085109E+02  0.59301958833E+02  0.50000027001E+02 0.  0.
         12    1    1    2    0    0  0.74654605517E+01 -0.26410337618E+02  0.16232085109E+02  0.31886041167E+02  0.00000000000E+00 0. -1.
         11    1    3    3    0    0 -0.76787712437E+00 -0.76949554041E+01  0.28423125417E+01  0.82389753486E+01  0.51100000000E-03 0. -1.
        -11    1    3    3    0    0 -0.83038466220E+01  0.74588489773E-01 -0.14471528575E+02  0.16684860555E+02  0.51100000000E-03 0.  1.
         12    1    3    3    0    0  0.16062631946E+01  0.34030704532E+02 -0.46028690754E+01  0.34378122929E+02  0.00000000000E+00 0. -1.
</event>
<event>
 7    1  0.6184948E-012  0.5930188E+02  0.7816164E-02  0.1266605E+00
        -11   -1    0    0    0    0  0.00000000000E+00  0.00000000000E+00  0.45593999997E+02  0.45594000000E+02  0.51100000000E-03 0. -1.
         11   -1    0    0    0    0 -0.00000000000E+00 -0.00000000000E+00 -0.45593999997E+02  0.45594000000E+02  0.51100000000E-03 0.  1.
    9900012    2    1    2    0    0  0.45264452388E+01  0.13098044794E+02 -0.28717187927E+02  0.59301884427E+02  0.49999891302E+02 0.  0.
         12    1    1    2    0    0 -0.45264452388E+01 -0.13098044794E+02  0.28717187927E+02  0.31886115573E+02  0.00000000000E+00 0. -1.
         11    1    3    3    0    0 -0.64857137818E+01  0.15032577894E+02 -0.13076127917E+02  0.20952995083E+02  0.51100000000E-03 0. -1.
        -11    1    3    3    0    0  0.24540777844E+01  0.39489393952E+01 -0.24353281480E+02  0.24793122822E+02  0.51100000000E-03 0.  1.
         12    1    3    3    0    0  0.85580812361E+01 -0.58834724951E+01  0.87122214705E+01  0.13555766522E+02  0.00000000000E+00 0. -1.
</event>
<event>
 7    1  0.6184948E-012  0.5930192E+02  0.7816164E-02  0.1266605E+00
        -11   -1    0    0    0    0  0.00000000000E+00  0.00000000000E+00  0.45593999997E+02  0.45594000000E+02  0.51100000000E-03 0.  1.
         11   -1    0    0    0    0 -0.00000000000E+00 -0.00000000000E+00 -0.45593999997E+02  0.45594000000E+02  0.51100000000E-03 0. -1.
    9900012    2    1    2    0    0  0.16686967907E+02 -0.22889829249E+02  0.14639781434E+02  0.59301915552E+02  0.49999948067E+02 0.  0.
         12    1    1    2    0    0 -0.16686967907E+02  0.22889829249E+02 -0.14639781434E+02  0.31886084448E+02  0.00000000000E+00 0. -1.
         11    1    3    3    0    0  0.10943883514E+02  0.71740177556E+01 -0.11301069491E+01  0.13134392224E+02  0.51100000000E-03 0. -1.
        -11    1    3    3    0    0  0.15300705073E+02 -0.42734896552E+01  0.57591973242E+01  0.16898007091E+02  0.51100000000E-03 0.  1.
        -12    1    3    3    0    0 -0.95576206799E+01 -0.25790357350E+02  0.10010691059E+02  0.29269516237E+02  0.00000000000E+00 0.  1.
</event>
<event>
 7    1  0.6184948E-012  0.5930192E+02  0.7816164E-02  0.1266605E+00
        -11   -1    0    0    0    0  0.00000000000E+00  0.00000000000E+00  0.45593999997E+02  0.45594000000E+02  0.51100000000E-03 0. -1.
         11   -1    0    0    0    0 -0.00000000000E+00 -0.00000000000E+00 -0.45593999997E+02  0.45594000000E+02  0.51100000000E-03 0.  1.
    9900012    2    1    2    0    0  0.27659659425E+02 -0.14022587543E+02 -0.74183830978E+01  0.59301919515E+02  0.49999955295E+02 0.  0.
         12    1    1    2    0    0 -0.27659659425E+02  0.14022587543E+02  0.74183830978E+01  0.31886080485E+02  0.00000000000E+00 0. -1.
         11    1    3    3    0    0 -0.68458326494E+01  0.72152957274E+01 -0.77078383816E+01  0.12583190767E+02  0.51100000000E-03 0. -1.
        -11    1    3    3    0    0 -0.29739827789E+01 -0.50438503546E+01  0.62809532178E+00  0.58889306298E+01  0.51100000000E-03 0.  1.
        -12    1    3    3    0    0  0.37479474853E+02 -0.16194032915E+02 -0.33864003794E+00  0.40829798119E+02  0.00000000000E+00 0.  1.
</event>
<event>
 7    1  0.6184948E-012  0.5930195E+02  0.7816164E-02  0.1266605E+00
        -11   -1    0    0    0    0  0.00000000000E+00  0.00000000000E+00  0.45593999997E+02  0.45594000000E+02  0.51100000000E-03 0.  1.
         11   -1    0    0    0    0 -0.00000000000E+00 -0.00000000000E+00 -0.45593999997E+02  0.45594000000E+02  0.51100000000E-03 0. -1.
    9900012    2    1    2    0    0  0.21139103924E+02  0.63992264130E+01  0.22998004660E+02  0.59301952398E+02  0.50000015265E+02 0.  0.
         12    1    1    2    0    0 -0.21139103924E+02 -0.63992264130E+01 -0.22998004660E+02  0.31886047602E+02  0.00000000000E+00 0. -1.
         11    1    3    3    0    0  0.10899360133E+02  0.13848538124E+02 -0.62018220012E+01  0.18682629790E+02  0.51100000000E-03 0. -1.
        -11    1    3    3    0    0 -0.10792914493E+01 -0.91674900430E+01 -0.26258522045E-01  0.92308414292E+01  0.51100000000E-03 0.  1.
        -12    1    3    3    0    0  0.11319035240E+02  0.17181783316E+01  0.29226085183E+02  0.31388481178E+02  0.00000000000E+00 0.  1.
</event>
<event>
 7    1  0.6184948E-012  0.5930193E+02  0.7816164E-02  0.1266605E+00
        -11   -1    0    0    0    0  0.00000000000E+00  0.00000000000E+00  0.45593999997E+02  0.45594000000E+02  0.51100000000E-03 0.  1.
         11   -1    0    0    0    0 -0.00000000000E+00 -0.00000000000E+00 -0.45593999997E+02  0.45594000000E+02  0.51100000000E-03 0. -1.
    9900012    2    1    2    0    0  0.25026712371E+02 -0.11150927914E+02  0.16310786209E+02  0.59301932945E+02  0.49999979788E+02 0.  0.
         12    1    1    2    0    0 -0.25026712371E+02  0.11150927914E+02 -0.16310786209E+02  0.31886067055E+02  0.00000000000E+00 0. -1.
         11    1    3    3    0    0 -0.10205484764E+02 -0.11749447276E+01  0.14255725878E+02  0.17571514873E+02  0.51100000000E-03 0. -1.
        -11    1    3    3    0    0 -0.20769305619E+01 -0.24649989536E+01 -0.14040954796E+01  0.35158704153E+01  0.51100000000E-03 0.  1.
        -12    1    3    3    0    0  0.37309127697E+02 -0.75109842331E+01  0.34591558105E+01  0.38214547657E+02  0.00000000000E+00 0.  1.
</event>
<event>
 7    1  0.6184948E-012  0.5930197E+02  0.7816164E-02  0.1266605E+00
        -11   -1    0    0    0    0  0.00000000000E+00  0.00000000000E+00  0.45593999997E+02  0.45594000000E+02  0.51100000000E-03 0. -1.
         11   -1    0    0    0    0 -0.00000000000E+00 -0.00000000000E+00 -0.45593999997E+02  0.45594000000E+02  0.51100000000E-03 0.  1.
    9900012    2    1    2    0    0 -0.49078230997E+01  0.28200029500E+02 -0.14049583134E+02  0.59301965791E+02  0.50000039691E+02 0.  0.
         12    1    1    2    0    0  0.49078230997E+01 -0.28200029500E+02  0.14049583134E+02  0.31886034209E+02  0.00000000000E+00 0. -1.
         11    1    3    3    0    0 -0.12772777250E+02  0.46593354343E+01 -0.54320872778E+01  0.14641066144E+02  0.51100000000E-03 0. -1.
        -11    1    3    3    0    0 -0.85394378262E+01 -0.52665718223E+01  0.11568324568E+01  0.10099358333E+02  0.51100000000E-03 0.  1.
        -12    1    3    3    0    0  0.16404391977E+02  0.28807265888E+02 -0.97743283125E+01  0.34561541314E+02  0.00000000000E+00 0.  1.
</event>
<event>
 7    1  0.6184948E-012  0.5930194E+02  0.7816164E-02  0.1266605E+00
        -11   -1    0    0    0    0  0.00000000000E+00  0.00000000000E+00  0.45593999997E+02  0.45594000000E+02  0.51100000000E-03 0.  1.
         11   -1    0    0    0    0 -0.00000000000E+00 -0.00000000000E+00 -0.45593999997E+02  0.45594000000E+02  0.51100000000E-03 0. -1.
    9900012    2    1    2    0    0  0.16693333524E+00 -0.11610032179E+02  0.29696801937E+02  0.59301940989E+02  0.49999994459E+02 0.  0.
         12    1    1    2    0    0 -0.16693333524E+00  0.11610032179E+02 -0.29696801937E+02  0.31886059011E+02  0.00000000000E+00 0. -1.
         11    1    3    3    0    0  0.72448476878E+01  0.18168987178E+01  0.21907283062E+02  0.23145582524E+02  0.51100000000E-03 0. -1.
        -11    1    3    3    0    0  0.46059198442E+00 -0.70966900931E+01  0.19559664012E+02  0.20812390823E+02  0.51100000000E-03 0.  1.
         12    1    3    3    0    0 -0.75385063370E+01 -0.63302408037E+01 -0.11770145137E+02  0.15343967641E+02  0.00000000000E+00 0. -1.
</event>
<event>
 7    1  0.6184948E-012  0.5930192E+02  0.7816164E-02  0.1266605E+00
        -11   -1    0    0    0    0  0.00000000000E+00  0.00000000000E+00  0.45593999997E+02  0.45594000000E+02  0.51100000000E-03 0. -1.
         11   -1    0    0    0    0 -0.00000000000E+00 -0.00000000000E+00 -0.45593999997E+02  0.45594000000E+02  0.51100000000E-03 0.  1.
    9900012    2    1    2    0    0  0.28626910060E+02  0.89552517465E+01 -0.10817830272E+02  0.59301922078E+02  0.49999959969E+02 0.  0.
         12    1    1    2    0    0 -0.28626910060E+02 -0.89552517465E+01  0.10817830272E+02  0.31886077922E+02  0.00000000000E+00 0. -1.
         11    1    3    3    0    0 -0.13421244080E+02  0.31789057317E+01 -0.46127828456E+01  0.14543486520E+02  0.51100000000E-03 0. -1.
        -11    1    3    3    0    0 -0.76312619375E+00 -0.51918297051E-01 -0.97144254727E+00  0.12364295293E+01  0.51100000000E-03 0.  1.
        -12    1    3    3    0    0  0.42811280334E+02  0.58282643119E+01 -0.52336048793E+01  0.43522006029E+02  0.00000000000E+00 0.  1.
</event>
<event>
 7    1  0.6184948E-012  0.5930195E+02  0.7816164E-02  0.1266605E+00
        -11   -1    0    0    0    0  0.00000000000E+00  0.00000000000E+00  0.45593999997E+02  0.45594000000E+02  0.51100000000E-03 0. -1.
         11   -1    0    0    0    0 -0.00000000000E+00 -0.00000000000E+00 -0.45593999997E+02  0.45594000000E+02  0.51100000000E-03 0.  1.
    9900012    2    1    2    0    0  0.96244433943E+01 -0.26648391733E+02  0.14627144413E+02  0.59301952169E+02  0.50000014847E+02 0.  0.
         12    1    1    2    0    0 -0.96244433943E+01  0.26648391733E+02 -0.14627144413E+02  0.31886047831E+02  0.00000000000E+00 0. -1.
         11    1    3    3    0    0  0.11095989097E+02 -0.92691442329E+01  0.83038493112E+01  0.16673089770E+02  0.51100000000E-03 0. -1.
        -11    1    3    3    0    0  0.99250591982E+01 -0.26024315319E+02  0.41444332778E+01  0.28159334427E+02  0.51100000000E-03 0.  1.
        -12    1    3    3    0    0 -0.11396604901E+02  0.86450678193E+01  0.21788618243E+01  0.14469527971E+02  0.00000000000E+00 0.  1.
</event>
<event>
 7    1  0.6184948E-012  0.5930194E+02  0.7816164E-02  0.1266605E+00
        -11   -1    0    0    0    0  0.00000000000E+00  0.00000000000E+00  0.45593999997E+02  0.45594000000E+02  0.51100000000E-03 0.  1.
         11   -1    0    0    0    0 -0.00000000000E+00 -0.00000000000E+00 -0.45593999997E+02  0.45594000000E+02  0.51100000000E-03 0. -1.
    9900012    2    1    2    0    0  0.58011324783E+01  0.25247892095E+02  0.18590624782E+02  0.59301944693E+02  0.50000001214E+02 0.  0.
         12    1    1    2    0    0 -0.58011324783E+01 -0.25247892095E+02 -0.18590624782E+02  0.31886055307E+02  0.00000000000E+00 0. -1.
         11    1    3    3    0    0 -0.58394112032E+01  0.34507526033E+01 -0.25829548768E+01  0.72579661673E+01  0.51100000000E-03 0. -1.
        -11    1    3    3    0    0  0.83429197931E+01 -0.55523306716E+01  0.22326254264E+02  0.24472317346E+02  0.51100000000E-03 0.  1.
         12    1    3    3    0    0  0.32976238883E+01  0.27349470163E+02 -0.11526746052E+01  0.27571661180E+02  0.00000000000E+00 0. -1.
</event>
<event>
 7    1  0.6184948E-012  0.5930195E+02  0.7816164E-02  0.1266605E+00
        -11   -1    0    0    0    0  0.00000000000E+00  0.00000000000E+00  0.45593999997E+02  0.45594000000E+02  0.51100000000E-03 0.  1.
         11   -1    0    0    0    0 -0.00000000000E+00 -0.00000000000E+00 -0.45593999997E+02  0.45594000000E+02  0.51100000000E-03 0. -1.
    9900012    2    1    2    0    0  0.33311234106E+01  0.28742775251E+02  0.13396882360E+02  0.59301953376E+02  0.50000017050E+02 0.  0.
         12    1    1    2    0    0 -0.33311234106E+01 -0.28742775251E+02 -0.13396882360E+02  0.31886046624E+02  0.00000000000E+00 0. -1.
         11    1    3    3    0    0  0.86975045594E+01  0.22292913356E+02  0.14879090481E+02  0.28178145880E+02  0.51100000000E-03 0. -1.
        -11    1    3    3    0    0  0.16404083148E+01 -0.66312803929E+01  0.10173425643E+02  0.12254118029E+02  0.51100000000E-03 0.  1.
         12    1    3    3    0    0 -0.70067894635E+01  0.13081142288E+02 -0.11655633764E+02  0.18869689467E+02  0.00000000000E+00 0. -1.
</event>
<event>
 7    1  0.6184948E-012  0.5930195E+02  0.7816164E-02  0.1266605E+00
        -11   -1    0    0    0    0  0.00000000000E+00  0.00000000000E+00  0.45593999997E+02  0.45594000000E+02  0.51100000000E-03 0. -1.
         11   -1    0    0    0    0 -0.00000000000E+00 -0.00000000000E+00 -0.45593999997E+02  0.45594000000E+02  0.51100000000E-03 0.  1.
    9900012    2    1    2    0    0 -0.59741128976E+01 -0.30994161094E+02 -0.45157719974E+01  0.59301949075E+02  0.50000009206E+02 0.  0.
         12    1    1    2    0    0  0.59741128976E+01  0.30994161094E+02  0.45157719974E+01  0.31886050925E+02  0.00000000000E+00 0. -1.
         11    1    3    3    0    0  0.42101870773E+01 -0.10904108767E+01  0.11190929293E+01  0.44907728011E+01  0.51100000000E-03 0. -1.
        -11    1    3    3    0    0  0.71068881059E+00  0.10467614499E+02 -0.75908876489E+01  0.12949811097E+02  0.51100000000E-03 0.  1.
         12    1    3    3    0    0 -0.10894988786E+02 -0.40371364716E+02  0.19560227221E+01  0.41861365178E+02  0.00000000000E+00 0. -1.
</event>
<event>
 7    1  0.6184948E-012  0.5930194E+02  0.7816164E-02  0.1266605E+00
        -11   -1    0    0    0    0  0.00000000000E+00  0.00000000000E+00  0.45593999997E+02  0.45594000000E+02  0.51100000000E-03 0.  1.
         11   -1    0    0    0    0 -0.00000000000E+00 -0.00000000000E+00 -0.45593999997E+02  0.45594000000E+02  0.51100000000E-03 0. -1.
    9900012    2    1    2    0    0 -0.14848121597E+02 -0.27812255116E+02 -0.47678651013E+01  0.59301940550E+02  0.49999993658E+02 0.  0.
         12    1    1    2    0    0  0.14848121597E+02  0.27812255116E+02  0.47678651013E+01  0.31886059450E+02  0.00000000000E+00 0. -1.
         11    1    3    3    0    0 -0.12872767973E+02 -0.34007269926E+02 -0.14199185071E+02  0.39036129676E+02  0.51100000000E-03 0. -1.
        -11    1    3    3    0    0  0.13455394930E+01 -0.49355278231E+01  0.65269235767E+01  0.82928067056E+01  0.51100000000E-03 0.  1.
        -12    1    3    3    0    0 -0.33208931168E+01  0.11130542633E+02  0.29043963932E+01  0.11973004168E+02  0.00000000000E+00 0.  1.
</event>
<event>
 7    1  0.6184948E-012  0.5930193E+02  0.7816164E-02  0.1266605E+00
        -11   -1    0    0    0    0  0.00000000000E+00  0.00000000000E+00  0.45593999997E+02  0.45594000000E+02  0.51100000000E-03 0. -1.
         11   -1    0    0    0    0 -0.00000000000E+00 -0.00000000000E+00 -0.45593999997E+02  0.45594000000E+02  0.51100000000E-03 0.  1.
    9900012    2    1    2    0    0 -0.22971999036E+02 -0.82201544978E+00 -0.22098259001E+02  0.59301929374E+02  0.49999973274E+02 0.  0.
         12    1    1    2    0    0  0.22971999036E+02  0.82201544978E+00  0.22098259001E+02  0.31886070626E+02  0.00000000000E+00 0. -1.
         11    1    3    3    0    0  0.51411463142E+00 -0.82280950647E+01  0.49785461914E+01  0.96307727981E+01  0.51100000000E-03 0. -1.
        -11    1    3    3    0    0 -0.23909265567E+02 -0.75050679993E+01 -0.23448131305E+02  0.34319001845E+02  0.51100000000E-03 0.  1.
         12    1    3    3    0    0  0.42315189948E+00  0.14911147614E+02 -0.36286738871E+01  0.15352154731E+02  0.00000000000E+00 0. -1.
</event>
<event>
 7    1  0.6184948E-012  0.5930194E+02  0.7816164E-02  0.1266605E+00
        -11   -1    0    0    0    0  0.00000000000E+00  0.00000000000E+00  0.45593999997E+02  0.45594000000E+02  0.51100000000E-03 0.  1.
         11   -1    0    0    0    0 -0.00000000000E+00 -0.00000000000E+00 -0.45593999997E+02  0.45594000000E+02  0.51100000000E-03 0. -1.
    9900012    2    1    2    0    0  0.62046870821E+01 -0.26194403325E+02  0.17090221982E+02  0.59301943569E+02  0.49999999163E+02 0.  0.
         12    1    1    2    0    0 -0.62046870821E+01  0.26194403325E+02 -0.17090221982E+02  0.31886056431E+02  0.00000000000E+00 0. -1.
         11    1    3    3    0    0  0.10046381255E+02 -0.87351193600E+00 -0.45179948114E+01  0.11050116597E+02  0.51100000000E-03 0. -1.
        -11    1    3    3    0    0  0.14101180403E+02 -0.17696592461E+02  0.16770774666E+02  0.28165076898E+02  0.51100000000E-03 0.  1.
         12    1    3    3    0    0 -0.17942874576E+02 -0.76242989281E+01  0.48374421271E+01  0.20086750074E+02  0.00000000000E+00 0. -1.
</event>
<event>
 7    1  0.6184948E-012  0.5930195E+02  0.7816164E-02  0.1266605E+00
        -11   -1    0    0    0    0  0.00000000000E+00  0.00000000000E+00  0.45593999997E+02  0.45594000000E+02  0.51100000000E-03 0. -1.
         11   -1    0    0    0    0 -0.00000000000E+00 -0.00000000000E+00 -0.45593999997E+02  0.45594000000E+02  0.51100000000E-03 0.  1.
    9900012    2    1    2    0    0 -0.12685665595E+02 -0.42631061153E+01  0.28941664310E+02  0.59301951039E+02  0.50000012787E+02 0.  0.
         12    1    1    2    0    0  0.12685665595E+02  0.42631061153E+01 -0.28941664310E+02  0.31886048961E+02  0.00000000000E+00 0. -1.
         11    1    3    3    0    0 -0.14484165853E+02  0.81420752483E+01  0.58867198409E+01  0.17627759942E+02  0.51100000000E-03 0. -1.
        -11    1    3    3    0    0  0.88840796243E+01  0.86468226573E+01  0.67153795751E+01  0.14099316861E+02  0.51100000000E-03 0.  1.
         12    1    3    3    0    0 -0.70855793656E+01 -0.21052004021E+02  0.16339564894E+02  0.27574874237E+02  0.00000000000E+00 0. -1.
</event>
<event>
 7    1  0.6184948E-012  0.5930196E+02  0.7816164E-02  0.1266605E+00
        -11   -1    0    0    0    0  0.00000000000E+00  0.00000000000E+00  0.45593999997E+02  0.45594000000E+02  0.51100000000E-03 0.  1.
         11   -1    0    0    0    0 -0.00000000000E+00 -0.00000000000E+00 -0.45593999997E+02  0.45594000000E+02  0.51100000000E-03 0. -1.
    9900012    2    1    2    0    0 -0.38709673044E+01 -0.21217873107E+02  0.23484823600E+02  0.59301961259E+02  0.50000031426E+02 0.  0.
         12    1    1    2    0    0  0.38709673044E+01  0.21217873107E+02 -0.23484823600E+02  0.31886038741E+02  0.00000000000E+00 0. -1.
         11    1    3    3    0    0 -0.16341854830E+02 -0.15454491024E+02  0.18900146677E+02  0.29378785829E+02  0.51100000000E-03 0. -1.
        -11    1    3    3    0    0 -0.20379509826E+01 -0.81976176445E+00  0.12486560009E+02  0.12678305671E+02  0.51100000000E-03 0.  1.
         12    1    3    3    0    0  0.14508838508E+02 -0.49436203179E+01 -0.79018830866E+01  0.17244869759E+02  0.00000000000E+00 0. -1.
</event>
<event>
 7    1  0.6184948E-012  0.5930194E+02  0.7816164E-02  0.1266605E+00
        -11   -1    0    0    0    0  0.00000000000E+00  0.00000000000E+00  0.45593999997E+02  0.45594000000E+02  0.51100000000E-03 0.  1.
         11   -1    0    0    0    0 -0.00000000000E+00 -0.00000000000E+00 -0.45593999997E+02  0.45594000000E+02  0.51100000000E-03 0. -1.
    9900012    2    1    2    0    0  0.11007401539E+02  0.28851336827E+02  0.79472065492E+01  0.59301943215E+02  0.49999998518E+02 0.  0.
         12    1    1    2    0    0 -0.11007401539E+02 -0.28851336827E+02 -0.79472065492E+01  0.31886056785E+02  0.00000000000E+00 0. -1.
         11    1    3    3    0    0 -0.10727133714E+01  0.14736485505E+02  0.52828713321E+01  0.15691508812E+02  0.51100000000E-03 0. -1.
        -11    1    3    3    0    0  0.24223287365E+02  0.15235988773E+02 -0.52202369967E+01  0.29088724262E+02  0.51100000000E-03 0.  1.
        -12    1    3    3    0    0 -0.12143172454E+02 -0.11211374511E+01  0.78845722137E+01  0.14521710141E+02  0.00000000000E+00 0.  1.
</event>
<event>
 7    1  0.6184948E-012  0.5930201E+02  0.7816164E-02  0.1266605E+00
        -11   -1    0    0    0    0  0.00000000000E+00  0.00000000000E+00  0.45593999997E+02  0.45594000000E+02  0.51100000000E-03 0.  1.
         11   -1    0    0    0    0 -0.00000000000E+00 -0.00000000000E+00 -0.45593999997E+02  0.45594000000E+02  0.51100000000E-03 0. -1.
    9900012    2    1    2    0    0 -0.18924855586E+02 -0.24988660078E+02 -0.58423693888E+01  0.59302006656E+02  0.50000114219E+02 0.  0.
         12    1    1    2    0    0  0.18924855586E+02  0.24988660078E+02  0.58423693888E+01  0.31885993344E+02  0.00000000000E+00 0. -1.
         11    1    3    3    0    0 -0.10421987489E+02 -0.86874708539E+01 -0.18310549525E+02  0.22789607220E+02  0.51100000000E-03 0. -1.
        -11    1    3    3    0    0  0.87926522790E+01 -0.12607506046E+02  0.93615801611E+00  0.15399231633E+02  0.51100000000E-03 0.  1.
        -12    1    3    3    0    0 -0.17295520376E+02 -0.36936831775E+01  0.11532022120E+02  0.21113167803E+02  0.00000000000E+00 0.  1.
</event>
<event>
 7    1  0.6184948E-012  0.5930195E+02  0.7816164E-02  0.1266605E+00
        -11   -1    0    0    0    0  0.00000000000E+00  0.00000000000E+00  0.45593999997E+02  0.45594000000E+02  0.51100000000E-03 0. -1.
         11   -1    0    0    0    0 -0.00000000000E+00 -0.00000000000E+00 -0.45593999997E+02  0.45594000000E+02  0.51100000000E-03 0.  1.
    9900012    2    1    2    0    0 -0.33288920458E+01  0.31708721770E+02  0.44256992383E+00  0.59301946204E+02  0.50000003969E+02 0.  0.
         12    1    1    2    0    0  0.33288920458E+01 -0.31708721770E+02 -0.44256992383E+00  0.31886053796E+02  0.00000000000E+00 0. -1.
         11    1    3    3    0    0 -0.81215828638E+00  0.24586005226E+02 -0.44222844223E+01  0.24993756297E+02  0.51100000000E-03 0. -1.
        -11    1    3    3    0    0  0.80121072667E+01  0.16071929528E+02 -0.32985089954E+01  0.18258722394E+02  0.51100000000E-03 0.  1.
        -12    1    3    3    0    0 -0.10528841026E+02 -0.89492129847E+01  0.81633633415E+01  0.16049467513E+02  0.00000000000E+00 0.  1.
</event>
<event>
 7    1  0.6184948E-012  0.5930194E+02  0.7816164E-02  0.1266605E+00
        -11   -1    0    0    0    0  0.00000000000E+00  0.00000000000E+00  0.45593999997E+02  0.45594000000E+02  0.51100000000E-03 0.  1.
         11   -1    0    0    0    0 -0.00000000000E+00 -0.00000000000E+00 -0.45593999997E+02  0.45594000000E+02  0.51100000000E-03 0. -1.
    9900012    2    1    2    0    0 -0.31861859177E+01  0.17734592152E+02  0.26306900790E+02  0.59301943978E+02  0.49999999909E+02 0.  0.
         12    1    1    2    0    0  0.31861859177E+01 -0.17734592152E+02 -0.26306900790E+02  0.31886056022E+02  0.00000000000E+00 0. -1.
         11    1    3    3    0    0 -0.16979578416E+02  0.19367885750E+02  0.28054017228E+02  0.38084760266E+02  0.51100000000E-03 0. -1.
        -11    1    3    3    0    0  0.36810859953E+01  0.41552163697E+01  0.52376963433E+01  0.76321478254E+01  0.51100000000E-03 0.  1.
        -12    1    3    3    0    0  0.10112306503E+02 -0.57885099674E+01 -0.69848127821E+01  0.13585035887E+02  0.00000000000E+00 0.  1.
</event>
<event>
 7    1  0.6184948E-012  0.5930196E+02  0.7816164E-02  0.1266605E+00
        -11   -1    0    0    0    0  0.00000000000E+00  0.00000000000E+00  0.45593999997E+02  0.45594000000E+02  0.51100000000E-03 0. -1.
         11   -1    0    0    0    0 -0.00000000000E+00 -0.00000000000E+00 -0.45593999997E+02  0.45594000000E+02  0.51100000000E-03 0.  1.
    9900012    2    1    2    0    0  0.21619403716E+02 -0.21919866943E+02  0.82970070655E+01  0.59301960577E+02  0.50000030182E+02 0.  0.
         12    1    1    2    0    0 -0.21619403716E+02  0.21919866943E+02 -0.82970070655E+01  0.31886039423E+02  0.00000000000E+00 0. -1.
         11    1    3    3    0    0  0.69348751737E+01 -0.11531723291E+02 -0.15242549600E+02  0.20332448311E+02  0.51100000000E-03 0. -1.
        -11    1    3    3    0    0  0.10911383276E+02  0.57233398149E+01  0.31639812201E+01  0.12721072323E+02  0.51100000000E-03 0.  1.
         12    1    3    3    0    0  0.37731452668E+01 -0.16111483467E+02  0.20375575446E+02  0.26248439943E+02  0.00000000000E+00 0. -1.
</event>
<event>
 7    1  0.6184948E-012  0.5930195E+02  0.7816164E-02  0.1266605E+00
        -11   -1    0    0    0    0  0.00000000000E+00  0.00000000000E+00  0.45593999997E+02  0.45594000000E+02  0.51100000000E-03 0.  1.
         11   -1    0    0    0    0 -0.00000000000E+00 -0.00000000000E+00 -0.45593999997E+02  0.45594000000E+02  0.51100000000E-03 0. -1.
    9900012    2    1    2    0    0 -0.27520979260E+02  0.14799119518E+01  0.16035137833E+02  0.59301951575E+02  0.50000013765E+02 0.  0.
         12    1    1    2    0    0  0.27520979260E+02 -0.14799119518E+01 -0.16035137833E+02  0.31886048425E+02  0.00000000000E+00 0. -1.
         11    1    3    3    0    0  0.11377428045E+02 -0.48461784148E+01  0.23408184856E+01  0.12586133068E+02  0.51100000000E-03 0. -1.
        -11    1    3    3    0    0 -0.13974584135E+01 -0.30984673241E+01  0.65710046740E+01  0.73980735643E+01  0.51100000000E-03 0.  1.
         12    1    3    3    0    0 -0.37500948892E+02  0.94245576908E+01  0.71233146739E+01  0.39317744943E+02  0.00000000000E+00 0. -1.
</event>
<event>
 7    1  0.6184948E-012  0.5930190E+02  0.7816164E-02  0.1266605E+00
        -11   -1    0    0    0    0  0.00000000000E+00  0.00000000000E+00  0.45593999997E+02  0.45594000000E+02  0.51100000000E-03 0. -1.
         11   -1    0    0    0    0 -0.00000000000E+00 -0.00000000000E+00 -0.45593999997E+02  0.45594000000E+02  0.51100000000E-03 0.  1.
    9900012    2    1    2    0    0  0.11230638639E+02  0.21374700545E+02 -0.20825898192E+02  0.59301904234E+02  0.49999927426E+02 0.  0.
         12    1    1    2    0    0 -0.11230638639E+02 -0.21374700545E+02  0.20825898192E+02  0.31886095766E+02  0.00000000000E+00 0. -1.
         11    1    3    3    0    0  0.19997351727E+02  0.92729873505E+01  0.29267658408E+01  0.22236194123E+02  0.51100000000E-03 0. -1.
        -11    1    3    3    0    0 -0.12162520202E+02  0.88577589274E+01 -0.24411595487E+01  0.15242901662E+02  0.51100000000E-03 0.  1.
        -12    1    3    3    0    0  0.33958071137E+01  0.32439542675E+01 -0.21311504484E+02  0.21822808450E+02  0.00000000000E+00 0.  1.
</event>
<event>
 7    1  0.6184948E-012  0.5930202E+02  0.7816164E-02  0.1266605E+00
        -11   -1    0    0    0    0  0.00000000000E+00  0.00000000000E+00  0.45593999997E+02  0.45594000000E+02  0.51100000000E-03 0.  1.
         11   -1    0    0    0    0 -0.00000000000E+00 -0.00000000000E+00 -0.45593999997E+02  0.45594000000E+02  0.51100000000E-03 0. -1.
    9900012    2    1    2    0    0 -0.48007938949E+01 -0.25019081910E+02  0.19175865219E+02  0.59302017366E+02  0.50000133751E+02 0.  0.
         12    1    1    2    0    0  0.48007938949E+01  0.25019081910E+02 -0.19175865219E+02  0.31885982634E+02  0.00000000000E+00 0. -1.
         11    1    3    3    0    0 -0.12800416564E+02 -0.81494338573E+01  0.24404103359E+01  0.15369435230E+02  0.51100000000E-03 0. -1.
        -11    1    3    3    0    0  0.82035198051E+00 -0.25491751467E+02  0.22412326692E+01  0.25603232108E+02  0.51100000000E-03 0.  1.
         12    1    3    3    0    0  0.71792706886E+01  0.86221034140E+01  0.14494222213E+02  0.18329350029E+02  0.00000000000E+00 0. -1.
</event>
<event>
 7    1  0.6184948E-012  0.5930195E+02  0.7816164E-02  0.1266605E+00
        -11   -1    0    0    0    0  0.00000000000E+00  0.00000000000E+00  0.45593999997E+02  0.45594000000E+02  0.51100000000E-03 0.  1.
         11   -1    0    0    0    0 -0.00000000000E+00 -0.00000000000E+00 -0.45593999997E+02  0.45594000000E+02  0.51100000000E-03 0. -1.
    9900012    2    1    2    0    0 -0.12080342062E+02 -0.29113320576E+02 -0.48166443998E+01  0.59301950345E+02  0.50000011521E+02 0.  0.
         12    1    1    2    0    0  0.12080342062E+02  0.29113320576E+02  0.48166443998E+01  0.31886049655E+02  0.00000000000E+00 0. -1.
         11    1    3    3    0    0 -0.37896710175E+01  0.26107974728E+00  0.95565219602E+01  0.10283816475E+02  0.51100000000E-03 0. -1.
        -11    1    3    3    0    0 -0.13718118603E+02 -0.76928532172E+01  0.77817512915E+01  0.17547718429E+02  0.51100000000E-03 0.  1.
         12    1    3    3    0    0  0.54274475579E+01 -0.21681547106E+02 -0.22154917651E+02  0.31470415442E+02  0.00000000000E+00 0. -1.
</event>
<event>
 7    1  0.6184948E-012  0.5930194E+02  0.7816164E-02  0.1266605E+00
        -11   -1    0    0    0    0  0.00000000000E+00  0.00000000000E+00  0.45593999997E+02  0.45594000000E+02  0.51100000000E-03 0.  1.
         11   -1    0    0    0    0 -0.00000000000E+00 -0.00000000000E+00 -0.45593999997E+02  0.45594000000E+02  0.51100000000E-03 0. -1.
    9900012    2    1    2    0    0  0.80089427588E+01  0.10559372921E+02  0.29001331791E+02  0.59301940879E+02  0.49999994258E+02 0.  0.
         12    1    1    2    0    0 -0.80089427588E+01 -0.10559372921E+02 -0.29001331791E+02  0.31886059121E+02  0.00000000000E+00 0. -1.
         11    1    3    3    0    0  0.61755569014E+01  0.26073438255E+01 -0.81147076249E+01  0.10525408542E+02  0.51100000000E-03 0. -1.
        -11    1    3    3    0    0  0.14823599533E+02  0.86874021994E+01  0.28136386185E+02  0.32967655178E+02  0.51100000000E-03 0.  1.
        -12    1    3    3    0    0 -0.12990213675E+02 -0.73537310388E+00  0.89796532304E+01  0.15808877160E+02  0.00000000000E+00 0.  1.
</event>
<event>
 7    1  0.6184948E-012  0.5930196E+02  0.7816164E-02  0.1266605E+00
        -11   -1    0    0    0    0  0.00000000000E+00  0.00000000000E+00  0.45593999997E+02  0.45594000000E+02  0.51100000000E-03 0. -1.
         11   -1    0    0    0    0 -0.00000000000E+00 -0.00000000000E+00 -0.45593999997E+02  0.45594000000E+02  0.51100000000E-03 0.  1.
    9900012    2    1    2    0    0  0.21327910863E+02  0.78104719500E+01 -0.22379365807E+02  0.59301964377E+02  0.50000037112E+02 0.  0.
         12    1    1    2    0    0 -0.21327910863E+02 -0.78104719500E+01  0.22379365807E+02  0.31886035623E+02  0.00000000000E+00 0. -1.
         11    1    3    3    0    0 -0.50624493584E+01 -0.90589126139E+01 -0.18506164495E+01  0.10541208316E+02  0.51100000000E-03 0. -1.
        -11    1    3    3    0    0  0.60124904889E+01 -0.29349751847E+01 -0.19179205808E+02  0.20312706784E+02  0.51100000000E-03 0.  1.
         12    1    3    3    0    0  0.20377869732E+02  0.19804359749E+02 -0.13495435497E+01  0.28448049277E+02  0.00000000000E+00 0. -1.
</event>
<event>
 7    1  0.6184948E-012  0.5930193E+02  0.7816164E-02  0.1266605E+00
        -11   -1    0    0    0    0  0.00000000000E+00  0.00000000000E+00  0.45593999997E+02  0.45594000000E+02  0.51100000000E-03 0.  1.
         11   -1    0    0    0    0 -0.00000000000E+00 -0.00000000000E+00 -0.45593999997E+02  0.45594000000E+02  0.51100000000E-03 0. -1.
    9900012    2    1    2    0    0 -0.31089285464E+02  0.18334902054E+01  0.68422159490E+01  0.59301932884E+02  0.49999979677E+02 0.  0.
         12    1    1    2    0    0  0.31089285464E+02 -0.18334902054E+01 -0.68422159490E+01  0.31886067116E+02  0.00000000000E+00 0. -1.
         11    1    3    3    0    0 -0.24052037678E+02 -0.74793746362E+01 -0.11319423490E+02  0.27614686487E+02  0.51100000000E-03 0. -1.
        -11    1    3    3    0    0 -0.10744570566E+02  0.10066034818E+02  0.17284700718E+01  0.14824252516E+02  0.51100000000E-03 0.  1.
        -12    1    3    3    0    0  0.37073227789E+01 -0.75316997620E+00  0.16433169367E+02  0.16862993881E+02  0.00000000000E+00 0.  1.
</event>
<event>
 7    1  0.6184948E-012  0.5930194E+02  0.7816164E-02  0.1266605E+00
        -11   -1    0    0    0    0  0.00000000000E+00  0.00000000000E+00  0.45593999997E+02  0.45594000000E+02  0.51100000000E-03 0.  1.
         11   -1    0    0    0    0 -0.00000000000E+00 -0.00000000000E+00 -0.45593999997E+02  0.45594000000E+02  0.51100000000E-03 0. -1.
    9900012    2    1    2    0    0 -0.28353807035E+02 -0.14225511847E+02  0.32276249277E+01  0.59301935279E+02  0.49999984045E+02 0.  0.
         12    1    1    2    0    0  0.28353807035E+02  0.14225511847E+02 -0.32276249277E+01  0.31886064721E+02  0.00000000000E+00 0. -1.
         11    1    3    3    0    0  0.60205097984E+01 -0.11608465435E+00 -0.15519514810E+01  0.62184055464E+01  0.51100000000E-03 0. -1.
        -11    1    3    3    0    0 -0.16991408622E+02  0.41105077285E+01 -0.13398840670E+02  0.22025738860E+02  0.51100000000E-03 0.  1.
         12    1    3    3    0    0 -0.17382908211E+02 -0.18219934921E+02  0.18178417079E+02  0.31057790873E+02  0.00000000000E+00 0. -1.
</event>
<event>
 7    1  0.6184948E-012  0.5930192E+02  0.7816164E-02  0.1266605E+00
        -11   -1    0    0    0    0  0.00000000000E+00  0.00000000000E+00  0.45593999997E+02  0.45594000000E+02  0.51100000000E-03 0. -1.
         11   -1    0    0    0    0 -0.00000000000E+00 -0.00000000000E+00 -0.45593999997E+02  0.45594000000E+02  0.51100000000E-03 0.  1.
    9900012    2    1    2    0    0 -0.30222950514E+02 -0.99885540680E+01 -0.18773015087E+01  0.59301918223E+02  0.49999952939E+02 0.  0.
         12    1    1    2    0    0  0.30222950514E+02  0.99885540680E+01  0.18773015087E+01  0.31886081777E+02  0.00000000000E+00 0. -1.
         11    1    3    3    0    0  0.48342462124E+01  0.20270912077E+01 -0.53519493935E+01  0.74914883553E+01  0.51100000000E-03 0. -1.
        -11    1    3    3    0    0 -0.95097458651E+01 -0.19102455666E+02 -0.81758461869E+01  0.22851335629E+02  0.51100000000E-03 0.  1.
        -12    1    3    3    0    0 -0.25547450861E+02  0.70868103906E+01  0.11650494072E+02  0.28959094239E+02  0.00000000000E+00 0.  1.
</event>
<event>
 7    1  0.6184948E-012  0.5930194E+02  0.7816164E-02  0.1266605E+00
        -11   -1    0    0    0    0  0.00000000000E+00  0.00000000000E+00  0.45593999997E+02  0.45594000000E+02  0.51100000000E-03 0. -1.
         11   -1    0    0    0    0 -0.00000000000E+00 -0.00000000000E+00 -0.45593999997E+02  0.45594000000E+02  0.51100000000E-03 0.  1.
    9900012    2    1    2    0    0  0.31432799186E+02  0.31726861841E+01 -0.43167340020E+01  0.59301937296E+02  0.49999987723E+02 0.  0.
         12    1    1    2    0    0 -0.31432799186E+02 -0.31726861841E+01  0.43167340020E+01  0.31886062704E+02  0.00000000000E+00 0. -1.
         11    1    3    3    0    0  0.18064508431E+01  0.82459389292E+01  0.34774239162E+01  0.91296906205E+01  0.51100000000E-03 0. -1.
        -11    1    3    3    0    0  0.25449234827E+02 -0.11834150534E+02  0.10704872093E+02  0.30038391417E+02  0.51100000000E-03 0.  1.
        -12    1    3    3    0    0  0.41771135159E+01  0.67608977887E+01 -0.18499030011E+02  0.20133855259E+02  0.00000000000E+00 0.  1.
</event>
<event>
 7    1  0.6184948E-012  0.5930211E+02  0.7816164E-02  0.1266604E+00
        -11   -1    0    0    0    0  0.00000000000E+00  0.00000000000E+00  0.45593999997E+02  0.45594000000E+02  0.51100000000E-03 0.  1.
         11   -1    0    0    0    0 -0.00000000000E+00 -0.00000000000E+00 -0.45593999997E+02  0.45594000000E+02  0.51100000000E-03 0. -1.
    9900012    2    1    2    0    0  0.16036145832E+01  0.31164005190E+02  0.65530985889E+01  0.59302111266E+02  0.50000305002E+02 0.  0.
         12    1    1    2    0    0 -0.16036145832E+01 -0.31164005190E+02 -0.65530985889E+01  0.31885888734E+02  0.00000000000E+00 0. -1.
         11    1    3    3    0    0  0.16967424629E+02  0.63842315830E+01  0.34215437171E+01  0.18448817661E+02  0.51100000000E-03 0. -1.
        -11    1    3    3    0    0 -0.62826334554E+00  0.24366712823E+02  0.74578768897E+01  0.25490220411E+02  0.51100000000E-03 0.  1.
        -12    1    3    3    0    0 -0.14735546700E+02  0.41306078414E+00 -0.43263220180E+01  0.15363073194E+02  0.00000000000E+00 0.  1.
</event>
<event>
 7    1  0.6184948E-012  0.5930191E+02  0.7816164E-02  0.1266605E+00
        -11   -1    0    0    0    0  0.00000000000E+00  0.00000000000E+00  0.45593999997E+02  0.45594000000E+02  0.51100000000E-03 0.  1.
         11   -1    0    0    0    0 -0.00000000000E+00 -0.00000000000E+00 -0.45593999997E+02  0.45594000000E+02  0.51100000000E-03 0. -1.
    9900012    2    1    2    0    0 -0.90266510989E+01  0.60631445834E+01  0.29974661749E+02  0.59301913704E+02  0.49999944696E+02 0.  0.
         12    1    1    2    0    0  0.90266510989E+01 -0.60631445834E+01 -0.29974661749E+02  0.31886086296E+02  0.00000000000E+00 0. -1.
         11    1    3    3    0    0 -0.20566836200E+02  0.91882206967E+00  0.22102667651E+01  0.20705657795E+02  0.51100000000E-03 0. -1.
        -11    1    3    3    0    0 -0.72474956871E+01  0.19389389179E+01  0.55857179622E+01  0.93533910041E+01  0.51100000000E-03 0.  1.
        -12    1    3    3    0    0  0.18787680788E+02  0.32053835958E+01  0.22178677022E+02  0.29242864905E+02  0.00000000000E+00 0.  1.
</event>
<event>
 7    1  0.6184948E-012  0.5930177E+02  0.7816164E-02  0.1266605E+00
        -11   -1    0    0    0    0  0.00000000000E+00  0.00000000000E+00  0.45593999997E+02  0.45594000000E+02  0.51100000000E-03 0. -1.
         11   -1    0    0    0    0 -0.00000000000E+00 -0.00000000000E+00 -0.45593999997E+02  0.45594000000E+02  0.51100000000E-03 0.  1.
    9900012    2    1    2    0    0  0.14626532996E+02 -0.11840152917E+02 -0.25741158676E+02  0.59301765689E+02  0.49999674752E+02 0.  0.
         12    1    1    2    0    0 -0.14626532996E+02  0.11840152917E+02  0.25741158676E+02  0.31886234311E+02  0.00000000000E+00 0. -1.
         11    1    3    3    0    0  0.10807321386E+02  0.11826367778E+02 -0.14532951980E+02  0.21630253440E+02  0.51100000000E-03 0. -1.
        -11    1    3    3    0    0  0.17687540293E+01 -0.40154471217E+01 -0.16617201600E+02  0.17186730221E+02  0.51100000000E-03 0.  1.
        -12    1    3    3    0    0  0.20504575805E+01 -0.19651073573E+02  0.54089949046E+01  0.20484782028E+02  0.00000000000E+00 0.  1.
</event>
<event>
 7    1  0.6184948E-012  0.5930195E+02  0.7816164E-02  0.1266605E+00
        -11   -1    0    0    0    0  0.00000000000E+00  0.00000000000E+00  0.45593999997E+02  0.45594000000E+02  0.51100000000E-03 0. -1.
         11   -1    0    0    0    0 -0.00000000000E+00 -0.00000000000E+00 -0.45593999997E+02  0.45594000000E+02  0.51100000000E-03 0.  1.
    9900012    2    1    2    0    0 -0.59602819434E+01  0.11891922025E+02 -0.28978911750E+02  0.59301951382E+02  0.50000013412E+02 0.  0.
         12    1    1    2    0    0  0.59602819434E+01 -0.11891922025E+02  0.28978911750E+02  0.31886048618E+02  0.00000000000E+00 0. -1.
         11    1    3    3    0    0 -0.69055097529E+01 -0.90090460440E+01  0.49937147579E+01  0.12401054911E+02  0.51100000000E-03 0. -1.
        -11    1    3    3    0    0 -0.40044744785E+01 -0.47400399184E+01 -0.59601950437E+01  0.86039362792E+01  0.51100000000E-03 0.  1.
         12    1    3    3    0    0  0.49497022880E+01  0.25641007988E+02 -0.28012431464E+02  0.38296960191E+02  0.00000000000E+00 0. -1.
</event>
<event>
 7    1  0.6184948E-012  0.5930195E+02  0.7816164E-02  0.1266605E+00
        -11   -1    0    0    0    0  0.00000000000E+00  0.00000000000E+00  0.45593999997E+02  0.45594000000E+02  0.51100000000E-03 0.  1.
         11   -1    0    0    0    0 -0.00000000000E+00 -0.00000000000E+00 -0.45593999997E+02  0.45594000000E+02  0.51100000000E-03 0. -1.
    9900012    2    1    2    0    0  0.13633560566E+02 -0.21653622281E+02  0.19025428797E+02  0.59301948622E+02  0.50000008379E+02 0.  0.
         12    1    1    2    0    0 -0.13633560566E+02  0.21653622281E+02 -0.19025428797E+02  0.31886051378E+02  0.00000000000E+00 0. -1.
         11    1    3    3    0    0  0.15091905329E+02  0.72863366136E+01  0.10490283580E+02  0.19771250784E+02  0.51100000000E-03 0. -1.
        -11    1    3    3    0    0  0.94206658958E+01 -0.31254175379E+01 -0.91187724724E+00  0.99673818569E+01  0.51100000000E-03 0.  1.
         12    1    3    3    0    0 -0.10879010659E+02 -0.25814541357E+02  0.94470224641E+01  0.29563315981E+02  0.00000000000E+00 0. -1.
</event>
<event>
 7    1  0.6184948E-012  0.5930195E+02  0.7816164E-02  0.1266605E+00
        -11   -1    0    0    0    0  0.00000000000E+00  0.00000000000E+00  0.45593999997E+02  0.45594000000E+02  0.51100000000E-03 0. -1.
         11   -1    0    0    0    0 -0.00000000000E+00 -0.00000000000E+00 -0.45593999997E+02  0.45594000000E+02  0.51100000000E-03 0.  1.
    9900012    2    1    2    0    0 -0.30489450627E+02 -0.28916310994E+01 -0.88742254352E+01  0.59301952785E+02  0.50000015970E+02 0.  0.
         12    1    1    2    0    0  0.30489450627E+02  0.28916310994E+01  0.88742254352E+01  0.31886047215E+02  0.00000000000E+00 0. -1.
         11    1    3    3    0    0 -0.45505162187E+01 -0.14363204621E+02 -0.91889409484E+01  0.17647818020E+02  0.51100000000E-03 0. -1.
        -11    1    3    3    0    0 -0.19524139931E+02 -0.55785597101E+01 -0.77469689190E+01  0.21733105994E+02  0.51100000000E-03 0.  1.
         12    1    3    3    0    0 -0.64147944777E+01  0.17050133231E+02  0.80616844322E+01  0.19921028771E+02  0.00000000000E+00 0. -1.
</event>
<event>
 7    1  0.6184948E-012  0.5930198E+02  0.7816164E-02  0.1266605E+00
        -11   -1    0    0    0    0  0.00000000000E+00  0.00000000000E+00  0.45593999997E+02  0.45594000000E+02  0.51100000000E-03 0. -1.
         11   -1    0    0    0    0 -0.00000000000E+00 -0.00000000000E+00 -0.45593999997E+02  0.45594000000E+02  0.51100000000E-03 0.  1.
    9900012    2    1    2    0    0  0.17425616031E+02 -0.13320245325E+02 -0.23143841294E+02  0.59301977680E+02  0.50000061373E+02 0.  0.
         12    1    1    2    0    0 -0.17425616031E+02  0.13320245325E+02  0.23143841294E+02  0.31886022320E+02  0.00000000000E+00 0. -1.
         11    1    3    3    0    0  0.72838335661E+01 -0.38588524884E+01 -0.16782326727E+02  0.18697365177E+02  0.51100000000E-03 0. -1.
        -11    1    3    3    0    0  0.44045597667E+00  0.11984307565E+02 -0.11385785116E+02  0.16536436504E+02  0.51100000000E-03 0.  1.
         12    1    3    3    0    0  0.97013264879E+01 -0.21445700402E+02  0.50242705486E+01  0.24068175998E+02  0.00000000000E+00 0. -1.
</event>
<event>
 7    1  0.6184948E-012  0.5930196E+02  0.7816164E-02  0.1266605E+00
        -11   -1    0    0    0    0  0.00000000000E+00  0.00000000000E+00  0.45593999997E+02  0.45594000000E+02  0.51100000000E-03 0.  1.
         11   -1    0    0    0    0 -0.00000000000E+00 -0.00000000000E+00 -0.45593999997E+02  0.45594000000E+02  0.51100000000E-03 0. -1.
    9900012    2    1    2    0    0  0.24274427224E+02 -0.96309677113E+01  0.18295257483E+02  0.59301955992E+02  0.50000021821E+02 0.  0.
         12    1    1    2    0    0 -0.24274427224E+02  0.96309677113E+01 -0.18295257483E+02  0.31886044008E+02  0.00000000000E+00 0. -1.
         11    1    3    3    0    0 -0.45221664344E+01 -0.36075975097E+01 -0.13328376214E+02  0.14529637360E+02  0.51100000000E-03 0. -1.
        -11    1    3    3    0    0  0.13003738456E+02 -0.87314071983E+01  0.15147353049E+02  0.21789377920E+02  0.51100000000E-03 0.  1.
        -12    1    3    3    0    0  0.15792855203E+02  0.27080369966E+01  0.16476280647E+02  0.22982940712E+02  0.00000000000E+00 0.  1.
</event>
<event>
 7    1  0.6184948E-012  0.5930172E+02  0.7816164E-02  0.1266606E+00
        -11   -1    0    0    0    0  0.00000000000E+00  0.00000000000E+00  0.45593999997E+02  0.45594000000E+02  0.51100000000E-03 0. -1.
         11   -1    0    0    0    0 -0.00000000000E+00 -0.00000000000E+00 -0.45593999997E+02  0.45594000000E+02  0.51100000000E-03 0.  1.
    9900012    2    1    2    0    0  0.23576030744E+02 -0.78377998033E+01 -0.19986854215E+02  0.59301722814E+02  0.49999596557E+02 0.  0.
         12    1    1    2    0    0 -0.23576030744E+02  0.78377998033E+01  0.19986854215E+02  0.31886277186E+02  0.00000000000E+00 0. -1.
         11    1    3    3    0    0 -0.72578987691E+01  0.52597781175E+01 -0.52807332700E+01  0.10403292965E+02  0.51100000000E-03 0. -1.
        -11    1    3    3    0    0 -0.58291761207E+00 -0.11700613229E+02 -0.12860462394E+02  0.17396425958E+02  0.51100000000E-03 0.  1.
         12    1    3    3    0    0  0.31416847125E+02 -0.13969646922E+01 -0.18456585515E+01  0.31502003890E+02  0.00000000000E+00 0. -1.
</event>
<event>
 7    1  0.6184948E-012  0.5930196E+02  0.7816164E-02  0.1266605E+00
        -11   -1    0    0    0    0  0.00000000000E+00  0.00000000000E+00  0.45593999997E+02  0.45594000000E+02  0.51100000000E-03 0.  1.
         11   -1    0    0    0    0 -0.00000000000E+00 -0.00000000000E+00 -0.45593999997E+02  0.45594000000E+02  0.51100000000E-03 0. -1.
    9900012    2    1    2    0    0 -0.21934457430E+02 -0.23107084136E+02  0.12890856446E+01  0.59301960707E+02  0.50000030419E+02 0.  0.
         12    1    1    2    0    0  0.21934457430E+02  0.23107084136E+02 -0.12890856446E+01  0.31886039293E+02  0.00000000000E+00 0. -1.
         11    1    3    3    0    0  0.79192144478E+00 -0.18446401860E+02  0.64343661270E+01  0.19552440996E+02  0.51100000000E-03 0. -1.
        -11    1    3    3    0    0 -0.19992466142E+02 -0.12214017821E+02  0.76466637835E+01  0.24644520711E+02  0.51100000000E-03 0.  1.
         12    1    3    3    0    0 -0.27339127322E+01  0.75533355461E+01 -0.12791944266E+02  0.15104999000E+02  0.00000000000E+00 0. -1.
</event>
<event>
 7    1  0.6184948E-012  0.5930197E+02  0.7816164E-02  0.1266605E+00
        -11   -1    0    0    0    0  0.00000000000E+00  0.00000000000E+00  0.45593999997E+02  0.45594000000E+02  0.51100000000E-03 0. -1.
         11   -1    0    0    0    0 -0.00000000000E+00 -0.00000000000E+00 -0.45593999997E+02  0.45594000000E+02  0.51100000000E-03 0.  1.
    9900012    2    1    2    0    0  0.57499265047E+01 -0.27301331557E+02 -0.15436797440E+02  0.59301967403E+02  0.50000042631E+02 0.  0.
         12    1    1    2    0    0 -0.57499265047E+01  0.27301331557E+02  0.15436797440E+02  0.31886032597E+02  0.00000000000E+00 0. -1.
         11    1    3    3    0    0  0.80815634139E+01 -0.67300795373E+00 -0.13442363936E+02  0.15699100464E+02  0.51100000000E-03 0. -1.
        -11    1    3    3    0    0  0.10902308899E+02 -0.14897272019E+02 -0.13175388619E+02  0.22679945293E+02  0.51100000000E-03 0.  1.
         12    1    3    3    0    0 -0.13233945809E+02 -0.11731051584E+02  0.11180955116E+02  0.20922921647E+02  0.00000000000E+00 0. -1.
</event>
<event>
 7    1  0.6184948E-012  0.5930197E+02  0.7816164E-02  0.1266605E+00
        -11   -1    0    0    0    0  0.00000000000E+00  0.00000000000E+00  0.45593999997E+02  0.45594000000E+02  0.51100000000E-03 0.  1.
         11   -1    0    0    0    0 -0.00000000000E+00 -0.00000000000E+00 -0.45593999997E+02  0.45594000000E+02  0.51100000000E-03 0. -1.
    9900012    2    1    2    0    0  0.64786992419E+01 -0.16398104453E+02  0.26567791500E+02  0.59301969851E+02  0.50000047095E+02 0.  0.
         12    1    1    2    0    0 -0.64786992419E+01  0.16398104453E+02 -0.26567791500E+02  0.31886030149E+02  0.00000000000E+00 0. -1.
         11    1    3    3    0    0  0.10561870473E+02  0.14023843996E+01  0.30323355152E+00  0.10658880839E+02  0.51100000000E-03 0. -1.
        -11    1    3    3    0    0 -0.18002683911E+00  0.24558351468E+01  0.27845025728E+02  0.27953693745E+02  0.51100000000E-03 0.  1.
        -12    1    3    3    0    0 -0.39031443919E+01 -0.20256323999E+02 -0.15804677797E+01  0.20689395267E+02  0.00000000000E+00 0.  1.
</event>
<event>
 7    1  0.6184948E-012  0.5930194E+02  0.7816164E-02  0.1266605E+00
        -11   -1    0    0    0    0  0.00000000000E+00  0.00000000000E+00  0.45593999997E+02  0.45594000000E+02  0.51100000000E-03 0. -1.
         11   -1    0    0    0    0 -0.00000000000E+00 -0.00000000000E+00 -0.45593999997E+02  0.45594000000E+02  0.51100000000E-03 0.  1.
    9900012    2    1    2    0    0 -0.50035513926E+01 -0.30857431973E+02  0.62852431869E+01  0.59301938524E+02  0.49999989963E+02 0.  0.
         12    1    1    2    0    0  0.50035513926E+01  0.30857431973E+02 -0.62852431869E+01  0.31886061476E+02  0.00000000000E+00 0. -1.
         11    1    3    3    0    0  0.12504756541E+02 -0.19510399396E+02  0.12540731334E+02  0.26349469888E+02  0.51100000000E-03 0. -1.
        -11    1    3    3    0    0  0.21290543204E+01 -0.24419791118E+01 -0.10489617031E+02  0.10978533600E+02  0.51100000000E-03 0.  1.
         12    1    3    3    0    0 -0.19637362255E+02 -0.89050534659E+01  0.42341288843E+01  0.21973935036E+02  0.00000000000E+00 0. -1.
</event>
<event>
 7    1  0.6184948E-012  0.5930199E+02  0.7816164E-02  0.1266605E+00
        -11   -1    0    0    0    0  0.00000000000E+00  0.00000000000E+00  0.45593999997E+02  0.45594000000E+02  0.51100000000E-03 0.  1.
         11   -1    0    0    0    0 -0.00000000000E+00 -0.00000000000E+00 -0.45593999997E+02  0.45594000000E+02  0.51100000000E-03 0. -1.
    9900012    2    1    2    0    0 -0.95040630020E+01  0.30427900907E+02 -0.73013487545E+00  0.59301992660E+02  0.50000088694E+02 0.  0.
         12    1    1    2    0    0  0.95040630020E+01 -0.30427900907E+02  0.73013487545E+00  0.31886007340E+02  0.00000000000E+00 0. -1.
         11    1    3    3    0    0  0.46214193953E+01  0.22856816443E+01 -0.12137963520E+02  0.13187570529E+02  0.51100000000E-03 0. -1.
        -11    1    3    3    0    0  0.99981563557E+01  0.11165298565E+02  0.58945675304E+01  0.16105059739E+02  0.51100000000E-03 0.  1.
         12    1    3    3    0    0 -0.24123638753E+02  0.16976920697E+02  0.55132611137E+01  0.30009362392E+02  0.00000000000E+00 0. -1.
</event>
<event>
 7    1  0.6184948E-012  0.5930196E+02  0.7816164E-02  0.1266605E+00
        -11   -1    0    0    0    0  0.00000000000E+00  0.00000000000E+00  0.45593999997E+02  0.45594000000E+02  0.51100000000E-03 0.  1.
         11   -1    0    0    0    0 -0.00000000000E+00 -0.00000000000E+00 -0.45593999997E+02  0.45594000000E+02  0.51100000000E-03 0. -1.
    9900012    2    1    2    0    0 -0.25428357093E+02  0.17699809961E+02  0.75388833303E+01  0.59301962633E+02  0.50000033931E+02 0.  0.
         12    1    1    2    0    0  0.25428357093E+02 -0.17699809961E+02 -0.75388833303E+01  0.31886037367E+02  0.00000000000E+00 0. -1.
         11    1    3    3    0    0  0.88887230818E+01  0.15691098264E+02  0.11200026884E+02  0.21228767397E+02  0.51100000000E-03 0.  1.
        -11    1    3    3    0    0  0.14782419435E+01 -0.10140265996E+01 -0.99847417252E+00  0.20519259544E+01  0.51100000000E-03 0. -1.
        -12    1    3    3    0    0 -0.35795322119E+02  0.30227382965E+01 -0.26626693807E+01  0.36021269281E+02  0.00000000000E+00 0.  1.
</event>
<event>
 7    1  0.6184948E-012  0.5930196E+02  0.7816164E-02  0.1266605E+00
        -11   -1    0    0    0    0  0.00000000000E+00  0.00000000000E+00  0.45593999997E+02  0.45594000000E+02  0.51100000000E-03 0. -1.
         11   -1    0    0    0    0 -0.00000000000E+00 -0.00000000000E+00 -0.45593999997E+02  0.45594000000E+02  0.51100000000E-03 0.  1.
    9900012    2    1    2    0    0  0.44228258511E+01  0.16384561970E+02 -0.26994520164E+02  0.59301962643E+02  0.50000033950E+02 0.  0.
         12    1    1    2    0    0 -0.44228258511E+01 -0.16384561970E+02  0.26994520164E+02  0.31886037357E+02  0.00000000000E+00 0. -1.
         11    1    3    3    0    0  0.83251841232E+01  0.87156551016E+01  0.10775358433E+02  0.16167241080E+02  0.51100000000E-03 0. -1.
        -11    1    3    3    0    0 -0.75466466282E+01 -0.29745035871E+01 -0.83692693788E+01  0.11655222740E+02  0.51100000000E-03 0.  1.
         12    1    3    3    0    0  0.36442883561E+01  0.10643410456E+02 -0.29400609218E+02  0.31479498823E+02  0.00000000000E+00 0. -1.
</event>
<event>
 7    1  0.6184948E-012  0.5930194E+02  0.7816164E-02  0.1266605E+00
        -11   -1    0    0    0    0  0.00000000000E+00  0.00000000000E+00  0.45593999997E+02  0.45594000000E+02  0.51100000000E-03 0.  1.
         11   -1    0    0    0    0 -0.00000000000E+00 -0.00000000000E+00 -0.45593999997E+02  0.45594000000E+02  0.51100000000E-03 0. -1.
    9900012    2    1    2    0    0 -0.28272258330E+02  0.49580692610E+00  0.14736161021E+02  0.59301939453E+02  0.49999991657E+02 0.  0.
         12    1    1    2    0    0  0.28272258330E+02 -0.49580692610E+00 -0.14736161021E+02  0.31886060547E+02  0.00000000000E+00 0. -1.
         11    1    3    3    0    0 -0.25876029207E+01  0.48935817591E+01 -0.12014663350E+02  0.13228566324E+02  0.51100000000E-03 0. -1.
        -11    1    3    3    0    0  0.31186957330E+01 -0.78895980488E+01  0.65866158050E+01  0.10740369103E+02  0.51100000000E-03 0.  1.
        -12    1    3    3    0    0 -0.28803351142E+02  0.34918232158E+01  0.20164208566E+02  0.35333004026E+02  0.00000000000E+00 0.  1.
</event>
<event>
 7    1  0.6184948E-012  0.5930172E+02  0.7816164E-02  0.1266606E+00
        -11   -1    0    0    0    0  0.00000000000E+00  0.00000000000E+00  0.45593999997E+02  0.45594000000E+02  0.51100000000E-03 0. -1.
         11   -1    0    0    0    0 -0.00000000000E+00 -0.00000000000E+00 -0.45593999997E+02  0.45594000000E+02  0.51100000000E-03 0.  1.
    9900012    2    1    2    0    0  0.40386700373E+01 -0.42371561936E+01 -0.31344387699E+02  0.59301717864E+02  0.49999587529E+02 0.  0.
         12    1    1    2    0    0 -0.40386700373E+01  0.42371561936E+01  0.31344387699E+02  0.31886282136E+02  0.00000000000E+00 0. -1.
         11    1    3    3    0    0  0.44919606224E+00  0.72030805973E+01  0.11116358323E+02  0.13253662506E+02  0.51100000000E-03 0. -1.
        -11    1    3    3    0    0 -0.34308577065E+01 -0.35251838002E+01 -0.45926596737E+01  0.67298015251E+01  0.51100000000E-03 0.  1.
        -12    1    3    3    0    0  0.70203316816E+01 -0.79150529907E+01 -0.37868086348E+02  0.39318253832E+02  0.00000000000E+00 0.  1.
</event>
<event>
 7    1  0.6184948E-012  0.5930192E+02  0.7816164E-02  0.1266605E+00
        -11   -1    0    0    0    0  0.00000000000E+00  0.00000000000E+00  0.45593999997E+02  0.45594000000E+02  0.51100000000E-03 0.  1.
         11   -1    0    0    0    0 -0.00000000000E+00 -0.00000000000E+00 -0.45593999997E+02  0.45594000000E+02  0.51100000000E-03 0. -1.
    9900012    2    1    2    0    0  0.89485173495E+01  0.26048289302E+02  0.16066512909E+02  0.59301918783E+02  0.49999953960E+02 0.  0.
         12    1    1    2    0    0 -0.89485173495E+01 -0.26048289302E+02 -0.16066512909E+02  0.31886081217E+02  0.00000000000E+00 0. -1.
         11    1    3    3    0    0  0.10449506381E+01  0.26755843003E+02  0.18686509332E+02  0.32651993628E+02  0.51100000000E-03 0. -1.
        -11    1    3    3    0    0 -0.36425613088E+01  0.76128135961E+01  0.56818448288E+01  0.10173816622E+02  0.51100000000E-03 0.  1.
         12    1    3    3    0    0  0.11546128020E+02 -0.83203672970E+01 -0.83018412520E+01  0.16476108533E+02  0.00000000000E+00 0. -1.
</event>
<event>
 7    1  0.6184948E-012  0.5930193E+02  0.7816164E-02  0.1266605E+00
        -11   -1    0    0    0    0  0.00000000000E+00  0.00000000000E+00  0.45593999997E+02  0.45594000000E+02  0.51100000000E-03 0. -1.
         11   -1    0    0    0    0 -0.00000000000E+00 -0.00000000000E+00 -0.45593999997E+02  0.45594000000E+02  0.51100000000E-03 0.  1.
    9900012    2    1    2    0    0  0.27477781122E+02  0.16155774236E+02  0.82715617668E+00  0.59301926489E+02  0.49999968014E+02 0.  0.
         12    1    1    2    0    0 -0.27477781122E+02 -0.16155774236E+02 -0.82715617668E+00  0.31886073511E+02  0.00000000000E+00 0. -1.
         11    1    3    3    0    0  0.17873390358E+02  0.28471787107E+02 -0.10541781179E+02  0.35231092726E+02  0.51100000000E-03 0.  1.
        -11    1    3    3    0    0  0.12196831790E+02 -0.46787409781E+01  0.59533196042E+01  0.14356020947E+02  0.51100000000E-03 0. -1.
        -12    1    3    3    0    0 -0.25924410259E+01 -0.76372718925E+01  0.54156177516E+01  0.97148128167E+01  0.00000000000E+00 0.  1.
</event>
<event>
 7    1  0.6184948E-012  0.5930197E+02  0.7816164E-02  0.1266605E+00
        -11   -1    0    0    0    0  0.00000000000E+00  0.00000000000E+00  0.45593999997E+02  0.45594000000E+02  0.51100000000E-03 0. -1.
         11   -1    0    0    0    0 -0.00000000000E+00 -0.00000000000E+00 -0.45593999997E+02  0.45594000000E+02  0.51100000000E-03 0.  1.
    9900012    2    1    2    0    0 -0.23767308759E+02 -0.32580969397E+01 -0.21005209231E+02  0.59301968950E+02  0.50000045452E+02 0.  0.
         12    1    1    2    0    0  0.23767308759E+02  0.32580969397E+01  0.21005209231E+02  0.31886031050E+02  0.00000000000E+00 0. -1.
         11    1    3    3    0    0 -0.22044617301E+02  0.32564512280E+01 -0.12421085257E+02  0.25511820511E+02  0.51100000000E-03 0.  1.
        -11    1    3    3    0    0 -0.35778373173E+01 -0.15623508691E+02  0.54736250166E+01  0.16936809462E+02  0.51100000000E-03 0. -1.
        -12    1    3    3    0    0  0.18551458597E+01  0.91089605230E+01 -0.14057748991E+02  0.16853338977E+02  0.00000000000E+00 0.  1.
</event>
<event>
 7    1  0.6184948E-012  0.5930195E+02  0.7816164E-02  0.1266605E+00
        -11   -1    0    0    0    0  0.00000000000E+00  0.00000000000E+00  0.45593999997E+02  0.45594000000E+02  0.51100000000E-03 0.  1.
         11   -1    0    0    0    0 -0.00000000000E+00 -0.00000000000E+00 -0.45593999997E+02  0.45594000000E+02  0.51100000000E-03 0. -1.
    9900012    2    1    2    0    0 -0.76233434158E+01 -0.70428306364E+01  0.30149683040E+02  0.59301949513E+02  0.50000010005E+02 0.  0.
         12    1    1    2    0    0  0.76233434158E+01  0.70428306364E+01 -0.30149683040E+02  0.31886050487E+02  0.00000000000E+00 0. -1.
         11    1    3    3    0    0  0.85031271058E+01 -0.47888157946E+00 -0.48185815518E+01  0.97852555704E+01  0.51100000000E-03 0. -1.
        -11    1    3    3    0    0  0.31793273469E+01  0.77709802206E+01  0.18634156722E+01  0.86004984853E+01  0.51100000000E-03 0.  1.
         12    1    3    3    0    0 -0.19305797869E+02 -0.14334929278E+02  0.33104848920E+02  0.40916195458E+02  0.00000000000E+00 0. -1.
</event>
<event>
 7    1  0.6184948E-012  0.5930191E+02  0.7816164E-02  0.1266605E+00
        -11   -1    0    0    0    0  0.00000000000E+00  0.00000000000E+00  0.45593999997E+02  0.45594000000E+02  0.51100000000E-03 0.  1.
         11   -1    0    0    0    0 -0.00000000000E+00 -0.00000000000E+00 -0.45593999997E+02  0.45594000000E+02  0.51100000000E-03 0. -1.
    9900012    2    1    2    0    0  0.52107856362E+01 -0.10834994167E+02  0.29532579024E+02  0.59301911978E+02  0.49999941548E+02 0.  0.
         12    1    1    2    0    0 -0.52107856362E+01  0.10834994167E+02 -0.29532579024E+02  0.31886088022E+02  0.00000000000E+00 0. -1.
         11    1    3    3    0    0 -0.59530797295E+01 -0.32482661163E+01  0.22378619653E+00  0.67853129295E+01  0.51100000000E-03 0. -1.
        -11    1    3    3    0    0 -0.13907414476E+02  0.55082238220E+01  0.13295538288E+02  0.20013196789E+02  0.51100000000E-03 0.  1.
         12    1    3    3    0    0  0.25071279842E+02 -0.13094951872E+02  0.16013254540E+02  0.32503402259E+02  0.00000000000E+00 0. -1.
</event>
<event>
 7    1  0.6184948E-012  0.5930192E+02  0.7816164E-02  0.1266605E+00
        -11   -1    0    0    0    0  0.00000000000E+00  0.00000000000E+00  0.45593999997E+02  0.45594000000E+02  0.51100000000E-03 0.  1.
         11   -1    0    0    0    0 -0.00000000000E+00 -0.00000000000E+00 -0.45593999997E+02  0.45594000000E+02  0.51100000000E-03 0. -1.
    9900012    2    1    2    0    0  0.11679145482E+02 -0.62813618359E+01  0.28997660078E+02  0.59301917837E+02  0.49999952234E+02 0.  0.
         12    1    1    2    0    0 -0.11679145482E+02  0.62813618359E+01 -0.28997660078E+02  0.31886082163E+02  0.00000000000E+00 0. -1.
         11    1    3    3    0    0  0.57015414056E+00 -0.18145836569E+02  0.20200122695E+01  0.18266825404E+02  0.51100000000E-03 0. -1.
        -11    1    3    3    0    0  0.46197588505E+01 -0.25815457117E+01  0.24427873190E+02  0.24994550185E+02  0.51100000000E-03 0.  1.
        -12    1    3    3    0    0  0.64892324909E+01  0.14446020444E+02  0.25497746192E+01  0.16040542248E+02  0.00000000000E+00 0.  1.
</event>
<event>
 7    1  0.6184948E-012  0.5930194E+02  0.7816164E-02  0.1266605E+00
        -11   -1    0    0    0    0  0.00000000000E+00  0.00000000000E+00  0.45593999997E+02  0.45594000000E+02  0.51100000000E-03 0.  1.
         11   -1    0    0    0    0 -0.00000000000E+00 -0.00000000000E+00 -0.45593999997E+02  0.45594000000E+02  0.51100000000E-03 0. -1.
    9900012    2    1    2    0    0  0.14633438072E+02  0.11813559553E+02  0.25749230355E+02  0.59301944066E+02  0.50000000071E+02 0.  0.
         12    1    1    2    0    0 -0.14633438072E+02 -0.11813559553E+02 -0.25749230355E+02  0.31886055934E+02  0.00000000000E+00 0. -1.
         11    1    3    3    0    0 -0.31614036305E+00  0.21873354756E+01 -0.19947200268E+01  0.29771277195E+01  0.51100000000E-03 0. -1.
        -11    1    3    3    0    0  0.87067718768E+01  0.28151560783E+02  0.16444692398E+02  0.33745313147E+02  0.51100000000E-03 0.  1.
        -12    1    3    3    0    0  0.62428065579E+01 -0.18525336706E+02  0.11299257984E+02  0.22579503200E+02  0.00000000000E+00 0.  1.
</event>
<event>
 7    1  0.6184948E-012  0.5930184E+02  0.7816164E-02  0.1266605E+00
        -11   -1    0    0    0    0  0.00000000000E+00  0.00000000000E+00  0.45593999997E+02  0.45594000000E+02  0.51100000000E-03 0.  1.
         11   -1    0    0    0    0 -0.00000000000E+00 -0.00000000000E+00 -0.45593999997E+02  0.45594000000E+02  0.51100000000E-03 0. -1.
    9900012    2    1    2    0    0  0.34184560008E+01  0.31151873134E+02  0.58823333204E+01  0.59301844909E+02  0.49999819232E+02 0.  0.
         12    1    1    2    0    0 -0.34184560008E+01 -0.31151873134E+02 -0.58823333204E+01  0.31886155091E+02  0.00000000000E+00 0. -1.
         11    1    3    3    0    0  0.70786079100E+01  0.14681188687E+02 -0.11220590196E+02  0.19787512118E+02  0.51100000000E-03 0. -1.
        -11    1    3    3    0    0  0.11125242466E+02  0.13737340298E+02  0.16931000129E+02  0.24477424375E+02  0.51100000000E-03 0.  1.
        -12    1    3    3    0    0 -0.14785394376E+02  0.27333441487E+01  0.17192338817E+00  0.15036908417E+02  0.00000000000E+00 0.  1.
</event>
<event>
 7    1  0.6184948E-012  0.5930194E+02  0.7816164E-02  0.1266605E+00
        -11   -1    0    0    0    0  0.00000000000E+00  0.00000000000E+00  0.45593999997E+02  0.45594000000E+02  0.51100000000E-03 0. -1.
         11   -1    0    0    0    0 -0.00000000000E+00 -0.00000000000E+00 -0.45593999997E+02  0.45594000000E+02  0.51100000000E-03 0.  1.
    9900012    2    1    2    0    0 -0.87005871550E+01  0.26890299272E+02  0.14762526244E+02  0.59301943597E+02  0.49999999215E+02 0.  0.
         12    1    1    2    0    0  0.87005871550E+01 -0.26890299272E+02 -0.14762526244E+02  0.31886056403E+02  0.00000000000E+00 0. -1.
         11    1    3    3    0    0 -0.14812936592E+02 -0.35199723977E+01  0.11532618736E+02  0.19100120192E+02  0.51100000000E-03 0. -1.
        -11    1    3    3    0    0 -0.31548220301E+01  0.11164887993E+02  0.12377648465E+02  0.16965076119E+02  0.51100000000E-03 0.  1.
        -12    1    3    3    0    0  0.92671714672E+01  0.19245383677E+02 -0.91477409566E+01  0.23236747287E+02  0.00000000000E+00 0.  1.
</event>
<event>
 7    1  0.6184948E-012  0.5930192E+02  0.7816164E-02  0.1266605E+00
        -11   -1    0    0    0    0  0.00000000000E+00  0.00000000000E+00  0.45593999997E+02  0.45594000000E+02  0.51100000000E-03 0. -1.
         11   -1    0    0    0    0 -0.00000000000E+00 -0.00000000000E+00 -0.45593999997E+02  0.45594000000E+02  0.51100000000E-03 0.  1.
    9900012    2    1    2    0    0 -0.29220582652E+02  0.12931463511E+01 -0.12696746814E+02  0.59301920629E+02  0.49999957325E+02 0.  0.
         12    1    1    2    0    0  0.29220582652E+02 -0.12931463511E+01  0.12696746814E+02  0.31886079371E+02  0.00000000000E+00 0. -1.
         11    1    3    3    0    0  0.66774518739E+00  0.21410679181E+01 -0.12289911601E+02  0.12492877286E+02  0.51100000000E-03 0. -1.
        -11    1    3    3    0    0 -0.13991562077E+02 -0.53313312118E+01 -0.17505697416E+02  0.23035545232E+02  0.51100000000E-03 0.  1.
         12    1    3    3    0    0 -0.15896765762E+02  0.44834096448E+01  0.17098862203E+02  0.23773498110E+02  0.00000000000E+00 0. -1.
</event>
<event>
 7    1  0.6184948E-012  0.5930194E+02  0.7816164E-02  0.1266605E+00
        -11   -1    0    0    0    0  0.00000000000E+00  0.00000000000E+00  0.45593999997E+02  0.45594000000E+02  0.51100000000E-03 0. -1.
         11   -1    0    0    0    0 -0.00000000000E+00 -0.00000000000E+00 -0.45593999997E+02  0.45594000000E+02  0.51100000000E-03 0.  1.
    9900012    2    1    2    0    0  0.81206917590E+01  0.26328234248E+02 -0.16049907188E+02  0.59301936053E+02  0.49999985457E+02 0.  0.
         12    1    1    2    0    0 -0.81206917590E+01 -0.26328234248E+02  0.16049907188E+02  0.31886063947E+02  0.00000000000E+00 0. -1.
         11    1    3    3    0    0  0.21748347328E+02 -0.25710911510E+01 -0.41798346029E+01  0.22295114684E+02  0.51100000000E-03 0. -1.
        -11    1    3    3    0    0 -0.16093532713E+00  0.26653462443E+00 -0.45097186457E+01  0.45204538942E+01  0.51100000000E-03 0.  1.
         12    1    3    3    0    0 -0.13466720242E+02  0.28632790775E+02 -0.73603539390E+01  0.32486367475E+02  0.00000000000E+00 0. -1.
</event>
<event>
 7    1  0.6184948E-012  0.5930182E+02  0.7816164E-02  0.1266605E+00
        -11   -1    0    0    0    0  0.00000000000E+00  0.00000000000E+00  0.45593999997E+02  0.45594000000E+02  0.51100000000E-03 0.  1.
         11   -1    0    0    0    0 -0.00000000000E+00 -0.00000000000E+00 -0.45593999997E+02  0.45594000000E+02  0.51100000000E-03 0. -1.
    9900012    2    1    2    0    0  0.63391477363E+01  0.27970499087E+02  0.13935380668E+02  0.59301820430E+02  0.49999774587E+02 0.  0.
         12    1    1    2    0    0 -0.63391477363E+01 -0.27970499087E+02 -0.13935380668E+02  0.31886179570E+02  0.00000000000E+00 0. -1.
         11    1    3    3    0    0 -0.11532805547E+02 -0.18272097256E+01 -0.22503881856E+01  0.11891532551E+02  0.51100000000E-03 0. -1.
        -11    1    3    3    0    0  0.69761846349E+01  0.22188484122E+02  0.22795701815E+02  0.32567468449E+02  0.51100000000E-03 0.  1.
        -12    1    3    3    0    0  0.10895768649E+02  0.76092246910E+01 -0.66099329621E+01  0.14842819429E+02  0.00000000000E+00 0.  1.
</event>
<event>
 7    1  0.6184948E-012  0.5930194E+02  0.7816164E-02  0.1266605E+00
        -11   -1    0    0    0    0  0.00000000000E+00  0.00000000000E+00  0.45593999997E+02  0.45594000000E+02  0.51100000000E-03 0.  1.
         11   -1    0    0    0    0 -0.00000000000E+00 -0.00000000000E+00 -0.45593999997E+02  0.45594000000E+02  0.51100000000E-03 0. -1.
    9900012    2    1    2    0    0  0.22237081545E+02 -0.19016247947E+02  0.12673409469E+02  0.59301940519E+02  0.49999993601E+02 0.  0.
         12    1    1    2    0    0 -0.22237081545E+02  0.19016247947E+02 -0.12673409469E+02  0.31886059481E+02  0.00000000000E+00 0. -1.
         11    1    3    3    0    0 -0.48056252356E+01  0.14694360871E+01  0.76647465978E+01  0.91652396035E+01  0.51100000000E-03 0. -1.
        -11    1    3    3    0    0  0.30349562298E+01 -0.10427523307E+02  0.18017468261E+02  0.21037427705E+02  0.51100000000E-03 0.  1.
         12    1    3    3    0    0  0.24007750551E+02 -0.10058160727E+02 -0.13008805390E+02  0.29099273211E+02  0.00000000000E+00 0. -1.
</event>
<event>
 7    1  0.6184948E-012  0.5930190E+02  0.7816164E-02  0.1266605E+00
        -11   -1    0    0    0    0  0.00000000000E+00  0.00000000000E+00  0.45593999997E+02  0.45594000000E+02  0.51100000000E-03 0.  1.
         11   -1    0    0    0    0 -0.00000000000E+00 -0.00000000000E+00 -0.45593999997E+02  0.45594000000E+02  0.51100000000E-03 0. -1.
    9900012    2    1    2    0    0  0.22226458773E+02  0.22505794846E+02  0.40245737867E+01  0.59301898554E+02  0.49999917067E+02 0.  0.
         12    1    1    2    0    0 -0.22226458773E+02 -0.22505794846E+02 -0.40245737867E+01  0.31886101446E+02  0.00000000000E+00 0. -1.
         11    1    3    3    0    0 -0.44807439920E+01  0.10819332012E+00  0.85518176858E+00  0.45629057228E+01  0.51100000000E-03 0. -1.
        -11    1    3    3    0    0 -0.95704443273E+01 -0.30342552634E+01  0.28394930593E+01  0.10433735224E+02  0.51100000000E-03 0.  1.
         12    1    3    3    0    0  0.36277647093E+02  0.25431856789E+02  0.32989895881E+00  0.44305257607E+02  0.00000000000E+00 0. -1.
</event>
<event>
 7    1  0.6184948E-012  0.5930195E+02  0.7816164E-02  0.1266605E+00
        -11   -1    0    0    0    0  0.00000000000E+00  0.00000000000E+00  0.45593999997E+02  0.45594000000E+02  0.51100000000E-03 0.  1.
         11   -1    0    0    0    0 -0.00000000000E+00 -0.00000000000E+00 -0.45593999997E+02  0.45594000000E+02  0.51100000000E-03 0. -1.
    9900012    2    1    2    0    0  0.24639266736E+02  0.86993858499E+01  0.18274234404E+02  0.59301946269E+02  0.50000004088E+02 0.  0.
         12    1    1    2    0    0 -0.24639266736E+02 -0.86993858499E+01 -0.18274234404E+02  0.31886053731E+02  0.00000000000E+00 0. -1.
         11    1    3    3    0    0  0.12422491031E+02  0.14023310009E+02  0.18426839788E+02  0.26277745943E+02  0.51100000000E-03 0.  1.
        -11    1    3    3    0    0  0.18341372306E+02 -0.88126406226E+00  0.95681777518E+01  0.20705858837E+02  0.51100000000E-03 0. -1.
         12    1    3    3    0    0 -0.61245966009E+01 -0.44426600973E+01 -0.97207831356E+01  0.12318341489E+02  0.00000000000E+00 0. -1.
</event>
<event>
 7    1  0.6184948E-012  0.5930195E+02  0.7816164E-02  0.1266605E+00
        -11   -1    0    0    0    0  0.00000000000E+00  0.00000000000E+00  0.45593999997E+02  0.45594000000E+02  0.51100000000E-03 0.  1.
         11   -1    0    0    0    0 -0.00000000000E+00 -0.00000000000E+00 -0.45593999997E+02  0.45594000000E+02  0.51100000000E-03 0. -1.
    9900012    2    1    2    0    0  0.97590585519E+01  0.17837667823E+02  0.24562137891E+02  0.59301949210E+02  0.50000009452E+02 0.  0.
         12    1    1    2    0    0 -0.97590585519E+01 -0.17837667823E+02 -0.24562137891E+02  0.31886050790E+02  0.00000000000E+00 0. -1.
         11    1    3    3    0    0  0.10413608021E+02  0.36364088909E+01  0.30632341079E+02  0.32557749030E+02  0.51100000000E-03 0. -1.
        -11    1    3    3    0    0 -0.26259436104E+01  0.62964317540E+01  0.79826129127E+01  0.10500606737E+02  0.51100000000E-03 0.  1.
        -12    1    3    3    0    0  0.19713941410E+01  0.79048271780E+01 -0.14052816101E+02  0.16243593443E+02  0.00000000000E+00 0.  1.
</event>
<event>
 7    1  0.6184948E-012  0.5930191E+02  0.7816164E-02  0.1266605E+00
        -11   -1    0    0    0    0  0.00000000000E+00  0.00000000000E+00  0.45593999997E+02  0.45594000000E+02  0.51100000000E-03 0. -1.
         11   -1    0    0    0    0 -0.00000000000E+00 -0.00000000000E+00 -0.45593999997E+02  0.45594000000E+02  0.51100000000E-03 0.  1.
    9900012    2    1    2    0    0  0.15013939372E+02  0.24259851264E+02 -0.14239518791E+02  0.59301911275E+02  0.49999940266E+02 0.  0.
         12    1    1    2    0    0 -0.15013939372E+02 -0.24259851264E+02  0.14239518791E+02  0.31886088725E+02  0.00000000000E+00 0. -1.
         11    1    3    3    0    0  0.91937351314E+00 -0.97131971520E+01 -0.79470746153E+01  0.12583617992E+02  0.51100000000E-03 0. -1.
        -11    1    3    3    0    0 -0.53736902003E+01  0.23639661983E+02 -0.37602732963E+01  0.24532627674E+02  0.51100000000E-03 0.  1.
         12    1    3    3    0    0  0.19468256059E+02  0.10333386433E+02 -0.25321708789E+01  0.22185665609E+02  0.00000000000E+00 0. -1.
</event>
<event>
 7    1  0.6184948E-012  0.5930194E+02  0.7816164E-02  0.1266605E+00
        -11   -1    0    0    0    0  0.00000000000E+00  0.00000000000E+00  0.45593999997E+02  0.45594000000E+02  0.51100000000E-03 0. -1.
         11   -1    0    0    0    0 -0.00000000000E+00 -0.00000000000E+00 -0.45593999997E+02  0.45594000000E+02  0.51100000000E-03 0.  1.
    9900012    2    1    2    0    0  0.36703238498E+01  0.16601182325E+02 -0.26974990176E+02  0.59301943067E+02  0.49999998247E+02 0.  0.
         12    1    1    2    0    0 -0.36703238498E+01 -0.16601182325E+02  0.26974990176E+02  0.31886056933E+02  0.00000000000E+00 0. -1.
         11    1    3    3    0    0 -0.18380169118E+01 -0.30351526587E+01  0.97219389832E+01  0.10349229714E+02  0.51100000000E-03 0. -1.
        -11    1    3    3    0    0 -0.44029997837E+01  0.20221688268E+02 -0.16575706887E+02  0.26515224732E+02  0.51100000000E-03 0.  1.
        -12    1    3    3    0    0  0.99113405452E+01 -0.58535328429E+00 -0.20121222272E+02  0.22437488620E+02  0.00000000000E+00 0.  1.
</event>
<event>
 7    1  0.6184948E-012  0.5930195E+02  0.7816164E-02  0.1266605E+00
        -11   -1    0    0    0    0  0.00000000000E+00  0.00000000000E+00  0.45593999997E+02  0.45594000000E+02  0.51100000000E-03 0.  1.
         11   -1    0    0    0    0 -0.00000000000E+00 -0.00000000000E+00 -0.45593999997E+02  0.45594000000E+02  0.51100000000E-03 0. -1.
    9900012    2    1    2    0    0  0.52923499966E+01 -0.13575034853E+02  0.28362470834E+02  0.59301948323E+02  0.50000007834E+02 0.  0.
         12    1    1    2    0    0 -0.52923499966E+01  0.13575034853E+02 -0.28362470834E+02  0.31886051677E+02  0.00000000000E+00 0. -1.
         11    1    3    3    0    0 -0.88981177267E+01  0.13445685456E+01  0.13429000869E+02  0.16165470245E+02  0.51100000000E-03 0. -1.
        -11    1    3    3    0    0 -0.97570592402E+01 -0.61492431671E+01 -0.30511432562E+01  0.11929915003E+02  0.51100000000E-03 0.  1.
        -12    1    3    3    0    0  0.23947526963E+02 -0.87703602316E+01  0.17984613221E+02  0.31206563075E+02  0.00000000000E+00 0.  1.
</event>
<event>
 7    1  0.6184948E-012  0.5930194E+02  0.7816164E-02  0.1266605E+00
        -11   -1    0    0    0    0  0.00000000000E+00  0.00000000000E+00  0.45593999997E+02  0.45594000000E+02  0.51100000000E-03 0.  1.
         11   -1    0    0    0    0 -0.00000000000E+00 -0.00000000000E+00 -0.45593999997E+02  0.45594000000E+02  0.51100000000E-03 0. -1.
    9900012    2    1    2    0    0  0.23527806925E+02  0.15357120441E+02  0.15077190746E+02  0.59301944619E+02  0.50000001078E+02 0.  0.
         12    1    1    2    0    0 -0.23527806925E+02 -0.15357120441E+02 -0.15077190746E+02  0.31886055381E+02  0.00000000000E+00 0. -1.
         11    1    3    3    0    0  0.99175561717E+01 -0.29121683063E+01  0.62906099283E+01  0.12100017281E+02  0.51100000000E-03 0. -1.
        -11    1    3    3    0    0  0.21610413365E+02  0.24865948417E+02 -0.97806876284E+00  0.32958792078E+02  0.51100000000E-03 0.  1.
         12    1    3    3    0    0 -0.80001626110E+01 -0.65966596696E+01  0.97646495808E+01  0.14243135260E+02  0.00000000000E+00 0. -1.
</event>
<event>
 7    1  0.6184948E-012  0.5930197E+02  0.7816164E-02  0.1266605E+00
        -11   -1    0    0    0    0  0.00000000000E+00  0.00000000000E+00  0.45593999997E+02  0.45594000000E+02  0.51100000000E-03 0.  1.
         11   -1    0    0    0    0 -0.00000000000E+00 -0.00000000000E+00 -0.45593999997E+02  0.45594000000E+02  0.51100000000E-03 0. -1.
    9900012    2    1    2    0    0  0.31839099258E+02 -0.70905397952E+00  0.15773061949E+01  0.59301970239E+02  0.50000047802E+02 0.  0.
         12    1    1    2    0    0 -0.31839099258E+02  0.70905397952E+00 -0.15773061949E+01  0.31886029761E+02  0.00000000000E+00 0. -1.
         11    1    3    3    0    0 -0.24676301116E+01  0.21869127698E+01 -0.15678785160E+02  0.16021738051E+02  0.51100000000E-03 0. -1.
        -11    1    3    3    0    0  0.67959246405E+01 -0.82899932529E+01  0.74642720029E+00  0.10745498298E+02  0.51100000000E-03 0.  1.
        -12    1    3    3    0    0  0.27510804729E+02  0.53940265035E+01  0.16509664154E+02  0.32534733889E+02  0.00000000000E+00 0.  1.
</event>
<event>
 7    1  0.6184948E-012  0.5930195E+02  0.7816164E-02  0.1266605E+00
        -11   -1    0    0    0    0  0.00000000000E+00  0.00000000000E+00  0.45593999997E+02  0.45594000000E+02  0.51100000000E-03 0.  1.
         11   -1    0    0    0    0 -0.00000000000E+00 -0.00000000000E+00 -0.45593999997E+02  0.45594000000E+02  0.51100000000E-03 0. -1.
    9900012    2    1    2    0    0 -0.10153872517E+02  0.13187715610E+02  0.27197486379E+02  0.59301949203E+02  0.50000009439E+02 0.  0.
         12    1    1    2    0    0  0.10153872517E+02 -0.13187715610E+02 -0.27197486379E+02  0.31886050797E+02  0.00000000000E+00 0. -1.
         11    1    3    3    0    0  0.25628041647E+01  0.70136110892E+01  0.22142632273E+02  0.23367816970E+02  0.51100000000E-03 0. -1.
        -11    1    3    3    0    0 -0.58828954855E+01 -0.93207831909E+01  0.13154616323E+02  0.17161858567E+02  0.51100000000E-03 0.  1.
        -12    1    3    3    0    0 -0.68337811966E+01  0.15494887711E+02 -0.80997622177E+01  0.18772273667E+02  0.00000000000E+00 0.  1.
</event>
<event>
 7    1  0.6184948E-012  0.5930196E+02  0.7816164E-02  0.1266605E+00
        -11   -1    0    0    0    0  0.00000000000E+00  0.00000000000E+00  0.45593999997E+02  0.45594000000E+02  0.51100000000E-03 0.  1.
         11   -1    0    0    0    0 -0.00000000000E+00 -0.00000000000E+00 -0.45593999997E+02  0.45594000000E+02  0.51100000000E-03 0. -1.
    9900012    2    1    2    0    0  0.81398109070E+01 -0.21212767173E+01  0.30756514596E+02  0.59301960318E+02  0.50000029709E+02 0.  0.
         12    1    1    2    0    0 -0.81398109070E+01  0.21212767173E+01 -0.30756514596E+02  0.31886039682E+02  0.00000000000E+00 0. -1.
         11    1    3    3    0    0 -0.87099510832E+01 -0.12225935336E+02  0.19721045166E+02  0.24784195880E+02  0.51100000000E-03 0. -1.
        -11    1    3    3    0    0 -0.32061235502E+01  0.99773253273E+00 -0.58624910098E+01  0.67559973007E+01  0.51100000000E-03 0.  1.
        -12    1    3    3    0    0  0.20055885540E+02  0.91069260859E+01  0.16897960440E+02  0.27761767137E+02  0.00000000000E+00 0.  1.
</event>
<event>
 7    1  0.6184948E-012  0.5930194E+02  0.7816164E-02  0.1266605E+00
        -11   -1    0    0    0    0  0.00000000000E+00  0.00000000000E+00  0.45593999997E+02  0.45594000000E+02  0.51100000000E-03 0.  1.
         11   -1    0    0    0    0 -0.00000000000E+00 -0.00000000000E+00 -0.45593999997E+02  0.45594000000E+02  0.51100000000E-03 0. -1.
    9900012    2    1    2    0    0  0.15997970315E+02  0.40871808747E+01  0.27277841052E+02  0.59301941696E+02  0.49999995747E+02 0.  0.
         12    1    1    2    0    0 -0.15997970315E+02 -0.40871808747E+01 -0.27277841052E+02  0.31886058304E+02  0.00000000000E+00 0. -1.
         11    1    3    3    0    0 -0.28775735940E+01 -0.11690622182E+02 -0.10834813411E+01  0.12088217771E+02  0.51100000000E-03 0. -1.
        -11    1    3    3    0    0 -0.67602709090E+01  0.84001592284E+01  0.10891745396E+02  0.15326253810E+02  0.51100000000E-03 0.  1.
        -12    1    3    3    0    0  0.25635814818E+02  0.73776438284E+01  0.17469576998E+02  0.31887470115E+02  0.00000000000E+00 0.  1.
</event>
<event>
 7    1  0.6184948E-012  0.5930194E+02  0.7816164E-02  0.1266605E+00
        -11   -1    0    0    0    0  0.00000000000E+00  0.00000000000E+00  0.45593999997E+02  0.45594000000E+02  0.51100000000E-03 0.  1.
         11   -1    0    0    0    0 -0.00000000000E+00 -0.00000000000E+00 -0.45593999997E+02  0.45594000000E+02  0.51100000000E-03 0. -1.
    9900012    2    1    2    0    0 -0.14011927348E+02 -0.17436026935E+02  0.22723813531E+02  0.59301939650E+02  0.49999992016E+02 0.  0.
         12    1    1    2    0    0  0.14011927348E+02  0.17436026935E+02 -0.22723813531E+02  0.31886060350E+02  0.00000000000E+00 0. -1.
         11    1    3    3    0    0  0.17684127485E+01 -0.11071256014E+02 -0.13003411157E+01  0.11286756870E+02  0.51100000000E-03 0. -1.
        -11    1    3    3    0    0 -0.81682223813E+01 -0.20941080458E+02  0.21990475472E+02  0.31445662966E+02  0.51100000000E-03 0.  1.
         12    1    3    3    0    0 -0.76121177154E+01  0.14576309538E+02  0.20336791743E+01  0.16569519813E+02  0.00000000000E+00 0. -1.
</event>
<event>
 7    1  0.6184948E-012  0.5930197E+02  0.7816164E-02  0.1266605E+00
        -11   -1    0    0    0    0  0.00000000000E+00  0.00000000000E+00  0.45593999997E+02  0.45594000000E+02  0.51100000000E-03 0.  1.
         11   -1    0    0    0    0 -0.00000000000E+00 -0.00000000000E+00 -0.45593999997E+02  0.45594000000E+02  0.51100000000E-03 0. -1.
    9900012    2    1    2    0    0 -0.15422198567E+02 -0.10378514785E+02  0.25906780700E+02  0.59301967572E+02  0.50000042939E+02 0.  0.
         12    1    1    2    0    0  0.15422198567E+02  0.10378514785E+02 -0.25906780700E+02  0.31886032428E+02  0.00000000000E+00 0. -1.
         11    1    3    3    0    0  0.12697663312E+02  0.46264802826E+01  0.89858662315E+01  0.16229010000E+02  0.51100000000E-03 0. -1.
        -11    1    3    3    0    0 -0.67827569314E+01 -0.23391314191E+01  0.16790712320E+02  0.18259390676E+02  0.51100000000E-03 0.  1.
        -12    1    3    3    0    0 -0.21337104947E+02 -0.12665863649E+02  0.13020214888E+00  0.24813566896E+02  0.00000000000E+00 0.  1.
</event>
<event>
 7    1  0.6184948E-012  0.5930196E+02  0.7816164E-02  0.1266605E+00
        -11   -1    0    0    0    0  0.00000000000E+00  0.00000000000E+00  0.45593999997E+02  0.45594000000E+02  0.51100000000E-03 0. -1.
         11   -1    0    0    0    0 -0.00000000000E+00 -0.00000000000E+00 -0.45593999997E+02  0.45594000000E+02  0.51100000000E-03 0.  1.
    9900012    2    1    2    0    0  0.28821352924E+02 -0.12745069611E+02  0.48592434783E+01  0.59301961818E+02  0.50000032446E+02 0.  0.
         12    1    1    2    0    0 -0.28821352924E+02  0.12745069611E+02 -0.48592434783E+01  0.31886038182E+02  0.00000000000E+00 0. -1.
         11    1    3    3    0    0 -0.48114035251E+01 -0.34792352608E+01 -0.12513184182E+02  0.13850431781E+02  0.51100000000E-03 0. -1.
        -11    1    3    3    0    0  0.16437938335E+02  0.37754341291E+01 -0.12971891067E+01  0.16915744720E+02  0.51100000000E-03 0.  1.
        -12    1    3    3    0    0  0.17194818113E+02 -0.13041268479E+02  0.18669616767E+02  0.28535785318E+02  0.00000000000E+00 0.  1.
</event>
<event>
 7    1  0.6184948E-012  0.5930193E+02  0.7816164E-02  0.1266605E+00
        -11   -1    0    0    0    0  0.00000000000E+00  0.00000000000E+00  0.45593999997E+02  0.45594000000E+02  0.51100000000E-03 0.  1.
         11   -1    0    0    0    0 -0.00000000000E+00 -0.00000000000E+00 -0.45593999997E+02  0.45594000000E+02  0.51100000000E-03 0. -1.
    9900012    2    1    2    0    0  0.45792522202E+01  0.23257370881E+02  0.21327131506E+02  0.59301931107E+02  0.49999976436E+02 0.  0.
         12    1    1    2    0    0 -0.45792522202E+01 -0.23257370881E+02 -0.21327131506E+02  0.31886068893E+02  0.00000000000E+00 0. -1.
         11    1    3    3    0    0 -0.12001305394E+02  0.18681509748E+02  0.99466310277E+01  0.24330343333E+02  0.51100000000E-03 0. -1.
        -11    1    3    3    0    0  0.73022078936E+01  0.15745605947E+02  0.10793877518E+02  0.20439034686E+02  0.51100000000E-03 0.  1.
         12    1    3    3    0    0  0.92783497210E+01 -0.11169744814E+02  0.58662296066E+00  0.14532553088E+02  0.00000000000E+00 0. -1.
</event>
<event>
 7    1  0.6184948E-012  0.5930198E+02  0.7816164E-02  0.1266605E+00
        -11   -1    0    0    0    0  0.00000000000E+00  0.00000000000E+00  0.45593999997E+02  0.45594000000E+02  0.51100000000E-03 0. -1.
         11   -1    0    0    0    0 -0.00000000000E+00 -0.00000000000E+00 -0.45593999997E+02  0.45594000000E+02  0.51100000000E-03 0.  1.
    9900012    2    1    2    0    0 -0.22913867369E+01 -0.67793858850E+01 -0.31072616587E+02  0.59301983822E+02  0.50000072575E+02 0.  0.
         12    1    1    2    0    0  0.22913867369E+01  0.67793858850E+01  0.31072616587E+02  0.31886016178E+02  0.00000000000E+00 0. -1.
         11    1    3    3    0    0 -0.69137901220E+01 -0.25291676284E+00 -0.23255331359E+01  0.72988057494E+01  0.51100000000E-03 0. -1.
        -11    1    3    3    0    0 -0.80112255357E+01  0.84253156634E+00  0.86667331280E+01  0.11832238055E+02  0.51100000000E-03 0.  1.
        -12    1    3    3    0    0  0.12633628921E+02 -0.73690006885E+01 -0.37413816579E+02  0.40170940017E+02  0.00000000000E+00 0.  1.
</event>
<event>
 7    1  0.6184948E-012  0.5930215E+02  0.7816164E-02  0.1266604E+00
        -11   -1    0    0    0    0  0.00000000000E+00  0.00000000000E+00  0.45593999997E+02  0.45594000000E+02  0.51100000000E-03 0.  1.
         11   -1    0    0    0    0 -0.00000000000E+00 -0.00000000000E+00 -0.45593999997E+02  0.45594000000E+02  0.51100000000E-03 0. -1.
    9900012    2    1    2    0    0 -0.16561416000E+01  0.25812231584E+02  0.18646539781E+02  0.59302148119E+02  0.50000372213E+02 0.  0.
         12    1    1    2    0    0  0.16561416000E+01 -0.25812231584E+02 -0.18646539781E+02  0.31885851881E+02  0.00000000000E+00 0. -1.
         11    1    3    3    0    0  0.11224702200E+02  0.16203872582E+02  0.48936443002E+01  0.20310272793E+02  0.51100000000E-03 0. -1.
        -11    1    3    3    0    0 -0.11178573417E+02  0.15617395998E+02  0.21638580457E+02  0.28932537494E+02  0.51100000000E-03 0.  1.
         12    1    3    3    0    0 -0.17022703831E+01 -0.60090369956E+01 -0.78856849765E+01  0.10059337832E+02  0.00000000000E+00 0. -1.
</event>
<event>
 7    1  0.6184948E-012  0.5930190E+02  0.7816164E-02  0.1266605E+00
        -11   -1    0    0    0    0  0.00000000000E+00  0.00000000000E+00  0.45593999997E+02  0.45594000000E+02  0.51100000000E-03 0. -1.
         11   -1    0    0    0    0 -0.00000000000E+00 -0.00000000000E+00 -0.45593999997E+02  0.45594000000E+02  0.51100000000E-03 0.  1.
    9900012    2    1    2    0    0  0.57797610484E+01  0.31345526046E+02  0.88086897012E+00  0.59301896898E+02  0.49999914046E+02 0.  0.
         12    1    1    2    0    0 -0.57797610484E+01 -0.31345526046E+02 -0.88086897012E+00  0.31886103102E+02  0.00000000000E+00 0. -1.
         11    1    3    3    0    0  0.42363504671E+01 -0.75942509816E+01 -0.33008149174E+01  0.93013274661E+01  0.51100000000E-03 0. -1.
        -11    1    3    3    0    0  0.92659066188E+01  0.12976293783E+02 -0.10595534141E+02  0.19144361306E+02  0.51100000000E-03 0.  1.
         12    1    3    3    0    0 -0.77224960375E+01  0.25963483244E+02  0.14777218029E+02  0.30856208126E+02  0.00000000000E+00 0. -1.
</event>
<event>
 7    1  0.6184948E-012  0.5930193E+02  0.7816164E-02  0.1266605E+00
        -11   -1    0    0    0    0  0.00000000000E+00  0.00000000000E+00  0.45593999997E+02  0.45594000000E+02  0.51100000000E-03 0. -1.
         11   -1    0    0    0    0 -0.00000000000E+00 -0.00000000000E+00 -0.45593999997E+02  0.45594000000E+02  0.51100000000E-03 0.  1.
    9900012    2    1    2    0    0  0.30396135500E+01 -0.26252033333E+02 -0.17841321750E+02  0.59301933036E+02  0.49999979953E+02 0.  0.
         12    1    1    2    0    0 -0.30396135500E+01  0.26252033333E+02  0.17841321750E+02  0.31886066964E+02  0.00000000000E+00 0. -1.
         11    1    3    3    0    0  0.10121776759E+01 -0.16186807520E+02 -0.54499483059E+01  0.17109622384E+02  0.51100000000E-03 0. -1.
        -11    1    3    3    0    0  0.14843253705E+02  0.25814458902E+01 -0.17868661717E+02  0.23372529073E+02  0.51100000000E-03 0.  1.
         12    1    3    3    0    0 -0.12815817831E+02 -0.12646671703E+02  0.54772882730E+01  0.18819781579E+02  0.00000000000E+00 0. -1.
</event>
<event>
 7    1  0.6184948E-012  0.5930211E+02  0.7816164E-02  0.1266604E+00
        -11   -1    0    0    0    0  0.00000000000E+00  0.00000000000E+00  0.45593999997E+02  0.45594000000E+02  0.51100000000E-03 0.  1.
         11   -1    0    0    0    0 -0.00000000000E+00 -0.00000000000E+00 -0.45593999997E+02  0.45594000000E+02  0.51100000000E-03 0. -1.
    9900012    2    1    2    0    0  0.27740488036E+01  0.30669722138E+02  0.82693739175E+01  0.59302113659E+02  0.50000309365E+02 0.  0.
         12    1    1    2    0    0 -0.27740488036E+01 -0.30669722138E+02 -0.82693739175E+01  0.31885886341E+02  0.00000000000E+00 0. -1.
         11    1    3    3    0    0 -0.27882011222E+01  0.22759121551E+02  0.63304196389E+01  0.23787095080E+02  0.51100000000E-03 0. -1.
        -11    1    3    3    0    0  0.47191422953E+01  0.13378068637E+02  0.15414128273E+02  0.20948469518E+02  0.51100000000E-03 0.  1.
         12    1    3    3    0    0  0.84310763054E+00 -0.54674680503E+01 -0.13475173994E+02  0.14566549061E+02  0.00000000000E+00 0. -1.
</event>
<event>
 7    1  0.6184948E-012  0.5930193E+02  0.7816164E-02  0.1266605E+00
        -11   -1    0    0    0    0  0.00000000000E+00  0.00000000000E+00  0.45593999997E+02  0.45594000000E+02  0.51100000000E-03 0.  1.
         11   -1    0    0    0    0 -0.00000000000E+00 -0.00000000000E+00 -0.45593999997E+02  0.45594000000E+02  0.51100000000E-03 0. -1.
    9900012    2    1    2    0    0  0.52615870675E+01  0.28401444482E+02  0.13505376029E+02  0.59301928921E+02  0.49999972450E+02 0.  0.
         12    1    1    2    0    0 -0.52615870675E+01 -0.28401444482E+02 -0.13505376029E+02  0.31886071079E+02  0.00000000000E+00 0. -1.
         11    1    3    3    0    0  0.13888335400E+02  0.32402648009E+01  0.45932455943E+01  0.14982759476E+02  0.51100000000E-03 0. -1.
        -11    1    3    3    0    0  0.67550435204E+01  0.21539992067E+02  0.15304149678E+02  0.27273042897E+02  0.51100000000E-03 0.  1.
        -12    1    3    3    0    0 -0.15381791852E+02  0.36211876138E+01 -0.63920192429E+01  0.17046126549E+02  0.00000000000E+00 0.  1.
</event>
<event>
 7    1  0.6184948E-012  0.5930175E+02  0.7816164E-02  0.1266605E+00
        -11   -1    0    0    0    0  0.00000000000E+00  0.00000000000E+00  0.45593999997E+02  0.45594000000E+02  0.51100000000E-03 0. -1.
         11   -1    0    0    0    0 -0.00000000000E+00 -0.00000000000E+00 -0.45593999997E+02  0.45594000000E+02  0.51100000000E-03 0.  1.
    9900012    2    1    2    0    0  0.82825427928E+01 -0.19421224708E+02 -0.23894528432E+02  0.59301749463E+02  0.49999645160E+02 0.  0.
         12    1    1    2    0    0 -0.82825427928E+01  0.19421224708E+02  0.23894528432E+02  0.31886250537E+02  0.00000000000E+00 0. -1.
         11    1    3    3    0    0  0.12864110579E+02  0.68087119067E-01 -0.36751912453E+01  0.13378976335E+02  0.51100000000E-03 0.  1.
        -11    1    3    3    0    0 -0.13778089398E+02 -0.19256006178E+01 -0.21986683091E+02  0.26018414994E+02  0.51100000000E-03 0. -1.
         12    1    3    3    0    0  0.91965216119E+01 -0.17563711209E+02  0.17673459035E+01  0.19904358134E+02  0.00000000000E+00 0. -1.
</event>
<event>
 7    1  0.6184948E-012  0.5930194E+02  0.7816164E-02  0.1266605E+00
        -11   -1    0    0    0    0  0.00000000000E+00  0.00000000000E+00  0.45593999997E+02  0.45594000000E+02  0.51100000000E-03 0. -1.
         11   -1    0    0    0    0 -0.00000000000E+00 -0.00000000000E+00 -0.45593999997E+02  0.45594000000E+02  0.51100000000E-03 0.  1.
    9900012    2    1    2    0    0  0.42758455909E+01 -0.20231674994E+02 -0.24271736862E+02  0.59301941309E+02  0.49999995041E+02 0.  0.
         12    1    1    2    0    0 -0.42758455909E+01  0.20231674994E+02  0.24271736862E+02  0.31886058691E+02  0.00000000000E+00 0. -1.
         11    1    3    3    0    0 -0.27878925388E+01 -0.21143035682E+00  0.71062284467E+01  0.76364606070E+01  0.51100000000E-03 0. -1.
        -11    1    3    3    0    0 -0.31276547530E+01 -0.26050110722E+02 -0.29824059179E+02  0.39722348862E+02  0.51100000000E-03 0.  1.
         12    1    3    3    0    0  0.10191392883E+02  0.60298660848E+01 -0.15539061291E+01  0.11943131840E+02  0.00000000000E+00 0. -1.
</event>
<event>
 7    1  0.6184948E-012  0.5930196E+02  0.7816164E-02  0.1266605E+00
        -11   -1    0    0    0    0  0.00000000000E+00  0.00000000000E+00  0.45593999997E+02  0.45594000000E+02  0.51100000000E-03 0.  1.
         11   -1    0    0    0    0 -0.00000000000E+00 -0.00000000000E+00 -0.45593999997E+02  0.45594000000E+02  0.51100000000E-03 0. -1.
    9900012    2    1    2    0    0  0.18905900318E+02 -0.24374602220E+01  0.25560625592E+02  0.59301955092E+02  0.50000020179E+02 0.  0.
         12    1    1    2    0    0 -0.18905900318E+02  0.24374602220E+01 -0.25560625592E+02  0.31886044908E+02  0.00000000000E+00 0. -1.
         11    1    3    3    0    0 -0.10278683031E+02  0.40198086466E+01  0.11744739597E+02  0.16116733381E+02  0.51100000000E-03 0. -1.
        -11    1    3    3    0    0  0.33513411776E+01 -0.11709166694E+02  0.11451947732E+02  0.16717750431E+02  0.51100000000E-03 0.  1.
         12    1    3    3    0    0  0.25833242172E+02  0.52518978250E+01  0.23639382626E+01  0.26467471280E+02  0.00000000000E+00 0. -1.
</event>
<event>
 7    1  0.6184948E-012  0.5930193E+02  0.7816164E-02  0.1266605E+00
        -11   -1    0    0    0    0  0.00000000000E+00  0.00000000000E+00  0.45593999997E+02  0.45594000000E+02  0.51100000000E-03 0. -1.
         11   -1    0    0    0    0 -0.00000000000E+00 -0.00000000000E+00 -0.45593999997E+02  0.45594000000E+02  0.51100000000E-03 0.  1.
    9900012    2    1    2    0    0 -0.25777562408E+02 -0.10222011463E+02 -0.15740046949E+02  0.59301932196E+02  0.49999978421E+02 0.  0.
         12    1    1    2    0    0  0.25777562408E+02  0.10222011463E+02  0.15740046949E+02  0.31886067804E+02  0.00000000000E+00 0. -1.
         11    1    3    3    0    0  0.60849560054E+01 -0.38774848280E+01  0.26660003327E+01  0.76921476984E+01  0.51100000000E-03 0. -1.
        -11    1    3    3    0    0 -0.24028891869E+01 -0.83511875917E+01 -0.20238300133E+02  0.22025099391E+02  0.51100000000E-03 0.  1.
         12    1    3    3    0    0 -0.29459629226E+02  0.20066609565E+01  0.18322528510E+01  0.29584685107E+02  0.00000000000E+00 0. -1.
</event>
<event>
 7    1  0.6184948E-012  0.5930192E+02  0.7816164E-02  0.1266605E+00
        -11   -1    0    0    0    0  0.00000000000E+00  0.00000000000E+00  0.45593999997E+02  0.45594000000E+02  0.51100000000E-03 0.  1.
         11   -1    0    0    0    0 -0.00000000000E+00 -0.00000000000E+00 -0.45593999997E+02  0.45594000000E+02  0.51100000000E-03 0. -1.
    9900012    2    1    2    0    0  0.81217158028E+01  0.57684383769E+01  0.30290012698E+02  0.59301921248E+02  0.49999958456E+02 0.  0.
         12    1    1    2    0    0 -0.81217158028E+01 -0.57684383769E+01 -0.30290012698E+02  0.31886078752E+02  0.00000000000E+00 0. -1.
         11    1    3    3    0    0  0.91330192261E+00  0.31441782699E+01 -0.98634233874E+01  0.10392646370E+02  0.51100000000E-03 0. -1.
        -11    1    3    3    0    0  0.50002544243E+01 -0.10837753641E+02  0.91568718982E+01  0.15043528559E+02  0.51100000000E-03 0.  1.
        -12    1    3    3    0    0  0.22081594559E+01  0.13462013748E+02  0.30996564187E+02  0.33865746319E+02  0.00000000000E+00 0.  1.
</event>
<event>
 7    1  0.6184948E-012  0.5930198E+02  0.7816164E-02  0.1266605E+00
        -11   -1    0    0    0    0  0.00000000000E+00  0.00000000000E+00  0.45593999997E+02  0.45594000000E+02  0.51100000000E-03 0.  1.
         11   -1    0    0    0    0 -0.00000000000E+00 -0.00000000000E+00 -0.45593999997E+02  0.45594000000E+02  0.51100000000E-03 0. -1.
    9900012    2    1    2    0    0 -0.11899765595E+02 -0.76966568401E+01  0.28563534970E+02  0.59301976765E+02  0.50000059706E+02 0.  0.
         12    1    1    2    0    0  0.11899765595E+02  0.76966568401E+01 -0.28563534970E+02  0.31886023235E+02  0.00000000000E+00 0. -1.
         11    1    3    3    0    0 -0.24004933145E+02  0.10483554989E+02  0.17880765893E+02  0.31715351640E+02  0.51100000000E-03 0.  1.
        -11    1    3    3    0    0  0.41847060643E+01  0.15970226432E+00 -0.11825039182E+01  0.43515038131E+01  0.51100000000E-03 0. -1.
        -12    1    3    3    0    0  0.79204614858E+01 -0.18339914094E+02  0.11865272996E+02  0.23235121312E+02  0.00000000000E+00 0.  1.
</event>
<event>
 7    1  0.6184948E-012  0.5930187E+02  0.7816164E-02  0.1266605E+00
        -11   -1    0    0    0    0  0.00000000000E+00  0.00000000000E+00  0.45593999997E+02  0.45594000000E+02  0.51100000000E-03 0. -1.
         11   -1    0    0    0    0 -0.00000000000E+00 -0.00000000000E+00 -0.45593999997E+02  0.45594000000E+02  0.51100000000E-03 0.  1.
    9900012    2    1    2    0    0 -0.82827693522E+00 -0.23697586386E+02  0.21318154227E+02  0.59301869115E+02  0.49999863377E+02 0.  0.
         12    1    1    2    0    0  0.82827693522E+00  0.23697586386E+02 -0.21318154227E+02  0.31886130885E+02  0.00000000000E+00 0. -1.
         11    1    3    3    0    0 -0.28167122952E+01  0.35105644598E+01 -0.66762552236E+01  0.80517274577E+01  0.51100000000E-03 0. -1.
        -11    1    3    3    0    0 -0.70352000735E+01  0.53320504727E+01  0.85218352192E+01  0.12269738305E+02  0.51100000000E-03 0.  1.
         12    1    3    3    0    0  0.90236354335E+01 -0.32540201318E+02  0.19472574231E+02  0.38980403352E+02  0.00000000000E+00 0. -1.
</event>
<event>
 7    1  0.6184948E-012  0.5930194E+02  0.7816164E-02  0.1266605E+00
        -11   -1    0    0    0    0  0.00000000000E+00  0.00000000000E+00  0.45593999997E+02  0.45594000000E+02  0.51100000000E-03 0.  1.
         11   -1    0    0    0    0 -0.00000000000E+00 -0.00000000000E+00 -0.45593999997E+02  0.45594000000E+02  0.51100000000E-03 0. -1.
    9900012    2    1    2    0    0 -0.66879333482E+01  0.31161704810E+02 -0.96971620742E+00  0.59301942724E+02  0.49999997621E+02 0.  0.
         12    1    1    2    0    0  0.66879333482E+01 -0.31161704810E+02  0.96971620742E+00  0.31886057276E+02  0.00000000000E+00 0. -1.
         11    1    3    3    0    0  0.79522272283E+01 -0.30015514695E+00  0.13045362995E+01  0.80641072798E+01  0.51100000000E-03 0. -1.
        -11    1    3    3    0    0  0.12301425790E+02  0.73188217722E+01  0.31513875069E+01  0.14656789282E+02  0.51100000000E-03 0.  1.
        -12    1    3    3    0    0 -0.26941586366E+02  0.24143038184E+02 -0.54256400138E+01  0.36581046161E+02  0.00000000000E+00 0.  1.
</event>
<event>
 7    1  0.6184948E-012  0.5930195E+02  0.7816164E-02  0.1266605E+00
        -11   -1    0    0    0    0  0.00000000000E+00  0.00000000000E+00  0.45593999997E+02  0.45594000000E+02  0.51100000000E-03 0. -1.
         11   -1    0    0    0    0 -0.00000000000E+00 -0.00000000000E+00 -0.45593999997E+02  0.45594000000E+02  0.51100000000E-03 0.  1.
    9900012    2    1    2    0    0 -0.19044294333E+01  0.23565516308E+02 -0.21395321260E+02  0.59301950038E+02  0.50000010962E+02 0.  0.
         12    1    1    2    0    0  0.19044294333E+01 -0.23565516308E+02  0.21395321260E+02  0.31886049962E+02  0.00000000000E+00 0. -1.
         11    1    3    3    0    0 -0.30335469289E+01 -0.45959527231E+01 -0.19658331511E+02  0.20415072532E+02  0.51100000000E-03 0. -1.
        -11    1    3    3    0    0  0.12549938343E+02  0.15424659625E+02 -0.68497045423E+01  0.21031869379E+02  0.51100000000E-03 0.  1.
        -12    1    3    3    0    0 -0.11420820848E+02  0.12736809406E+02  0.51127147939E+01  0.17855008128E+02  0.00000000000E+00 0.  1.
</event>
<event>
 7    1  0.6184948E-012  0.5930197E+02  0.7816164E-02  0.1266605E+00
        -11   -1    0    0    0    0  0.00000000000E+00  0.00000000000E+00  0.45593999997E+02  0.45594000000E+02  0.51100000000E-03 0.  1.
         11   -1    0    0    0    0 -0.00000000000E+00 -0.00000000000E+00 -0.45593999997E+02  0.45594000000E+02  0.51100000000E-03 0. -1.
    9900012    2    1    2    0    0  0.48930006029E+01 -0.19172593098E+02  0.25003777406E+02  0.59301973820E+02  0.50000054333E+02 0.  0.
         12    1    1    2    0    0 -0.48930006029E+01  0.19172593098E+02 -0.25003777406E+02  0.31886026180E+02  0.00000000000E+00 0. -1.
         11    1    3    3    0    0  0.22825779666E+01  0.47921969935E+01  0.16158258882E+01  0.55485320365E+01  0.51100000000E-03 0. -1.
        -11    1    3    3    0    0  0.17451937390E+02 -0.52456407241E+01  0.23658310490E+02  0.29863062816E+02  0.51100000000E-03 0.  1.
         12    1    3    3    0    0 -0.14841514754E+02 -0.18719149367E+02 -0.27035897134E+00  0.23890378967E+02  0.00000000000E+00 0. -1.
</event>
<event>
 7    1  0.6184948E-012  0.5930193E+02  0.7816164E-02  0.1266605E+00
        -11   -1    0    0    0    0  0.00000000000E+00  0.00000000000E+00  0.45593999997E+02  0.45594000000E+02  0.51100000000E-03 0.  1.
         11   -1    0    0    0    0 -0.00000000000E+00 -0.00000000000E+00 -0.45593999997E+02  0.45594000000E+02  0.51100000000E-03 0. -1.
    9900012    2    1    2    0    0  0.12987399813E+02  0.16637425112E+01  0.29073716466E+02  0.59301928084E+02  0.49999970923E+02 0.  0.
         12    1    1    2    0    0 -0.12987399813E+02 -0.16637425112E+01 -0.29073716466E+02  0.31886071916E+02  0.00000000000E+00 0. -1.
         11    1    3    3    0    0  0.21933278490E+01 -0.16248694273E+02  0.22723483497E+01  0.16552773783E+02  0.51100000000E-03 0. -1.
        -11    1    3    3    0    0 -0.26551150835E+01 -0.37434679144E+00  0.18322079447E+02  0.18517245129E+02  0.51100000000E-03 0.  1.
         12    1    3    3    0    0  0.13449187047E+02  0.18286783576E+02  0.84792886694E+01  0.24231909172E+02  0.00000000000E+00 0. -1.
</event>
<event>
 7    1  0.6184948E-012  0.5930192E+02  0.7816164E-02  0.1266605E+00
        -11   -1    0    0    0    0  0.00000000000E+00  0.00000000000E+00  0.45593999997E+02  0.45594000000E+02  0.51100000000E-03 0. -1.
         11   -1    0    0    0    0 -0.00000000000E+00 -0.00000000000E+00 -0.45593999997E+02  0.45594000000E+02  0.51100000000E-03 0.  1.
    9900012    2    1    2    0    0 -0.16223091543E+02  0.26971758394E+02  0.51046616456E+01  0.59301921210E+02  0.49999958386E+02 0.  0.
         12    1    1    2    0    0  0.16223091543E+02 -0.26971758394E+02 -0.51046616456E+01  0.31886078790E+02  0.00000000000E+00 0. -1.
         11    1    3    3    0    0 -0.19525543490E+02  0.58024301764E+01  0.74102155017E+01  0.21675477816E+02  0.51100000000E-03 0. -1.
        -11    1    3    3    0    0  0.73714855464E+00 -0.58403488604E+01 -0.79719192899E+01  0.99098214025E+01  0.51100000000E-03 0.  1.
         12    1    3    3    0    0  0.25653033921E+01  0.27009677078E+02  0.56663654338E+01  0.27716621991E+02  0.00000000000E+00 0. -1.
</event>
<event>
 7    1  0.6184948E-012  0.5930203E+02  0.7816164E-02  0.1266604E+00
        -11   -1    0    0    0    0  0.00000000000E+00  0.00000000000E+00  0.45593999997E+02  0.45594000000E+02  0.51100000000E-03 0. -1.
         11   -1    0    0    0    0 -0.00000000000E+00 -0.00000000000E+00 -0.45593999997E+02  0.45594000000E+02  0.51100000000E-03 0.  1.
    9900012    2    1    2    0    0 -0.72891664273E+01 -0.28941662063E+02  0.11223347264E+02  0.59302027003E+02  0.50000151326E+02 0.  0.
         12    1    1    2    0    0  0.72891664273E+01  0.28941662063E+02 -0.11223347264E+02  0.31885972997E+02  0.00000000000E+00 0. -1.
         11    1    3    3    0    0 -0.38148060575E+01  0.47621308007E+01  0.39853474042E+01  0.72879097972E+01  0.51100000000E-03 0. -1.
        -11    1    3    3    0    0  0.82052441863E+01 -0.80457899105E+01  0.18399801739E+02  0.21693627445E+02  0.51100000000E-03 0.  1.
        -12    1    3    3    0    0 -0.11679604556E+02 -0.25658002953E+02 -0.11161801878E+02  0.30320489760E+02  0.00000000000E+00 0.  1.
</event>
<event>
 7    1  0.6184948E-012  0.5930195E+02  0.7816164E-02  0.1266605E+00
        -11   -1    0    0    0    0  0.00000000000E+00  0.00000000000E+00  0.45593999997E+02  0.45594000000E+02  0.51100000000E-03 0. -1.
         11   -1    0    0    0    0 -0.00000000000E+00 -0.00000000000E+00 -0.45593999997E+02  0.45594000000E+02  0.51100000000E-03 0.  1.
    9900012    2    1    2    0    0 -0.10840635369E+02  0.63171212053E+01 -0.29313734550E+02  0.59301946171E+02  0.50000003908E+02 0.  0.
         12    1    1    2    0    0  0.10840635369E+02 -0.63171212053E+01  0.29313734550E+02  0.31886053829E+02  0.00000000000E+00 0. -1.
         11    1    3    3    0    0 -0.27113044119E+02  0.76156440649E+00 -0.30619465935E+01  0.27296019105E+02  0.51100000000E-03 0. -1.
        -11    1    3    3    0    0  0.30099561985E+01  0.22068877422E+01 -0.21887257284E+01  0.43267436253E+01  0.51100000000E-03 0.  1.
        -12    1    3    3    0    0  0.13262452552E+02  0.33486690567E+01 -0.24063062228E+02  0.27679183441E+02  0.00000000000E+00 0.  1.
</event>
<event>
 7    1  0.6184948E-012  0.5930195E+02  0.7816164E-02  0.1266605E+00
        -11   -1    0    0    0    0  0.00000000000E+00  0.00000000000E+00  0.45593999997E+02  0.45594000000E+02  0.51100000000E-03 0.  1.
         11   -1    0    0    0    0 -0.00000000000E+00 -0.00000000000E+00 -0.45593999997E+02  0.45594000000E+02  0.51100000000E-03 0. -1.
    9900012    2    1    2    0    0 -0.78788300671E+01  0.21935005661E+02  0.21760053710E+02  0.59301947030E+02  0.50000005475E+02 0.  0.
         12    1    1    2    0    0  0.78788300671E+01 -0.21935005661E+02 -0.21760053710E+02  0.31886052970E+02  0.00000000000E+00 0. -1.
         11    1    3    3    0    0 -0.10026284388E+02  0.18433535559E+02  0.73601291851E+01  0.22237201122E+02  0.51100000000E-03 0.  1.
        -11    1    3    3    0    0  0.47508816565E+01 -0.42168030870E+00 -0.10600885791E+02  0.11624434206E+02  0.51100000000E-03 0. -1.
         12    1    3    3    0    0 -0.26034273352E+01  0.39231504104E+01  0.25000810316E+02  0.25440311702E+02  0.00000000000E+00 0. -1.
</event>
<event>
 7    1  0.6184948E-012  0.5930196E+02  0.7816164E-02  0.1266605E+00
        -11   -1    0    0    0    0  0.00000000000E+00  0.00000000000E+00  0.45593999997E+02  0.45594000000E+02  0.51100000000E-03 0.  1.
         11   -1    0    0    0    0 -0.00000000000E+00 -0.00000000000E+00 -0.45593999997E+02  0.45594000000E+02  0.51100000000E-03 0. -1.
    9900012    2    1    2    0    0  0.12133483964E+02 -0.20745098480E+02  0.20955650764E+02  0.59301955357E+02  0.50000020662E+02 0.  0.
         12    1    1    2    0    0 -0.12133483964E+02  0.20745098480E+02 -0.20955650764E+02  0.31886044643E+02  0.00000000000E+00 0. -1.
         11    1    3    3    0    0  0.96579764603E+01 -0.67099382800E+01  0.11064870271E+02  0.16147171127E+02  0.51100000000E-03 0. -1.
        -11    1    3    3    0    0 -0.62448661688E+01 -0.25802691882E+02  0.22705643410E+01  0.26644562757E+02  0.51100000000E-03 0.  1.
         12    1    3    3    0    0  0.87203736729E+01  0.11767531682E+02  0.76202161519E+01  0.16510221473E+02  0.00000000000E+00 0. -1.
</event>
<event>
 7    1  0.6184948E-012  0.5930186E+02  0.7816164E-02  0.1266605E+00
        -11   -1    0    0    0    0  0.00000000000E+00  0.00000000000E+00  0.45593999997E+02  0.45594000000E+02  0.51100000000E-03 0.  1.
         11   -1    0    0    0    0 -0.00000000000E+00 -0.00000000000E+00 -0.45593999997E+02  0.45594000000E+02  0.51100000000E-03 0. -1.
    9900012    2    1    2    0    0  0.11135340232E+01  0.31772664950E+02  0.24462287678E+01  0.59301855184E+02  0.49999837971E+02 0.  0.
         12    1    1    2    0    0 -0.11135340232E+01 -0.31772664950E+02 -0.24462287678E+01  0.31886144816E+02  0.00000000000E+00 0. -1.
         11    1    3    3    0    0  0.67881811835E+01  0.18828768906E+02 -0.38434917699E+01  0.20380735304E+02  0.51100000000E-03 0. -1.
        -11    1    3    3    0    0  0.97723138295E+01  0.83489502282E+01  0.15675540177E+02  0.20271301083E+02  0.51100000000E-03 0.  1.
         12    1    3    3    0    0 -0.15446960990E+02  0.45949458153E+01 -0.93858196393E+01  0.18649818797E+02  0.00000000000E+00 0. -1.
</event>
<event>
 7    1  0.6184948E-012  0.5930195E+02  0.7816164E-02  0.1266605E+00
        -11   -1    0    0    0    0  0.00000000000E+00  0.00000000000E+00  0.45593999997E+02  0.45594000000E+02  0.51100000000E-03 0.  1.
         11   -1    0    0    0    0 -0.00000000000E+00 -0.00000000000E+00 -0.45593999997E+02  0.45594000000E+02  0.51100000000E-03 0. -1.
    9900012    2    1    2    0    0 -0.26500637560E+02  0.61182487387E+01  0.16643427961E+02  0.59301945791E+02  0.50000003215E+02 0.  0.
         12    1    1    2    0    0  0.26500637560E+02 -0.61182487387E+01 -0.16643427961E+02  0.31886054209E+02  0.00000000000E+00 0. -1.
         11    1    3    3    0    0  0.11917887241E+02  0.37186844966E+01  0.65328606302E+01  0.14090525857E+02  0.51100000000E-03 0. -1.
        -11    1    3    3    0    0 -0.89438162481E+00  0.50198603627E+00 -0.47111533547E+01  0.48215012874E+01  0.51100000000E-03 0.  1.
        -12    1    3    3    0    0 -0.37524143176E+02  0.18975782059E+01  0.14821720686E+02  0.40389918646E+02  0.00000000000E+00 0.  1.
</event>
<event>
 7    1  0.6184948E-012  0.5930193E+02  0.7816164E-02  0.1266605E+00
        -11   -1    0    0    0    0  0.00000000000E+00  0.00000000000E+00  0.45593999997E+02  0.45594000000E+02  0.51100000000E-03 0.  1.
         11   -1    0    0    0    0 -0.00000000000E+00 -0.00000000000E+00 -0.45593999997E+02  0.45594000000E+02  0.51100000000E-03 0. -1.
    9900012    2    1    2    0    0 -0.29508791454E+02 -0.11727490585E+02 -0.29014583305E+01  0.59301932997E+02  0.49999979882E+02 0.  0.
         12    1    1    2    0    0  0.29508791454E+02  0.11727490585E+02  0.29014583305E+01  0.31886067003E+02  0.00000000000E+00 0. -1.
         11    1    3    3    0    0 -0.15678939377E+02 -0.19409675228E+02  0.37933443449E+00  0.24954128462E+02  0.51100000000E-03 0. -1.
        -11    1    3    3    0    0 -0.13220129735E+02  0.42070128436E+00  0.11719051508E+02  0.17671587034E+02  0.51100000000E-03 0.  1.
        -12    1    3    3    0    0 -0.60972234176E+00  0.72614833585E+01 -0.14999844273E+02  0.16676217500E+02  0.00000000000E+00 0.  1.
</event>
<event>
 7    1  0.6184948E-012  0.5930198E+02  0.7816164E-02  0.1266605E+00
        -11   -1    0    0    0    0  0.00000000000E+00  0.00000000000E+00  0.45593999997E+02  0.45594000000E+02  0.51100000000E-03 0.  1.
         11   -1    0    0    0    0 -0.00000000000E+00 -0.00000000000E+00 -0.45593999997E+02  0.45594000000E+02  0.51100000000E-03 0. -1.
    9900012    2    1    2    0    0  0.50485176702E+01  0.11677230785E+02  0.29238213839E+02  0.59301978016E+02  0.50000061986E+02 0.  0.
         12    1    1    2    0    0 -0.50485176702E+01 -0.11677230785E+02 -0.29238213839E+02  0.31886021984E+02  0.00000000000E+00 0. -1.
         11    1    3    3    0    0 -0.10686117363E+01 -0.38895586105E+01 -0.47060581061E+01  0.61981917030E+01  0.51100000000E-03 0. -1.
        -11    1    3    3    0    0 -0.24634155094E+01 -0.52455582013E+01  0.29618567738E+02  0.30180189727E+02  0.51100000000E-03 0.  1.
         12    1    3    3    0    0  0.85805449159E+01  0.20812347597E+02  0.43257042070E+01  0.22923596586E+02  0.00000000000E+00 0. -1.
</event>
<event>
 7    1  0.6184948E-012  0.5930204E+02  0.7816164E-02  0.1266604E+00
        -11   -1    0    0    0    0  0.00000000000E+00  0.00000000000E+00  0.45593999997E+02  0.45594000000E+02  0.51100000000E-03 0.  1.
         11   -1    0    0    0    0 -0.00000000000E+00 -0.00000000000E+00 -0.45593999997E+02  0.45594000000E+02  0.51100000000E-03 0. -1.
    9900012    2    1    2    0    0  0.23636245292E+02 -0.47131732405E+01  0.20876508247E+02  0.59302036158E+02  0.50000168024E+02 0.  0.
         12    1    1    2    0    0 -0.23636245292E+02  0.47131732405E+01 -0.20876508247E+02  0.31885963842E+02  0.00000000000E+00 0. -1.
         11    1    3    3    0    0  0.93823088160E+01  0.14794813375E+01  0.12597247279E+01  0.95814137995E+01  0.51100000000E-03 0.  1.
        -11    1    3    3    0    0  0.21349408539E+02 -0.19744448664E+02  0.70466247521E+01  0.29921487575E+02  0.51100000000E-03 0. -1.
        -12    1    3    3    0    0 -0.70954720630E+01  0.13551794086E+02  0.12570158767E+02  0.19799134784E+02  0.00000000000E+00 0.  1.
</event>
<event>
 7    1  0.6184948E-012  0.5930196E+02  0.7816164E-02  0.1266605E+00
        -11   -1    0    0    0    0  0.00000000000E+00  0.00000000000E+00  0.45593999997E+02  0.45594000000E+02  0.51100000000E-03 0.  1.
         11   -1    0    0    0    0 -0.00000000000E+00 -0.00000000000E+00 -0.45593999997E+02  0.45594000000E+02  0.51100000000E-03 0. -1.
    9900012    2    1    2    0    0  0.68907166841E+01  0.28413787063E+02  0.12723779351E+02  0.59301955519E+02  0.50000020958E+02 0.  0.
         12    1    1    2    0    0 -0.68907166841E+01 -0.28413787063E+02 -0.12723779351E+02  0.31886044481E+02  0.00000000000E+00 0. -1.
         11    1    3    3    0    0 -0.42899866616E+01 -0.24464635240E+01 -0.14423288277E+01  0.51448500502E+01  0.51100000000E-03 0.  1.
        -11    1    3    3    0    0  0.63169370650E+01 -0.60964736083E+00 -0.11581645862E+02  0.13206433467E+02  0.51100000000E-03 0. -1.
        -12    1    3    3    0    0  0.48637662806E+01  0.31469897948E+02  0.25747754041E+02  0.40950672002E+02  0.00000000000E+00 0.  1.
</event>
<event>
 7    1  0.6184948E-012  0.5930191E+02  0.7816164E-02  0.1266605E+00
        -11   -1    0    0    0    0  0.00000000000E+00  0.00000000000E+00  0.45593999997E+02  0.45594000000E+02  0.51100000000E-03 0. -1.
         11   -1    0    0    0    0 -0.00000000000E+00 -0.00000000000E+00 -0.45593999997E+02  0.45594000000E+02  0.51100000000E-03 0.  1.
    9900012    2    1    2    0    0 -0.60793337420E+01 -0.29775074778E+02 -0.96544830106E+01  0.59301914963E+02  0.49999946994E+02 0.  0.
         12    1    1    2    0    0  0.60793337420E+01  0.29775074778E+02  0.96544830106E+01  0.31886085037E+02  0.00000000000E+00 0. -1.
         11    1    3    3    0    0  0.22484448481E+00  0.19753275708E+01 -0.27758015258E+00  0.20073676934E+01  0.51100000000E-03 0. -1.
        -11    1    3    3    0    0 -0.10083729710E+02 -0.84055702660E+01  0.17253116796E+02  0.21679604604E+02  0.51100000000E-03 0.  1.
        -12    1    3    3    0    0  0.37795514831E+01 -0.23344832082E+02 -0.26630019654E+02  0.35614942666E+02  0.00000000000E+00 0.  1.
</event>
<event>
 7    1  0.6184948E-012  0.5930192E+02  0.7816164E-02  0.1266605E+00
        -11   -1    0    0    0    0  0.00000000000E+00  0.00000000000E+00  0.45593999997E+02  0.45594000000E+02  0.51100000000E-03 0. -1.
         11   -1    0    0    0    0 -0.00000000000E+00 -0.00000000000E+00 -0.45593999997E+02  0.45594000000E+02  0.51100000000E-03 0.  1.
    9900012    2    1    2    0    0 -0.14890979554E+01  0.82536391445E+01 -0.30763325416E+02  0.59301918985E+02  0.49999954329E+02 0.  0.
         12    1    1    2    0    0  0.14890979554E+01 -0.82536391445E+01  0.30763325416E+02  0.31886081015E+02  0.00000000000E+00 0. -1.
         11    1    3    3    0    0  0.16493796806E+02 -0.53091026628E+01 -0.58995286764E+01  0.18303998007E+02  0.51100000000E-03 0. -1.
        -11    1    3    3    0    0 -0.42860141347E+00  0.80199397011E+01  0.21444386698E+01  0.83127462039E+01  0.51100000000E-03 0.  1.
        -12    1    3    3    0    0 -0.17554293348E+02  0.55428021062E+01 -0.27008235409E+02  0.32685174775E+02  0.00000000000E+00 0.  1.
</event>
<event>
 7    1  0.6184948E-012  0.5930196E+02  0.7816164E-02  0.1266605E+00
        -11   -1    0    0    0    0  0.00000000000E+00  0.00000000000E+00  0.45593999997E+02  0.45594000000E+02  0.51100000000E-03 0.  1.
         11   -1    0    0    0    0 -0.00000000000E+00 -0.00000000000E+00 -0.45593999997E+02  0.45594000000E+02  0.51100000000E-03 0. -1.
    9900012    2    1    2    0    0  0.24798484253E+02  0.10777639119E+02 -0.16899621972E+02  0.59301959966E+02  0.50000029068E+02 0.  0.
         12    1    1    2    0    0 -0.24798484253E+02 -0.10777639119E+02  0.16899621972E+02  0.31886040034E+02  0.00000000000E+00 0. -1.
         11    1    3    3    0    0  0.14324563617E+02  0.48802766265E+01 -0.10607716458E+02  0.18480635040E+02  0.51100000000E-03 0.  1.
        -11    1    3    3    0    0  0.22804080926E+02  0.61689640244E+01  0.49461318329E+01  0.24135998931E+02  0.51100000000E-03 0. -1.
         12    1    3    3    0    0 -0.12330160290E+02 -0.27160153193E+00 -0.11238037348E+02  0.16685325996E+02  0.00000000000E+00 0. -1.
</event>
<event>
 7    1  0.6184948E-012  0.5930191E+02  0.7816164E-02  0.1266605E+00
        -11   -1    0    0    0    0  0.00000000000E+00  0.00000000000E+00  0.45593999997E+02  0.45594000000E+02  0.51100000000E-03 0.  1.
         11   -1    0    0    0    0 -0.00000000000E+00 -0.00000000000E+00 -0.45593999997E+02  0.45594000000E+02  0.51100000000E-03 0. -1.
    9900012    2    1    2    0    0 -0.19077355083E+02  0.25092045179E+01  0.25425988082E+02  0.59301914411E+02  0.49999945986E+02 0.  0.
         12    1    1    2    0    0  0.19077355083E+02 -0.25092045179E+01 -0.25425988082E+02  0.31886085589E+02  0.00000000000E+00 0. -1.
         11    1    3    3    0    0 -0.66009575341E+01  0.18686114035E+02  0.11148845818E+02  0.22738519332E+02  0.51100000000E-03 0. -1.
        -11    1    3    3    0    0 -0.67988066959E-01  0.27940993021E+01  0.13600431330E+02  0.13884644249E+02  0.51100000000E-03 0.  1.
         12    1    3    3    0    0 -0.12408409482E+02 -0.18971008819E+02  0.67671093334E+00  0.22678750829E+02  0.00000000000E+00 0. -1.
</event>
<event>
 7    1  0.6184948E-012  0.5930196E+02  0.7816164E-02  0.1266605E+00
        -11   -1    0    0    0    0  0.00000000000E+00  0.00000000000E+00  0.45593999997E+02  0.45594000000E+02  0.51100000000E-03 0.  1.
         11   -1    0    0    0    0 -0.00000000000E+00 -0.00000000000E+00 -0.45593999997E+02  0.45594000000E+02  0.51100000000E-03 0. -1.
    9900012    2    1    2    0    0 -0.12159709422E+02  0.23532645266E+02  0.17750378354E+02  0.59301955119E+02  0.50000020227E+02 0.  0.
         12    1    1    2    0    0  0.12159709422E+02 -0.23532645266E+02 -0.17750378354E+02  0.31886044881E+02  0.00000000000E+00 0. -1.
         11    1    3    3    0    0  0.10851216965E+02  0.18991950989E+02  0.13451797991E+02  0.25678667828E+02  0.51100000000E-03 0.  1.
        -11    1    3    3    0    0  0.42617757863E+01 -0.10602561083E+01  0.37517464266E+01  0.57760260888E+01  0.51100000000E-03 0. -1.
         12    1    3    3    0    0 -0.27272702174E+02  0.56009503859E+01  0.54683393660E+00  0.27847261202E+02  0.00000000000E+00 0. -1.
</event>
<event>
 7    1  0.6184948E-012  0.5930192E+02  0.7816164E-02  0.1266605E+00
        -11   -1    0    0    0    0  0.00000000000E+00  0.00000000000E+00  0.45593999997E+02  0.45594000000E+02  0.51100000000E-03 0.  1.
         11   -1    0    0    0    0 -0.00000000000E+00 -0.00000000000E+00 -0.45593999997E+02  0.45594000000E+02  0.51100000000E-03 0. -1.
    9900012    2    1    2    0    0  0.46373686724E+01 -0.14227095097E+02  0.28156820424E+02  0.59301922168E+02  0.49999960134E+02 0.  0.
         12    1    1    2    0    0 -0.46373686724E+01  0.14227095097E+02 -0.28156820424E+02  0.31886077832E+02  0.00000000000E+00 0. -1.
         11    1    3    3    0    0  0.62448626192E+01  0.56887278466E+01  0.10270948215E+02  0.13298583050E+02  0.51100000000E-03 0. -1.
        -11    1    3    3    0    0  0.86506027933E+01  0.60893194222E+01 -0.31270429417E+01  0.11031370610E+02  0.51100000000E-03 0.  1.
        -12    1    3    3    0    0 -0.10258096740E+02 -0.26005142366E+02  0.21012915151E+02  0.34971968508E+02  0.00000000000E+00 0.  1.
</event>
<event>
 7    1  0.6184948E-012  0.5930200E+02  0.7816164E-02  0.1266605E+00
        -11   -1    0    0    0    0  0.00000000000E+00  0.00000000000E+00  0.45593999997E+02  0.45594000000E+02  0.51100000000E-03 0. -1.
         11   -1    0    0    0    0 -0.00000000000E+00 -0.00000000000E+00 -0.45593999997E+02  0.45594000000E+02  0.51100000000E-03 0.  1.
    9900012    2    1    2    0    0 -0.17157101474E+02 -0.11497687769E+02 -0.24293079932E+02  0.59302004836E+02  0.50000110899E+02 0.  0.
         12    1    1    2    0    0  0.17157101474E+02  0.11497687769E+02  0.24293079932E+02  0.31885995164E+02  0.00000000000E+00 0. -1.
         11    1    3    3    0    0 -0.13557657880E+02  0.91477310908E+01 -0.68105185918E+01  0.17716496128E+02  0.51100000000E-03 0. -1.
        -11    1    3    3    0    0 -0.77190056211E+01  0.27833337059E+01  0.43586724958E+01  0.92912873426E+01  0.51100000000E-03 0.  1.
        -12    1    3    3    0    0  0.41195620267E+01 -0.23428752566E+02 -0.21841233836E+02  0.32294221365E+02  0.00000000000E+00 0.  1.
</event>
<event>
 7    1  0.6184948E-012  0.5930210E+02  0.7816164E-02  0.1266604E+00
        -11   -1    0    0    0    0  0.00000000000E+00  0.00000000000E+00  0.45593999997E+02  0.45594000000E+02  0.51100000000E-03 0.  1.
         11   -1    0    0    0    0 -0.00000000000E+00 -0.00000000000E+00 -0.45593999997E+02  0.45594000000E+02  0.51100000000E-03 0. -1.
    9900012    2    1    2    0    0 -0.28729550145E+02 -0.85588637391E+01  0.10865983825E+02  0.59302097087E+02  0.50000279143E+02 0.  0.
         12    1    1    2    0    0  0.28729550145E+02  0.85588637391E+01 -0.10865983825E+02  0.31885902913E+02  0.00000000000E+00 0. -1.
         11    1    3    3    0    0 -0.43380617857E+01  0.10606628122E+02  0.88985547910E+01  0.14508742806E+02  0.51100000000E-03 0. -1.
        -11    1    3    3    0    0 -0.22285558778E-01  0.80496482054E+01  0.18614049919E+01  0.82620918466E+01  0.51100000000E-03 0.  1.
        -12    1    3    3    0    0 -0.24369202801E+02 -0.27215140067E+02  0.10602404260E+00  0.36531262435E+02  0.00000000000E+00 0.  1.
</event>
<event>
 7    1  0.6184948E-012  0.5930191E+02  0.7816164E-02  0.1266605E+00
        -11   -1    0    0    0    0  0.00000000000E+00  0.00000000000E+00  0.45593999997E+02  0.45594000000E+02  0.51100000000E-03 0.  1.
         11   -1    0    0    0    0 -0.00000000000E+00 -0.00000000000E+00 -0.45593999997E+02  0.45594000000E+02  0.51100000000E-03 0. -1.
    9900012    2    1    2    0    0  0.13560609712E+02 -0.28734577421E+01  0.28715433795E+02  0.59301905332E+02  0.49999929427E+02 0.  0.
         12    1    1    2    0    0 -0.13560609712E+02  0.28734577421E+01 -0.28715433795E+02  0.31886094668E+02  0.00000000000E+00 0. -1.
         11    1    3    3    0    0 -0.55742300245E+01  0.70405877672E+01  0.14383615066E+02  0.16956718406E+02  0.51100000000E-03 0. -1.
        -11    1    3    3    0    0  0.32593625513E+01  0.11525364668E+02  0.93776377847E+01  0.15211757481E+02  0.51100000000E-03 0.  1.
        -12    1    3    3    0    0  0.15875477185E+02 -0.21439410178E+02  0.49541809450E+01  0.27133429445E+02  0.00000000000E+00 0.  1.
</event>
<event>
 7    1  0.6184948E-012  0.5930199E+02  0.7816164E-02  0.1266605E+00
        -11   -1    0    0    0    0  0.00000000000E+00  0.00000000000E+00  0.45593999997E+02  0.45594000000E+02  0.51100000000E-03 0.  1.
         11   -1    0    0    0    0 -0.00000000000E+00 -0.00000000000E+00 -0.45593999997E+02  0.45594000000E+02  0.51100000000E-03 0. -1.
    9900012    2    1    2    0    0 -0.13849679961E+02 -0.14801580646E+02  0.24613354317E+02  0.59301989974E+02  0.50000083795E+02 0.  0.
         12    1    1    2    0    0  0.13849679961E+02  0.14801580646E+02 -0.24613354317E+02  0.31886010026E+02  0.00000000000E+00 0. -1.
         11    1    3    3    0    0 -0.15211810109E+02 -0.20214111071E+02  0.21064534361E+02  0.32919964479E+02  0.51100000000E-03 0. -1.
        -11    1    3    3    0    0 -0.52714272368E+01 -0.87202706419E+01 -0.66421663932E+00  0.10211378418E+02  0.51100000000E-03 0.  1.
         12    1    3    3    0    0  0.66335573844E+01  0.14132801067E+02  0.42130365951E+01  0.16170647078E+02  0.00000000000E+00 0. -1.
</event>
<event>
 7    1  0.8694015E-012  0.5930198E+02  0.7816164E-02  0.1266605E+00
        -11   -1    0    0    0    0  0.00000000000E+00  0.00000000000E+00  0.45593999997E+02  0.45594000000E+02  0.51100000000E-03 0. -1.
         11   -1    0    0    0    0 -0.00000000000E+00 -0.00000000000E+00 -0.45593999997E+02  0.45594000000E+02  0.51100000000E-03 0.  1.
    9900012    2    1    2    0    0  0.55082557471E+01  0.10593631681E+02 -0.29566068186E+02  0.59301979528E+02  0.50000064744E+02 0.  0.
         12    1    1    2    0    0 -0.55082557471E+01 -0.10593631681E+02  0.29566068186E+02  0.31886020472E+02  0.00000000000E+00 0. -1.
         11    1    3    3    0    0 -0.40385595706E+01  0.41158615837E+01  0.73011470646E+01  0.93036029956E+01  0.51100000000E-03 0. -1.
        -11    1    3    3    0    0 -0.96776569612E+01 -0.42539381826E+01 -0.18581518888E+02  0.21378163596E+02  0.51100000000E-03 0.  1.
        -12    1    3    3    0    0  0.19224472279E+02  0.10731708280E+02 -0.18285696363E+02  0.28620212936E+02  0.00000000000E+00 0.  1.
</event>
<event>
 7    1  0.6184948E-012  0.5930185E+02  0.7816164E-02  0.1266605E+00
        -11   -1    0    0    0    0  0.00000000000E+00  0.00000000000E+00  0.45593999997E+02  0.45594000000E+02  0.51100000000E-03 0. -1.
         11   -1    0    0    0    0 -0.00000000000E+00 -0.00000000000E+00 -0.45593999997E+02  0.45594000000E+02  0.51100000000E-03 0.  1.
    9900012    2    1    2    0    0  0.11761765782E+02 -0.26388225181E+02 -0.13492550738E+02  0.59301851158E+02  0.49999830628E+02 0.  0.
         12    1    1    2    0    0 -0.11761765782E+02  0.26388225181E+02  0.13492550738E+02  0.31886148842E+02  0.00000000000E+00 0. -1.
         11    1    3    3    0    0  0.77345330809E+01 -0.19695436513E+02 -0.59591280607E+01  0.21982821223E+02  0.51100000000E-03 0. -1.
        -11    1    3    3    0    0 -0.55762004249E+01 -0.10252496641E+02 -0.18777959224E+02  0.22109261667E+02  0.51100000000E-03 0.  1.
         12    1    3    3    0    0  0.96034331260E+01  0.35597079720E+01  0.11244536547E+02  0.15209768269E+02  0.00000000000E+00 0. -1.
</event>
<event>
 7    1  0.6184948E-012  0.5930194E+02  0.7816164E-02  0.1266605E+00
        -11   -1    0    0    0    0  0.00000000000E+00  0.00000000000E+00  0.45593999997E+02  0.45594000000E+02  0.51100000000E-03 0.  1.
         11   -1    0    0    0    0 -0.00000000000E+00 -0.00000000000E+00 -0.45593999997E+02  0.45594000000E+02  0.51100000000E-03 0. -1.
    9900012    2    1    2    0    0 -0.27531261817E+02  0.16070501720E+02 -0.69938395804E+00  0.59301944416E+02  0.50000000709E+02 0.  0.
         12    1    1    2    0    0  0.27531261817E+02 -0.16070501720E+02  0.69938395804E+00  0.31886055584E+02  0.00000000000E+00 0. -1.
         11    1    3    3    0    0  0.73784524720E+01 -0.39445682434E+01 -0.87942139490E+01  0.12138343328E+02  0.51100000000E-03 0. -1.
        -11    1    3    3    0    0 -0.11823130842E+02 -0.24742388469E+01 -0.40222127073E+01  0.12731318710E+02  0.51100000000E-03 0.  1.
        -12    1    3    3    0    0 -0.23086583448E+02  0.22489308810E+02  0.12117042698E+02  0.34432282378E+02  0.00000000000E+00 0.  1.
</event>
<event>
 7    1  0.6184948E-012  0.5930194E+02  0.7816164E-02  0.1266605E+00
        -11   -1    0    0    0    0  0.00000000000E+00  0.00000000000E+00  0.45593999997E+02  0.45594000000E+02  0.51100000000E-03 0. -1.
         11   -1    0    0    0    0 -0.00000000000E+00 -0.00000000000E+00 -0.45593999997E+02  0.45594000000E+02  0.51100000000E-03 0.  1.
    9900012    2    1    2    0    0  0.20762668292E+02  0.11399238486E+01 -0.24172985293E+02  0.59301936603E+02  0.49999986459E+02 0.  0.
         12    1    1    2    0    0 -0.20762668292E+02 -0.11399238486E+01  0.24172985293E+02  0.31886063397E+02  0.00000000000E+00 0. -1.
         11    1    3    3    0    0 -0.13278505826E+02 -0.52368208982E+01 -0.68229524048E+01  0.15820736072E+02  0.51100000000E-03 0. -1.
        -11    1    3    3    0    0 -0.64849468886E+00  0.29651824280E+01 -0.61682238308E+01  0.68745790912E+01  0.51100000000E-03 0.  1.
         12    1    3    3    0    0  0.34689668807E+02  0.34115623189E+01 -0.11181809057E+02  0.36606621439E+02  0.00000000000E+00 0. -1.
</event>
<event>
 7    1  0.6184948E-012  0.5930206E+02  0.7816164E-02  0.1266604E+00
        -11   -1    0    0    0    0  0.00000000000E+00  0.00000000000E+00  0.45593999997E+02  0.45594000000E+02  0.51100000000E-03 0.  1.
         11   -1    0    0    0    0 -0.00000000000E+00 -0.00000000000E+00 -0.45593999997E+02  0.45594000000E+02  0.51100000000E-03 0. -1.
    9900012    2    1    2    0    0 -0.17522848353E+02  0.52789263885E+01  0.26111222963E+02  0.59302058852E+02  0.50000209412E+02 0.  0.
         12    1    1    2    0    0  0.17522848353E+02 -0.52789263885E+01 -0.26111222963E+02  0.31885941148E+02  0.00000000000E+00 0. -1.
         11    1    3    3    0    0 -0.48374937892E+01 -0.13925260434E+02  0.52720896616E+01  0.15655962250E+02  0.51100000000E-03 0. -1.
        -11    1    3    3    0    0  0.17984155279E+01  0.17631205740E+01  0.20823427222E+02  0.20975176140E+02  0.51100000000E-03 0.  1.
        -12    1    3    3    0    0 -0.14483770092E+02  0.17441066248E+02  0.15706079510E-01  0.22670920463E+02  0.00000000000E+00 0.  1.
</event>
<event>
 7    1  0.6184948E-012  0.5930195E+02  0.7816164E-02  0.1266605E+00
        -11   -1    0    0    0    0  0.00000000000E+00  0.00000000000E+00  0.45593999997E+02  0.45594000000E+02  0.51100000000E-03 0.  1.
         11   -1    0    0    0    0 -0.00000000000E+00 -0.00000000000E+00 -0.45593999997E+02  0.45594000000E+02  0.51100000000E-03 0. -1.
    9900012    2    1    2    0    0 -0.28827028410E+02 -0.75271803688E+01 -0.11360644305E+02  0.59301948970E+02  0.50000009014E+02 0.  0.
         12    1    1    2    0    0  0.28827028410E+02  0.75271803688E+01  0.11360644305E+02  0.31886051030E+02  0.00000000000E+00 0. -1.
         11    1    3    3    0    0 -0.23141465393E+01 -0.75191640389E+01 -0.21764803060E+02  0.23143028206E+02  0.51100000000E-03 0. -1.
        -11    1    3    3    0    0 -0.19494013438E+01  0.84326345002E+01  0.27465986346E+01  0.90803796470E+01  0.51100000000E-03 0.  1.
         12    1    3    3    0    0 -0.24563480527E+02 -0.84406508301E+01  0.76575601210E+01  0.27078541117E+02  0.00000000000E+00 0. -1.
</event>
<event>
 7    1  0.6184948E-012  0.5930194E+02  0.7816164E-02  0.1266605E+00
        -11   -1    0    0    0    0  0.00000000000E+00  0.00000000000E+00  0.45593999997E+02  0.45594000000E+02  0.51100000000E-03 0. -1.
         11   -1    0    0    0    0 -0.00000000000E+00 -0.00000000000E+00 -0.45593999997E+02  0.45594000000E+02  0.51100000000E-03 0.  1.
    9900012    2    1    2    0    0  0.12222579964E+02  0.15529694908E+02 -0.25023146160E+02  0.59301941469E+02  0.49999995334E+02 0.  0.
         12    1    1    2    0    0 -0.12222579964E+02 -0.15529694908E+02  0.25023146160E+02  0.31886058531E+02  0.00000000000E+00 0. -1.
         11    1    3    3    0    0  0.12454741342E+02  0.11958390581E+02  0.21237595537E+01  0.17396380143E+02  0.51100000000E-03 0. -1.
        -11    1    3    3    0    0  0.88498929716E+01  0.87413232065E+01 -0.28756746318E+02  0.31331801673E+02  0.51100000000E-03 0.  1.
        -12    1    3    3    0    0 -0.90820543494E+01 -0.51700188803E+01  0.16098406046E+01  0.10573759653E+02  0.00000000000E+00 0.  1.
</event>
<event>
 7    1  0.6184948E-012  0.5930193E+02  0.7816164E-02  0.1266605E+00
        -11   -1    0    0    0    0  0.00000000000E+00  0.00000000000E+00  0.45593999997E+02  0.45594000000E+02  0.51100000000E-03 0.  1.
         11   -1    0    0    0    0 -0.00000000000E+00 -0.00000000000E+00 -0.45593999997E+02  0.45594000000E+02  0.51100000000E-03 0. -1.
    9900012    2    1    2    0    0 -0.35563605231E+01  0.15264318273E+02  0.27768222303E+02  0.59301932786E+02  0.49999979498E+02 0.  0.
         12    1    1    2    0    0  0.35563605231E+01 -0.15264318273E+02 -0.27768222303E+02  0.31886067214E+02  0.00000000000E+00 0. -1.
         11    1    3    3    0    0  0.14415164255E+02  0.47421177242E+01  0.16564686743E+00  0.15176036378E+02  0.51100000000E-03 0. -1.
        -11    1    3    3    0    0  0.32011826335E+01 -0.51189623352E+01  0.12238396183E+02  0.13646599835E+02  0.51100000000E-03 0.  1.
        -12    1    3    3    0    0 -0.21172707412E+02  0.15641162884E+02  0.15364179252E+02  0.30479296573E+02  0.00000000000E+00 0.  1.
</event>
<event>
 7    1  0.6184948E-012  0.5930204E+02  0.7816164E-02  0.1266604E+00
        -11   -1    0    0    0    0  0.00000000000E+00  0.00000000000E+00  0.45593999997E+02  0.45594000000E+02  0.51100000000E-03 0. -1.
         11   -1    0    0    0    0 -0.00000000000E+00 -0.00000000000E+00 -0.45593999997E+02  0.45594000000E+02  0.51100000000E-03 0.  1.
    9900012    2    1    2    0    0 -0.13594237000E+02 -0.25646327665E+02 -0.13197619005E+02  0.59302038360E+02  0.50000172039E+02 0.  0.
         12    1    1    2    0    0  0.13594237000E+02  0.25646327665E+02  0.13197619005E+02  0.31885961640E+02  0.00000000000E+00 0. -1.
         11    1    3    3    0    0 -0.15890174192E+02 -0.18608807948E+02 -0.13967345168E+02  0.28175736022E+02  0.51100000000E-03 0. -1.
        -11    1    3    3    0    0 -0.10202521523E+02  0.15829271671E+01 -0.84687093022E+01  0.13353506706E+02  0.51100000000E-03 0.  1.
         12    1    3    3    0    0  0.12498458715E+02 -0.86204468842E+01  0.92384354649E+01  0.17772795632E+02  0.00000000000E+00 0. -1.
</event>
<event>
 7    1  0.6184948E-012  0.5930180E+02  0.7816164E-02  0.1266605E+00
        -11   -1    0    0    0    0  0.00000000000E+00  0.00000000000E+00  0.45593999997E+02  0.45594000000E+02  0.51100000000E-03 0. -1.
         11   -1    0    0    0    0 -0.00000000000E+00 -0.00000000000E+00 -0.45593999997E+02  0.45594000000E+02  0.51100000000E-03 0.  1.
    9900012    2    1    2    0    0 -0.66358210466E+01 -0.28093623499E+02 -0.13544148391E+02  0.59301799883E+02  0.49999737114E+02 0.  0.
         12    1    1    2    0    0  0.66358210466E+01  0.28093623499E+02  0.13544148391E+02  0.31886200117E+02  0.00000000000E+00 0. -1.
         11    1    3    3    0    0  0.65344876406E+01 -0.13740789482E+02 -0.17140596078E+02  0.22919617328E+02  0.51100000000E-03 0.  1.
        -11    1    3    3    0    0 -0.48058616649E+01  0.48533132989E+01 -0.94823408585E+01  0.11686134722E+02  0.51100000000E-03 0. -1.
         12    1    3    3    0    0 -0.83644470223E+01 -0.19206147316E+02  0.13078788546E+02  0.24696047833E+02  0.00000000000E+00 0. -1.
</event>
<event>
 7    1  0.6184948E-012  0.5930194E+02  0.7816164E-02  0.1266605E+00
        -11   -1    0    0    0    0  0.00000000000E+00  0.00000000000E+00  0.45593999997E+02  0.45594000000E+02  0.51100000000E-03 0.  1.
         11   -1    0    0    0    0 -0.00000000000E+00 -0.00000000000E+00 -0.45593999997E+02  0.45594000000E+02  0.51100000000E-03 0. -1.
    9900012    2    1    2    0    0  0.15288372453E+02 -0.23416495985E+02  0.15318419327E+02  0.59301943688E+02  0.49999999380E+02 0.  0.
         12    1    1    2    0    0 -0.15288372453E+02  0.23416495985E+02 -0.15318419327E+02  0.31886056312E+02  0.00000000000E+00 0. -1.
         11    1    3    3    0    0 -0.38339423930E+01 -0.17996689721E+02 -0.11382504908E+02  0.21636574901E+02  0.51100000000E-03 0. -1.
        -11    1    3    3    0    0  0.84539278917E+01 -0.11444776143E+02  0.12838565937E+02  0.19164565566E+02  0.51100000000E-03 0.  1.
        -12    1    3    3    0    0  0.10668386954E+02  0.60249698793E+01  0.13862358298E+02  0.18500803221E+02  0.00000000000E+00 0.  1.
</event>
<event>
 7    1  0.6184948E-012  0.5930196E+02  0.7816164E-02  0.1266605E+00
        -11   -1    0    0    0    0  0.00000000000E+00  0.00000000000E+00  0.45593999997E+02  0.45594000000E+02  0.51100000000E-03 0.  1.
         11   -1    0    0    0    0 -0.00000000000E+00 -0.00000000000E+00 -0.45593999997E+02  0.45594000000E+02  0.51100000000E-03 0. -1.
    9900012    2    1    2    0    0 -0.26059246484E+02 -0.76330108710E+01  0.16714428595E+02  0.59301963784E+02  0.50000036031E+02 0.  0.
         12    1    1    2    0    0  0.26059246484E+02  0.76330108710E+01 -0.16714428595E+02  0.31886036216E+02  0.00000000000E+00 0. -1.
         11    1    3    3    0    0 -0.13439356919E+02  0.42727696941E+01  0.16172627997E+02  0.21457557453E+02  0.51100000000E-03 0. -1.
        -11    1    3    3    0    0 -0.52373800718E+01 -0.18697774585E+02  0.11834383952E+02  0.22739603520E+02  0.51100000000E-03 0.  1.
         12    1    3    3    0    0 -0.73825094933E+01  0.67919940199E+01 -0.11292583354E+02  0.15104802812E+02  0.00000000000E+00 0. -1.
</event>
<event>
 7    1  0.6184948E-012  0.5930195E+02  0.7816164E-02  0.1266605E+00
        -11   -1    0    0    0    0  0.00000000000E+00  0.00000000000E+00  0.45593999997E+02  0.45594000000E+02  0.51100000000E-03 0.  1.
         11   -1    0    0    0    0 -0.00000000000E+00 -0.00000000000E+00 -0.45593999997E+02  0.45594000000E+02  0.51100000000E-03 0. -1.
    9900012    2    1    2    0    0 -0.17186404552E+02 -0.18922591845E+02  0.19059983120E+02  0.59301953834E+02  0.50000017885E+02 0.  0.
         12    1    1    2    0    0  0.17186404552E+02  0.18922591845E+02 -0.19059983120E+02  0.31886046166E+02  0.00000000000E+00 0. -1.
         11    1    3    3    0    0 -0.10136384254E+01  0.54230849208E+01  0.36336907097E+01  0.66061351296E+01  0.51100000000E-03 0. -1.
        -11    1    3    3    0    0  0.12772566138E+02 -0.15520260784E+02  0.69914237471E+01  0.21281375586E+02  0.51100000000E-03 0.  1.
        -12    1    3    3    0    0 -0.28945332264E+02 -0.88254159816E+01  0.84348686631E+01  0.31414443119E+02  0.00000000000E+00 0.  1.
</event>
<event>
 7    1  0.6184948E-012  0.5930192E+02  0.7816164E-02  0.1266605E+00
        -11   -1    0    0    0    0  0.00000000000E+00  0.00000000000E+00  0.45593999997E+02  0.45594000000E+02  0.51100000000E-03 0. -1.
         11   -1    0    0    0    0 -0.00000000000E+00 -0.00000000000E+00 -0.45593999997E+02  0.45594000000E+02  0.51100000000E-03 0.  1.
    9900012    2    1    2    0    0 -0.31559582964E+02 -0.44461705360E+01 -0.97271170894E+00  0.59301923456E+02  0.49999962482E+02 0.  0.
         12    1    1    2    0    0  0.31559582964E+02  0.44461705360E+01  0.97271170894E+00  0.31886076544E+02  0.00000000000E+00 0. -1.
         11    1    3    3    0    0  0.71763416115E+01 -0.65850187492E+01 -0.81036442544E+01  0.12670098710E+02  0.51100000000E-03 0. -1.
        -11    1    3    3    0    0 -0.82608626453E+01 -0.19607668016E+01 -0.86060366524E+01  0.12089264875E+02  0.51100000000E-03 0.  1.
        -12    1    3    3    0    0 -0.30475061930E+02  0.40996150148E+01  0.15736969198E+02  0.34542559871E+02  0.00000000000E+00 0.  1.
</event>
<event>
 7    1  0.6184948E-012  0.5930194E+02  0.7816164E-02  0.1266605E+00
        -11   -1    0    0    0    0  0.00000000000E+00  0.00000000000E+00  0.45593999997E+02  0.45594000000E+02  0.51100000000E-03 0. -1.
         11   -1    0    0    0    0 -0.00000000000E+00 -0.00000000000E+00 -0.45593999997E+02  0.45594000000E+02  0.51100000000E-03 0.  1.
    9900012    2    1    2    0    0 -0.32966251258E+01 -0.28635463681E+02 -0.13633163758E+02  0.59301942365E+02  0.49999996967E+02 0.  0.
         12    1    1    2    0    0  0.32966251258E+01  0.28635463681E+02  0.13633163758E+02  0.31886057635E+02  0.00000000000E+00 0. -1.
         11    1    3    3    0    0 -0.66209645691E+01 -0.12955314693E+02 -0.36130192429E+01  0.14991039287E+02  0.51100000000E-03 0. -1.
        -11    1    3    3    0    0  0.58230123329E+01 -0.97918492954E+01 -0.25299742309E+02  0.27746436644E+02  0.51100000000E-03 0.  1.
         12    1    3    3    0    0 -0.24986728895E+01 -0.58882996935E+01  0.15279597794E+02  0.16564466434E+02  0.00000000000E+00 0. -1.
</event>
<event>
 7    1  0.6184948E-012  0.5930192E+02  0.7816164E-02  0.1266605E+00
        -11   -1    0    0    0    0  0.00000000000E+00  0.00000000000E+00  0.45593999997E+02  0.45594000000E+02  0.51100000000E-03 0.  1.
         11   -1    0    0    0    0 -0.00000000000E+00 -0.00000000000E+00 -0.45593999997E+02  0.45594000000E+02  0.51100000000E-03 0. -1.
    9900012    2    1    2    0    0 -0.43281825176E+00  0.14240141346E+00  0.31882820251E+02  0.59301924089E+02  0.49999963637E+02 0.  0.
         12    1    1    2    0    0  0.43281825176E+00 -0.14240141346E+00 -0.31882820251E+02  0.31886075911E+02  0.00000000000E+00 0. -1.
         11    1    3    3    0    0  0.55047348944E+01  0.70146571442E+00  0.10212044038E+00  0.55501882177E+01  0.51100000000E-03 0. -1.
        -11    1    3    3    0    0  0.38182525907E+01  0.78853003398E+01  0.38304328848E+02  0.39293493393E+02  0.51100000000E-03 0.  1.
         12    1    3    3    0    0 -0.97558057368E+01 -0.84443646407E+01 -0.65236290368E+01  0.14458242479E+02  0.00000000000E+00 0. -1.
</event>
<event>
 7    1  0.6184948E-012  0.5930193E+02  0.7816164E-02  0.1266605E+00
        -11   -1    0    0    0    0  0.00000000000E+00  0.00000000000E+00  0.45593999997E+02  0.45594000000E+02  0.51100000000E-03 0. -1.
         11   -1    0    0    0    0 -0.00000000000E+00 -0.00000000000E+00 -0.45593999997E+02  0.45594000000E+02  0.51100000000E-03 0.  1.
    9900012    2    1    2    0    0  0.21823603117E+02  0.22131555957E+02 -0.71165997944E+01  0.59301930711E+02  0.49999975713E+02 0.  0.
         12    1    1    2    0    0 -0.21823603117E+02 -0.22131555957E+02  0.71165997944E+01  0.31886069289E+02  0.00000000000E+00 0. -1.
         11    1    3    3    0    0  0.14786951553E+02 -0.60826270366E-02  0.13102325643E+02  0.19756642193E+02  0.51100000000E-03 0. -1.
        -11    1    3    3    0    0 -0.89774492301E+01  0.55877427550E+01 -0.91965655001E+01  0.14014074391E+02  0.51100000000E-03 0.  1.
         12    1    3    3    0    0  0.16014100794E+02  0.16549895829E+02 -0.11022359937E+02  0.25531214127E+02  0.00000000000E+00 0. -1.
</event>
<event>
 7    1  0.6184948E-012  0.5930194E+02  0.7816164E-02  0.1266605E+00
        -11   -1    0    0    0    0  0.00000000000E+00  0.00000000000E+00  0.45593999997E+02  0.45594000000E+02  0.51100000000E-03 0.  1.
         11   -1    0    0    0    0 -0.00000000000E+00 -0.00000000000E+00 -0.45593999997E+02  0.45594000000E+02  0.51100000000E-03 0. -1.
    9900012    2    1    2    0    0  0.99528374939E+00  0.27398899965E+02  0.16279758596E+02  0.59301939582E+02  0.49999991893E+02 0.  0.
         12    1    1    2    0    0 -0.99528374939E+00 -0.27398899965E+02 -0.16279758596E+02  0.31886060418E+02  0.00000000000E+00 0. -1.
         11    1    3    3    0    0  0.15784112842E+02  0.86687006864E+01 -0.54127701019E+01  0.18803794039E+02  0.51100000000E-03 0. -1.
        -11    1    3    3    0    0  0.40422787858E+01  0.63028783533E+01  0.15322261443E+02  0.17053972830E+02  0.51100000000E-03 0.  1.
        -12    1    3    3    0    0 -0.18831107879E+02  0.12427320925E+02  0.63702672553E+01  0.23444172713E+02  0.00000000000E+00 0.  1.
</event>
<event>
 7    1  0.6184948E-012  0.5930194E+02  0.7816164E-02  0.1266605E+00
        -11   -1    0    0    0    0  0.00000000000E+00  0.00000000000E+00  0.45593999997E+02  0.45594000000E+02  0.51100000000E-03 0.  1.
         11   -1    0    0    0    0 -0.00000000000E+00 -0.00000000000E+00 -0.45593999997E+02  0.45594000000E+02  0.51100000000E-03 0. -1.
    9900012    2    1    2    0    0 -0.26862638976E+02  0.17012887324E+02 -0.23834572046E+01  0.59301943861E+02  0.49999999695E+02 0.  0.
         12    1    1    2    0    0  0.26862638976E+02 -0.17012887324E+02  0.23834572046E+01  0.31886056139E+02  0.00000000000E+00 0. -1.
         11    1    3    3    0    0 -0.10765173756E+02 -0.11888576100E+02 -0.19428786493E+01  0.16155555868E+02  0.51100000000E-03 0. -1.
        -11    1    3    3    0    0 -0.17532855224E+02  0.44397163746E+01 -0.35959059569E+01  0.18440244947E+02  0.51100000000E-03 0.  1.
         12    1    3    3    0    0  0.14353900035E+01  0.24461747050E+02  0.31553274016E+01  0.24706143046E+02  0.00000000000E+00 0. -1.
</event>
<event>
 7    1  0.6184948E-012  0.5930194E+02  0.7816164E-02  0.1266605E+00
        -11   -1    0    0    0    0  0.00000000000E+00  0.00000000000E+00  0.45593999997E+02  0.45594000000E+02  0.51100000000E-03 0.  1.
         11   -1    0    0    0    0 -0.00000000000E+00 -0.00000000000E+00 -0.45593999997E+02  0.45594000000E+02  0.51100000000E-03 0. -1.
    9900012    2    1    2    0    0 -0.63169916085E+00 -0.63201720274E+01  0.31247030692E+02  0.59301944344E+02  0.50000000576E+02 0.  0.
         12    1    1    2    0    0  0.63169916085E+00  0.63201720274E+01 -0.31247030692E+02  0.31886055656E+02  0.00000000000E+00 0. -1.
         11    1    3    3    0    0 -0.86641044020E+01  0.60862333147E+01 -0.64559264036E+01  0.12401126039E+02  0.51100000000E-03 0. -1.
        -11    1    3    3    0    0  0.40452095402E+01  0.25516344815E+01 -0.12847232416E+01  0.49522795579E+01  0.51100000000E-03 0.  1.
        -12    1    3    3    0    0  0.39871957010E+01 -0.14958039824E+02  0.38987680337E+02  0.41948538746E+02  0.00000000000E+00 0.  1.
</event>
<event>
 7    1  0.6184948E-012  0.5930189E+02  0.7816164E-02  0.1266605E+00
        -11   -1    0    0    0    0  0.00000000000E+00  0.00000000000E+00  0.45593999997E+02  0.45594000000E+02  0.51100000000E-03 0.  1.
         11   -1    0    0    0    0 -0.00000000000E+00 -0.00000000000E+00 -0.45593999997E+02  0.45594000000E+02  0.51100000000E-03 0. -1.
    9900012    2    1    2    0    0  0.27816747606E+02  0.11248980800E+02  0.10789471297E+02  0.59301894762E+02  0.49999910150E+02 0.  0.
         12    1    1    2    0    0 -0.27816747606E+02 -0.11248980800E+02 -0.10789471297E+02  0.31886105238E+02  0.00000000000E+00 0. -1.
         11    1    3    3    0    0  0.46624364832E+01 -0.90341579771E+01 -0.36940393732E+01  0.10816665450E+02  0.51100000000E-03 0. -1.
        -11    1    3    3    0    0  0.30860965836E+02  0.84464528069E+01  0.82243773634E+01  0.33036073626E+02  0.51100000000E-03 0.  1.
         12    1    3    3    0    0 -0.77066547135E+01  0.11836685970E+02  0.62591333065E+01  0.15449155685E+02  0.00000000000E+00 0. -1.
</event>
<event>
 7    1  0.6184948E-012  0.5930181E+02  0.7816164E-02  0.1266605E+00
        -11   -1    0    0    0    0  0.00000000000E+00  0.00000000000E+00  0.45593999997E+02  0.45594000000E+02  0.51100000000E-03 0. -1.
         11   -1    0    0    0    0 -0.00000000000E+00 -0.00000000000E+00 -0.45593999997E+02  0.45594000000E+02  0.51100000000E-03 0.  1.
    9900012    2    1    2    0    0  0.24061367143E+02  0.19033433294E+02 -0.86895583484E+01  0.59301805558E+02  0.49999747463E+02 0.  0.
         12    1    1    2    0    0 -0.24061367143E+02 -0.19033433294E+02  0.86895583484E+01  0.31886194442E+02  0.00000000000E+00 0. -1.
         11    1    3    3    0    0  0.17592911404E+02 -0.26496912095E+01  0.80389723662E+01  0.19523229040E+02  0.51100000000E-03 0. -1.
        -11    1    3    3    0    0  0.12144684502E+02  0.10062281273E+02  0.31307553416E+01  0.16079318870E+02  0.51100000000E-03 0.  1.
         12    1    3    3    0    0 -0.56762287635E+01  0.11620843231E+02 -0.19859286056E+02  0.23699257647E+02  0.00000000000E+00 0. -1.
</event>
<event>
 7    1  0.6184948E-012  0.5930192E+02  0.7816164E-02  0.1266605E+00
        -11   -1    0    0    0    0  0.00000000000E+00  0.00000000000E+00  0.45593999997E+02  0.45594000000E+02  0.51100000000E-03 0. -1.
         11   -1    0    0    0    0 -0.00000000000E+00 -0.00000000000E+00 -0.45593999997E+02  0.45594000000E+02  0.51100000000E-03 0.  1.
    9900012    2    1    2    0    0  0.49138435862E+01 -0.10525572593E+02 -0.29694924319E+02  0.59301920474E+02  0.49999957044E+02 0.  0.
         12    1    1    2    0    0 -0.49138435862E+01  0.10525572593E+02  0.29694924319E+02  0.31886079526E+02  0.00000000000E+00 0. -1.
         11    1    3    3    0    0  0.16581892707E+02 -0.54212860893E+01 -0.28584757323E+02  0.33487876315E+02  0.51100000000E-03 0. -1.
        -11    1    3    3    0    0  0.16995626077E+01  0.73235539923E+01  0.13492871529E+00  0.75193857565E+01  0.51100000000E-03 0.  1.
         12    1    3    3    0    0 -0.13367611729E+02 -0.12427840496E+02 -0.12450957116E+01  0.18294658402E+02  0.00000000000E+00 0. -1.
</event>
<event>
 7    1  0.6184948E-012  0.5930197E+02  0.7816164E-02  0.1266605E+00
        -11   -1    0    0    0    0  0.00000000000E+00  0.00000000000E+00  0.45593999997E+02  0.45594000000E+02  0.51100000000E-03 0.  1.
         11   -1    0    0    0    0 -0.00000000000E+00 -0.00000000000E+00 -0.45593999997E+02  0.45594000000E+02  0.51100000000E-03 0. -1.
    9900012    2    1    2    0    0 -0.22730523837E+02 -0.13854000183E+02  0.17553038659E+02  0.59301965421E+02  0.50000039017E+02 0.  0.
         12    1    1    2    0    0  0.22730523837E+02  0.13854000183E+02 -0.17553038659E+02  0.31886034579E+02  0.00000000000E+00 0. -1.
         11    1    3    3    0    0 -0.54350790992E+01 -0.56792619320E+01  0.86045929290E+01  0.11654746700E+02  0.51100000000E-03 0. -1.
        -11    1    3    3    0    0  0.39579837817E+01 -0.12457681896E+02  0.19546895893E+02  0.23514689306E+02  0.51100000000E-03 0.  1.
         12    1    3    3    0    0 -0.21253428519E+02  0.42829436454E+01 -0.10598450163E+02  0.24132529415E+02  0.00000000000E+00 0. -1.
</event>
<event>
 7    1  0.6184948E-012  0.5930197E+02  0.7816164E-02  0.1266605E+00
        -11   -1    0    0    0    0  0.00000000000E+00  0.00000000000E+00  0.45593999997E+02  0.45594000000E+02  0.51100000000E-03 0.  1.
         11   -1    0    0    0    0 -0.00000000000E+00 -0.00000000000E+00 -0.45593999997E+02  0.45594000000E+02  0.51100000000E-03 0. -1.
    9900012    2    1    2    0    0 -0.31985394772E+01  0.29744014040E+02  0.11035468626E+02  0.59301974945E+02  0.50000056385E+02 0.  0.
         12    1    1    2    0    0  0.31985394772E+01 -0.29744014040E+02 -0.11035468626E+02  0.31886025055E+02  0.00000000000E+00 0. -1.
         11    1    3    3    0    0 -0.33426181393E+01 -0.43076149728E+01  0.35070375469E+01  0.64828971452E+01  0.51100000000E-03 0. -1.
        -11    1    3    3    0    0 -0.12686091184E+02  0.48879498095E+01  0.14843930341E+02  0.20128865619E+02  0.51100000000E-03 0.  1.
         12    1    3    3    0    0  0.12830169846E+02  0.29163679204E+02 -0.73154992621E+01  0.32690212181E+02  0.00000000000E+00 0. -1.
</event>
<event>
 7    1  0.6184948E-012  0.5930197E+02  0.7816164E-02  0.1266605E+00
        -11   -1    0    0    0    0  0.00000000000E+00  0.00000000000E+00  0.45593999997E+02  0.45594000000E+02  0.51100000000E-03 0.  1.
         11   -1    0    0    0    0 -0.00000000000E+00 -0.00000000000E+00 -0.45593999997E+02  0.45594000000E+02  0.51100000000E-03 0. -1.
    9900012    2    1    2    0    0 -0.14515226148E+02  0.16874657398E+02  0.22831405215E+02  0.59301969884E+02  0.50000047157E+02 0.  0.
         12    1    1    2    0    0  0.14515226148E+02 -0.16874657398E+02 -0.22831405215E+02  0.31886030116E+02  0.00000000000E+00 0. -1.
         11    1    3    3    0    0  0.10814018044E+02  0.10915633038E+02  0.14854964134E+02  0.21372037585E+02  0.51100000000E-03 0. -1.
        -11    1    3    3    0    0 -0.14374693385E+00  0.11860157788E+00 -0.76950089464E+01  0.76972652586E+01  0.51100000000E-03 0.  1.
        -12    1    3    3    0    0 -0.25185497258E+02  0.58404227818E+01  0.15671450027E+02  0.30232667040E+02  0.00000000000E+00 0.  1.
</event>
<event>
 7    1  0.6184948E-012  0.5930193E+02  0.7816164E-02  0.1266605E+00
        -11   -1    0    0    0    0  0.00000000000E+00  0.00000000000E+00  0.45593999997E+02  0.45594000000E+02  0.51100000000E-03 0. -1.
         11   -1    0    0    0    0 -0.00000000000E+00 -0.00000000000E+00 -0.45593999997E+02  0.45594000000E+02  0.51100000000E-03 0.  1.
    9900012    2    1    2    0    0 -0.55439603532E+01 -0.11733206126E+02 -0.29125894933E+02  0.59301931286E+02  0.49999976762E+02 0.  0.
         12    1    1    2    0    0  0.55439603532E+01  0.11733206126E+02  0.29125894933E+02  0.31886068714E+02  0.00000000000E+00 0. -1.
         11    1    3    3    0    0  0.15757565655E+01  0.29174002861E+01 -0.12015898463E+02  0.12464992953E+02  0.51100000000E-03 0.  1.
        -11    1    3    3    0    0 -0.40776028217E+01  0.13703090663E+02 -0.16292493047E+01  0.14389440297E+02  0.51100000000E-03 0. -1.
         12    1    3    3    0    0 -0.30421140969E+01 -0.28353697075E+02 -0.15480747165E+02  0.32447498036E+02  0.00000000000E+00 0. -1.
</event>
<event>
 7    1  0.6184948E-012  0.5930193E+02  0.7816164E-02  0.1266605E+00
        -11   -1    0    0    0    0  0.00000000000E+00  0.00000000000E+00  0.45593999997E+02  0.45594000000E+02  0.51100000000E-03 0. -1.
         11   -1    0    0    0    0 -0.00000000000E+00 -0.00000000000E+00 -0.45593999997E+02  0.45594000000E+02  0.51100000000E-03 0.  1.
    9900012    2    1    2    0    0  0.93935216149E+01  0.68378058624E+01 -0.29693894934E+02  0.59301933549E+02  0.49999980890E+02 0.  0.
         12    1    1    2    0    0 -0.93935216149E+01 -0.68378058624E+01  0.29693894934E+02  0.31886066451E+02  0.00000000000E+00 0. -1.
         11    1    3    3    0    0 -0.20180231049E+01  0.13642223921E+02  0.21847154934E+00  0.13792404462E+02  0.51100000000E-03 0. -1.
        -11    1    3    3    0    0 -0.83543345542E+01  0.54254850243E+01 -0.40943798987E+01  0.10770085450E+02  0.51100000000E-03 0.  1.
         12    1    3    3    0    0  0.19765879274E+02 -0.12229903083E+02 -0.25817986585E+02  0.34739443637E+02  0.00000000000E+00 0. -1.
</event>
<event>
 7    1  0.6184948E-012  0.5930177E+02  0.7816164E-02  0.1266605E+00
        -11   -1    0    0    0    0  0.00000000000E+00  0.00000000000E+00  0.45593999997E+02  0.45594000000E+02  0.51100000000E-03 0.  1.
         11   -1    0    0    0    0 -0.00000000000E+00 -0.00000000000E+00 -0.45593999997E+02  0.45594000000E+02  0.51100000000E-03 0. -1.
    9900012    2    1    2    0    0 -0.56139593358E+01  0.19260167615E+02 -0.24784286475E+02  0.59301773317E+02  0.49999688664E+02 0.  0.
         12    1    1    2    0    0  0.56139593358E+01 -0.19260167615E+02  0.24784286475E+02  0.31886226683E+02  0.00000000000E+00 0. -1.
         11    1    3    3    0    0 -0.57013179735E+01  0.72954411938E+01 -0.16818077302E+02  0.19198338814E+02  0.51100000000E-03 0. -1.
        -11    1    3    3    0    0 -0.54074504350E+01 -0.79245864774E+01 -0.15422700802E+02  0.18163129998E+02  0.51100000000E-03 0.  1.
        -12    1    3    3    0    0  0.54948090727E+01  0.19889312899E+02  0.74564916283E+01  0.21940304504E+02  0.00000000000E+00 0.  1.
</event>
<event>
 7    1  0.6184948E-012  0.5930196E+02  0.7816164E-02  0.1266605E+00
        -11   -1    0    0    0    0  0.00000000000E+00  0.00000000000E+00  0.45593999997E+02  0.45594000000E+02  0.51100000000E-03 0.  1.
         11   -1    0    0    0    0 -0.00000000000E+00 -0.00000000000E+00 -0.45593999997E+02  0.45594000000E+02  0.51100000000E-03 0. -1.
    9900012    2    1    2    0    0  0.67183048564E+01 -0.14632335498E+02  0.27522335733E+02  0.59301955616E+02  0.50000021135E+02 0.  0.
         12    1    1    2    0    0 -0.67183048564E+01  0.14632335498E+02 -0.27522335733E+02  0.31886044384E+02  0.00000000000E+00 0. -1.
         11    1    3    3    0    0  0.82789903798E-01 -0.92019522700E+01  0.72918639384E+01  0.11741126850E+02  0.51100000000E-03 0. -1.
        -11    1    3    3    0    0 -0.53481252622E+01 -0.21941105546E+02  0.93849369100E+01  0.24455911299E+02  0.51100000000E-03 0.  1.
         12    1    3    3    0    0  0.11983640215E+02  0.16510722318E+02  0.10845534884E+02  0.23104917468E+02  0.00000000000E+00 0. -1.
</event>
<event>
 7    1  0.6329621E-012  0.5930184E+02  0.7816164E-02  0.1266605E+00
        -11   -1    0    0    0    0  0.00000000000E+00  0.00000000000E+00  0.45593999997E+02  0.45594000000E+02  0.51100000000E-03 0. -1.
         11   -1    0    0    0    0 -0.00000000000E+00 -0.00000000000E+00 -0.45593999997E+02  0.45594000000E+02  0.51100000000E-03 0.  1.
    9900012    2    1    2    0    0 -0.13656280022E+02  0.82966611364E+01 -0.27593452735E+02  0.59301839932E+02  0.49999810153E+02 0.  0.
         12    1    1    2    0    0  0.13656280022E+02 -0.82966611364E+01  0.27593452735E+02  0.31886160068E+02  0.00000000000E+00 0. -1.
         11    1    3    3    0    0 -0.92492071543E+01  0.15182950010E+02 -0.16283404362E+02  0.24108485266E+02  0.51100000000E-03 0. -1.
        -11    1    3    3    0    0 -0.13062800936E+02  0.31989430992E+01 -0.16179377932E+02  0.21039065468E+02  0.51100000000E-03 0.  1.
         12    1    3    3    0    0  0.86557280678E+01 -0.10085231972E+02  0.48693295587E+01  0.14154289197E+02  0.00000000000E+00 0. -1.
</event>
<event>
 7    1  0.6184948E-012  0.5930195E+02  0.7816164E-02  0.1266605E+00
        -11   -1    0    0    0    0  0.00000000000E+00  0.00000000000E+00  0.45593999997E+02  0.45594000000E+02  0.51100000000E-03 0. -1.
         11   -1    0    0    0    0 -0.00000000000E+00 -0.00000000000E+00 -0.45593999997E+02  0.45594000000E+02  0.51100000000E-03 0.  1.
    9900012    2    1    2    0    0  0.25089949295E+02 -0.18753585356E+02 -0.59596950233E+01  0.59301945304E+02  0.50000002327E+02 0.  0.
         12    1    1    2    0    0 -0.25089949295E+02  0.18753585356E+02  0.59596950233E+01  0.31886054696E+02  0.00000000000E+00 0. -1.
         11    1    3    3    0    0  0.33298934795E+01  0.35603448026E+01 -0.18986843954E+01  0.52315627104E+01  0.51100000000E-03 0. -1.
        -11    1    3    3    0    0  0.21310991071E+02 -0.12525161545E+02 -0.22347811790E+02  0.33323605810E+02  0.51100000000E-03 0.  1.
         12    1    3    3    0    0  0.44906474428E+00 -0.97887686143E+01  0.18286801162E+02  0.20746776783E+02  0.00000000000E+00 0. -1.
</event>
<event>
 7    1  0.6184948E-012  0.5930195E+02  0.7816164E-02  0.1266605E+00
        -11   -1    0    0    0    0  0.00000000000E+00  0.00000000000E+00  0.45593999997E+02  0.45594000000E+02  0.51100000000E-03 0. -1.
         11   -1    0    0    0    0 -0.00000000000E+00 -0.00000000000E+00 -0.45593999997E+02  0.45594000000E+02  0.51100000000E-03 0.  1.
    9900012    2    1    2    0    0 -0.99961856005E+00 -0.64654628658E+01 -0.31207666990E+02  0.59301954050E+02  0.50000018278E+02 0.  0.
         12    1    1    2    0    0  0.99961856005E+00  0.64654628658E+01  0.31207666990E+02  0.31886045950E+02  0.00000000000E+00 0. -1.
         11    1    3    3    0    0  0.10606346962E+01 -0.19065572450E+02 -0.86592867640E+01  0.20966741433E+02  0.51100000000E-03 0. -1.
        -11    1    3    3    0    0 -0.25663845504E+01  0.50478228301E+00 -0.25694408975E+02  0.25827190859E+02  0.51100000000E-03 0.  1.
        -12    1    3    3    0    0  0.50613129414E+00  0.12095327301E+02  0.31460287488E+01  0.12508021758E+02  0.00000000000E+00 0.  1.
</event>
<event>
 7    1  0.6184948E-012  0.5930201E+02  0.7816164E-02  0.1266605E+00
        -11   -1    0    0    0    0  0.00000000000E+00  0.00000000000E+00  0.45593999997E+02  0.45594000000E+02  0.51100000000E-03 0. -1.
         11   -1    0    0    0    0 -0.00000000000E+00 -0.00000000000E+00 -0.45593999997E+02  0.45594000000E+02  0.51100000000E-03 0.  1.
    9900012    2    1    2    0    0 -0.77464968618E+01  0.83385129929E+01 -0.29785518642E+02  0.59302013528E+02  0.50000126751E+02 0.  0.
         12    1    1    2    0    0  0.77464968618E+01 -0.83385129929E+01  0.29785518642E+02  0.31885986472E+02  0.00000000000E+00 0. -1.
         11    1    3    3    0    0 -0.55791490434E+01  0.49315281633E+01  0.12205072966E+02  0.14297226320E+02  0.51100000000E-03 0. -1.
        -11    1    3    3    0    0 -0.37970416034E+01 -0.65106921215E+00 -0.12793204753E+01  0.40593197948E+01  0.51100000000E-03 0.  1.
        -12    1    3    3    0    0  0.16296937851E+01  0.40580540418E+01 -0.40711271132E+02  0.40945467413E+02  0.00000000000E+00 0.  1.
</event>
<event>
 7    1  0.6184948E-012  0.5930182E+02  0.7816164E-02  0.1266605E+00
        -11   -1    0    0    0    0  0.00000000000E+00  0.00000000000E+00  0.45593999997E+02  0.45594000000E+02  0.51100000000E-03 0.  1.
         11   -1    0    0    0    0 -0.00000000000E+00 -0.00000000000E+00 -0.45593999997E+02  0.45594000000E+02  0.51100000000E-03 0. -1.
    9900012    2    1    2    0    0  0.18592967720E+02 -0.25829615459E+02  0.19648959175E+01  0.59301822754E+02  0.49999778825E+02 0.  0.
         12    1    1    2    0    0 -0.18592967720E+02  0.25829615459E+02 -0.19648959175E+01  0.31886177246E+02  0.00000000000E+00 0. -1.
         11    1    3    3    0    0  0.13645196168E+01 -0.95182934382E+01 -0.10427188847E+02  0.14184008293E+02  0.51100000000E-03 0. -1.
        -11    1    3    3    0    0 -0.11292907966E+02 -0.19889963765E+01  0.33659055475E+01  0.11950531257E+02  0.51100000000E-03 0.  1.
        -12    1    3    3    0    0  0.28521356069E+02 -0.14322325644E+02  0.90261792166E+01  0.33167283204E+02  0.00000000000E+00 0.  1.
</event>
<event>
 7    1  0.6184948E-012  0.5930199E+02  0.7816164E-02  0.1266605E+00
        -11   -1    0    0    0    0  0.00000000000E+00  0.00000000000E+00  0.45593999997E+02  0.45594000000E+02  0.51100000000E-03 0.  1.
         11   -1    0    0    0    0 -0.00000000000E+00 -0.00000000000E+00 -0.45593999997E+02  0.45594000000E+02  0.51100000000E-03 0. -1.
    9900012    2    1    2    0    0  0.13615459158E+02 -0.26111586039E+01  0.28714439623E+02  0.59301985508E+02  0.50000075650E+02 0.  0.
         12    1    1    2    0    0 -0.13615459158E+02  0.26111586039E+01 -0.28714439623E+02  0.31886014492E+02  0.00000000000E+00 0. -1.
         11    1    3    3    0    0 -0.67703303624E+01 -0.14629103491E+02 -0.14139939138E+01  0.16181700195E+02  0.51100000000E-03 0. -1.
        -11    1    3    3    0    0  0.19670639907E+01 -0.44576840735E+01  0.10450246088E+02  0.11530304922E+02  0.51100000000E-03 0.  1.
        -12    1    3    3    0    0  0.18418725530E+02  0.16475628960E+02  0.19678187449E+02  0.31589980390E+02  0.00000000000E+00 0.  1.
</event>
<event>
 7    1  0.6184948E-012  0.5930195E+02  0.7816164E-02  0.1266605E+00
        -11   -1    0    0    0    0  0.00000000000E+00  0.00000000000E+00  0.45593999997E+02  0.45594000000E+02  0.51100000000E-03 0. -1.
         11   -1    0    0    0    0 -0.00000000000E+00 -0.00000000000E+00 -0.45593999997E+02  0.45594000000E+02  0.51100000000E-03 0.  1.
    9900012    2    1    2    0    0  0.28025513829E+02 -0.88578430385E+01  0.12362423622E+02  0.59301947775E+02  0.50000006835E+02 0.  0.
         12    1    1    2    0    0 -0.28025513829E+02  0.88578430385E+01 -0.12362423622E+02  0.31886052225E+02  0.00000000000E+00 0. -1.
         11    1    3    3    0    0 -0.13106376587E+01 -0.68725723780E+01 -0.77075226885E+01  0.10409415374E+02  0.51100000000E-03 0. -1.
        -11    1    3    3    0    0  0.79546819698E+01  0.90710860381E+00 -0.94133620558E+01  0.12357637182E+02  0.51100000000E-03 0.  1.
         12    1    3    3    0    0  0.21381469518E+02 -0.28923792643E+01  0.29483308366E+02  0.36534895220E+02  0.00000000000E+00 0. -1.
</event>
<event>
 7    1  0.6184948E-012  0.5930207E+02  0.7816164E-02  0.1266604E+00
        -11   -1    0    0    0    0  0.00000000000E+00  0.00000000000E+00  0.45593999997E+02  0.45594000000E+02  0.51100000000E-03 0. -1.
         11   -1    0    0    0    0 -0.00000000000E+00 -0.00000000000E+00 -0.45593999997E+02  0.45594000000E+02  0.51100000000E-03 0.  1.
    9900012    2    1    2    0    0  0.82553596157E+00  0.28641910069E+02 -0.13988290175E+02  0.59302066047E+02  0.50000222533E+02 0.  0.
         12    1    1    2    0    0 -0.82553596157E+00 -0.28641910069E+02  0.13988290175E+02  0.31885933953E+02  0.00000000000E+00 0. -1.
         11    1    3    3    0    0 -0.77929809220E+01 -0.84215416134E+01  0.84798042369E+01  0.14267445285E+02  0.51100000000E-03 0. -1.
        -11    1    3    3    0    0  0.48414528251E+01  0.59169972889E+01 -0.40097557637E+01  0.86329985475E+01  0.51100000000E-03 0.  1.
        -12    1    3    3    0    0  0.37770640584E+01  0.31146454394E+02 -0.18458338648E+02  0.36401622215E+02  0.00000000000E+00 0.  1.
</event>
<event>
 7    1  0.6184948E-012  0.5930193E+02  0.7816164E-02  0.1266605E+00
        -11   -1    0    0    0    0  0.00000000000E+00  0.00000000000E+00  0.45593999997E+02  0.45594000000E+02  0.51100000000E-03 0. -1.
         11   -1    0    0    0    0 -0.00000000000E+00 -0.00000000000E+00 -0.45593999997E+02  0.45594000000E+02  0.51100000000E-03 0.  1.
    9900012    2    1    2    0    0  0.24399554343E+02 -0.17229567543E+02 -0.11159095091E+02  0.59301926972E+02  0.49999968895E+02 0.  0.
         12    1    1    2    0    0 -0.24399554343E+02  0.17229567543E+02  0.11159095091E+02  0.31886073028E+02  0.00000000000E+00 0. -1.
         11    1    3    3    0    0 -0.38724159122E+01  0.10055366194E+01  0.17189917795E+01  0.43544967435E+01  0.51100000000E-03 0. -1.
        -11    1    3    3    0    0  0.20822825071E+02  0.83867243260E+01  0.36437334531E+01  0.22742119132E+02  0.51100000000E-03 0.  1.
         12    1    3    3    0    0  0.74491451843E+01 -0.26621828489E+02 -0.16521820323E+02  0.32205311097E+02  0.00000000000E+00 0. -1.
</event>
<event>
 7    1  0.6184948E-012  0.5930194E+02  0.7816164E-02  0.1266605E+00
        -11   -1    0    0    0    0  0.00000000000E+00  0.00000000000E+00  0.45593999997E+02  0.45594000000E+02  0.51100000000E-03 0.  1.
         11   -1    0    0    0    0 -0.00000000000E+00 -0.00000000000E+00 -0.45593999997E+02  0.45594000000E+02  0.51100000000E-03 0. -1.
    9900012    2    1    2    0    0  0.31430618008E+02  0.32828731915E+01  0.42496996594E+01  0.59301937967E+02  0.49999988947E+02 0.  0.
         12    1    1    2    0    0 -0.31430618008E+02 -0.32828731915E+01 -0.42496996594E+01  0.31886062033E+02  0.00000000000E+00 0. -1.
         11    1    3    3    0    0 -0.29853092619E+01 -0.93813682418E+01  0.97544613511E+01  0.13858991954E+02  0.51100000000E-03 0. -1.
        -11    1    3    3    0    0 -0.38712838713E+01  0.90098028065E+00  0.23628437648E+01  0.46240280272E+01  0.51100000000E-03 0.  1.
        -12    1    3    3    0    0  0.38287211141E+02  0.11763261153E+02 -0.78676054565E+01  0.40818917986E+02  0.00000000000E+00 0.  1.
</event>
<event>
 7    1  0.6184948E-012  0.5930194E+02  0.7816164E-02  0.1266605E+00
        -11   -1    0    0    0    0  0.00000000000E+00  0.00000000000E+00  0.45593999997E+02  0.45594000000E+02  0.51100000000E-03 0. -1.
         11   -1    0    0    0    0 -0.00000000000E+00 -0.00000000000E+00 -0.45593999997E+02  0.45594000000E+02  0.51100000000E-03 0.  1.
    9900012    2    1    2    0    0  0.28238184103E+02  0.11381882123E+02 -0.94751653675E+01  0.59301936573E+02  0.49999986405E+02 0.  0.
         12    1    1    2    0    0 -0.28238184103E+02 -0.11381882123E+02  0.94751653675E+01  0.31886063427E+02  0.00000000000E+00 0. -1.
         11    1    3    3    0    0  0.16132331259E+02 -0.31837066077E+01 -0.11036345431E+02  0.19803762783E+02  0.51100000000E-03 0. -1.
        -11    1    3    3    0    0  0.88031890440E+01  0.67548715124E+01 -0.16304438044E+02  0.19722046717E+02  0.51100000000E-03 0.  1.
         12    1    3    3    0    0  0.33026637997E+01  0.78107172188E+01  0.17865618108E+02  0.19776127074E+02  0.00000000000E+00 0. -1.
</event>
<event>
 7    1  0.6184948E-012  0.5930191E+02  0.7816164E-02  0.1266605E+00
        -11   -1    0    0    0    0  0.00000000000E+00  0.00000000000E+00  0.45593999997E+02  0.45594000000E+02  0.51100000000E-03 0.  1.
         11   -1    0    0    0    0 -0.00000000000E+00 -0.00000000000E+00 -0.45593999997E+02  0.45594000000E+02  0.51100000000E-03 0. -1.
    9900012    2    1    2    0    0  0.14990728633E+02  0.13525980948E+02  0.24678916068E+02  0.59301905792E+02  0.49999930267E+02 0.  0.
         12    1    1    2    0    0 -0.14990728633E+02 -0.13525980948E+02 -0.24678916068E+02  0.31886094208E+02  0.00000000000E+00 0. -1.
         11    1    3    3    0    0 -0.10709587788E+02 -0.53629575600E+01  0.25817089190E+01  0.12252420397E+02  0.51100000000E-03 0. -1.
        -11    1    3    3    0    0  0.11549135141E+01 -0.17020363460E+01  0.13802154648E+02  0.13954577247E+02  0.51100000000E-03 0.  1.
         12    1    3    3    0    0  0.24545402907E+02  0.20590974854E+02  0.82950525012E+01  0.33094908148E+02  0.00000000000E+00 0. -1.
</event>
<event>
 7    1  0.6184948E-012  0.5930198E+02  0.7816164E-02  0.1266605E+00
        -11   -1    0    0    0    0  0.00000000000E+00  0.00000000000E+00  0.45593999997E+02  0.45594000000E+02  0.51100000000E-03 0. -1.
         11   -1    0    0    0    0 -0.00000000000E+00 -0.00000000000E+00 -0.45593999997E+02  0.45594000000E+02  0.51100000000E-03 0.  1.
    9900012    2    1    2    0    0 -0.25821898179E+01 -0.12096089815E+02 -0.29389372836E+02  0.59301979101E+02  0.50000063965E+02 0.  0.
         12    1    1    2    0    0  0.25821898179E+01  0.12096089815E+02  0.29389372836E+02  0.31886020899E+02  0.00000000000E+00 0. -1.
         11    1    3    3    0    0 -0.20822912916E+01  0.83283155611E+01 -0.13142250192E+02  0.15697627766E+02  0.51100000000E-03 0. -1.
        -11    1    3    3    0    0  0.13528897524E+02  0.60528906101E+00 -0.11747111024E+02  0.17927410876E+02  0.51100000000E-03 0.  1.
         12    1    3    3    0    0 -0.14028796050E+02 -0.21029694438E+02 -0.45000116202E+01  0.25676940459E+02  0.00000000000E+00 0. -1.
</event>
<event>
 7    1  0.6184948E-012  0.5930187E+02  0.7816164E-02  0.1266605E+00
        -11   -1    0    0    0    0  0.00000000000E+00  0.00000000000E+00  0.45593999997E+02  0.45594000000E+02  0.51100000000E-03 0.  1.
         11   -1    0    0    0    0 -0.00000000000E+00 -0.00000000000E+00 -0.45593999997E+02  0.45594000000E+02  0.51100000000E-03 0. -1.
    9900012    2    1    2    0    0 -0.27705882479E+01  0.20047554486E+02  0.24640307058E+02  0.59301869284E+02  0.49999863686E+02 0.  0.
         12    1    1    2    0    0  0.27705882479E+01 -0.20047554486E+02 -0.24640307058E+02  0.31886130716E+02  0.00000000000E+00 0. -1.
         11    1    3    3    0    0  0.21269974913E+02  0.11366083894E+02  0.12918762655E+02  0.27358620665E+02  0.51100000000E-03 0. -1.
        -11    1    3    3    0    0 -0.13605294284E+02  0.12181235358E+02  0.45944369619E+01  0.18830703084E+02  0.51100000000E-03 0.  1.
        -12    1    3    3    0    0 -0.10435268877E+02 -0.34997647651E+01  0.71271074407E+01  0.13112545535E+02  0.00000000000E+00 0.  1.
</event>
<event>
 7    1  0.6184948E-012  0.5930194E+02  0.7816164E-02  0.1266605E+00
        -11   -1    0    0    0    0  0.00000000000E+00  0.00000000000E+00  0.45593999997E+02  0.45594000000E+02  0.51100000000E-03 0. -1.
         11   -1    0    0    0    0 -0.00000000000E+00 -0.00000000000E+00 -0.45593999997E+02  0.45594000000E+02  0.51100000000E-03 0.  1.
    9900012    2    1    2    0    0 -0.21826212005E+02 -0.22656853916E+02 -0.51965762872E+01  0.59301937763E+02  0.49999988575E+02 0.  0.
         12    1    1    2    0    0  0.21826212005E+02  0.22656853916E+02  0.51965762872E+01  0.31886062237E+02  0.00000000000E+00 0. -1.
         11    1    3    3    0    0 -0.18059871460E+02 -0.11195030331E+02 -0.23552933136E+02  0.31721102138E+02  0.51100000000E-03 0.  1.
        -11    1    3    3    0    0  0.12316521840E+01 -0.85153017000E+01  0.29335845131E+00  0.86089133801E+01  0.51100000000E-03 0. -1.
         12    1    3    3    0    0 -0.49979927294E+01 -0.29465218852E+01  0.18062998398E+02  0.18971922245E+02  0.00000000000E+00 0. -1.
</event>
<event>
 7    1  0.6184948E-012  0.5930195E+02  0.7816164E-02  0.1266605E+00
        -11   -1    0    0    0    0  0.00000000000E+00  0.00000000000E+00  0.45593999997E+02  0.45594000000E+02  0.51100000000E-03 0. -1.
         11   -1    0    0    0    0 -0.00000000000E+00 -0.00000000000E+00 -0.45593999997E+02  0.45594000000E+02  0.51100000000E-03 0.  1.
    9900012    2    1    2    0    0 -0.91492328871E+01  0.14982667792E+02 -0.26618256846E+02  0.59301946715E+02  0.50000004901E+02 0.  0.
         12    1    1    2    0    0  0.91492328871E+01 -0.14982667792E+02  0.26618256846E+02  0.31886053285E+02  0.00000000000E+00 0. -1.
         11    1    3    3    0    0 -0.86299102751E+01  0.21196898778E+02  0.30821855172E+01  0.23092936950E+02  0.51100000000E-03 0. -1.
        -11    1    3    3    0    0 -0.74857979814E+01  0.33519729469E+01 -0.16846696325E+02  0.18737237560E+02  0.51100000000E-03 0.  1.
         12    1    3    3    0    0  0.69664753694E+01 -0.95662039328E+01 -0.12853746038E+02  0.17471772204E+02  0.00000000000E+00 0. -1.
</event>
<event>
 7    1  0.6184948E-012  0.5930196E+02  0.7816164E-02  0.1266605E+00
        -11   -1    0    0    0    0  0.00000000000E+00  0.00000000000E+00  0.45593999997E+02  0.45594000000E+02  0.51100000000E-03 0.  1.
         11   -1    0    0    0    0 -0.00000000000E+00 -0.00000000000E+00 -0.45593999997E+02  0.45594000000E+02  0.51100000000E-03 0. -1.
    9900012    2    1    2    0    0 -0.16906762509E+02  0.21802977009E+02  0.15984714914E+02  0.59301960173E+02  0.50000029445E+02 0.  0.
         12    1    1    2    0    0  0.16906762509E+02 -0.21802977009E+02 -0.15984714914E+02  0.31886039827E+02  0.00000000000E+00 0. -1.
         11    1    3    3    0    0 -0.43182281519E+00  0.73806755549E+01 -0.11755702651E+02  0.13887310311E+02  0.51100000000E-03 0. -1.
        -11    1    3    3    0    0 -0.10006353017E+02  0.97796090333E+01 -0.24388819654E+01  0.14202675771E+02  0.51100000000E-03 0.  1.
         12    1    3    3    0    0 -0.64685866766E+01  0.46426924203E+01  0.30179299531E+02  0.31211974091E+02  0.00000000000E+00 0. -1.
</event>
<event>
 7    1  0.6184948E-012  0.5930196E+02  0.7816164E-02  0.1266605E+00
        -11   -1    0    0    0    0  0.00000000000E+00  0.00000000000E+00  0.45593999997E+02  0.45594000000E+02  0.51100000000E-03 0.  1.
         11   -1    0    0    0    0 -0.00000000000E+00 -0.00000000000E+00 -0.45593999997E+02  0.45594000000E+02  0.51100000000E-03 0. -1.
    9900012    2    1    2    0    0 -0.21787635342E+02  0.63987273689E+01  0.22384705685E+02  0.59301955806E+02  0.50000021481E+02 0.  0.
         12    1    1    2    0    0  0.21787635342E+02 -0.63987273689E+01 -0.22384705685E+02  0.31886044194E+02  0.00000000000E+00 0. -1.
         11    1    3    3    0    0 -0.81434067730E+01  0.58625151462E+01 -0.45960761058E+01  0.11036669495E+02  0.51100000000E-03 0. -1.
        -11    1    3    3    0    0  0.23676093128E+01 -0.80228553250E+01 -0.62202955825E+01  0.10424195836E+02  0.51100000000E-03 0.  1.
         12    1    3    3    0    0 -0.16011837882E+02  0.85590675477E+01  0.33201077373E+02  0.37841090475E+02  0.00000000000E+00 0. -1.
</event>
<event>
 7    1  0.6184948E-012  0.5930195E+02  0.7816164E-02  0.1266605E+00
        -11   -1    0    0    0    0  0.00000000000E+00  0.00000000000E+00  0.45593999997E+02  0.45594000000E+02  0.51100000000E-03 0.  1.
         11   -1    0    0    0    0 -0.00000000000E+00 -0.00000000000E+00 -0.45593999997E+02  0.45594000000E+02  0.51100000000E-03 0. -1.
    9900012    2    1    2    0    0  0.19755020313E+02 -0.25020863851E+02  0.64488698497E+00  0.59301947647E+02  0.50000006600E+02 0.  0.
         12    1    1    2    0    0 -0.19755020313E+02  0.25020863851E+02 -0.64488698497E+00  0.31886052353E+02  0.00000000000E+00 0. -1.
         11    1    3    3    0    0  0.25519035328E+02 -0.18264231021E+02 -0.38882772001E+00  0.31383984549E+02  0.51100000000E-03 0. -1.
        -11    1    3    3    0    0  0.17774534714E+01 -0.15195334940E+02  0.47278898599E+01  0.16012822599E+02  0.51100000000E-03 0.  1.
        -12    1    3    3    0    0 -0.75414684864E+01  0.84387021102E+01 -0.36941751550E+01  0.11905140499E+02  0.00000000000E+00 0.  1.
</event>
<event>
 7    1  0.6184948E-012  0.5930194E+02  0.7816164E-02  0.1266605E+00
        -11   -1    0    0    0    0  0.00000000000E+00  0.00000000000E+00  0.45593999997E+02  0.45594000000E+02  0.51100000000E-03 0. -1.
         11   -1    0    0    0    0 -0.00000000000E+00 -0.00000000000E+00 -0.45593999997E+02  0.45594000000E+02  0.51100000000E-03 0.  1.
    9900012    2    1    2    0    0 -0.20315880349E+02  0.16883400001E+00  0.24575543359E+02  0.59301939869E+02  0.49999992416E+02 0.  0.
         12    1    1    2    0    0  0.20315880349E+02 -0.16883400001E+00 -0.24575543359E+02  0.31886060131E+02  0.00000000000E+00 0. -1.
         11    1    3    3    0    0  0.79798999596E+01 -0.33417315240E+01  0.73432740997E+00  0.86824656607E+01  0.51100000000E-03 0. -1.
        -11    1    3    3    0    0 -0.31014886785E+01  0.16141541752E+02  0.97312753871E+01  0.19101474369E+02  0.51100000000E-03 0.  1.
         12    1    3    3    0    0 -0.25194291630E+02 -0.12630976228E+02  0.14109940562E+02  0.31517999839E+02  0.00000000000E+00 0. -1.
</event>
<event>
 7    1  0.6184948E-012  0.5930194E+02  0.7816164E-02  0.1266605E+00
        -11   -1    0    0    0    0  0.00000000000E+00  0.00000000000E+00  0.45593999997E+02  0.45594000000E+02  0.51100000000E-03 0.  1.
         11   -1    0    0    0    0 -0.00000000000E+00 -0.00000000000E+00 -0.45593999997E+02  0.45594000000E+02  0.51100000000E-03 0. -1.
    9900012    2    1    2    0    0  0.10274174939E+02  0.29083326059E+02 -0.80822040270E+01  0.59301944313E+02  0.50000000521E+02 0.  0.
         12    1    1    2    0    0 -0.10274174939E+02 -0.29083326059E+02  0.80822040270E+01  0.31886055687E+02  0.00000000000E+00 0. -1.
         11    1    3    3    0    0  0.77682669836E+01  0.85958424082E+01  0.36899017303E+01  0.12159352519E+02  0.51100000000E-03 0.  1.
        -11    1    3    3    0    0  0.19069258984E+02  0.23405541767E+01 -0.11850246162E+02  0.22573062850E+02  0.51100000000E-03 0. -1.
        -12    1    3    3    0    0 -0.16563351029E+02  0.18146929474E+02  0.78140404841E-01  0.24569528945E+02  0.00000000000E+00 0.  1.
</event>
<event>
 7    1  0.6184948E-012  0.5930195E+02  0.7816164E-02  0.1266605E+00
        -11   -1    0    0    0    0  0.00000000000E+00  0.00000000000E+00  0.45593999997E+02  0.45594000000E+02  0.51100000000E-03 0.  1.
         11   -1    0    0    0    0 -0.00000000000E+00 -0.00000000000E+00 -0.45593999997E+02  0.45594000000E+02  0.51100000000E-03 0. -1.
    9900012    2    1    2    0    0  0.20226899162E+02  0.23390104571E+02  0.77779059190E+01  0.59301948786E+02  0.50000008678E+02 0.  0.
         12    1    1    2    0    0 -0.20226899162E+02 -0.23390104571E+02 -0.77779059190E+01  0.31886051214E+02  0.00000000000E+00 0. -1.
         11    1    3    3    0    0 -0.52778729676E+01 -0.22112166688E+01  0.44093725315E+01  0.72241254558E+01  0.51100000000E-03 0. -1.
        -11    1    3    3    0    0  0.18347972852E+02 -0.47008392497E+01  0.80716600652E+01  0.20588775920E+02  0.51100000000E-03 0.  1.
        -12    1    3    3    0    0  0.71567992776E+01  0.30302160489E+02 -0.47031266777E+01  0.31489047410E+02  0.00000000000E+00 0.  1.
</event>
<event>
 7    1  0.6184948E-012  0.5930188E+02  0.7816164E-02  0.1266605E+00
        -11   -1    0    0    0    0  0.00000000000E+00  0.00000000000E+00  0.45593999997E+02  0.45594000000E+02  0.51100000000E-03 0.  1.
         11   -1    0    0    0    0 -0.00000000000E+00 -0.00000000000E+00 -0.45593999997E+02  0.45594000000E+02  0.51100000000E-03 0. -1.
    9900012    2    1    2    0    0  0.25970122466E+02  0.12648302953E+02  0.13501762813E+02  0.59301883467E+02  0.49999889551E+02 0.  0.
         12    1    1    2    0    0 -0.25970122466E+02 -0.12648302953E+02 -0.13501762813E+02  0.31886116533E+02  0.00000000000E+00 0. -1.
         11    1    3    3    0    0 -0.57120086421E+01 -0.95013650144E+01  0.31323123104E+01  0.11520171897E+02  0.51100000000E-03 0. -1.
        -11    1    3    3    0    0  0.18288457180E+01  0.14420075218E+02  0.86091051993E+01  0.16893784021E+02  0.51100000000E-03 0.  1.
         12    1    3    3    0    0  0.29853285390E+02  0.77295927495E+01  0.17603453034E+01  0.30887927549E+02  0.00000000000E+00 0. -1.
</event>
<event>
 7    1  0.6184948E-012  0.5930189E+02  0.7816164E-02  0.1266605E+00
        -11   -1    0    0    0    0  0.00000000000E+00  0.00000000000E+00  0.45593999997E+02  0.45594000000E+02  0.51100000000E-03 0.  1.
         11   -1    0    0    0    0 -0.00000000000E+00 -0.00000000000E+00 -0.45593999997E+02  0.45594000000E+02  0.51100000000E-03 0. -1.
    9900012    2    1    2    0    0 -0.29378736039E+02 -0.78022556123E+01 -0.96300918602E+01  0.59301890279E+02  0.49999901976E+02 0.  0.
         12    1    1    2    0    0  0.29378736039E+02  0.78022556123E+01  0.96300918602E+01  0.31886109721E+02  0.00000000000E+00 0. -1.
         11    1    3    3    0    0 -0.12727032291E+02  0.54965894836E+01 -0.99817793940E+01  0.17082908623E+02  0.51100000000E-03 0. -1.
        -11    1    3    3    0    0  0.21137061726E+00  0.79532728963E+01  0.10569259626E+02  0.13229076937E+02  0.51100000000E-03 0.  1.
        -12    1    3    3    0    0 -0.16863074365E+02 -0.21252117992E+02 -0.10217572092E+02  0.28989904720E+02  0.00000000000E+00 0.  1.
</event>
<event>
 7    1  0.6184948E-012  0.5930195E+02  0.7816164E-02  0.1266605E+00
        -11   -1    0    0    0    0  0.00000000000E+00  0.00000000000E+00  0.45593999997E+02  0.45594000000E+02  0.51100000000E-03 0.  1.
         11   -1    0    0    0    0 -0.00000000000E+00 -0.00000000000E+00 -0.45593999997E+02  0.45594000000E+02  0.51100000000E-03 0. -1.
    9900012    2    1    2    0    0 -0.70965347360E+01 -0.60738064505E+01  0.30487182024E+02  0.59301949793E+02  0.50000010514E+02 0.  0.
         12    1    1    2    0    0  0.70965347360E+01  0.60738064505E+01 -0.30487182024E+02  0.31886050207E+02  0.00000000000E+00 0. -1.
         11    1    3    3    0    0 -0.78115356373E+01 -0.14553493352E+02  0.16451448040E+01  0.16599119237E+02  0.51100000000E-03 0. -1.
        -11    1    3    3    0    0  0.11175593832E+02  0.57811809320E+01  0.74944878924E+00  0.12604666764E+02  0.51100000000E-03 0.  1.
         12    1    3    3    0    0 -0.10460592931E+02  0.26985059692E+01  0.28092588431E+02  0.30098163792E+02  0.00000000000E+00 0. -1.
</event>
<event>
 7    1  0.6184948E-012  0.5930193E+02  0.7816164E-02  0.1266605E+00
        -11   -1    0    0    0    0  0.00000000000E+00  0.00000000000E+00  0.45593999997E+02  0.45594000000E+02  0.51100000000E-03 0.  1.
         11   -1    0    0    0    0 -0.00000000000E+00 -0.00000000000E+00 -0.45593999997E+02  0.45594000000E+02  0.51100000000E-03 0. -1.
    9900012    2    1    2    0    0  0.30257242100E+02  0.95258270001E+01 -0.32371903664E+01  0.59301929671E+02  0.49999973817E+02 0.  0.
         12    1    1    2    0    0 -0.30257242100E+02 -0.95258270001E+01  0.32371903664E+01  0.31886070329E+02  0.00000000000E+00 0. -1.
         11    1    3    3    0    0  0.71597241069E+01 -0.25609007385E+01 -0.56662859760E+01  0.94829667775E+01  0.51100000000E-03 0.  1.
        -11    1    3    3    0    0  0.77071565223E+01 -0.10172414660E+02 -0.13369674361E+02  0.18483140276E+02  0.51100000000E-03 0. -1.
         12    1    3    3    0    0  0.15390361471E+02  0.22259142399E+02  0.15798769971E+02  0.31335822618E+02  0.00000000000E+00 0. -1.
</event>
<event>
 7    1  0.6184948E-012  0.5930189E+02  0.7816164E-02  0.1266605E+00
        -11   -1    0    0    0    0  0.00000000000E+00  0.00000000000E+00  0.45593999997E+02  0.45594000000E+02  0.51100000000E-03 0.  1.
         11   -1    0    0    0    0 -0.00000000000E+00 -0.00000000000E+00 -0.45593999997E+02  0.45594000000E+02  0.51100000000E-03 0. -1.
    9900012    2    1    2    0    0 -0.29346608427E+02 -0.12469125281E+02 -0.14659722342E+00  0.59301890137E+02  0.49999901717E+02 0.  0.
         12    1    1    2    0    0  0.29346608427E+02  0.12469125281E+02  0.14659722342E+00  0.31886109863E+02  0.00000000000E+00 0. -1.
         11    1    3    3    0    0  0.35108384175E+01  0.24786251044E+01  0.13728493881E+02  0.14385447970E+02  0.51100000000E-03 0. -1.
        -11    1    3    3    0    0 -0.96091288448E+01  0.50979694166E+00  0.53588180147E+01  0.11014180898E+02  0.51100000000E-03 0.  1.
         12    1    3    3    0    0 -0.23248317999E+02 -0.15457547327E+02 -0.19233909119E+02  0.33902261269E+02  0.00000000000E+00 0. -1.
</event>
<event>
 7    1  0.6184948E-012  0.5930199E+02  0.7816164E-02  0.1266605E+00
        -11   -1    0    0    0    0  0.00000000000E+00  0.00000000000E+00  0.45593999997E+02  0.45594000000E+02  0.51100000000E-03 0. -1.
         11   -1    0    0    0    0 -0.00000000000E+00 -0.00000000000E+00 -0.45593999997E+02  0.45594000000E+02  0.51100000000E-03 0.  1.
    9900012    2    1    2    0    0 -0.43686318517E+01 -0.13103438027E+02 -0.28739045837E+02  0.59301987580E+02  0.50000079429E+02 0.  0.
         12    1    1    2    0    0  0.43686318517E+01  0.13103438027E+02  0.28739045837E+02  0.31886012420E+02  0.00000000000E+00 0. -1.
         11    1    3    3    0    0 -0.14212265577E+02 -0.56095792556E+01 -0.79204678908E+00  0.15299778124E+02  0.51100000000E-03 0. -1.
        -11    1    3    3    0    0  0.15167937861E+01 -0.19322700604E+02 -0.17958649540E+02  0.26423105715E+02  0.51100000000E-03 0.  1.
         12    1    3    3    0    0  0.83268399392E+01  0.11828841833E+02 -0.99883495081E+01  0.17579103742E+02  0.00000000000E+00 0. -1.
</event>
<event>
 7    1  0.6184948E-012  0.5930193E+02  0.7816164E-02  0.1266605E+00
        -11   -1    0    0    0    0  0.00000000000E+00  0.00000000000E+00  0.45593999997E+02  0.45594000000E+02  0.51100000000E-03 0.  1.
         11   -1    0    0    0    0 -0.00000000000E+00 -0.00000000000E+00 -0.45593999997E+02  0.45594000000E+02  0.51100000000E-03 0. -1.
    9900012    2    1    2    0    0 -0.17759686991E+02 -0.62875434636E+01  0.25725113664E+02  0.59301934739E+02  0.49999983059E+02 0.  0.
         12    1    1    2    0    0  0.17759686991E+02  0.62875434636E+01 -0.25725113664E+02  0.31886065261E+02  0.00000000000E+00 0. -1.
         11    1    3    3    0    0 -0.55315454477E+01  0.71008773772E+01  0.31977212581E+01  0.95522707286E+01  0.51100000000E-03 0. -1.
        -11    1    3    3    0    0 -0.17743875848E+02  0.57088629378E+01  0.23322492431E+02  0.29855902257E+02  0.51100000000E-03 0.  1.
         12    1    3    3    0    0  0.55157343046E+01 -0.19097283779E+02 -0.79510002506E+00  0.19893761753E+02  0.00000000000E+00 0. -1.
</event>
<event>
 7    1  0.6184948E-012  0.5930188E+02  0.7816164E-02  0.1266605E+00
        -11   -1    0    0    0    0  0.00000000000E+00  0.00000000000E+00  0.45593999997E+02  0.45594000000E+02  0.51100000000E-03 0.  1.
         11   -1    0    0    0    0 -0.00000000000E+00 -0.00000000000E+00 -0.45593999997E+02  0.45594000000E+02  0.51100000000E-03 0. -1.
    9900012    2    1    2    0    0  0.22482871937E+02 -0.11668813116E+02  0.19367079618E+02  0.59301882284E+02  0.49999887394E+02 0.  0.
         12    1    1    2    0    0 -0.22482871937E+02  0.11668813116E+02 -0.19367079618E+02  0.31886117716E+02  0.00000000000E+00 0. -1.
         11    1    3    3    0    0  0.47748337832E+01  0.89191809277E+01 -0.66029961728E+01  0.12080992707E+02  0.51100000000E-03 0. -1.
        -11    1    3    3    0    0  0.99319491020E+01  0.44062679140E+01  0.15719971679E+02  0.19109587116E+02  0.51100000000E-03 0.  1.
        -12    1    3    3    0    0  0.77760890522E+01 -0.24994261957E+02  0.10250104112E+02  0.28111302461E+02  0.00000000000E+00 0.  1.
</event>
<event>
 7    1  0.6184948E-012  0.5930212E+02  0.7816164E-02  0.1266604E+00
        -11   -1    0    0    0    0  0.00000000000E+00  0.00000000000E+00  0.45593999997E+02  0.45594000000E+02  0.51100000000E-03 0. -1.
         11   -1    0    0    0    0 -0.00000000000E+00 -0.00000000000E+00 -0.45593999997E+02  0.45594000000E+02  0.51100000000E-03 0.  1.
    9900012    2    1    2    0    0  0.24670779676E+02  0.14953459694E+02 -0.13581454707E+02  0.59302121643E+02  0.50000323927E+02 0.  0.
         12    1    1    2    0    0 -0.24670779676E+02 -0.14953459694E+02  0.13581454707E+02  0.31885878357E+02  0.00000000000E+00 0. -1.
         11    1    3    3    0    0  0.56958635065E+01  0.58875561985E+01 -0.28372201529E+01  0.86692558812E+01  0.51100000000E-03 0. -1.
        -11    1    3    3    0    0  0.26248686837E+02  0.44798180590E+00 -0.22329994168E+02  0.34464806515E+02  0.51100000000E-03 0.  1.
         12    1    3    3    0    0 -0.72737706678E+01  0.86179216898E+01  0.11585759613E+02  0.16168059246E+02  0.00000000000E+00 0. -1.
</event>
<event>
 7    1  0.6184948E-012  0.5930192E+02  0.7816164E-02  0.1266605E+00
        -11   -1    0    0    0    0  0.00000000000E+00  0.00000000000E+00  0.45593999997E+02  0.45594000000E+02  0.51100000000E-03 0.  1.
         11   -1    0    0    0    0 -0.00000000000E+00 -0.00000000000E+00 -0.45593999997E+02  0.45594000000E+02  0.51100000000E-03 0. -1.
    9900012    2    1    2    0    0  0.18188088647E+02 -0.44542164738E+01  0.25808442838E+02  0.59301916284E+02  0.49999949402E+02 0.  0.
         12    1    1    2    0    0 -0.18188088647E+02  0.44542164738E+01 -0.25808442838E+02  0.31886083716E+02  0.00000000000E+00 0. -1.
         11    1    3    3    0    0  0.52623583840E+01 -0.24745611376E+01  0.61992073574E+01  0.84997670972E+01  0.51100000000E-03 0. -1.
        -11    1    3    3    0    0  0.23501202468E+02 -0.14243177487E+02  0.30636805563E+01  0.27650691875E+02  0.51100000000E-03 0.  1.
         12    1    3    3    0    0 -0.10575472205E+02  0.12263522151E+02  0.16545554924E+02  0.23151457312E+02  0.00000000000E+00 0. -1.
</event>
<event>
 7    1  0.6184948E-012  0.5930206E+02  0.7816164E-02  0.1266604E+00
        -11   -1    0    0    0    0  0.00000000000E+00  0.00000000000E+00  0.45593999997E+02  0.45594000000E+02  0.51100000000E-03 0. -1.
         11   -1    0    0    0    0 -0.00000000000E+00 -0.00000000000E+00 -0.45593999997E+02  0.45594000000E+02  0.51100000000E-03 0.  1.
    9900012    2    1    2    0    0 -0.21987748707E+02 -0.22407124740E+02  0.55832712509E+01  0.59302058738E+02  0.50000209204E+02 0.  0.
         12    1    1    2    0    0  0.21987748707E+02  0.22407124740E+02 -0.55832712509E+01  0.31885941262E+02  0.00000000000E+00 0. -1.
         11    1    3    3    0    0 -0.31215774909E+02 -0.12762578872E+02  0.16630756515E+02  0.37601729815E+02  0.51100000000E-03 0. -1.
        -11    1    3    3    0    0 -0.33707582129E+01 -0.21067969206E+01 -0.27845296178E+01  0.48532679349E+01  0.51100000000E-03 0.  1.
        -12    1    3    3    0    0  0.12598784415E+02 -0.75377489475E+01 -0.82629556459E+01  0.16847060988E+02  0.00000000000E+00 0.  1.
</event>
<event>
 7    1  0.6184948E-012  0.5930190E+02  0.7816164E-02  0.1266605E+00
        -11   -1    0    0    0    0  0.00000000000E+00  0.00000000000E+00  0.45593999997E+02  0.45594000000E+02  0.51100000000E-03 0.  1.
         11   -1    0    0    0    0 -0.00000000000E+00 -0.00000000000E+00 -0.45593999997E+02  0.45594000000E+02  0.51100000000E-03 0. -1.
    9900012    2    1    2    0    0  0.17480131339E+02 -0.25216082490E+02 -0.86785697693E+01  0.59301899877E+02  0.49999919480E+02 0.  0.
         12    1    1    2    0    0 -0.17480131339E+02  0.25216082490E+02  0.86785697693E+01  0.31886100123E+02  0.00000000000E+00 0. -1.
         11    1    3    3    0    0  0.32369231868E+01  0.25945324179E+01  0.14725675112E+02  0.15298848910E+02  0.51100000000E-03 0. -1.
        -11    1    3    3    0    0 -0.15681361665E+01  0.20602090828E+01 -0.47234626660E+01  0.53865213561E+01  0.51100000000E-03 0.  1.
        -12    1    3    3    0    0  0.15811344319E+02 -0.29870823991E+02 -0.18680782216E+02  0.38616529612E+02  0.00000000000E+00 0.  1.
</event>
<event>
 7    1  0.6184948E-012  0.5930197E+02  0.7816164E-02  0.1266605E+00
        -11   -1    0    0    0    0  0.00000000000E+00  0.00000000000E+00  0.45593999997E+02  0.45594000000E+02  0.51100000000E-03 0.  1.
         11   -1    0    0    0    0 -0.00000000000E+00 -0.00000000000E+00 -0.45593999997E+02  0.45594000000E+02  0.51100000000E-03 0. -1.
    9900012    2    1    2    0    0 -0.12139690815E+02  0.91611443002E+01  0.28025349132E+02  0.59301970897E+02  0.50000049004E+02 0.  0.
         12    1    1    2    0    0  0.12139690815E+02 -0.91611443002E+01 -0.28025349132E+02  0.31886029103E+02  0.00000000000E+00 0. -1.
         11    1    3    3    0    0  0.56086584651E+00 -0.12325282131E+02  0.32504300893E+01  0.12759014309E+02  0.51100000000E-03 0. -1.
        -11    1    3    3    0    0 -0.31758980173E+01 -0.50561642612E+01  0.15892844405E+02  0.16977444707E+02  0.51100000000E-03 0.  1.
         12    1    3    3    0    0 -0.95246586443E+01  0.26542590692E+02  0.88820746380E+01  0.29565511882E+02  0.00000000000E+00 0. -1.
</event>
<event>
 7    1  0.6885524E-012  0.5930197E+02  0.7816164E-02  0.1266605E+00
        -11   -1    0    0    0    0  0.00000000000E+00  0.00000000000E+00  0.45593999997E+02  0.45594000000E+02  0.51100000000E-03 0. -1.
         11   -1    0    0    0    0 -0.00000000000E+00 -0.00000000000E+00 -0.45593999997E+02  0.45594000000E+02  0.51100000000E-03 0.  1.
    9900012    2    1    2    0    0 -0.13553217823E+02  0.71735233451E+01 -0.27956569455E+02  0.59301969733E+02  0.50000046880E+02 0.  0.
         12    1    1    2    0    0  0.13553217823E+02 -0.71735233451E+01  0.27956569455E+02  0.31886030267E+02  0.00000000000E+00 0. -1.
         11    1    3    3    0    0  0.52825470125E+01  0.99115763267E+01  0.30441298574E+01  0.11636639337E+02  0.51100000000E-03 0. -1.
        -11    1    3    3    0    0 -0.39766810971E+01 -0.14256586340E+02 -0.50885131662E+01  0.15651109007E+02  0.51100000000E-03 0.  1.
        -12    1    3    3    0    0 -0.14859083738E+02  0.11518533359E+02 -0.25912186146E+02  0.32014221389E+02  0.00000000000E+00 0.  1.
</event>
<event>
 7    1  0.6184948E-012  0.5930194E+02  0.7816164E-02  0.1266605E+00
        -11   -1    0    0    0    0  0.00000000000E+00  0.00000000000E+00  0.45593999997E+02  0.45594000000E+02  0.51100000000E-03 0.  1.
         11   -1    0    0    0    0 -0.00000000000E+00 -0.00000000000E+00 -0.45593999997E+02  0.45594000000E+02  0.51100000000E-03 0. -1.
    9900012    2    1    2    0    0  0.71243257502E+01  0.18294597692E+02  0.25125133377E+02  0.59301942713E+02  0.49999997602E+02 0.  0.
         12    1    1    2    0    0 -0.71243257502E+01 -0.18294597692E+02 -0.25125133377E+02  0.31886057287E+02  0.00000000000E+00 0. -1.
         11    1    3    3    0    0  0.65285585083E+00  0.22503255447E+02 -0.35359185739E+01  0.22788713147E+02  0.51100000000E-03 0. -1.
        -11    1    3    3    0    0 -0.72164244536E+01 -0.90067998692E+00  0.16004931762E+02  0.17579699864E+02  0.51100000000E-03 0.  1.
        -12    1    3    3    0    0  0.13687894353E+02 -0.33079777683E+01  0.12656120189E+02  0.18933529702E+02  0.00000000000E+00 0.  1.
</event>
<event>
 7    1  0.6184948E-012  0.5930194E+02  0.7816164E-02  0.1266605E+00
        -11   -1    0    0    0    0  0.00000000000E+00  0.00000000000E+00  0.45593999997E+02  0.45594000000E+02  0.51100000000E-03 0.  1.
         11   -1    0    0    0    0 -0.00000000000E+00 -0.00000000000E+00 -0.45593999997E+02  0.45594000000E+02  0.51100000000E-03 0. -1.
    9900012    2    1    2    0    0  0.28576180121E+02  0.10186588430E+02 -0.98161149219E+01  0.59301940879E+02  0.49999994257E+02 0.  0.
         12    1    1    2    0    0 -0.28576180121E+02 -0.10186588430E+02  0.98161149219E+01  0.31886059121E+02  0.00000000000E+00 0. -1.
         11    1    3    3    0    0  0.15890587663E+02 -0.93745682328E+01  0.14392283684E+02  0.23399383234E+02  0.51100000000E-03 0.  1.
        -11    1    3    3    0    0  0.11975538429E+02  0.73494285038E+01 -0.15280559865E+02  0.20758688061E+02  0.51100000000E-03 0. -1.
        -12    1    3    3    0    0  0.71005402880E+00  0.12211728159E+02 -0.89278387415E+01  0.15143869583E+02  0.00000000000E+00 0.  1.
</event>
<event>
 7    1  0.6184948E-012  0.5930188E+02  0.7816164E-02  0.1266605E+00
        -11   -1    0    0    0    0  0.00000000000E+00  0.00000000000E+00  0.45593999997E+02  0.45594000000E+02  0.51100000000E-03 0.  1.
         11   -1    0    0    0    0 -0.00000000000E+00 -0.00000000000E+00 -0.45593999997E+02  0.45594000000E+02  0.51100000000E-03 0. -1.
    9900012    2    1    2    0    0 -0.27066943946E+02 -0.75123580504E+01  0.15088733391E+02  0.59301876790E+02  0.49999877374E+02 0.  0.
         12    1    1    2    0    0  0.27066943946E+02  0.75123580504E+01 -0.15088733391E+02  0.31886123210E+02  0.00000000000E+00 0. -1.
         11    1    3    3    0    0  0.13284366173E+01 -0.33718670764E+00  0.70228718659E+01  0.71553594059E+01  0.51100000000E-03 0. -1.
        -11    1    3    3    0    0  0.18465323872E+01  0.13420161801E+02  0.76457025414E+01  0.15555294669E+02  0.51100000000E-03 0.  1.
         12    1    3    3    0    0 -0.30241912950E+02 -0.20595333144E+02  0.42015898357E+00  0.36591222715E+02  0.00000000000E+00 0. -1.
</event>
<event>
 7    1  0.6184948E-012  0.5930194E+02  0.7816164E-02  0.1266605E+00
        -11   -1    0    0    0    0  0.00000000000E+00  0.00000000000E+00  0.45593999997E+02  0.45594000000E+02  0.51100000000E-03 0.  1.
         11   -1    0    0    0    0 -0.00000000000E+00 -0.00000000000E+00 -0.45593999997E+02  0.45594000000E+02  0.51100000000E-03 0. -1.
    9900012    2    1    2    0    0  0.13774696323E+02  0.27152012896E+02 -0.94734648135E+01  0.59301943507E+02  0.49999999050E+02 0.  0.
         12    1    1    2    0    0 -0.13774696323E+02 -0.27152012896E+02  0.94734648135E+01  0.31886056493E+02  0.00000000000E+00 0. -1.
         11    1    3    3    0    0  0.81704580637E+01  0.18144582847E+01 -0.19837256590E+02  0.21530568806E+02  0.51100000000E-03 0. -1.
        -11    1    3    3    0    0 -0.51983552872E+01  0.10865002377E+02 -0.59502735161E+01  0.13434170221E+02  0.51100000000E-03 0.  1.
         12    1    3    3    0    0  0.10802593547E+02  0.14472552234E+02  0.16314065293E+02  0.24337204480E+02  0.00000000000E+00 0. -1.
</event>
<event>
 7    1  0.6184948E-012  0.5930195E+02  0.7816164E-02  0.1266605E+00
        -11   -1    0    0    0    0  0.00000000000E+00  0.00000000000E+00  0.45593999997E+02  0.45594000000E+02  0.51100000000E-03 0.  1.
         11   -1    0    0    0    0 -0.00000000000E+00 -0.00000000000E+00 -0.45593999997E+02  0.45594000000E+02  0.51100000000E-03 0. -1.
    9900012    2    1    2    0    0  0.17852600435E+02  0.25442744770E+02  0.71184080548E+01  0.59301947611E+02  0.50000006535E+02 0.  0.
         12    1    1    2    0    0 -0.17852600435E+02 -0.25442744770E+02 -0.71184080548E+01  0.31886052389E+02  0.00000000000E+00 0. -1.
         11    1    3    3    0    0  0.52800903376E+01 -0.41128458170E+01 -0.72704510445E+01  0.98820196994E+01  0.51100000000E-03 0. -1.
        -11    1    3    3    0    0  0.10275238691E+01  0.80091922821E+01 -0.11345989786E+02  0.13926034999E+02  0.51100000000E-03 0.  1.
        -12    1    3    3    0    0  0.11544986228E+02  0.21546398305E+02  0.25734848886E+02  0.35493892912E+02  0.00000000000E+00 0.  1.
</event>
<event>
 7    1  0.6184948E-012  0.5930193E+02  0.7816164E-02  0.1266605E+00
        -11   -1    0    0    0    0  0.00000000000E+00  0.00000000000E+00  0.45593999997E+02  0.45594000000E+02  0.51100000000E-03 0. -1.
         11   -1    0    0    0    0 -0.00000000000E+00 -0.00000000000E+00 -0.45593999997E+02  0.45594000000E+02  0.51100000000E-03 0.  1.
    9900012    2    1    2    0    0 -0.17653996355E+02  0.20584476469E+02  0.16773113053E+02  0.59301928114E+02  0.49999970977E+02 0.  0.
         12    1    1    2    0    0  0.17653996355E+02 -0.20584476469E+02 -0.16773113053E+02  0.31886071886E+02  0.00000000000E+00 0. -1.
         11    1    3    3    0    0  0.28266223815E+01  0.21362532734E+02  0.53488924380E+01  0.22202663117E+02  0.51100000000E-03 0. -1.
        -11    1    3    3    0    0 -0.72961740016E+01 -0.12985267020E+02  0.11992258394E+02  0.19122384169E+02  0.51100000000E-03 0.  1.
         12    1    3    3    0    0 -0.13184444735E+02  0.12207210755E+02 -0.56803777843E+00  0.17976880828E+02  0.00000000000E+00 0. -1.
</event>
<event>
 7    1  0.6184948E-012  0.5930183E+02  0.7816164E-02  0.1266605E+00
        -11   -1    0    0    0    0  0.00000000000E+00  0.00000000000E+00  0.45593999997E+02  0.45594000000E+02  0.51100000000E-03 0. -1.
         11   -1    0    0    0    0 -0.00000000000E+00 -0.00000000000E+00 -0.45593999997E+02  0.45594000000E+02  0.51100000000E-03 0.  1.
    9900012    2    1    2    0    0  0.31268863260E+01  0.29143263905E+02 -0.12554702719E+02  0.59301830436E+02  0.49999792835E+02 0.  0.
         12    1    1    2    0    0 -0.31268863260E+01 -0.29143263905E+02  0.12554702719E+02  0.31886169564E+02  0.00000000000E+00 0. -1.
         11    1    3    3    0    0 -0.29798687384E+01  0.16966141666E+02  0.54057441357E+01  0.18054131124E+02  0.51100000000E-03 0. -1.
        -11    1    3    3    0    0 -0.57833900745E+01  0.21076944553E+02 -0.76024028955E+01  0.23140478009E+02  0.51100000000E-03 0.  1.
         12    1    3    3    0    0  0.11890145139E+02 -0.88998223140E+01 -0.10358043959E+02  0.18107221303E+02  0.00000000000E+00 0. -1.
</event>
<event>
 7    1  0.6184948E-012  0.5930199E+02  0.7816164E-02  0.1266605E+00
        -11   -1    0    0    0    0  0.00000000000E+00  0.00000000000E+00  0.45593999997E+02  0.45594000000E+02  0.51100000000E-03 0.  1.
         11   -1    0    0    0    0 -0.00000000000E+00 -0.00000000000E+00 -0.45593999997E+02  0.45594000000E+02  0.51100000000E-03 0. -1.
    9900012    2    1    2    0    0  0.19070229533E+02  0.19669288875E+02  0.16314507209E+02  0.59301988572E+02  0.50000081238E+02 0.  0.
         12    1    1    2    0    0 -0.19070229533E+02 -0.19669288875E+02 -0.16314507209E+02  0.31886011428E+02  0.00000000000E+00 0. -1.
         11    1    3    3    0    0  0.99284162802E+01  0.23520519107E+02  0.84082133822E+00  0.25543986566E+02  0.51100000000E-03 0. -1.
        -11    1    3    3    0    0  0.18415813457E+02 -0.38849634082E+01  0.44275138053E+01  0.19334890864E+02  0.51100000000E-03 0.  1.
         12    1    3    3    0    0 -0.92740002041E+01  0.33733176436E-01  0.11046172065E+02  0.14423111142E+02  0.00000000000E+00 0. -1.
</event>
<event>
 7    1  0.6184948E-012  0.5930196E+02  0.7816164E-02  0.1266605E+00
        -11   -1    0    0    0    0  0.00000000000E+00  0.00000000000E+00  0.45593999997E+02  0.45594000000E+02  0.51100000000E-03 0. -1.
         11   -1    0    0    0    0 -0.00000000000E+00 -0.00000000000E+00 -0.45593999997E+02  0.45594000000E+02  0.51100000000E-03 0.  1.
    9900012    2    1    2    0    0 -0.18451152818E+02  0.67615651811E+01 -0.25110873357E+02  0.59301956584E+02  0.50000022899E+02 0.  0.
         12    1    1    2    0    0  0.18451152818E+02 -0.67615651811E+01  0.25110873357E+02  0.31886043416E+02  0.00000000000E+00 0. -1.
         11    1    3    3    0    0  0.22073746745E+01 -0.70584158800E+01  0.59552719029E+01  0.94952093914E+01  0.51100000000E-03 0. -1.
        -11    1    3    3    0    0 -0.77681399670E+01 -0.33930007544E+01 -0.26499902227E+02  0.27822675482E+02  0.51100000000E-03 0.  1.
         12    1    3    3    0    0 -0.12890387525E+02  0.17212981815E+02 -0.45662430325E+01  0.21984071710E+02  0.00000000000E+00 0. -1.
</event>
<event>
 7    1  0.6184948E-012  0.5930196E+02  0.7816164E-02  0.1266605E+00
        -11   -1    0    0    0    0  0.00000000000E+00  0.00000000000E+00  0.45593999997E+02  0.45594000000E+02  0.51100000000E-03 0.  1.
         11   -1    0    0    0    0 -0.00000000000E+00 -0.00000000000E+00 -0.45593999997E+02  0.45594000000E+02  0.51100000000E-03 0. -1.
    9900012    2    1    2    0    0  0.13987312210E+02 -0.12871944902E+02  0.25600546332E+02  0.59301955389E+02  0.50000020721E+02 0.  0.
         12    1    1    2    0    0 -0.13987312210E+02  0.12871944902E+02 -0.25600546332E+02  0.31886044611E+02  0.00000000000E+00 0. -1.
         11    1    3    3    0    0 -0.71785313021E+01  0.22258395169E+01  0.11658388131E+02  0.13870965622E+02  0.51100000000E-03 0. -1.
        -11    1    3    3    0    0  0.47068095692E+01  0.75356808974E+01  0.14990951446E+02  0.17426105946E+02  0.51100000000E-03 0.  1.
        -12    1    3    3    0    0  0.16459033943E+02 -0.22633465316E+02 -0.10487932461E+01  0.28004883821E+02  0.00000000000E+00 0.  1.
</event>
<event>
 7    1  0.6184948E-012  0.5930193E+02  0.7816164E-02  0.1266605E+00
        -11   -1    0    0    0    0  0.00000000000E+00  0.00000000000E+00  0.45593999997E+02  0.45594000000E+02  0.51100000000E-03 0.  1.
         11   -1    0    0    0    0 -0.00000000000E+00 -0.00000000000E+00 -0.45593999997E+02  0.45594000000E+02  0.51100000000E-03 0. -1.
    9900012    2    1    2    0    0 -0.71447695724E+01 -0.92713308368E+01  0.29660011604E+02  0.59301927867E+02  0.49999970527E+02 0.  0.
         12    1    1    2    0    0  0.71447695724E+01  0.92713308368E+01 -0.29660011604E+02  0.31886072133E+02  0.00000000000E+00 0. -1.
         11    1    3    3    0    0 -0.13934136000E+02 -0.18827625172E+02  0.85668191164E+01  0.24940529379E+02  0.51100000000E-03 0. -1.
        -11    1    3    3    0    0 -0.26876026124E+01 -0.24855230755E+01 -0.37063741155E+01  0.52094377918E+01  0.51100000000E-03 0.  1.
        -12    1    3    3    0    0  0.94769690403E+01  0.12041817411E+02  0.24799566603E+02  0.29151960696E+02  0.00000000000E+00 0.  1.
</event>
<event>
 7    1  0.6184948E-012  0.5930192E+02  0.7816164E-02  0.1266605E+00
        -11   -1    0    0    0    0  0.00000000000E+00  0.00000000000E+00  0.45593999997E+02  0.45594000000E+02  0.51100000000E-03 0.  1.
         11   -1    0    0    0    0 -0.00000000000E+00 -0.00000000000E+00 -0.45593999997E+02  0.45594000000E+02  0.51100000000E-03 0. -1.
    9900012    2    1    2    0    0  0.11239954944E+02  0.27277059024E+02  0.12097410532E+02  0.59301923451E+02  0.49999962472E+02 0.  0.
         12    1    1    2    0    0 -0.11239954944E+02 -0.27277059024E+02 -0.12097410532E+02  0.31886076549E+02  0.00000000000E+00 0. -1.
         11    1    3    3    0    0 -0.14743606092E+02  0.71576192926E+01 -0.96314560766E+01  0.19009744368E+02  0.51100000000E-03 0. -1.
        -11    1    3    3    0    0  0.85201557460E+01  0.10949667628E+02  0.11781027963E+02  0.18201123461E+02  0.51100000000E-03 0.  1.
        -12    1    3    3    0    0  0.17463405290E+02  0.91697721035E+01  0.99478386456E+01  0.22091055621E+02  0.00000000000E+00 0.  1.
</event>
<event>
 7    1  0.6184948E-012  0.5930193E+02  0.7816164E-02  0.1266605E+00
        -11   -1    0    0    0    0  0.00000000000E+00  0.00000000000E+00  0.45593999997E+02  0.45594000000E+02  0.51100000000E-03 0.  1.
         11   -1    0    0    0    0 -0.00000000000E+00 -0.00000000000E+00 -0.45593999997E+02  0.45594000000E+02  0.51100000000E-03 0. -1.
    9900012    2    1    2    0    0 -0.84609010858E+01 -0.97657730484E+01  0.29150718592E+02  0.59301928357E+02  0.49999971420E+02 0.  0.
         12    1    1    2    0    0  0.84609010858E+01  0.97657730484E+01 -0.29150718592E+02  0.31886071643E+02  0.00000000000E+00 0. -1.
         11    1    3    3    0    0 -0.22475091758E+02 -0.11269139713E+02  0.20520050131E+02  0.32452977013E+02  0.51100000000E-03 0. -1.
        -11    1    3    3    0    0  0.90657131886E+00  0.54753546638E+01  0.11577775480E+02  0.12839247080E+02  0.51100000000E-03 0.  1.
        -12    1    3    3    0    0  0.13107619353E+02 -0.39719879993E+01 -0.29471070189E+01  0.14009704264E+02  0.00000000000E+00 0.  1.
</event>
<event>
 7    1  0.6184948E-012  0.5930200E+02  0.7816164E-02  0.1266605E+00
        -11   -1    0    0    0    0  0.00000000000E+00  0.00000000000E+00  0.45593999997E+02  0.45594000000E+02  0.51100000000E-03 0.  1.
         11   -1    0    0    0    0 -0.00000000000E+00 -0.00000000000E+00 -0.45593999997E+02  0.45594000000E+02  0.51100000000E-03 0. -1.
    9900012    2    1    2    0    0  0.31085725661E+02  0.47920660618E+01 -0.52374124720E+01  0.59302004227E+02  0.50000109789E+02 0.  0.
         12    1    1    2    0    0 -0.31085725661E+02 -0.47920660618E+01  0.52374124720E+01  0.31885995773E+02  0.00000000000E+00 0. -1.
         11    1    3    3    0    0  0.24876602947E+02 -0.17206173393E+02 -0.12350538795E+02  0.32671602131E+02  0.51100000000E-03 0. -1.
        -11    1    3    3    0    0 -0.15459950192E+01  0.31072340417E+01  0.50194988587E+01  0.61024890858E+01  0.51100000000E-03 0.  1.
        -12    1    3    3    0    0  0.77551177333E+01  0.18891005414E+02  0.20936274644E+01  0.20527913010E+02  0.00000000000E+00 0.  1.
</event>
<event>
 7    1  0.6184948E-012  0.5930196E+02  0.7816164E-02  0.1266605E+00
        -11   -1    0    0    0    0  0.00000000000E+00  0.00000000000E+00  0.45593999997E+02  0.45594000000E+02  0.51100000000E-03 0.  1.
         11   -1    0    0    0    0 -0.00000000000E+00 -0.00000000000E+00 -0.45593999997E+02  0.45594000000E+02  0.51100000000E-03 0. -1.
    9900012    2    1    2    0    0 -0.15697236463E+02 -0.47864881360E+01  0.27338728149E+02  0.59301956689E+02  0.50000023091E+02 0.  0.
         12    1    1    2    0    0  0.15697236463E+02  0.47864881360E+01 -0.27338728149E+02  0.31886043311E+02  0.00000000000E+00 0. -1.
         11    1    3    3    0    0 -0.63861065403E+01 -0.58071216661E+00  0.22975093126E+02  0.23853186114E+02  0.51100000000E-03 0. -1.
        -11    1    3    3    0    0 -0.56547394239E+01 -0.17872759767E+02  0.86790263422E+01  0.20657616468E+02  0.51100000000E-03 0.  1.
         12    1    3    3    0    0 -0.36563904984E+01  0.13666983797E+02 -0.43153913193E+01  0.14791154107E+02  0.00000000000E+00 0. -1.
</event>
<event>
 7    1  0.6184948E-012  0.5930197E+02  0.7816164E-02  0.1266605E+00
        -11   -1    0    0    0    0  0.00000000000E+00  0.00000000000E+00  0.45593999997E+02  0.45594000000E+02  0.51100000000E-03 0. -1.
         11   -1    0    0    0    0 -0.00000000000E+00 -0.00000000000E+00 -0.45593999997E+02  0.45594000000E+02  0.51100000000E-03 0.  1.
    9900012    2    1    2    0    0 -0.26834089644E+02  0.12388042442E+01 -0.17178933052E+02  0.59301972593E+02  0.50000052096E+02 0.  0.
         12    1    1    2    0    0  0.26834089644E+02 -0.12388042442E+01  0.17178933052E+02  0.31886027407E+02  0.00000000000E+00 0. -1.
         11    1    3    3    0    0  0.58506193836E+00 -0.40256704533E+01 -0.24847301973E+01  0.47667813548E+01  0.51100000000E-03 0. -1.
        -11    1    3    3    0    0 -0.21134705521E+02  0.28224868451E+01  0.13704768795E+02  0.25346851825E+02  0.51100000000E-03 0.  1.
         12    1    3    3    0    0 -0.62844460619E+01  0.24419878523E+01 -0.28398971649E+02  0.29188339413E+02  0.00000000000E+00 0. -1.
</event>
<event>
 7    1  0.6184948E-012  0.5930193E+02  0.7816164E-02  0.1266605E+00
        -11   -1    0    0    0    0  0.00000000000E+00  0.00000000000E+00  0.45593999997E+02  0.45594000000E+02  0.51100000000E-03 0.  1.
         11   -1    0    0    0    0 -0.00000000000E+00 -0.00000000000E+00 -0.45593999997E+02  0.45594000000E+02  0.51100000000E-03 0. -1.
    9900012    2    1    2    0    0 -0.19165418042E+01 -0.30034225318E+02  0.10535350546E+02  0.59301930408E+02  0.49999975160E+02 0.  0.
         12    1    1    2    0    0  0.19165418042E+01  0.30034225318E+02 -0.10535350546E+02  0.31886069592E+02  0.00000000000E+00 0. -1.
         11    1    3    3    0    0  0.48906367521E+01 -0.15171042970E+02  0.52378098272E+01  0.16778364780E+02  0.51100000000E-03 0.  1.
        -11    1    3    3    0    0  0.79852949925E+01 -0.17343270067E+02 -0.96108945883E+01  0.21375763092E+02  0.51100000000E-03 0. -1.
         12    1    3    3    0    0 -0.14792473549E+02  0.24800877190E+01  0.14908435307E+02  0.21147802536E+02  0.00000000000E+00 0. -1.
</event>
<event>
 7    1  0.6184948E-012  0.5930193E+02  0.7816164E-02  0.1266605E+00
        -11   -1    0    0    0    0  0.00000000000E+00  0.00000000000E+00  0.45593999997E+02  0.45594000000E+02  0.51100000000E-03 0.  1.
         11   -1    0    0    0    0 -0.00000000000E+00 -0.00000000000E+00 -0.45593999997E+02  0.45594000000E+02  0.51100000000E-03 0. -1.
    9900012    2    1    2    0    0  0.29374565790E+02  0.12308272217E+02 -0.15371794113E+01  0.59301927792E+02  0.49999970390E+02 0.  0.
         12    1    1    2    0    0 -0.29374565790E+02 -0.12308272217E+02  0.15371794113E+01  0.31886072208E+02  0.00000000000E+00 0. -1.
         11    1    3    3    0    0 -0.39932317382E+00 -0.57728909341E+01 -0.54664128148E+01  0.79603641912E+01  0.51100000000E-03 0. -1.
        -11    1    3    3    0    0  0.11186381852E+02  0.18827251441E+01  0.19228455304E+02  0.22325171591E+02  0.51100000000E-03 0.  1.
         12    1    3    3    0    0  0.18587507112E+02  0.16198438006E+02 -0.15299221901E+02  0.29016392010E+02  0.00000000000E+00 0. -1.
</event>
<event>
 7    1  0.6184948E-012  0.5930196E+02  0.7816164E-02  0.1266605E+00
        -11   -1    0    0    0    0  0.00000000000E+00  0.00000000000E+00  0.45593999997E+02  0.45594000000E+02  0.51100000000E-03 0.  1.
         11   -1    0    0    0    0 -0.00000000000E+00 -0.00000000000E+00 -0.45593999997E+02  0.45594000000E+02  0.51100000000E-03 0. -1.
    9900012    2    1    2    0    0  0.23282223825E+02  0.17098036758E+01  0.21719436020E+02  0.59301964250E+02  0.50000036881E+02 0.  0.
         12    1    1    2    0    0 -0.23282223825E+02 -0.17098036758E+01 -0.21719436020E+02  0.31886035750E+02  0.00000000000E+00 0. -1.
         11    1    3    3    0    0  0.15974538159E+01 -0.10281215789E+02 -0.65004316586E+01  0.12268287118E+02  0.51100000000E-03 0. -1.
        -11    1    3    3    0    0  0.11714225356E+01 -0.34795728108E+01  0.19588327667E+02  0.19929431471E+02  0.51100000000E-03 0.  1.
         12    1    3    3    0    0  0.20513347473E+02  0.15470592276E+02  0.86315400113E+01  0.27104245662E+02  0.00000000000E+00 0. -1.
</event>
<event>
 7    1  0.6184948E-012  0.5930196E+02  0.7816164E-02  0.1266605E+00
        -11   -1    0    0    0    0  0.00000000000E+00  0.00000000000E+00  0.45593999997E+02  0.45594000000E+02  0.51100000000E-03 0.  1.
         11   -1    0    0    0    0 -0.00000000000E+00 -0.00000000000E+00 -0.45593999997E+02  0.45594000000E+02  0.51100000000E-03 0. -1.
    9900012    2    1    2    0    0 -0.31506960940E+02  0.32596567452E+01 -0.36613287599E+01  0.59301964215E+02  0.50000036817E+02 0.  0.
         12    1    1    2    0    0  0.31506960940E+02 -0.32596567452E+01  0.36613287599E+01  0.31886035785E+02  0.00000000000E+00 0. -1.
         11    1    3    3    0    0 -0.13598963714E+02 -0.15053011386E+02 -0.17788740920E+02  0.26980812991E+02  0.51100000000E-03 0. -1.
        -11    1    3    3    0    0 -0.99776552670E+01  0.14278501094E+01  0.26617785101E+01  0.10424846553E+02  0.51100000000E-03 0.  1.
        -12    1    3    3    0    0 -0.79303419598E+01  0.16884818022E+02  0.11465633650E+02  0.21896304671E+02  0.00000000000E+00 0.  1.
</event>
<event>
 7    1  0.6184948E-012  0.5930202E+02  0.7816164E-02  0.1266605E+00
        -11   -1    0    0    0    0  0.00000000000E+00  0.00000000000E+00  0.45593999997E+02  0.45594000000E+02  0.51100000000E-03 0. -1.
         11   -1    0    0    0    0 -0.00000000000E+00 -0.00000000000E+00 -0.45593999997E+02  0.45594000000E+02  0.51100000000E-03 0.  1.
    9900012    2    1    2    0    0  0.10820707362E+02 -0.20779033794E+02 -0.21630070944E+02  0.59302016837E+02  0.50000132787E+02 0.  0.
         12    1    1    2    0    0 -0.10820707362E+02  0.20779033794E+02  0.21630070944E+02  0.31885983163E+02  0.00000000000E+00 0. -1.
         11    1    3    3    0    0  0.95333576588E+01  0.65220826996E+01  0.17700040024E+00  0.11552220583E+02  0.51100000000E-03 0. -1.
        -11    1    3    3    0    0  0.16576355015E+02 -0.12198541779E+02 -0.13971789682E+02  0.24875507519E+02  0.51100000000E-03 0.  1.
        -12    1    3    3    0    0 -0.15289005312E+02 -0.15102574714E+02 -0.78352816618E+01  0.22874288735E+02  0.00000000000E+00 0.  1.
</event>
<event>
 7    1  0.6184948E-012  0.5930194E+02  0.7816164E-02  0.1266605E+00
        -11   -1    0    0    0    0  0.00000000000E+00  0.00000000000E+00  0.45593999997E+02  0.45594000000E+02  0.51100000000E-03 0. -1.
         11   -1    0    0    0    0 -0.00000000000E+00 -0.00000000000E+00 -0.45593999997E+02  0.45594000000E+02  0.51100000000E-03 0.  1.
    9900012    2    1    2    0    0  0.22357902213E+01  0.14889438753E+02 -0.28107407867E+02  0.59301944721E+02  0.50000001264E+02 0.  0.
         12    1    1    2    0    0 -0.22357902213E+01 -0.14889438753E+02  0.28107407867E+02  0.31886055279E+02  0.00000000000E+00 0. -1.
         11    1    3    3    0    0  0.13339112968E+01 -0.10626983508E+02  0.17323866199E+01  0.10849574254E+02  0.51100000000E-03 0. -1.
        -11    1    3    3    0    0  0.14227301210E+02  0.86516203589E+01 -0.12103542189E+02  0.20585489266E+02  0.51100000000E-03 0.  1.
        -12    1    3    3    0    0 -0.13325422286E+02  0.16864801902E+02 -0.17736252298E+02  0.27866881201E+02  0.00000000000E+00 0.  1.
</event>
<event>
 7    1  0.6184948E-012  0.5930197E+02  0.7816164E-02  0.1266605E+00
        -11   -1    0    0    0    0  0.00000000000E+00  0.00000000000E+00  0.45593999997E+02  0.45594000000E+02  0.51100000000E-03 0. -1.
         11   -1    0    0    0    0 -0.00000000000E+00 -0.00000000000E+00 -0.45593999997E+02  0.45594000000E+02  0.51100000000E-03 0.  1.
    9900012    2    1    2    0    0  0.67571862924E+01  0.29998878887E+02  0.84336474432E+01  0.59301973119E+02  0.50000053055E+02 0.  0.
         12    1    1    2    0    0 -0.67571862924E+01 -0.29998878887E+02 -0.84336474432E+01  0.31886026881E+02  0.00000000000E+00 0. -1.
         11    1    3    3    0    0 -0.82199701839E+01  0.20508482393E+02  0.11171343285E+02  0.24758123332E+02  0.51100000000E-03 0. -1.
        -11    1    3    3    0    0  0.14834665521E+02  0.21747260067E+00  0.10646248033E+02  0.18260810303E+02  0.51100000000E-03 0.  1.
        -12    1    3    3    0    0  0.14249095481E+00  0.92729238932E+01 -0.13383943874E+02  0.16283039484E+02  0.00000000000E+00 0.  1.
</event>
<event>
 7    1  0.6184948E-012  0.5930196E+02  0.7816164E-02  0.1266605E+00
        -11   -1    0    0    0    0  0.00000000000E+00  0.00000000000E+00  0.45593999997E+02  0.45594000000E+02  0.51100000000E-03 0.  1.
         11   -1    0    0    0    0 -0.00000000000E+00 -0.00000000000E+00 -0.45593999997E+02  0.45594000000E+02  0.51100000000E-03 0. -1.
    9900012    2    1    2    0    0 -0.16092209569E+02  0.27144493495E+02  0.45756609572E+01  0.59301962161E+02  0.50000033071E+02 0.  0.
         12    1    1    2    0    0  0.16092209569E+02 -0.27144493495E+02 -0.45756609572E+01  0.31886037839E+02  0.00000000000E+00 0. -1.
         11    1    3    3    0    0 -0.11841387938E+02  0.20912680801E+01 -0.13504849653E+01  0.12100234724E+02  0.51100000000E-03 0. -1.
        -11    1    3    3    0    0 -0.21815184049E+02  0.12808021912E+02  0.15287041343E+01  0.25343334764E+02  0.51100000000E-03 0.  1.
         12    1    3    3    0    0  0.17564362418E+02  0.12245203502E+02  0.43974417882E+01  0.21858392673E+02  0.00000000000E+00 0. -1.
</event>
<event>
 7    1  0.6184948E-012  0.5930196E+02  0.7816164E-02  0.1266605E+00
        -11   -1    0    0    0    0  0.00000000000E+00  0.00000000000E+00  0.45593999997E+02  0.45594000000E+02  0.51100000000E-03 0.  1.
         11   -1    0    0    0    0 -0.00000000000E+00 -0.00000000000E+00 -0.45593999997E+02  0.45594000000E+02  0.51100000000E-03 0. -1.
    9900012    2    1    2    0    0 -0.37330215906E+01 -0.11953625067E+02  0.29323963477E+02  0.59301961732E+02  0.50000032288E+02 0.  0.
         12    1    1    2    0    0  0.37330215906E+01  0.11953625067E+02 -0.29323963477E+02  0.31886038268E+02  0.00000000000E+00 0. -1.
         11    1    3    3    0    0 -0.24165333636E+00 -0.14184835655E+02  0.13398955381E+02  0.19514096557E+02  0.51100000000E-03 0. -1.
        -11    1    3    3    0    0 -0.16683446861E+02 -0.19735417676E+01  0.19248386780E+02  0.25548633235E+02  0.51100000000E-03 0.  1.
        -12    1    3    3    0    0  0.13192078607E+02  0.42047523557E+01 -0.33233786841E+01  0.14239231939E+02  0.00000000000E+00 0.  1.
</event>
<event>
 7    1  0.6184948E-012  0.5930196E+02  0.7816164E-02  0.1266605E+00
        -11   -1    0    0    0    0  0.00000000000E+00  0.00000000000E+00  0.45593999997E+02  0.45594000000E+02  0.51100000000E-03 0. -1.
         11   -1    0    0    0    0 -0.00000000000E+00 -0.00000000000E+00 -0.45593999997E+02  0.45594000000E+02  0.51100000000E-03 0.  1.
    9900012    2    1    2    0    0  0.11487577093E+02  0.18643068275E+02 -0.23177389803E+02  0.59301955714E+02  0.50000021313E+02 0.  0.
         12    1    1    2    0    0 -0.11487577093E+02 -0.18643068275E+02  0.23177389803E+02  0.31886044286E+02  0.00000000000E+00 0. -1.
         11    1    3    3    0    0 -0.10469594625E+02  0.78764575908E+01  0.43999891249E+01  0.13820669316E+02  0.51100000000E-03 0. -1.
        -11    1    3    3    0    0  0.17843510858E+02  0.17766737621E+01 -0.19796172062E+01  0.18040685518E+02  0.51100000000E-03 0.  1.
        -12    1    3    3    0    0  0.41136608589E+01  0.89899369220E+01 -0.25597761721E+02  0.27440600880E+02  0.00000000000E+00 0.  1.
</event>
<event>
 7    1  0.6184948E-012  0.5930190E+02  0.7816164E-02  0.1266605E+00
        -11   -1    0    0    0    0  0.00000000000E+00  0.00000000000E+00  0.45593999997E+02  0.45594000000E+02  0.51100000000E-03 0.  1.
         11   -1    0    0    0    0 -0.00000000000E+00 -0.00000000000E+00 -0.45593999997E+02  0.45594000000E+02  0.51100000000E-03 0. -1.
    9900012    2    1    2    0    0 -0.93144491308E+01  0.30489106157E+02  0.61534307563E+00  0.59301902654E+02  0.49999924543E+02 0.  0.
         12    1    1    2    0    0  0.93144491308E+01 -0.30489106157E+02 -0.61534307563E+00  0.31886097346E+02  0.00000000000E+00 0. -1.
         11    1    3    3    0    0 -0.10212006414E+02 -0.25842379237E+01 -0.16290832487E+02  0.19399860412E+02  0.51100000000E-03 0. -1.
        -11    1    3    3    0    0  0.41776877719E+01  0.53070469334E+01 -0.80978561233E+00  0.68024683220E+01  0.51100000000E-03 0.  1.
        -12    1    3    3    0    0 -0.32801304891E+01  0.27766297148E+02  0.17715961175E+02  0.33099573920E+02  0.00000000000E+00 0.  1.
</event>
<event>
 7    1  0.6184948E-012  0.5930198E+02  0.7816164E-02  0.1266605E+00
        -11   -1    0    0    0    0  0.00000000000E+00  0.00000000000E+00  0.45593999997E+02  0.45594000000E+02  0.51100000000E-03 0.  1.
         11   -1    0    0    0    0 -0.00000000000E+00 -0.00000000000E+00 -0.45593999997E+02  0.45594000000E+02  0.51100000000E-03 0. -1.
    9900012    2    1    2    0    0 -0.54103534425E+01 -0.31262791351E+02  0.31755908149E+01  0.59301977601E+02  0.50000061229E+02 0.  0.
         12    1    1    2    0    0  0.54103534425E+01  0.31262791351E+02 -0.31755908149E+01  0.31886022399E+02  0.00000000000E+00 0. -1.
         11    1    3    3    0    0 -0.48232721925E+01  0.39557731988E+01  0.25014199438E+01  0.67208033924E+01  0.51100000000E-03 0. -1.
        -11    1    3    3    0    0 -0.19456620379E+02 -0.15594642900E+02 -0.29815895678E+01  0.25112603218E+02  0.51100000000E-03 0.  1.
         12    1    3    3    0    0  0.18869539129E+02 -0.19623921650E+02  0.36557604389E+01  0.27468570990E+02  0.00000000000E+00 0. -1.
</event>
<event>
 7    1  0.6184948E-012  0.5930194E+02  0.7816164E-02  0.1266605E+00
        -11   -1    0    0    0    0  0.00000000000E+00  0.00000000000E+00  0.45593999997E+02  0.45594000000E+02  0.51100000000E-03 0. -1.
         11   -1    0    0    0    0 -0.00000000000E+00 -0.00000000000E+00 -0.45593999997E+02  0.45594000000E+02  0.51100000000E-03 0.  1.
    9900012    2    1    2    0    0 -0.30768061606E+02  0.32621429190E+01  0.77074874064E+01  0.59301944215E+02  0.50000000342E+02 0.  0.
         12    1    1    2    0    0  0.30768061606E+02 -0.32621429190E+01 -0.77074874064E+01  0.31886055785E+02  0.00000000000E+00 0. -1.
         11    1    3    3    0    0 -0.18250498255E+02 -0.46544829782E+01 -0.82806310004E+01  0.20574589871E+02  0.51100000000E-03 0.  1.
        -11    1    3    3    0    0 -0.23083242244E+02  0.85956073831E+01  0.10190695068E+02  0.26656534002E+02  0.51100000000E-03 0. -1.
        -12    1    3    3    0    0  0.10565678894E+02 -0.67898148585E+00  0.57974233394E+01  0.12070820341E+02  0.00000000000E+00 0.  1.
</event>
<event>
 7    1  0.6184948E-012  0.5930198E+02  0.7816164E-02  0.1266605E+00
        -11   -1    0    0    0    0  0.00000000000E+00  0.00000000000E+00  0.45593999997E+02  0.45594000000E+02  0.51100000000E-03 0. -1.
         11   -1    0    0    0    0 -0.00000000000E+00 -0.00000000000E+00 -0.45593999997E+02  0.45594000000E+02  0.51100000000E-03 0.  1.
    9900012    2    1    2    0    0  0.22118551666E+02  0.18669222803E+02  0.13377156123E+02  0.59301976199E+02  0.50000058673E+02 0.  0.
         12    1    1    2    0    0 -0.22118551666E+02 -0.18669222803E+02 -0.13377156123E+02  0.31886023801E+02  0.00000000000E+00 0. -1.
         11    1    3    3    0    0  0.60761681972E+01  0.27541612787E+01  0.17785389600E+02  0.18995402281E+02  0.51100000000E-03 0. -1.
        -11    1    3    3    0    0 -0.42869258964E+01 -0.30731265106E+01 -0.10571339883E+02  0.11814189239E+02  0.51100000000E-03 0.  1.
         12    1    3    3    0    0  0.20329309365E+02  0.18988188035E+02  0.61631064068E+01  0.28492384679E+02  0.00000000000E+00 0. -1.
</event>
<event>
 7    1  0.6184948E-012  0.5930195E+02  0.7816164E-02  0.1266605E+00
        -11   -1    0    0    0    0  0.00000000000E+00  0.00000000000E+00  0.45593999997E+02  0.45594000000E+02  0.51100000000E-03 0.  1.
         11   -1    0    0    0    0 -0.00000000000E+00 -0.00000000000E+00 -0.45593999997E+02  0.45594000000E+02  0.51100000000E-03 0. -1.
    9900012    2    1    2    0    0  0.25664927326E+02  0.12656771396E+02 -0.14065493279E+02  0.59301945713E+02  0.50000003074E+02 0.  0.
         12    1    1    2    0    0 -0.25664927326E+02 -0.12656771396E+02  0.14065493279E+02  0.31886054287E+02  0.00000000000E+00 0. -1.
         11    1    3    3    0    0  0.19337467161E+02 -0.84150329064E+01 -0.40422267638E+01  0.21473006601E+02  0.51100000000E-03 0. -1.
        -11    1    3    3    0    0  0.14726482861E+02  0.14946000949E+02  0.29672420990E+01  0.21190959576E+02  0.51100000000E-03 0.  1.
         12    1    3    3    0    0 -0.83990226965E+01  0.61258033537E+01 -0.12990508614E+02  0.16637979536E+02  0.00000000000E+00 0. -1.
</event>
<event>
 7    1  0.6184948E-012  0.5930195E+02  0.7816164E-02  0.1266605E+00
        -11   -1    0    0    0    0  0.00000000000E+00  0.00000000000E+00  0.45593999997E+02  0.45594000000E+02  0.51100000000E-03 0.  1.
         11   -1    0    0    0    0 -0.00000000000E+00 -0.00000000000E+00 -0.45593999997E+02  0.45594000000E+02  0.51100000000E-03 0. -1.
    9900012    2    1    2    0    0 -0.30301602172E+02  0.23612755496E+01 -0.96414450311E+01  0.59301950093E+02  0.50000011061E+02 0.  0.
         12    1    1    2    0    0  0.30301602172E+02 -0.23612755496E+01  0.96414450311E+01  0.31886049907E+02  0.00000000000E+00 0. -1.
         11    1    3    3    0    0  0.42200009723E+01  0.84873330825E+01 -0.25424846110E+01  0.98136363962E+01  0.51100000000E-03 0. -1.
        -11    1    3    3    0    0 -0.16930385692E+02 -0.83761249084E+01  0.12812202141E+02  0.22824328076E+02  0.51100000000E-03 0.  1.
        -12    1    3    3    0    0 -0.17591217452E+02  0.22500673755E+01 -0.19911162561E+02  0.26663985621E+02  0.00000000000E+00 0.  1.
</event>
<event>
 7    1  0.6184948E-012  0.5930193E+02  0.7816164E-02  0.1266605E+00
        -11   -1    0    0    0    0  0.00000000000E+00  0.00000000000E+00  0.45593999997E+02  0.45594000000E+02  0.51100000000E-03 0. -1.
         11   -1    0    0    0    0 -0.00000000000E+00 -0.00000000000E+00 -0.45593999997E+02  0.45594000000E+02  0.51100000000E-03 0.  1.
    9900012    2    1    2    0    0 -0.14904408821E+02 -0.26087374545E+02 -0.10678436680E+02  0.59301929015E+02  0.49999972620E+02 0.  0.
         12    1    1    2    0    0  0.14904408821E+02  0.26087374545E+02  0.10678436680E+02  0.31886070985E+02  0.00000000000E+00 0. -1.
         11    1    3    3    0    0  0.42188490258E+01 -0.42858191891E+01 -0.12543001378E+02  0.13910205500E+02  0.51100000000E-03 0. -1.
        -11    1    3    3    0    0 -0.14411022522E+02 -0.21996325923E+02 -0.13329832594E+02  0.29482204149E+02  0.51100000000E-03 0.  1.
        -12    1    3    3    0    0 -0.47122353248E+01  0.19477056736E+00  0.15194397293E+02  0.15909519365E+02  0.00000000000E+00 0.  1.
</event>
<event>
 7    1  0.6184948E-012  0.5930195E+02  0.7816164E-02  0.1266605E+00
        -11   -1    0    0    0    0  0.00000000000E+00  0.00000000000E+00  0.45593999997E+02  0.45594000000E+02  0.51100000000E-03 0.  1.
         11   -1    0    0    0    0 -0.00000000000E+00 -0.00000000000E+00 -0.45593999997E+02  0.45594000000E+02  0.51100000000E-03 0. -1.
    9900012    2    1    2    0    0  0.19379516453E+02  0.68360008961E+01 -0.24380803928E+02  0.59301950285E+02  0.50000011413E+02 0.  0.
         12    1    1    2    0    0 -0.19379516453E+02 -0.68360008961E+01  0.24380803928E+02  0.31886049715E+02  0.00000000000E+00 0. -1.
         11    1    3    3    0    0  0.53260649442E+01 -0.10898723621E+02 -0.23766390352E+02  0.26683149271E+02  0.51100000000E-03 0. -1.
        -11    1    3    3    0    0 -0.54114544690E+01  0.69770316745E+01  0.43326630652E+01  0.98353840777E+01  0.51100000000E-03 0.  1.
        -12    1    3    3    0    0  0.19464905978E+02  0.10757692843E+02 -0.49470766412E+01  0.22783416937E+02  0.00000000000E+00 0.  1.
</event>
<event>
 7    1  0.6184948E-012  0.5930190E+02  0.7816164E-02  0.1266605E+00
        -11   -1    0    0    0    0  0.00000000000E+00  0.00000000000E+00  0.45593999997E+02  0.45594000000E+02  0.51100000000E-03 0. -1.
         11   -1    0    0    0    0 -0.00000000000E+00 -0.00000000000E+00 -0.45593999997E+02  0.45594000000E+02  0.51100000000E-03 0.  1.
    9900012    2    1    2    0    0 -0.31682275340E+02 -0.31836413004E+01 -0.16795670207E+01  0.59301904472E+02  0.49999927860E+02 0.  0.
         12    1    1    2    0    0  0.31682275340E+02  0.31836413004E+01  0.16795670207E+01  0.31886095528E+02  0.00000000000E+00 0. -1.
         11    1    3    3    0    0 -0.58585837523E+01  0.81221235534E+01 -0.95202077250E+01  0.13817606522E+02  0.51100000000E-03 0.  1.
        -11    1    3    3    0    0 -0.29906035149E+02 -0.65124685623E+01 -0.51604464289E+01  0.31038901281E+02  0.51100000000E-03 0. -1.
         12    1    3    3    0    0  0.40823435615E+01 -0.47932962916E+01  0.13001087133E+02  0.14445396670E+02  0.00000000000E+00 0. -1.
</event>
<event>
 7    1  0.6184948E-012  0.5930196E+02  0.7816164E-02  0.1266605E+00
        -11   -1    0    0    0    0  0.00000000000E+00  0.00000000000E+00  0.45593999997E+02  0.45594000000E+02  0.51100000000E-03 0.  1.
         11   -1    0    0    0    0 -0.00000000000E+00 -0.00000000000E+00 -0.45593999997E+02  0.45594000000E+02  0.51100000000E-03 0. -1.
    9900012    2    1    2    0    0  0.81962523555E+01 -0.29872369315E+02  0.75619212848E+01  0.59301958309E+02  0.50000026046E+02 0.  0.
         12    1    1    2    0    0 -0.81962523555E+01  0.29872369315E+02 -0.75619212848E+01  0.31886041691E+02  0.00000000000E+00 0. -1.
         11    1    3    3    0    0 -0.12386207087E+02 -0.14854653797E+02 -0.70088905472E+01  0.20571908331E+02  0.51100000000E-03 0. -1.
        -11    1    3    3    0    0  0.47052890960E+00  0.58756704240E+01  0.61796252839E+01  0.85400626050E+01  0.51100000000E-03 0.  1.
        -12    1    3    3    0    0  0.20111930533E+02 -0.20893385943E+02  0.83911865480E+01  0.30189987373E+02  0.00000000000E+00 0.  1.
</event>
<event>
 7    1  0.6184948E-012  0.5930196E+02  0.7816164E-02  0.1266605E+00
        -11   -1    0    0    0    0  0.00000000000E+00  0.00000000000E+00  0.45593999997E+02  0.45594000000E+02  0.51100000000E-03 0. -1.
         11   -1    0    0    0    0 -0.00000000000E+00 -0.00000000000E+00 -0.45593999997E+02  0.45594000000E+02  0.51100000000E-03 0.  1.
    9900012    2    1    2    0    0  0.76668024232E+01  0.20171274373E+02  0.23474649601E+02  0.59301963195E+02  0.50000034957E+02 0.  0.
         12    1    1    2    0    0 -0.76668024232E+01 -0.20171274373E+02 -0.23474649601E+02  0.31886036805E+02  0.00000000000E+00 0. -1.
         11    1    3    3    0    0  0.11914439798E+02  0.87617289912E+01  0.30461897622E+02  0.33862205741E+02  0.51100000000E-03 0. -1.
        -11    1    3    3    0    0 -0.20229143343E+01  0.15053354706E+02  0.21636014969E+01  0.15341996025E+02  0.51100000000E-03 0.  1.
        -12    1    3    3    0    0 -0.22247230406E+01 -0.36438093248E+01 -0.91508495176E+01  0.10097761430E+02  0.00000000000E+00 0.  1.
</event>
<event>
 7    1  0.6184948E-012  0.5930198E+02  0.7816164E-02  0.1266605E+00
        -11   -1    0    0    0    0  0.00000000000E+00  0.00000000000E+00  0.45593999997E+02  0.45594000000E+02  0.51100000000E-03 0. -1.
         11   -1    0    0    0    0 -0.00000000000E+00 -0.00000000000E+00 -0.45593999997E+02  0.45594000000E+02  0.51100000000E-03 0.  1.
    9900012    2    1    2    0    0  0.22117321722E+01  0.18802259110E+02 -0.25657389622E+02  0.59301978783E+02  0.50000063385E+02 0.  0.
         12    1    1    2    0    0 -0.22117321722E+01 -0.18802259110E+02  0.25657389622E+02  0.31886021217E+02  0.00000000000E+00 0. -1.
         11    1    3    3    0    0  0.87502270091E+01 -0.23759409917E+01 -0.31233251368E+01  0.95899284918E+01  0.51100000000E-03 0. -1.
        -11    1    3    3    0    0 -0.12872243349E+02 -0.52067646581E+01  0.82233933306E+00  0.13909755184E+02  0.51100000000E-03 0.  1.
        -12    1    3    3    0    0  0.63337485123E+01  0.26384964760E+02 -0.23356403818E+02  0.35802295107E+02  0.00000000000E+00 0.  1.
</event>
<event>
 7    1  0.6184948E-012  0.5930195E+02  0.7816164E-02  0.1266605E+00
        -11   -1    0    0    0    0  0.00000000000E+00  0.00000000000E+00  0.45593999997E+02  0.45594000000E+02  0.51100000000E-03 0.  1.
         11   -1    0    0    0    0 -0.00000000000E+00 -0.00000000000E+00 -0.45593999997E+02  0.45594000000E+02  0.51100000000E-03 0. -1.
    9900012    2    1    2    0    0 -0.17224080946E+02 -0.79059429161E+01  0.25642683744E+02  0.59301950896E+02  0.50000012527E+02 0.  0.
         12    1    1    2    0    0  0.17224080946E+02  0.79059429161E+01 -0.25642683744E+02  0.31886049104E+02  0.00000000000E+00 0. -1.
         11    1    3    3    0    0  0.53453192970E+00  0.11797030918E+02 -0.11372979063E+01  0.11863772994E+02  0.51100000000E-03 0. -1.
        -11    1    3    3    0    0 -0.81756936561E+01  0.63712607540E+01  0.27907451863E+01  0.10734206506E+02  0.51100000000E-03 0.  1.
        -12    1    3    3    0    0 -0.95829192192E+01 -0.26074234588E+02  0.23989236464E+02  0.36703971396E+02  0.00000000000E+00 0.  1.
</event>
<event>
 7    1  0.6184948E-012  0.5930192E+02  0.7816164E-02  0.1266605E+00
        -11   -1    0    0    0    0  0.00000000000E+00  0.00000000000E+00  0.45593999997E+02  0.45594000000E+02  0.51100000000E-03 0. -1.
         11   -1    0    0    0    0 -0.00000000000E+00 -0.00000000000E+00 -0.45593999997E+02  0.45594000000E+02  0.51100000000E-03 0.  1.
    9900012    2    1    2    0    0  0.13291265490E+02  0.28968648398E+02 -0.93913672508E+00  0.59301916733E+02  0.49999950220E+02 0.  0.
         12    1    1    2    0    0 -0.13291265490E+02 -0.28968648398E+02  0.93913672508E+00  0.31886083267E+02  0.00000000000E+00 0. -1.
         11    1    3    3    0    0  0.16796555148E+02  0.13653792491E+02  0.81994185353E+01  0.23146938864E+02  0.51100000000E-03 0. -1.
        -11    1    3    3    0    0 -0.30009247752E+01  0.23880765795E+02 -0.12276230865E+02  0.27018556012E+02  0.51100000000E-03 0.  1.
        -12    1    3    3    0    0 -0.50436488260E+00 -0.85659098878E+01  0.31376756042E+01  0.91364218564E+01  0.00000000000E+00 0.  1.
</event>
<event>
 7    1  0.6184948E-012  0.5930193E+02  0.7816164E-02  0.1266605E+00
        -11   -1    0    0    0    0  0.00000000000E+00  0.00000000000E+00  0.45593999997E+02  0.45594000000E+02  0.51100000000E-03 0.  1.
         11   -1    0    0    0    0 -0.00000000000E+00 -0.00000000000E+00 -0.45593999997E+02  0.45594000000E+02  0.51100000000E-03 0. -1.
    9900012    2    1    2    0    0  0.57730394050E+00  0.31396799666E+02  0.55343423430E+01  0.59301933226E+02  0.49999980301E+02 0.  0.
         12    1    1    2    0    0 -0.57730394050E+00 -0.31396799666E+02 -0.55343423430E+01  0.31886066774E+02  0.00000000000E+00 0. -1.
         11    1    3    3    0    0  0.88695022238E+01  0.89389877571E+01  0.10307012051E+01  0.12634710802E+02  0.51100000000E-03 0.  1.
        -11    1    3    3    0    0  0.13613062397E+02 -0.17263847046E+01 -0.41845753679E-01  0.13722158114E+02  0.51100000000E-03 0. -1.
        -12    1    3    3    0    0 -0.21905260680E+02  0.24184196614E+02  0.45454868917E+01  0.32945064310E+02  0.00000000000E+00 0.  1.
</event>
<event>
 7    1  0.6184948E-012  0.5930194E+02  0.7816164E-02  0.1266605E+00
        -11   -1    0    0    0    0  0.00000000000E+00  0.00000000000E+00  0.45593999997E+02  0.45594000000E+02  0.51100000000E-03 0.  1.
         11   -1    0    0    0    0 -0.00000000000E+00 -0.00000000000E+00 -0.45593999997E+02  0.45594000000E+02  0.51100000000E-03 0. -1.
    9900012    2    1    2    0    0  0.32708715310E+01  0.20650004406E+02  0.24074874756E+02  0.59301939142E+02  0.49999991089E+02 0.  0.
         12    1    1    2    0    0 -0.32708715310E+01 -0.20650004406E+02 -0.24074874756E+02  0.31886060858E+02  0.00000000000E+00 0. -1.
         11    1    3    3    0    0 -0.53647281951E+01 -0.91112112165E+01 -0.35653473305E+01  0.11158233744E+02  0.51100000000E-03 0. -1.
        -11    1    3    3    0    0 -0.37884364963E+01  0.20699568246E+02  0.65433664423E+01  0.22037241690E+02  0.51100000000E-03 0.  1.
         12    1    3    3    0    0  0.12424036222E+02  0.90616473761E+01  0.21096855644E+02  0.26106463707E+02  0.00000000000E+00 0. -1.
</event>
<event>
 7    1  0.6184948E-012  0.5930201E+02  0.7816164E-02  0.1266605E+00
        -11   -1    0    0    0    0  0.00000000000E+00  0.00000000000E+00  0.45593999997E+02  0.45594000000E+02  0.51100000000E-03 0. -1.
         11   -1    0    0    0    0 -0.00000000000E+00 -0.00000000000E+00 -0.45593999997E+02  0.45594000000E+02  0.51100000000E-03 0.  1.
    9900012    2    1    2    0    0  0.19180478294E+02 -0.82315701979E+01 -0.24105323125E+02  0.59302014074E+02  0.50000127748E+02 0.  0.
         12    1    1    2    0    0 -0.19180478294E+02  0.82315701979E+01  0.24105323125E+02  0.31885985926E+02  0.00000000000E+00 0. -1.
         11    1    3    3    0    0  0.92893582714E+01  0.99294168124E+01  0.28592216859E+01  0.13894626452E+02  0.51100000000E-03 0. -1.
        -11    1    3    3    0    0  0.99374468580E+01 -0.93404856063E+00  0.33596622651E+01  0.10531506424E+02  0.51100000000E-03 0.  1.
        -12    1    3    3    0    0 -0.46326835759E-01 -0.17226938450E+02 -0.30324207076E+02  0.34875881198E+02  0.00000000000E+00 0.  1.
</event>
<event>
 7    1  0.6184948E-012  0.5930195E+02  0.7816164E-02  0.1266605E+00
        -11   -1    0    0    0    0  0.00000000000E+00  0.00000000000E+00  0.45593999997E+02  0.45594000000E+02  0.51100000000E-03 0.  1.
         11   -1    0    0    0    0 -0.00000000000E+00 -0.00000000000E+00 -0.45593999997E+02  0.45594000000E+02  0.51100000000E-03 0. -1.
    9900012    2    1    2    0    0  0.13848257083E+02 -0.31768534178E+01  0.28545642063E+02  0.59301948148E+02  0.50000007515E+02 0.  0.
         12    1    1    2    0    0 -0.13848257083E+02  0.31768534178E+01 -0.28545642063E+02  0.31886051852E+02  0.00000000000E+00 0. -1.
         11    1    3    3    0    0 -0.63148774602E+01  0.11732988593E+02 -0.43321269894E+01  0.14010996509E+02  0.51100000000E-03 0. -1.
        -11    1    3    3    0    0  0.18923345054E+01  0.41402062589E+01  0.31494496150E+01  0.55354557974E+01  0.51100000000E-03 0.  1.
        -12    1    3    3    0    0  0.18270800038E+02 -0.19050048269E+02  0.29728319438E+02  0.39755495842E+02  0.00000000000E+00 0.  1.
</event>
<event>
 7    1  0.6184948E-012  0.5930182E+02  0.7816164E-02  0.1266605E+00
        -11   -1    0    0    0    0  0.00000000000E+00  0.00000000000E+00  0.45593999997E+02  0.45594000000E+02  0.51100000000E-03 0.  1.
         11   -1    0    0    0    0 -0.00000000000E+00 -0.00000000000E+00 -0.45593999997E+02  0.45594000000E+02  0.51100000000E-03 0. -1.
    9900012    2    1    2    0    0 -0.12300398275E+02 -0.13456797229E+02  0.26159955262E+02  0.59301820413E+02  0.49999774556E+02 0.  0.
         12    1    1    2    0    0  0.12300398275E+02  0.13456797229E+02 -0.26159955262E+02  0.31886179587E+02  0.00000000000E+00 0. -1.
         11    1    3    3    0    0  0.48195273628E+01  0.78731235072E+01 -0.82363002233E+01  0.12371360450E+02  0.51100000000E-03 0. -1.
        -11    1    3    3    0    0  0.26967757694E+01 -0.69286195660E+00  0.60264378726E+01  0.66385699465E+01  0.51100000000E-03 0.  1.
         12    1    3    3    0    0 -0.19816701407E+02 -0.20637058780E+02  0.28369817612E+02  0.40291890016E+02  0.00000000000E+00 0. -1.
</event>
<event>
 7    1  0.6184948E-012  0.5930195E+02  0.7816164E-02  0.1266605E+00
        -11   -1    0    0    0    0  0.00000000000E+00  0.00000000000E+00  0.45593999997E+02  0.45594000000E+02  0.51100000000E-03 0.  1.
         11   -1    0    0    0    0 -0.00000000000E+00 -0.00000000000E+00 -0.45593999997E+02  0.45594000000E+02  0.51100000000E-03 0. -1.
    9900012    2    1    2    0    0  0.30351624116E+02  0.78571418067E+01  0.58107389647E+01  0.59301945820E+02  0.50000003268E+02 0.  0.
         12    1    1    2    0    0 -0.30351624116E+02 -0.78571418067E+01 -0.58107389647E+01  0.31886054180E+02  0.00000000000E+00 0. -1.
         11    1    3    3    0    0 -0.75880104114E+01 -0.34931532461E+01  0.59853519900E+01  0.10276403082E+02  0.51100000000E-03 0. -1.
        -11    1    3    3    0    0  0.29977084739E+02  0.71708155889E+01  0.12687092983E+02  0.33331794646E+02  0.51100000000E-03 0.  1.
         12    1    3    3    0    0  0.79625497884E+01  0.41794794640E+01 -0.12861706009E+02  0.15693748092E+02  0.00000000000E+00 0. -1.
</event>
<event>
 7    1  0.6184948E-012  0.5930194E+02  0.7816164E-02  0.1266605E+00
        -11   -1    0    0    0    0  0.00000000000E+00  0.00000000000E+00  0.45593999997E+02  0.45594000000E+02  0.51100000000E-03 0.  1.
         11   -1    0    0    0    0 -0.00000000000E+00 -0.00000000000E+00 -0.45593999997E+02  0.45594000000E+02  0.51100000000E-03 0. -1.
    9900012    2    1    2    0    0 -0.21851572721E+02  0.80201972444E+01  0.21792333602E+02  0.59301943517E+02  0.49999999068E+02 0.  0.
         12    1    1    2    0    0  0.21851572721E+02 -0.80201972444E+01 -0.21792333602E+02  0.31886056483E+02  0.00000000000E+00 0. -1.
         11    1    3    3    0    0 -0.22600343435E+02  0.27002302477E+00 -0.32897196224E+01  0.22840111455E+02  0.51100000000E-03 0. -1.
        -11    1    3    3    0    0 -0.97983414827E+01  0.11301111641E+02  0.17367623204E+02  0.22920666573E+02  0.51100000000E-03 0.  1.
        -12    1    3    3    0    0  0.10547112197E+02 -0.35509374211E+01  0.77144300201E+01  0.13541165489E+02  0.00000000000E+00 0.  1.
</event>
<event>
 7    1  0.6184948E-012  0.5930195E+02  0.7816164E-02  0.1266605E+00
        -11   -1    0    0    0    0  0.00000000000E+00  0.00000000000E+00  0.45593999997E+02  0.45594000000E+02  0.51100000000E-03 0. -1.
         11   -1    0    0    0    0 -0.00000000000E+00 -0.00000000000E+00 -0.45593999997E+02  0.45594000000E+02  0.51100000000E-03 0.  1.
    9900012    2    1    2    0    0 -0.94069061069E+01  0.24050218330E+01 -0.30371803359E+02  0.59301945810E+02  0.50000003251E+02 0.  0.
         12    1    1    2    0    0  0.94069061069E+01 -0.24050218330E+01  0.30371803359E+02  0.31886054190E+02  0.00000000000E+00 0. -1.
         11    1    3    3    0    0  0.13724456600E+02  0.98910153238E+01 -0.12103902669E+01  0.16960481655E+02  0.51100000000E-03 0. -1.
        -11    1    3    3    0    0 -0.63318205208E+01 -0.46210818155E+01  0.79266036509E+00  0.78787472970E+01  0.51100000000E-03 0.  1.
        -12    1    3    3    0    0 -0.16799542187E+02 -0.28649116752E+01 -0.29954073457E+02  0.34462716858E+02  0.00000000000E+00 0.  1.
</event>
<event>
 7    1  0.6184948E-012  0.5930192E+02  0.7816164E-02  0.1266605E+00
        -11   -1    0    0    0    0  0.00000000000E+00  0.00000000000E+00  0.45593999997E+02  0.45594000000E+02  0.51100000000E-03 0. -1.
         11   -1    0    0    0    0 -0.00000000000E+00 -0.00000000000E+00 -0.45593999997E+02  0.45594000000E+02  0.51100000000E-03 0.  1.
    9900012    2    1    2    0    0  0.10954269989E+02 -0.29739133116E+02  0.35086040700E+01  0.59301915699E+02  0.49999948335E+02 0.  0.
         12    1    1    2    0    0 -0.10954269989E+02  0.29739133116E+02 -0.35086040700E+01  0.31886084301E+02  0.00000000000E+00 0. -1.
         11    1    3    3    0    0  0.55905562268E+01 -0.21366632993E+02  0.70558580650E+01  0.23185608849E+02  0.51100000000E-03 0.  1.
        -11    1    3    3    0    0  0.19085033101E+02 -0.27703268543E+01  0.36706140999E+01  0.19631266069E+02  0.51100000000E-03 0. -1.
         12    1    3    3    0    0 -0.13721319338E+02 -0.56021732688E+01 -0.72178680949E+01  0.16485040781E+02  0.00000000000E+00 0. -1.
</event>
<event>
 7    1  0.6184948E-012  0.5930196E+02  0.7816164E-02  0.1266605E+00
        -11   -1    0    0    0    0  0.00000000000E+00  0.00000000000E+00  0.45593999997E+02  0.45594000000E+02  0.51100000000E-03 0.  1.
         11   -1    0    0    0    0 -0.00000000000E+00 -0.00000000000E+00 -0.45593999997E+02  0.45594000000E+02  0.51100000000E-03 0. -1.
    9900012    2    1    2    0    0  0.37332660426E+01  0.13666833448E+02  0.28565709163E+02  0.59301963058E+02  0.50000034707E+02 0.  0.
         12    1    1    2    0    0 -0.37332660426E+01 -0.13666833448E+02 -0.28565709163E+02  0.31886036942E+02  0.00000000000E+00 0. -1.
         11    1    3    3    0    0  0.10000144081E+02 -0.75165961396E+01  0.10785567464E+02  0.16517583508E+02  0.51100000000E-03 0. -1.
        -11    1    3    3    0    0  0.11990778798E+02  0.25835525654E+01  0.23284383794E+01  0.12484996819E+02  0.51100000000E-03 0.  1.
         12    1    3    3    0    0 -0.18257656836E+02  0.18599877022E+02  0.15451703320E+02  0.30299382731E+02  0.00000000000E+00 0. -1.
</event>
<event>
 7    1  0.6184948E-012  0.5930200E+02  0.7816164E-02  0.1266605E+00
        -11   -1    0    0    0    0  0.00000000000E+00  0.00000000000E+00  0.45593999997E+02  0.45594000000E+02  0.51100000000E-03 0.  1.
         11   -1    0    0    0    0 -0.00000000000E+00 -0.00000000000E+00 -0.45593999997E+02  0.45594000000E+02  0.51100000000E-03 0. -1.
    9900012    2    1    2    0    0 -0.27945893754E+02  0.78781377442E+01  0.13178730223E+02  0.59302000528E+02  0.50000103042E+02 0.  0.
         12    1    1    2    0    0  0.27945893754E+02 -0.78781377442E+01 -0.13178730223E+02  0.31885999472E+02  0.00000000000E+00 0. -1.
         11    1    3    3    0    0 -0.11142092866E+02 -0.60947297457E+01 -0.77149833621E+01  0.14859775659E+02  0.51100000000E-03 0. -1.
        -11    1    3    3    0    0 -0.25353815875E+02  0.59253371005E+01  0.85473010648E+01  0.27404049973E+02  0.51100000000E-03 0.  1.
        -12    1    3    3    0    0  0.85500149866E+01  0.80475303893E+01  0.12346412521E+02  0.17038174895E+02  0.00000000000E+00 0.  1.
</event>
<event>
 7    1  0.6184948E-012  0.5930194E+02  0.7816164E-02  0.1266605E+00
        -11   -1    0    0    0    0  0.00000000000E+00  0.00000000000E+00  0.45593999997E+02  0.45594000000E+02  0.51100000000E-03 0.  1.
         11   -1    0    0    0    0 -0.00000000000E+00 -0.00000000000E+00 -0.45593999997E+02  0.45594000000E+02  0.51100000000E-03 0. -1.
    9900012    2    1    2    0    0  0.10669474729E+02 -0.14296686818E+01  0.30013985985E+02  0.59301937241E+02  0.49999987623E+02 0.  0.
         12    1    1    2    0    0 -0.10669474729E+02  0.14296686818E+01 -0.30013985985E+02  0.31886062759E+02  0.00000000000E+00 0. -1.
         11    1    3    3    0    0  0.10912494362E+02  0.14856240982E+02 -0.34843200959E+01  0.18759821857E+02  0.51100000000E-03 0. -1.
        -11    1    3    3    0    0 -0.73898435282E+01 -0.34821965630E+01  0.12372315842E+02  0.14825979895E+02  0.51100000000E-03 0.  1.
        -12    1    3    3    0    0  0.71468238960E+01 -0.12803713101E+02  0.21125990239E+02  0.25716135490E+02  0.00000000000E+00 0.  1.
</event>
<event>
 7    1  0.6184948E-012  0.5930187E+02  0.7816164E-02  0.1266605E+00
        -11   -1    0    0    0    0  0.00000000000E+00  0.00000000000E+00  0.45593999997E+02  0.45594000000E+02  0.51100000000E-03 0.  1.
         11   -1    0    0    0    0 -0.00000000000E+00 -0.00000000000E+00 -0.45593999997E+02  0.45594000000E+02  0.51100000000E-03 0. -1.
    9900012    2    1    2    0    0  0.72136043177E+01 -0.76681533917E+01  0.30097988338E+02  0.59301865620E+02  0.49999857004E+02 0.  0.
         12    1    1    2    0    0 -0.72136043177E+01  0.76681533917E+01 -0.30097988338E+02  0.31886134380E+02  0.00000000000E+00 0. -1.
         11    1    3    3    0    0  0.10382188804E+02 -0.15338734615E+01  0.29172345850E+02  0.31002715604E+02  0.51100000000E-03 0. -1.
        -11    1    3    3    0    0 -0.30996774649E+01 -0.15811000405E+02  0.62172104923E+01  0.17269899848E+02  0.51100000000E-03 0.  1.
         12    1    3    3    0    0 -0.68907021116E-01  0.96767204750E+01 -0.52915680047E+01  0.11029250168E+02  0.00000000000E+00 0. -1.
</event>
<event>
 7    1  0.6184948E-012  0.5930197E+02  0.7816164E-02  0.1266605E+00
        -11   -1    0    0    0    0  0.00000000000E+00  0.00000000000E+00  0.45593999997E+02  0.45594000000E+02  0.51100000000E-03 0.  1.
         11   -1    0    0    0    0 -0.00000000000E+00 -0.00000000000E+00 -0.45593999997E+02  0.45594000000E+02  0.51100000000E-03 0. -1.
    9900012    2    1    2    0    0  0.15386644903E+02 -0.22845786734E+02  0.16063621858E+02  0.59301972337E+02  0.50000051630E+02 0.  0.
         12    1    1    2    0    0 -0.15386644903E+02  0.22845786734E+02 -0.16063621858E+02  0.31886027663E+02  0.00000000000E+00 0. -1.
         11    1    3    3    0    0  0.39489639444E+01  0.55904622229E+01 -0.11784648118E+02  0.13628114896E+02  0.51100000000E-03 0. -1.
        -11    1    3    3    0    0  0.14782562328E+02 -0.13213663057E+02  0.10811613479E+02  0.22583534414E+02  0.51100000000E-03 0.  1.
        -12    1    3    3    0    0 -0.33448813693E+01 -0.15222585900E+02  0.17036656498E+02  0.23090323027E+02  0.00000000000E+00 0.  1.
</event>
<event>
 7    1  0.6184948E-012  0.5930194E+02  0.7816164E-02  0.1266605E+00
        -11   -1    0    0    0    0  0.00000000000E+00  0.00000000000E+00  0.45593999997E+02  0.45594000000E+02  0.51100000000E-03 0.  1.
         11   -1    0    0    0    0 -0.00000000000E+00 -0.00000000000E+00 -0.45593999997E+02  0.45594000000E+02  0.51100000000E-03 0. -1.
    9900012    2    1    2    0    0  0.65619318485E+01  0.20680257335E+02  0.23366402279E+02  0.59301941158E+02  0.49999994767E+02 0.  0.
         12    1    1    2    0    0 -0.65619318485E+01 -0.20680257335E+02 -0.23366402279E+02  0.31886058842E+02  0.00000000000E+00 0. -1.
         11    1    3    3    0    0  0.77859955079E+01  0.94216250261E+01 -0.57167689076E+01  0.13493338771E+02  0.51100000000E-03 0. -1.
        -11    1    3    3    0    0  0.67066763926E+01  0.18965314803E+02  0.73375491430E+01  0.21412666847E+02  0.51100000000E-03 0.  1.
        -12    1    3    3    0    0 -0.79307400520E+01 -0.77066824945E+01  0.21745622043E+02  0.24395935540E+02  0.00000000000E+00 0.  1.
</event>
<event>
 7    1  0.6184948E-012  0.5930194E+02  0.7816164E-02  0.1266605E+00
        -11   -1    0    0    0    0  0.00000000000E+00  0.00000000000E+00  0.45593999997E+02  0.45594000000E+02  0.51100000000E-03 0. -1.
         11   -1    0    0    0    0 -0.00000000000E+00 -0.00000000000E+00 -0.45593999997E+02  0.45594000000E+02  0.51100000000E-03 0.  1.
    9900012    2    1    2    0    0 -0.14899018009E+02  0.22003023519E+02 -0.17624051000E+02  0.59301937916E+02  0.49999988853E+02 0.  0.
         12    1    1    2    0    0  0.14899018009E+02 -0.22003023519E+02  0.17624051000E+02  0.31886062084E+02  0.00000000000E+00 0. -1.
         11    1    3    3    0    0  0.81176204642E+01  0.47597291235E+01  0.35543173406E+01  0.10059023578E+02  0.51100000000E-03 0. -1.
        -11    1    3    3    0    0  0.65753762911E+01 -0.20901894896E+01 -0.10039024757E+02  0.12181399091E+02  0.51100000000E-03 0.  1.
         12    1    3    3    0    0 -0.29592014764E+02  0.19333483885E+02 -0.11139343584E+02  0.37061515247E+02  0.00000000000E+00 0. -1.
</event>
<event>
 7    1  0.6184948E-012  0.5930194E+02  0.7816164E-02  0.1266605E+00
        -11   -1    0    0    0    0  0.00000000000E+00  0.00000000000E+00  0.45593999997E+02  0.45594000000E+02  0.51100000000E-03 0.  1.
         11   -1    0    0    0    0 -0.00000000000E+00 -0.00000000000E+00 -0.45593999997E+02  0.45594000000E+02  0.51100000000E-03 0. -1.
    9900012    2    1    2    0    0 -0.23769398307E+02 -0.21210463407E+02  0.13611580248E+01  0.59301940272E+02  0.49999993151E+02 0.  0.
         12    1    1    2    0    0  0.23769398307E+02  0.21210463407E+02 -0.13611580248E+01  0.31886059728E+02  0.00000000000E+00 0. -1.
         11    1    3    3    0    0  0.25044504982E+01 -0.11987606589E+02 -0.91311889870E+01  0.15275915574E+02  0.51100000000E-03 0. -1.
        -11    1    3    3    0    0  0.64496695363E+01  0.10096362279E+00 -0.33782582332E+01  0.72815561339E+01  0.51100000000E-03 0.  1.
        -12    1    3    3    0    0 -0.32723518341E+02 -0.93238204403E+01  0.13870605245E+02  0.36744468565E+02  0.00000000000E+00 0.  1.
</event>
<event>
 7    1  0.6184948E-012  0.5930194E+02  0.7816164E-02  0.1266605E+00
        -11   -1    0    0    0    0  0.00000000000E+00  0.00000000000E+00  0.45593999997E+02  0.45594000000E+02  0.51100000000E-03 0.  1.
         11   -1    0    0    0    0 -0.00000000000E+00 -0.00000000000E+00 -0.45593999997E+02  0.45594000000E+02  0.51100000000E-03 0. -1.
    9900012    2    1    2    0    0  0.81188678319E+01 -0.51175906835E+01  0.30407479942E+02  0.59301943710E+02  0.49999999421E+02 0.  0.
         12    1    1    2    0    0 -0.81188678319E+01  0.51175906835E+01 -0.30407479942E+02  0.31886056290E+02  0.00000000000E+00 0. -1.
         11    1    3    3    0    0 -0.10060759938E+02 -0.12388212957E+02  0.18047985709E+02  0.24091834700E+02  0.51100000000E-03 0. -1.
        -11    1    3    3    0    0  0.46292139317E+01 -0.98902019462E+01  0.58913956874E+01  0.12407830575E+02  0.51100000000E-03 0.  1.
        -12    1    3    3    0    0  0.13550413838E+02  0.17160824219E+02  0.64680985458E+01  0.22802278436E+02  0.00000000000E+00 0.  1.
</event>
<event>
 7    1  0.6184948E-012  0.5930193E+02  0.7816164E-02  0.1266605E+00
        -11   -1    0    0    0    0  0.00000000000E+00  0.00000000000E+00  0.45593999997E+02  0.45594000000E+02  0.51100000000E-03 0.  1.
         11   -1    0    0    0    0 -0.00000000000E+00 -0.00000000000E+00 -0.45593999997E+02  0.45594000000E+02  0.51100000000E-03 0. -1.
    9900012    2    1    2    0    0  0.21663752090E+01  0.20588232842E+02  0.24251867655E+02  0.59301927839E+02  0.49999970477E+02 0.  0.
         12    1    1    2    0    0 -0.21663752090E+01 -0.20588232842E+02 -0.24251867655E+02  0.31886072161E+02  0.00000000000E+00 0. -1.
         11    1    3    3    0    0 -0.91479892058E+01  0.77798138882E+01  0.98438542784E+01  0.15527803385E+02  0.51100000000E-03 0. -1.
        -11    1    3    3    0    0  0.23278105525E+02  0.13720921692E+02  0.16404330865E+02  0.31610693766E+02  0.51100000000E-03 0.  1.
         12    1    3    3    0    0 -0.11963741111E+02 -0.91250273872E+00 -0.19963174891E+01  0.12163430689E+02  0.00000000000E+00 0. -1.
</event>
<event>
 7    1  0.6184948E-012  0.5930192E+02  0.7816164E-02  0.1266605E+00
        -11   -1    0    0    0    0  0.00000000000E+00  0.00000000000E+00  0.45593999997E+02  0.45594000000E+02  0.51100000000E-03 0. -1.
         11   -1    0    0    0    0 -0.00000000000E+00 -0.00000000000E+00 -0.45593999997E+02  0.45594000000E+02  0.51100000000E-03 0.  1.
    9900012    2    1    2    0    0 -0.91923680323E+01 -0.19399571266E+02 -0.23577091768E+02  0.59301917588E+02  0.49999951780E+02 0.  0.
         12    1    1    2    0    0  0.91923680323E+01  0.19399571266E+02  0.23577091768E+02  0.31886082412E+02  0.00000000000E+00 0. -1.
         11    1    3    3    0    0  0.19265586745E+01 -0.63830739155E+01 -0.93112587900E+01  0.11452283678E+02  0.51100000000E-03 0.  1.
        -11    1    3    3    0    0 -0.26788210063E+02 -0.55190169353E+01 -0.13401180451E+02  0.30457501277E+02  0.51100000000E-03 0. -1.
         12    1    3    3    0    0  0.15669283357E+02 -0.74974804156E+01 -0.86465252725E+00  0.17392132632E+02  0.00000000000E+00 0. -1.
</event>
<event>
 7    1  0.6184948E-012  0.5930206E+02  0.7816164E-02  0.1266604E+00
        -11   -1    0    0    0    0  0.00000000000E+00  0.00000000000E+00  0.45593999997E+02  0.45594000000E+02  0.51100000000E-03 0.  1.
         11   -1    0    0    0    0 -0.00000000000E+00 -0.00000000000E+00 -0.45593999997E+02  0.45594000000E+02  0.51100000000E-03 0. -1.
    9900012    2    1    2    0    0 -0.17610721519E+02 -0.13001828005E+02  0.23184657122E+02  0.59302056862E+02  0.50000205783E+02 0.  0.
         12    1    1    2    0    0  0.17610721519E+02  0.13001828005E+02 -0.23184657122E+02  0.31885943138E+02  0.00000000000E+00 0. -1.
         11    1    3    3    0    0 -0.21207260757E+02 -0.41682813143E+01 -0.43372674556E+01  0.22043919052E+02  0.51100000000E-03 0. -1.
        -11    1    3    3    0    0 -0.77083056447E+01  0.19194128528E+01  0.15997802985E+02  0.17861461929E+02  0.51100000000E-03 0.  1.
        -12    1    3    3    0    0  0.11304844883E+02 -0.10752959544E+02  0.11524121593E+02  0.19396675882E+02  0.00000000000E+00 0.  1.
</event>
<event>
 7    1  0.6184948E-012  0.5930197E+02  0.7816164E-02  0.1266605E+00
        -11   -1    0    0    0    0  0.00000000000E+00  0.00000000000E+00  0.45593999997E+02  0.45594000000E+02  0.51100000000E-03 0. -1.
         11   -1    0    0    0    0 -0.00000000000E+00 -0.00000000000E+00 -0.45593999997E+02  0.45594000000E+02  0.51100000000E-03 0.  1.
    9900012    2    1    2    0    0 -0.22231013904E+02 -0.16881410016E+02  0.15411643550E+02  0.59301972649E+02  0.50000052198E+02 0.  0.
         12    1    1    2    0    0  0.22231013904E+02  0.16881410016E+02 -0.15411643550E+02  0.31886027351E+02  0.00000000000E+00 0. -1.
         11    1    3    3    0    0  0.77544642419E+00 -0.10932257148E+02  0.19116421406E+02  0.22035270163E+02  0.51100000000E-03 0. -1.
        -11    1    3    3    0    0  0.93299771631E+00  0.82660536017E+01  0.26086640001E+01  0.87179845728E+01  0.51100000000E-03 0.  1.
        -12    1    3    3    0    0 -0.23939458045E+02 -0.14215206470E+02 -0.63134418558E+01  0.28548717914E+02  0.00000000000E+00 0.  1.
</event>
<event>
 7    1  0.6184948E-012  0.5930195E+02  0.7816164E-02  0.1266605E+00
        -11   -1    0    0    0    0  0.00000000000E+00  0.00000000000E+00  0.45593999997E+02  0.45594000000E+02  0.51100000000E-03 0.  1.
         11   -1    0    0    0    0 -0.00000000000E+00 -0.00000000000E+00 -0.45593999997E+02  0.45594000000E+02  0.51100000000E-03 0. -1.
    9900012    2    1    2    0    0 -0.29877666432E+02  0.20260205635E+01  0.10951741697E+02  0.59301947298E+02  0.50000005964E+02 0.  0.
         12    1    1    2    0    0  0.29877666432E+02 -0.20260205635E+01 -0.10951741697E+02  0.31886052702E+02  0.00000000000E+00 0. -1.
         11    1    3    3    0    0  0.80461114655E+01 -0.13616575721E+01  0.32810234307E+01  0.87954042586E+01  0.51100000000E-03 0. -1.
        -11    1    3    3    0    0 -0.20526701578E+02 -0.70519268942E+01  0.17576374002E+02  0.27928553023E+02  0.51100000000E-03 0.  1.
        -12    1    3    3    0    0 -0.17397076319E+02  0.10439605030E+02 -0.99056557360E+01  0.22577990017E+02  0.00000000000E+00 0.  1.
</event>
<event>
 7    1  0.6184948E-012  0.5930194E+02  0.7816164E-02  0.1266605E+00
        -11   -1    0    0    0    0  0.00000000000E+00  0.00000000000E+00  0.45593999997E+02  0.45594000000E+02  0.51100000000E-03 0.  1.
         11   -1    0    0    0    0 -0.00000000000E+00 -0.00000000000E+00 -0.45593999997E+02  0.45594000000E+02  0.51100000000E-03 0. -1.
    9900012    2    1    2    0    0 -0.59969015266E+01 -0.36397994966E+00  0.31314942119E+02  0.59301938638E+02  0.49999990170E+02 0.  0.
         12    1    1    2    0    0  0.59969015266E+01  0.36397994966E+00 -0.31314942119E+02  0.31886061362E+02  0.00000000000E+00 0. -1.
         11    1    3    3    0    0  0.17642020957E+02 -0.70612022671E+01  0.10880461300E+02  0.21897166923E+02  0.51100000000E-03 0. -1.
        -11    1    3    3    0    0 -0.96601508894E+01  0.12601247037E+02  0.12926724352E+02  0.20474621970E+02  0.51100000000E-03 0.  1.
        -12    1    3    3    0    0 -0.13978771594E+02 -0.59040247199E+01  0.75077564667E+01  0.16930149744E+02  0.00000000000E+00 0.  1.
</event>
<event>
 7    1  0.6184948E-012  0.5930194E+02  0.7816164E-02  0.1266605E+00
        -11   -1    0    0    0    0  0.00000000000E+00  0.00000000000E+00  0.45593999997E+02  0.45594000000E+02  0.51100000000E-03 0. -1.
         11   -1    0    0    0    0 -0.00000000000E+00 -0.00000000000E+00 -0.45593999997E+02  0.45594000000E+02  0.51100000000E-03 0.  1.
    9900012    2    1    2    0    0 -0.11121051415E+02  0.26650707379E+02 -0.13519730994E+02  0.59301935418E+02  0.49999984298E+02 0.  0.
         12    1    1    2    0    0  0.11121051415E+02 -0.26650707379E+02  0.13519730994E+02  0.31886064582E+02  0.00000000000E+00 0. -1.
         11    1    3    3    0    0  0.46870626026E+01  0.58137113220E+01  0.31248173537E+01  0.80952009815E+01  0.51100000000E-03 0. -1.
        -11    1    3    3    0    0  0.21967078037E+01  0.27089606732E+02 -0.21531353230E+01  0.27263681153E+02  0.51100000000E-03 0.  1.
         12    1    3    3    0    0 -0.18004821822E+02 -0.62526106745E+01 -0.14491413025E+02  0.23943053283E+02  0.00000000000E+00 0. -1.
</event>
<event>
 7    1  0.6184948E-012  0.5930194E+02  0.7816164E-02  0.1266605E+00
        -11   -1    0    0    0    0  0.00000000000E+00  0.00000000000E+00  0.45593999997E+02  0.45594000000E+02  0.51100000000E-03 0. -1.
         11   -1    0    0    0    0 -0.00000000000E+00 -0.00000000000E+00 -0.45593999997E+02  0.45594000000E+02  0.51100000000E-03 0.  1.
    9900012    2    1    2    0    0  0.12219737644E+02 -0.18869539339E+02 -0.22612819323E+02  0.59301935635E+02  0.49999984694E+02 0.  0.
         12    1    1    2    0    0 -0.12219737644E+02  0.18869539339E+02  0.22612819323E+02  0.31886064365E+02  0.00000000000E+00 0. -1.
         11    1    3    3    0    0  0.66990561427E+01 -0.13998219868E+02 -0.32106473002E+02  0.35660245674E+02  0.51100000000E-03 0.  1.
        -11    1    3    3    0    0 -0.41105488425E+01 -0.37948037031E+01 -0.41079960533E+01  0.69406612630E+01  0.51100000000E-03 0. -1.
         12    1    3    3    0    0  0.96312303439E+01 -0.10765157669E+01  0.13601649732E+02  0.16701028698E+02  0.00000000000E+00 0. -1.
</event>
<event>
 7    1  0.6184948E-012  0.5930187E+02  0.7816164E-02  0.1266605E+00
        -11   -1    0    0    0    0  0.00000000000E+00  0.00000000000E+00  0.45593999997E+02  0.45594000000E+02  0.51100000000E-03 0.  1.
         11   -1    0    0    0    0 -0.00000000000E+00 -0.00000000000E+00 -0.45593999997E+02  0.45594000000E+02  0.51100000000E-03 0. -1.
    9900012    2    1    2    0    0 -0.14612644916E+02 -0.22097973727E+02  0.17744730778E+02  0.59301869713E+02  0.49999864467E+02 0.  0.
         12    1    1    2    0    0  0.14612644916E+02  0.22097973727E+02 -0.17744730778E+02  0.31886130287E+02  0.00000000000E+00 0. -1.
         11    1    3    3    0    0 -0.17585007633E+02 -0.69610043720E+01  0.80855474761E+00  0.18929919080E+02  0.51100000000E-03 0. -1.
        -11    1    3    3    0    0 -0.31824006082E+01  0.64311548249E+01 -0.51978915369E+01  0.88603331034E+01  0.51100000000E-03 0.  1.
        -12    1    3    3    0    0  0.61547633256E+01 -0.21568124180E+02  0.22134067568E+02  0.31511617530E+02  0.00000000000E+00 0.  1.
</event>
<event>
 7    1  0.6184948E-012  0.5930192E+02  0.7816164E-02  0.1266605E+00
        -11   -1    0    0    0    0  0.00000000000E+00  0.00000000000E+00  0.45593999997E+02  0.45594000000E+02  0.51100000000E-03 0. -1.
         11   -1    0    0    0    0 -0.00000000000E+00 -0.00000000000E+00 -0.45593999997E+02  0.45594000000E+02  0.51100000000E-03 0.  1.
    9900012    2    1    2    0    0  0.14318634958E+02 -0.23547941057E+02 -0.16037238760E+02  0.59301923695E+02  0.49999962918E+02 0.  0.
         12    1    1    2    0    0 -0.14318634958E+02  0.23547941057E+02  0.16037238760E+02  0.31886076305E+02  0.00000000000E+00 0. -1.
         11    1    3    3    0    0  0.89476080287E+01 -0.17932489696E+02  0.68427164483E+01  0.21176794960E+02  0.51100000000E-03 0. -1.
        -11    1    3    3    0    0  0.89584337463E+01 -0.44364593498E+01 -0.29144034692E+02  0.30810882252E+02  0.51100000000E-03 0.  1.
         12    1    3    3    0    0 -0.35874068170E+01 -0.11789920110E+01  0.62640794838E+01  0.73142464829E+01  0.00000000000E+00 0. -1.
</event>
<event>
 7    1  0.6184948E-012  0.5930193E+02  0.7816164E-02  0.1266605E+00
        -11   -1    0    0    0    0  0.00000000000E+00  0.00000000000E+00  0.45593999997E+02  0.45594000000E+02  0.51100000000E-03 0. -1.
         11   -1    0    0    0    0 -0.00000000000E+00 -0.00000000000E+00 -0.45593999997E+02  0.45594000000E+02  0.51100000000E-03 0.  1.
    9900012    2    1    2    0    0  0.26712623018E+02 -0.14062942046E+02  0.10265995073E+02  0.59301933728E+02  0.49999981215E+02 0.  0.
         12    1    1    2    0    0 -0.26712623018E+02  0.14062942046E+02 -0.10265995073E+02  0.31886066272E+02  0.00000000000E+00 0. -1.
         11    1    3    3    0    0  0.11026103782E+02 -0.97533106869E+00 -0.70790669222E+01  0.13139232248E+02  0.51100000000E-03 0.  1.
        -11    1    3    3    0    0  0.27727386892E+01  0.12705976267E+02  0.99761118342E+01  0.16390629040E+02  0.51100000000E-03 0. -1.
         12    1    3    3    0    0  0.12913780546E+02 -0.25793587244E+02  0.73689501615E+01  0.29772072440E+02  0.00000000000E+00 0. -1.
</event>
<event>
 7    1  0.6184948E-012  0.5930195E+02  0.7816164E-02  0.1266605E+00
        -11   -1    0    0    0    0  0.00000000000E+00  0.00000000000E+00  0.45593999997E+02  0.45594000000E+02  0.51100000000E-03 0.  1.
         11   -1    0    0    0    0 -0.00000000000E+00 -0.00000000000E+00 -0.45593999997E+02  0.45594000000E+02  0.51100000000E-03 0. -1.
    9900012    2    1    2    0    0 -0.94996045141E+01  0.30064795525E+02  0.47524376332E+01  0.59301951651E+02  0.50000013902E+02 0.  0.
         12    1    1    2    0    0  0.94996045141E+01 -0.30064795525E+02 -0.47524376332E+01  0.31886048349E+02  0.00000000000E+00 0. -1.
         11    1    3    3    0    0  0.12122514545E+01  0.11902955741E+01 -0.11955499737E+02  0.12075608944E+02  0.51100000000E-03 0. -1.
        -11    1    3    3    0    0  0.10370082160E+02  0.56936250547E+01  0.92500930227E+01  0.15017329705E+02  0.51100000000E-03 0.  1.
        -12    1    3    3    0    0 -0.21081938129E+02  0.23180874896E+02  0.74578443477E+01  0.32209013002E+02  0.00000000000E+00 0.  1.
</event>
<event>
 7    1  0.6184948E-012  0.5930189E+02  0.7816164E-02  0.1266605E+00
        -11   -1    0    0    0    0  0.00000000000E+00  0.00000000000E+00  0.45593999997E+02  0.45594000000E+02  0.51100000000E-03 0. -1.
         11   -1    0    0    0    0 -0.00000000000E+00 -0.00000000000E+00 -0.45593999997E+02  0.45594000000E+02  0.51100000000E-03 0.  1.
    9900012    2    1    2    0    0 -0.77912139757E+01  0.21597302011E+02 -0.22126393980E+02  0.59301893622E+02  0.49999908072E+02 0.  0.
         12    1    1    2    0    0  0.77912139757E+01 -0.21597302011E+02  0.22126393980E+02  0.31886106378E+02  0.00000000000E+00 0. -1.
         11    1    3    3    0    0 -0.12996007228E+02  0.95419445847E+01 -0.20547121834E+02  0.26117601847E+02  0.51100000000E-03 0. -1.
        -11    1    3    3    0    0  0.10808739733E+02  0.13164624220E+02 -0.12317952429E+02  0.21020659784E+02  0.51100000000E-03 0.  1.
         12    1    3    3    0    0 -0.56039464808E+01 -0.11092667935E+01  0.10738680283E+02  0.12163631991E+02  0.00000000000E+00 0. -1.
</event>
<event>
 7    1  0.6184948E-012  0.5930194E+02  0.7816164E-02  0.1266605E+00
        -11   -1    0    0    0    0  0.00000000000E+00  0.00000000000E+00  0.45593999997E+02  0.45594000000E+02  0.51100000000E-03 0.  1.
         11   -1    0    0    0    0 -0.00000000000E+00 -0.00000000000E+00 -0.45593999997E+02  0.45594000000E+02  0.51100000000E-03 0. -1.
    9900012    2    1    2    0    0  0.21145872021E+02 -0.20262946424E+02  0.12608969245E+02  0.59301937108E+02  0.49999987380E+02 0.  0.
         12    1    1    2    0    0 -0.21145872021E+02  0.20262946424E+02 -0.12608969245E+02  0.31886062892E+02  0.00000000000E+00 0. -1.
         11    1    3    3    0    0  0.59013965091E+01 -0.22545650662E+02 -0.33089833543E+01  0.23538951030E+02  0.51100000000E-03 0. -1.
        -11    1    3    3    0    0 -0.53686195776E+01  0.86805502406E+01  0.31293350602E+01  0.10675521853E+02  0.51100000000E-03 0.  1.
         12    1    3    3    0    0  0.20613095090E+02 -0.63978460032E+01  0.12788617539E+02  0.25087464225E+02  0.00000000000E+00 0. -1.
</event>
<event>
 7    1  0.6184948E-012  0.5930194E+02  0.7816164E-02  0.1266605E+00
        -11   -1    0    0    0    0  0.00000000000E+00  0.00000000000E+00  0.45593999997E+02  0.45594000000E+02  0.51100000000E-03 0. -1.
         11   -1    0    0    0    0 -0.00000000000E+00 -0.00000000000E+00 -0.45593999997E+02  0.45594000000E+02  0.51100000000E-03 0.  1.
    9900012    2    1    2    0    0 -0.26509451480E+01 -0.16832777124E+02 -0.26950896017E+02  0.59301942043E+02  0.49999996381E+02 0.  0.
         12    1    1    2    0    0  0.26509451480E+01  0.16832777124E+02  0.26950896017E+02  0.31886057957E+02  0.00000000000E+00 0. -1.
         11    1    3    3    0    0  0.87603705001E+01 -0.23531066346E+00 -0.33917342997E-01  0.87635958975E+01  0.51100000000E-03 0. -1.
        -11    1    3    3    0    0  0.13975419274E+02 -0.64120008962E+01 -0.10792251680E+02  0.18785600762E+02  0.51100000000E-03 0.  1.
        -12    1    3    3    0    0 -0.25386734922E+02 -0.10185465564E+02 -0.16124726994E+02  0.31752745384E+02  0.00000000000E+00 0.  1.
</event>
<event>
 7    1  0.6184948E-012  0.5930199E+02  0.7816164E-02  0.1266605E+00
        -11   -1    0    0    0    0  0.00000000000E+00  0.00000000000E+00  0.45593999997E+02  0.45594000000E+02  0.51100000000E-03 0.  1.
         11   -1    0    0    0    0 -0.00000000000E+00 -0.00000000000E+00 -0.45593999997E+02  0.45594000000E+02  0.51100000000E-03 0. -1.
    9900012    2    1    2    0    0 -0.21745669983E+02  0.26157494989E+01  0.23173288884E+02  0.59301990119E+02  0.50000084059E+02 0.  0.
         12    1    1    2    0    0  0.21745669983E+02 -0.26157494989E+01 -0.23173288884E+02  0.31886009881E+02  0.00000000000E+00 0. -1.
         11    1    3    3    0    0 -0.20240833800E+02  0.36050653270E+01 -0.59463815298E+01  0.21402039681E+02  0.51100000000E-03 0. -1.
        -11    1    3    3    0    0  0.21008913695E+01  0.11261843517E+02  0.12813528091E+02  0.17188058830E+02  0.51100000000E-03 0.  1.
        -12    1    3    3    0    0 -0.36057275517E+01 -0.12251159345E+02  0.16306142323E+02  0.20711891607E+02  0.00000000000E+00 0.  1.
</event>
<event>
 7    1  0.6184948E-012  0.5930194E+02  0.7816164E-02  0.1266605E+00
        -11   -1    0    0    0    0  0.00000000000E+00  0.00000000000E+00  0.45593999997E+02  0.45594000000E+02  0.51100000000E-03 0. -1.
         11   -1    0    0    0    0 -0.00000000000E+00 -0.00000000000E+00 -0.45593999997E+02  0.45594000000E+02  0.51100000000E-03 0.  1.
    9900012    2    1    2    0    0 -0.58891796185E+01 -0.20668080465E+02 -0.23555658094E+02  0.59301936979E+02  0.49999987146E+02 0.  0.
         12    1    1    2    0    0  0.58891796185E+01  0.20668080465E+02  0.23555658094E+02  0.31886063021E+02  0.00000000000E+00 0. -1.
         11    1    3    3    0    0  0.94794702927E+01  0.65519237295E+00 -0.14542803362E+02  0.17371895808E+02  0.51100000000E-03 0. -1.
        -11    1    3    3    0    0 -0.11074447261E+02 -0.19236214864E+01 -0.17112005956E+02  0.20473506047E+02  0.51100000000E-03 0.  1.
        -12    1    3    3    0    0 -0.42942026504E+01 -0.19399651352E+02  0.80991512244E+01  0.21456535124E+02  0.00000000000E+00 0.  1.
</event>
<event>
 7    1  0.6184948E-012  0.5930194E+02  0.7816164E-02  0.1266605E+00
        -11   -1    0    0    0    0  0.00000000000E+00  0.00000000000E+00  0.45593999997E+02  0.45594000000E+02  0.51100000000E-03 0. -1.
         11   -1    0    0    0    0 -0.00000000000E+00 -0.00000000000E+00 -0.45593999997E+02  0.45594000000E+02  0.51100000000E-03 0.  1.
    9900012    2    1    2    0    0 -0.20624623618E+02  0.23222624461E+02  0.72149489436E+01  0.59301939182E+02  0.49999991163E+02 0.  0.
         12    1    1    2    0    0  0.20624623618E+02 -0.23222624461E+02 -0.72149489436E+01  0.31886060818E+02  0.00000000000E+00 0. -1.
         11    1    3    3    0    0  0.24233244445E+01  0.21624091376E+02  0.14929331685E+02  0.26388610687E+02  0.51100000000E-03 0. -1.
        -11    1    3    3    0    0 -0.66363489477E+00  0.17934264689E+01 -0.10211781770E+02  0.10389286643E+02  0.51100000000E-03 0.  1.
        -12    1    3    3    0    0 -0.22384313168E+02 -0.19489338380E+00  0.24973990287E+01  0.22524041852E+02  0.00000000000E+00 0.  1.
</event>
<event>
 7    1  0.6184948E-012  0.5930198E+02  0.7816164E-02  0.1266605E+00
        -11   -1    0    0    0    0  0.00000000000E+00  0.00000000000E+00  0.45593999997E+02  0.45594000000E+02  0.51100000000E-03 0. -1.
         11   -1    0    0    0    0 -0.00000000000E+00 -0.00000000000E+00 -0.45593999997E+02  0.45594000000E+02  0.51100000000E-03 0.  1.
    9900012    2    1    2    0    0  0.16100931649E+02 -0.44636145072E+01 -0.27157949513E+02  0.59301983062E+02  0.50000071189E+02 0.  0.
         12    1    1    2    0    0 -0.16100931649E+02  0.44636145072E+01  0.27157949513E+02  0.31886016938E+02  0.00000000000E+00 0. -1.
         11    1    3    3    0    0  0.86005294184E+01 -0.11143160193E+02 -0.23997848087E+02  0.27821499572E+02  0.51100000000E-03 0. -1.
        -11    1    3    3    0    0 -0.39532432014E+01 -0.99979318689E+01  0.10928892302E+01  0.10806534162E+02  0.51100000000E-03 0.  1.
         12    1    3    3    0    0  0.11453645432E+02  0.16677477555E+02 -0.42529906556E+01  0.20673949328E+02  0.00000000000E+00 0. -1.
</event>
<event>
 7    1  0.6184948E-012  0.5930195E+02  0.7816164E-02  0.1266605E+00
        -11   -1    0    0    0    0  0.00000000000E+00  0.00000000000E+00  0.45593999997E+02  0.45594000000E+02  0.51100000000E-03 0.  1.
         11   -1    0    0    0    0 -0.00000000000E+00 -0.00000000000E+00 -0.45593999997E+02  0.45594000000E+02  0.51100000000E-03 0. -1.
    9900012    2    1    2    0    0 -0.14300169974E+02 -0.70680552674E+01  0.27609194113E+02  0.59301954994E+02  0.50000020000E+02 0.  0.
         12    1    1    2    0    0  0.14300169974E+02  0.70680552674E+01 -0.27609194113E+02  0.31886045006E+02  0.00000000000E+00 0. -1.
         11    1    3    3    0    0 -0.37649343573E+01 -0.45016238865E+01 -0.91900419095E+01  0.10903954278E+02  0.51100000000E-03 0. -1.
        -11    1    3    3    0    0 -0.82089239717E+01  0.12852334547E+02  0.22876126665E+02  0.27493382978E+02  0.51100000000E-03 0.  1.
        -12    1    3    3    0    0 -0.23263116451E+01 -0.15418765928E+02  0.13923109357E+02  0.20904617739E+02  0.00000000000E+00 0.  1.
</event>
<event>
 7    1  0.6184948E-012  0.5930197E+02  0.7816164E-02  0.1266605E+00
        -11   -1    0    0    0    0  0.00000000000E+00  0.00000000000E+00  0.45593999997E+02  0.45594000000E+02  0.51100000000E-03 0.  1.
         11   -1    0    0    0    0 -0.00000000000E+00 -0.00000000000E+00 -0.45593999997E+02  0.45594000000E+02  0.51100000000E-03 0. -1.
    9900012    2    1    2    0    0  0.14661540118E+02  0.28074973795E+02  0.36815388716E+01  0.59301974210E+02  0.50000055044E+02 0.  0.
         12    1    1    2    0    0 -0.14661540118E+02 -0.28074973795E+02 -0.36815388716E+01  0.31886025790E+02  0.00000000000E+00 0. -1.
         11    1    3    3    0    0  0.17342163260E+02  0.57870046509E+01  0.10281126639E+02  0.20974785210E+02  0.51100000000E-03 0. -1.
        -11    1    3    3    0    0  0.13479512925E+02  0.58852467618E+01 -0.19590028637E+01  0.14838163317E+02  0.51100000000E-03 0.  1.
         12    1    3    3    0    0 -0.16160136067E+02  0.16402722383E+02 -0.46405849033E+01  0.23489025683E+02  0.00000000000E+00 0. -1.
</event>
<event>
 7    1  0.6184948E-012  0.5930193E+02  0.7816164E-02  0.1266605E+00
        -11   -1    0    0    0    0  0.00000000000E+00  0.00000000000E+00  0.45593999997E+02  0.45594000000E+02  0.51100000000E-03 0.  1.
         11   -1    0    0    0    0 -0.00000000000E+00 -0.00000000000E+00 -0.45593999997E+02  0.45594000000E+02  0.51100000000E-03 0. -1.
    9900012    2    1    2    0    0 -0.13774455885E+02 -0.28226600201E+02  0.54995222365E+01  0.59301931903E+02  0.49999977887E+02 0.  0.
         12    1    1    2    0    0  0.13774455885E+02  0.28226600201E+02 -0.54995222365E+01  0.31886068097E+02  0.00000000000E+00 0. -1.
         11    1    3    3    0    0 -0.15385513862E+02 -0.17226460025E+02 -0.19064150697E+02  0.29948402359E+02  0.51100000000E-03 0. -1.
        -11    1    3    3    0    0 -0.40189958492E+01 -0.71121644413E+01  0.80071855834E+01  0.11438978622E+02  0.51100000000E-03 0.  1.
        -12    1    3    3    0    0  0.56300538259E+01 -0.38879757351E+01  0.16556487350E+02  0.17914550923E+02  0.00000000000E+00 0.  1.
</event>
<event>
 7    1  0.6184948E-012  0.5930191E+02  0.7816164E-02  0.1266605E+00
        -11   -1    0    0    0    0  0.00000000000E+00  0.00000000000E+00  0.45593999997E+02  0.45594000000E+02  0.51100000000E-03 0.  1.
         11   -1    0    0    0    0 -0.00000000000E+00 -0.00000000000E+00 -0.45593999997E+02  0.45594000000E+02  0.51100000000E-03 0. -1.
    9900012    2    1    2    0    0 -0.16437256002E+02 -0.22295922465E+02 -0.15793391325E+02  0.59301909725E+02  0.49999937441E+02 0.  0.
         12    1    1    2    0    0  0.16437256002E+02  0.22295922465E+02  0.15793391325E+02  0.31886090275E+02  0.00000000000E+00 0. -1.
         11    1    3    3    0    0  0.49560616010E+01 -0.13336439888E+02 -0.14513373425E+02  0.20323906709E+02  0.51100000000E-03 0. -1.
        -11    1    3    3    0    0 -0.18243747300E+02  0.15022491717E+00 -0.14015396237E+02  0.23006264691E+02  0.51100000000E-03 0.  1.
        -12    1    3    3    0    0 -0.31495703031E+01 -0.91097074949E+01  0.12735378338E+02  0.15971738326E+02  0.00000000000E+00 0.  1.
</event>
<event>
 7    1  0.6184948E-012  0.5930193E+02  0.7816164E-02  0.1266605E+00
        -11   -1    0    0    0    0  0.00000000000E+00  0.00000000000E+00  0.45593999997E+02  0.45594000000E+02  0.51100000000E-03 0.  1.
         11   -1    0    0    0    0 -0.00000000000E+00 -0.00000000000E+00 -0.45593999997E+02  0.45594000000E+02  0.51100000000E-03 0. -1.
    9900012    2    1    2    0    0  0.25861881905E+02  0.18651659569E+02 -0.18376586813E-01  0.59301926581E+02  0.49999968182E+02 0.  0.
         12    1    1    2    0    0 -0.25861881905E+02 -0.18651659569E+02  0.18376586813E-01  0.31886073419E+02  0.00000000000E+00 0. -1.
         11    1    3    3    0    0  0.12004665046E+02  0.19294304191E+02  0.28642022297E+01  0.22903838363E+02  0.51100000000E-03 0. -1.
        -11    1    3    3    0    0  0.17756531050E+02  0.12936771133E+02 -0.35490004544E+01  0.22254209641E+02  0.51100000000E-03 0.  1.
         12    1    3    3    0    0 -0.38993141908E+01 -0.13579415755E+02  0.66642163793E+00  0.14143878577E+02  0.00000000000E+00 0. -1.
</event>
<event>
 7    1  0.6184948E-012  0.5930189E+02  0.7816164E-02  0.1266605E+00
        -11   -1    0    0    0    0  0.00000000000E+00  0.00000000000E+00  0.45593999997E+02  0.45594000000E+02  0.51100000000E-03 0. -1.
         11   -1    0    0    0    0 -0.00000000000E+00 -0.00000000000E+00 -0.45593999997E+02  0.45594000000E+02  0.51100000000E-03 0.  1.
    9900012    2    1    2    0    0 -0.27367333248E+02 -0.16310748735E+02 -0.13087648955E+01  0.59301885170E+02  0.49999892657E+02 0.  0.
         12    1    1    2    0    0  0.27367333248E+02  0.16310748735E+02  0.13087648955E+01  0.31886114830E+02  0.00000000000E+00 0. -1.
         11    1    3    3    0    0 -0.39661288062E+01  0.73002082756E+01  0.98918834485E+01  0.12917916898E+02  0.51100000000E-03 0. -1.
        -11    1    3    3    0    0 -0.29048926363E+02 -0.11802524732E+02 -0.11197311116E+02  0.33294436313E+02  0.51100000000E-03 0.  1.
         12    1    3    3    0    0  0.56477219208E+01 -0.11808432278E+02 -0.33372277404E-02  0.13089531959E+02  0.00000000000E+00 0. -1.
</event>
<event>
 7    1  0.6184948E-012  0.5930199E+02  0.7816164E-02  0.1266605E+00
        -11   -1    0    0    0    0  0.00000000000E+00  0.00000000000E+00  0.45593999997E+02  0.45594000000E+02  0.51100000000E-03 0.  1.
         11   -1    0    0    0    0 -0.00000000000E+00 -0.00000000000E+00 -0.45593999997E+02  0.45594000000E+02  0.51100000000E-03 0. -1.
    9900012    2    1    2    0    0  0.43422630710E+01 -0.24899863366E+02  0.19438606190E+02  0.59301986533E+02  0.50000077519E+02 0.  0.
         12    1    1    2    0    0 -0.43422630710E+01  0.24899863366E+02 -0.19438606190E+02  0.31886013467E+02  0.00000000000E+00 0. -1.
         11    1    3    3    0    0 -0.60581713874E+01 -0.17119388997E+01 -0.54875780574E+01  0.83513884206E+01  0.51100000000E-03 0. -1.
        -11    1    3    3    0    0 -0.74848266607E+01 -0.82996087379E+01  0.25319246530E+02  0.27676169902E+02  0.51100000000E-03 0.  1.
         12    1    3    3    0    0  0.17885261119E+02 -0.14888315728E+02 -0.39306228258E+00  0.23274428210E+02  0.00000000000E+00 0. -1.
</event>
<event>
 7    1  0.6184948E-012  0.5930198E+02  0.7816164E-02  0.1266605E+00
        -11   -1    0    0    0    0  0.00000000000E+00  0.00000000000E+00  0.45593999997E+02  0.45594000000E+02  0.51100000000E-03 0.  1.
         11   -1    0    0    0    0 -0.00000000000E+00 -0.00000000000E+00 -0.45593999997E+02  0.45594000000E+02  0.51100000000E-03 0. -1.
    9900012    2    1    2    0    0  0.30727065500E+02  0.36635584702E+01 -0.76905045129E+01  0.59301983088E+02  0.50000071236E+02 0.  0.
         12    1    1    2    0    0 -0.30727065500E+02 -0.36635584702E+01  0.76905045129E+01  0.31886016912E+02  0.00000000000E+00 0. -1.
         11    1    3    3    0    0  0.15883076108E+02  0.49243161749E+01 -0.13907635190E+02  0.21678175967E+02  0.51100000000E-03 0. -1.
        -11    1    3    3    0    0 -0.26168338559E+01  0.22994366480E+01 -0.11787558354E+02  0.12291532066E+02  0.51100000000E-03 0.  1.
         12    1    3    3    0    0  0.17460823248E+02 -0.35601943528E+01  0.18004689031E+02  0.25332275054E+02  0.00000000000E+00 0. -1.
</event>
<event>
 7    1  0.6184948E-012  0.5930194E+02  0.7816164E-02  0.1266605E+00
        -11   -1    0    0    0    0  0.00000000000E+00  0.00000000000E+00  0.45593999997E+02  0.45594000000E+02  0.51100000000E-03 0.  1.
         11   -1    0    0    0    0 -0.00000000000E+00 -0.00000000000E+00 -0.45593999997E+02  0.45594000000E+02  0.51100000000E-03 0. -1.
    9900012    2    1    2    0    0 -0.26169973945E+01  0.26572697867E+02  0.17428823549E+02  0.59301939761E+02  0.49999992218E+02 0.  0.
         12    1    1    2    0    0  0.26169973945E+01 -0.26572697867E+02 -0.17428823549E+02  0.31886060239E+02  0.00000000000E+00 0. -1.
         11    1    3    3    0    0  0.16057188301E+01 -0.20229360607E+01 -0.83473828638E+00  0.27142939294E+01  0.51100000000E-03 0. -1.
        -11    1    3    3    0    0 -0.24429327846E+02  0.17012005958E+02  0.64014938316E+01  0.30449622810E+02  0.51100000000E-03 0.  1.
         12    1    3    3    0    0  0.20206611621E+02  0.11583627970E+02  0.11862068003E+02  0.26138023022E+02  0.00000000000E+00 0. -1.
</event>
<event>
 7    1  0.6184948E-012  0.5930194E+02  0.7816164E-02  0.1266605E+00
        -11   -1    0    0    0    0  0.00000000000E+00  0.00000000000E+00  0.45593999997E+02  0.45594000000E+02  0.51100000000E-03 0. -1.
         11   -1    0    0    0    0 -0.00000000000E+00 -0.00000000000E+00 -0.45593999997E+02  0.45594000000E+02  0.51100000000E-03 0.  1.
    9900012    2    1    2    0    0  0.92711299340E+01  0.29323752438E+02  0.84193047717E+01  0.59301937212E+02  0.49999987569E+02 0.  0.
         12    1    1    2    0    0 -0.92711299340E+01 -0.29323752438E+02 -0.84193047717E+01  0.31886062788E+02  0.00000000000E+00 0. -1.
         11    1    3    3    0    0  0.11459508796E+02  0.21991748309E+01  0.54361641339E+01  0.12872784957E+02  0.51100000000E-03 0. -1.
        -11    1    3    3    0    0 -0.16568477227E+01 -0.49946399092E+01 -0.10379383127E+02  0.11637145980E+02  0.51100000000E-03 0.  1.
        -12    1    3    3    0    0 -0.53153113971E+00  0.32119217517E+02  0.13362523765E+02  0.34792006274E+02  0.00000000000E+00 0.  1.
</event>
<event>
 7    1  0.6184948E-012  0.5930194E+02  0.7816164E-02  0.1266605E+00
        -11   -1    0    0    0    0  0.00000000000E+00  0.00000000000E+00  0.45593999997E+02  0.45594000000E+02  0.51100000000E-03 0.  1.
         11   -1    0    0    0    0 -0.00000000000E+00 -0.00000000000E+00 -0.45593999997E+02  0.45594000000E+02  0.51100000000E-03 0. -1.
    9900012    2    1    2    0    0 -0.21591098429E+01 -0.20707872643E+02  0.24150425570E+02  0.59301940351E+02  0.49999993295E+02 0.  0.
         12    1    1    2    0    0  0.21591098429E+01  0.20707872643E+02 -0.24150425570E+02  0.31886059649E+02  0.00000000000E+00 0. -1.
         11    1    3    3    0    0 -0.47629149344E+01 -0.67156377853E+01  0.81033543693E+01  0.11552034532E+02  0.51100000000E-03 0. -1.
        -11    1    3    3    0    0 -0.57676136011E+01  0.76715074119E+01  0.21803272280E+02  0.23822260073E+02  0.51100000000E-03 0.  1.
         12    1    3    3    0    0  0.83714186927E+01 -0.21663742270E+02 -0.57562010797E+01  0.23927645746E+02  0.00000000000E+00 0. -1.
</event>
<event>
 7    1  0.6184948E-012  0.5930195E+02  0.7816164E-02  0.1266605E+00
        -11   -1    0    0    0    0  0.00000000000E+00  0.00000000000E+00  0.45593999997E+02  0.45594000000E+02  0.51100000000E-03 0. -1.
         11   -1    0    0    0    0 -0.00000000000E+00 -0.00000000000E+00 -0.45593999997E+02  0.45594000000E+02  0.51100000000E-03 0.  1.
    9900012    2    1    2    0    0  0.12290904209E+02 -0.53290483693E+01 -0.28935357138E+02  0.59301953279E+02  0.50000016872E+02 0.  0.
         12    1    1    2    0    0 -0.12290904209E+02  0.53290483693E+01  0.28935357138E+02  0.31886046721E+02  0.00000000000E+00 0. -1.
         11    1    3    3    0    0  0.54626867881E+01  0.87136561147E+01 -0.13061811035E+02  0.16624670150E+02  0.51100000000E-03 0. -1.
        -11    1    3    3    0    0  0.44445369289E+01 -0.95059161119E+01 -0.27790166555E+02  0.29705381786E+02  0.51100000000E-03 0.  1.
         12    1    3    3    0    0  0.23836804924E+01 -0.45367883720E+01  0.11916620452E+02  0.12971901342E+02  0.00000000000E+00 0. -1.
</event>
<event>
 7    1  0.6184948E-012  0.5930173E+02  0.7816164E-02  0.1266605E+00
        -11   -1    0    0    0    0  0.00000000000E+00  0.00000000000E+00  0.45593999997E+02  0.45594000000E+02  0.51100000000E-03 0. -1.
         11   -1    0    0    0    0 -0.00000000000E+00 -0.00000000000E+00 -0.45593999997E+02  0.45594000000E+02  0.51100000000E-03 0.  1.
    9900012    2    1    2    0    0  0.81392916231E+01  0.30809226853E+02 -0.11302891376E+01  0.59301732094E+02  0.49999613482E+02 0.  0.
         12    1    1    2    0    0 -0.81392916231E+01 -0.30809226853E+02  0.11302891376E+01  0.31886267906E+02  0.00000000000E+00 0. -1.
         11    1    3    3    0    0 -0.12862909220E+02 -0.47026369162E+01 -0.20196694568E+01  0.13843709493E+02  0.51100000000E-03 0. -1.
        -11    1    3    3    0    0  0.25700088845E+01 -0.82568294508E+00  0.37410463645E+01  0.46132554834E+01  0.51100000000E-03 0.  1.
        -12    1    3    3    0    0  0.18432191958E+02  0.36337546715E+02 -0.28516660453E+01  0.40844767117E+02  0.00000000000E+00 0.  1.
</event>
<event>
 7    1  0.6184948E-012  0.5930195E+02  0.7816164E-02  0.1266605E+00
        -11   -1    0    0    0    0  0.00000000000E+00  0.00000000000E+00  0.45593999997E+02  0.45594000000E+02  0.51100000000E-03 0. -1.
         11   -1    0    0    0    0 -0.00000000000E+00 -0.00000000000E+00 -0.45593999997E+02  0.45594000000E+02  0.51100000000E-03 0.  1.
    9900012    2    1    2    0    0  0.15950405515E+02 -0.19830029720E+02 -0.19211312189E+02  0.59301952411E+02  0.50000015289E+02 0.  0.
         12    1    1    2    0    0 -0.15950405515E+02  0.19830029720E+02  0.19211312189E+02  0.31886047589E+02  0.00000000000E+00 0. -1.
         11    1    3    3    0    0  0.12546044731E+02 -0.46453517148E+01  0.97833258536E+01  0.16573955350E+02  0.51100000000E-03 0. -1.
        -11    1    3    3    0    0  0.28845679428E+01 -0.10213425903E+02  0.24471131013E+01  0.10891426155E+02  0.51100000000E-03 0.  1.
        -12    1    3    3    0    0  0.51979284200E+00 -0.49712521023E+01 -0.31441751144E+02  0.31836570906E+02  0.00000000000E+00 0.  1.
</event>
<event>
 7    1  0.6184948E-012  0.5930198E+02  0.7816164E-02  0.1266605E+00
        -11   -1    0    0    0    0  0.00000000000E+00  0.00000000000E+00  0.45593999997E+02  0.45594000000E+02  0.51100000000E-03 0. -1.
         11   -1    0    0    0    0 -0.00000000000E+00 -0.00000000000E+00 -0.45593999997E+02  0.45594000000E+02  0.51100000000E-03 0.  1.
    9900012    2    1    2    0    0  0.21920604800E+02 -0.11017051880E+02  0.20367381642E+02  0.59301975132E+02  0.50000056727E+02 0.  0.
         12    1    1    2    0    0 -0.21920604800E+02  0.11017051880E+02 -0.20367381642E+02  0.31886024868E+02  0.00000000000E+00 0. -1.
         11    1    3    3    0    0 -0.13165304221E+01  0.88936868856E+01  0.70022298233E+01  0.11395707154E+02  0.51100000000E-03 0. -1.
        -11    1    3    3    0    0  0.49540198099E+01 -0.93745752871E+01  0.22529936747E+02  0.24900261528E+02  0.51100000000E-03 0.  1.
        -12    1    3    3    0    0  0.18283115412E+02 -0.10536163479E+02 -0.91647849283E+01  0.23006006451E+02  0.00000000000E+00 0.  1.
</event>
<event>
 7    1  0.6184948E-012  0.5930193E+02  0.7816164E-02  0.1266605E+00
        -11   -1    0    0    0    0  0.00000000000E+00  0.00000000000E+00  0.45593999997E+02  0.45594000000E+02  0.51100000000E-03 0.  1.
         11   -1    0    0    0    0 -0.00000000000E+00 -0.00000000000E+00 -0.45593999997E+02  0.45594000000E+02  0.51100000000E-03 0. -1.
    9900012    2    1    2    0    0  0.31554396077E+02  0.83526054534E-01 -0.45863210163E+01  0.59301933625E+02  0.49999981028E+02 0.  0.
         12    1    1    2    0    0 -0.31554396077E+02 -0.83526054534E-01  0.45863210163E+01  0.31886066375E+02  0.00000000000E+00 0. -1.
         11    1    3    3    0    0 -0.66513726591E+01 -0.69794076244E+01 -0.60118768378E+01  0.11362022373E+02  0.51100000000E-03 0. -1.
        -11    1    3    3    0    0 -0.45126034584E+00 -0.48493912604E+01  0.54266448603E+01  0.72916874725E+01  0.51100000000E-03 0.  1.
         12    1    3    3    0    0  0.38657029082E+02  0.11912324939E+02 -0.40010890388E+01  0.40648223779E+02  0.00000000000E+00 0. -1.
</event>
<event>
 7    1  0.6184948E-012  0.5930192E+02  0.7816164E-02  0.1266605E+00
        -11   -1    0    0    0    0  0.00000000000E+00  0.00000000000E+00  0.45593999997E+02  0.45594000000E+02  0.51100000000E-03 0. -1.
         11   -1    0    0    0    0 -0.00000000000E+00 -0.00000000000E+00 -0.45593999997E+02  0.45594000000E+02  0.51100000000E-03 0.  1.
    9900012    2    1    2    0    0 -0.12472268920E+02 -0.19709199599E+02 -0.21741947481E+02  0.59301916498E+02  0.49999949792E+02 0.  0.
         12    1    1    2    0    0  0.12472268920E+02  0.19709199599E+02  0.21741947481E+02  0.31886083502E+02  0.00000000000E+00 0. -1.
         11    1    3    3    0    0 -0.23060731048E+02 -0.54164481230E+01 -0.15772564329E+02  0.28458900409E+02  0.51100000000E-03 0. -1.
        -11    1    3    3    0    0 -0.66009159020E+01 -0.22041785193E+00  0.25090184598E+01  0.70651149083E+01  0.51100000000E-03 0.  1.
        -12    1    3    3    0    0  0.17189378029E+02 -0.14072333624E+02 -0.84784016122E+01  0.23777901180E+02  0.00000000000E+00 0.  1.
</event>
<event>
 7    1  0.6184948E-012  0.5930194E+02  0.7816164E-02  0.1266605E+00
        -11   -1    0    0    0    0  0.00000000000E+00  0.00000000000E+00  0.45593999997E+02  0.45594000000E+02  0.51100000000E-03 0.  1.
         11   -1    0    0    0    0 -0.00000000000E+00 -0.00000000000E+00 -0.45593999997E+02  0.45594000000E+02  0.51100000000E-03 0. -1.
    9900012    2    1    2    0    0 -0.21424807903E+02  0.23482875330E+02  0.25006218120E+01  0.59301938203E+02  0.49999989378E+02 0.  0.
         12    1    1    2    0    0  0.21424807903E+02 -0.23482875330E+02 -0.25006218120E+01  0.31886061797E+02  0.00000000000E+00 0. -1.
         11    1    3    3    0    0 -0.94809882846E+00 -0.60955885998E+00 -0.65916094121E+01  0.66872840746E+01  0.51100000000E-03 0. -1.
        -11    1    3    3    0    0  0.63900225470E+01 -0.75018462150E+01 -0.10765828771E+01  0.99130780153E+01  0.51100000000E-03 0.  1.
         12    1    3    3    0    0 -0.26866731621E+02  0.31594280405E+02  0.10168814101E+02  0.42701576113E+02  0.00000000000E+00 0. -1.
</event>
<event>
 7    1  0.6184948E-012  0.5930195E+02  0.7816164E-02  0.1266605E+00
        -11   -1    0    0    0    0  0.00000000000E+00  0.00000000000E+00  0.45593999997E+02  0.45594000000E+02  0.51100000000E-03 0. -1.
         11   -1    0    0    0    0 -0.00000000000E+00 -0.00000000000E+00 -0.45593999997E+02  0.45594000000E+02  0.51100000000E-03 0.  1.
    9900012    2    1    2    0    0  0.10912625705E+02  0.27847136964E+02  0.11053146950E+02  0.59301945143E+02  0.50000002034E+02 0.  0.
         12    1    1    2    0    0 -0.10912625705E+02 -0.27847136964E+02 -0.11053146950E+02  0.31886054857E+02  0.00000000000E+00 0. -1.
         11    1    3    3    0    0  0.12124918656E+02  0.81531192857E+01  0.14591415728E+02  0.20649368506E+02  0.51100000000E-03 0. -1.
        -11    1    3    3    0    0 -0.51729796381E+01 -0.81920511364E+01  0.21347291302E+01  0.99210124926E+01  0.51100000000E-03 0.  1.
         12    1    3    3    0    0  0.39606866872E+01  0.27886068814E+02 -0.56729979075E+01  0.28731564145E+02  0.00000000000E+00 0. -1.
</event>
<event>
 7    1  0.6184948E-012  0.5930193E+02  0.7816164E-02  0.1266605E+00
        -11   -1    0    0    0    0  0.00000000000E+00  0.00000000000E+00  0.45593999997E+02  0.45594000000E+02  0.51100000000E-03 0. -1.
         11   -1    0    0    0    0 -0.00000000000E+00 -0.00000000000E+00 -0.45593999997E+02  0.45594000000E+02  0.51100000000E-03 0.  1.
    9900012    2    1    2    0    0 -0.21862561092E+02  0.52759938573E+01 -0.22603396402E+02  0.59301933802E+02  0.49999981352E+02 0.  0.
         12    1    1    2    0    0  0.21862561092E+02 -0.52759938573E+01  0.22603396402E+02  0.31886066198E+02  0.00000000000E+00 0. -1.
         11    1    3    3    0    0 -0.68966176452E+01 -0.42428883011E+01  0.63095898644E+00  0.81217944805E+01  0.51100000000E-03 0. -1.
        -11    1    3    3    0    0 -0.29703298504E+02  0.78234957625E+01 -0.16797468144E+02  0.35009255409E+02  0.51100000000E-03 0.  1.
        -12    1    3    3    0    0  0.14737355058E+02  0.16953863960E+01 -0.64368872436E+01  0.16170883913E+02  0.00000000000E+00 0.  1.
</event>
<event>
 7    1  0.6184948E-012  0.5930196E+02  0.7816164E-02  0.1266605E+00
        -11   -1    0    0    0    0  0.00000000000E+00  0.00000000000E+00  0.45593999997E+02  0.45594000000E+02  0.51100000000E-03 0. -1.
         11   -1    0    0    0    0 -0.00000000000E+00 -0.00000000000E+00 -0.45593999997E+02  0.45594000000E+02  0.51100000000E-03 0.  1.
    9900012    2    1    2    0    0  0.80162573443E+01 -0.20954125945E+02 -0.22657972310E+02  0.59301960968E+02  0.50000030895E+02 0.  0.
         12    1    1    2    0    0 -0.80162573443E+01  0.20954125945E+02  0.22657972310E+02  0.31886039032E+02  0.00000000000E+00 0. -1.
         11    1    3    3    0    0  0.58895344364E+01 -0.83872187730E+01 -0.44655919070E+01  0.11179157659E+02  0.51100000000E-03 0. -1.
        -11    1    3    3    0    0  0.10386662080E+02 -0.17046063447E+02  0.70646929027E+01  0.21174534570E+02  0.51100000000E-03 0.  1.
        -12    1    3    3    0    0 -0.82599391722E+01  0.44791562745E+01 -0.25257073306E+02  0.26948268739E+02  0.00000000000E+00 0.  1.
</event>
<event>
 7    1  0.6184948E-012  0.5930195E+02  0.7816164E-02  0.1266605E+00
        -11   -1    0    0    0    0  0.00000000000E+00  0.00000000000E+00  0.45593999997E+02  0.45594000000E+02  0.51100000000E-03 0. -1.
         11   -1    0    0    0    0 -0.00000000000E+00 -0.00000000000E+00 -0.45593999997E+02  0.45594000000E+02  0.51100000000E-03 0.  1.
    9900012    2    1    2    0    0  0.26783150660E+02  0.41386464122E+01 -0.16800444490E+02  0.59301945235E+02  0.50000002202E+02 0.  0.
         12    1    1    2    0    0 -0.26783150660E+02 -0.41386464122E+01  0.16800444490E+02  0.31886054765E+02  0.00000000000E+00 0. -1.
         11    1    3    3    0    0  0.42270402166E+01 -0.77267139305E+01  0.11763338562E+02  0.14695105020E+02  0.51100000000E-03 0. -1.
        -11    1    3    3    0    0  0.11609932138E+02 -0.59314649410E+01 -0.80287840867E+01  0.15311243410E+02  0.51100000000E-03 0.  1.
        -12    1    3    3    0    0  0.10946178305E+02  0.17796825284E+02 -0.20534998965E+02  0.29295596805E+02  0.00000000000E+00 0.  1.
</event>
<event>
 7    1  0.6184948E-012  0.5930195E+02  0.7816164E-02  0.1266605E+00
        -11   -1    0    0    0    0  0.00000000000E+00  0.00000000000E+00  0.45593999997E+02  0.45594000000E+02  0.51100000000E-03 0. -1.
         11   -1    0    0    0    0 -0.00000000000E+00 -0.00000000000E+00 -0.45593999997E+02  0.45594000000E+02  0.51100000000E-03 0.  1.
    9900012    2    1    2    0    0  0.17985637653E+02  0.11744963064E+02 -0.23564658501E+02  0.59301945848E+02  0.50000003319E+02 0.  0.
         12    1    1    2    0    0 -0.17985637653E+02 -0.11744963064E+02  0.23564658501E+02  0.31886054152E+02  0.00000000000E+00 0. -1.
         11    1    3    3    0    0 -0.43956164933E+01 -0.33626552409E+01 -0.26759230185E+01  0.61473131437E+01  0.51100000000E-03 0. -1.
        -11    1    3    3    0    0  0.15776671434E+02 -0.90234365378E+01 -0.21469368806E+02  0.28129336389E+02  0.51100000000E-03 0.  1.
         12    1    3    3    0    0  0.66045827125E+01  0.24131054842E+02  0.58063332362E+00  0.25025296315E+02  0.00000000000E+00 0. -1.
</event>
<event>
 7    1  0.6184948E-012  0.5930204E+02  0.7816164E-02  0.1266604E+00
        -11   -1    0    0    0    0  0.00000000000E+00  0.00000000000E+00  0.45593999997E+02  0.45594000000E+02  0.51100000000E-03 0. -1.
         11   -1    0    0    0    0 -0.00000000000E+00 -0.00000000000E+00 -0.45593999997E+02  0.45594000000E+02  0.51100000000E-03 0.  1.
    9900012    2    1    2    0    0 -0.26078770900E+01  0.25824681278E+02  0.18520231395E+02  0.59302044519E+02  0.50000183272E+02 0.  0.
         12    1    1    2    0    0  0.26078770900E+01 -0.25824681278E+02 -0.18520231395E+02  0.31885955481E+02  0.00000000000E+00 0. -1.
         11    1    3    3    0    0  0.10374575870E+02  0.20038368753E+01 -0.34875610054E+01  0.11127006279E+02  0.51100000000E-03 0. -1.
        -11    1    3    3    0    0 -0.99824045631E+01  0.13438875420E+02 -0.62904226764E+01  0.17883545261E+02  0.51100000000E-03 0.  1.
         12    1    3    3    0    0 -0.30000483971E+01  0.10381968983E+02  0.28298215076E+02  0.30291492978E+02  0.00000000000E+00 0. -1.
</event>
<event>
 7    1  0.6184948E-012  0.5930194E+02  0.7816164E-02  0.1266605E+00
        -11   -1    0    0    0    0  0.00000000000E+00  0.00000000000E+00  0.45593999997E+02  0.45594000000E+02  0.51100000000E-03 0. -1.
         11   -1    0    0    0    0 -0.00000000000E+00 -0.00000000000E+00 -0.45593999997E+02  0.45594000000E+02  0.51100000000E-03 0.  1.
    9900012    2    1    2    0    0 -0.31633682350E+02 -0.26920634698E+01  0.29637729613E+01  0.59301936980E+02  0.49999987146E+02 0.  0.
         12    1    1    2    0    0  0.31633682350E+02  0.26920634698E+01 -0.29637729613E+01  0.31886063020E+02  0.00000000000E+00 0. -1.
         11    1    3    3    0    0  0.31218556533E+01  0.54797957817E+01 -0.11321972568E+01  0.64074968138E+01  0.51100000000E-03 0. -1.
        -11    1    3    3    0    0 -0.12321474042E+02  0.13274356817E+02 -0.77161554150E+01  0.19686704298E+02  0.51100000000E-03 0.  1.
        -12    1    3    3    0    0 -0.22434063962E+02 -0.21446216068E+02  0.11812125633E+02  0.33207735868E+02  0.00000000000E+00 0.  1.
</event>
<event>
 7    1  0.6184948E-012  0.5930198E+02  0.7816164E-02  0.1266605E+00
        -11   -1    0    0    0    0  0.00000000000E+00  0.00000000000E+00  0.45593999997E+02  0.45594000000E+02  0.51100000000E-03 0. -1.
         11   -1    0    0    0    0 -0.00000000000E+00 -0.00000000000E+00 -0.45593999997E+02  0.45594000000E+02  0.51100000000E-03 0.  1.
    9900012    2    1    2    0    0  0.26786378618E+02  0.14999557898E+02 -0.86151834281E+01  0.59301981087E+02  0.50000067587E+02 0.  0.
         12    1    1    2    0    0 -0.26786378618E+02 -0.14999557898E+02  0.86151834281E+01  0.31886018913E+02  0.00000000000E+00 0. -1.
         11    1    3    3    0    0  0.12457095708E+02  0.25752933955E+02 -0.13710352434E+02  0.31723281749E+02  0.51100000000E-03 0. -1.
        -11    1    3    3    0    0  0.11873483775E+02  0.33551789361E+01 -0.11699415007E+00  0.12338984178E+02  0.51100000000E-03 0.  1.
         12    1    3    3    0    0  0.24557991351E+01 -0.14108554993E+02  0.52121631558E+01  0.15239715160E+02  0.00000000000E+00 0. -1.
</event>
<event>
 7    1  0.6184948E-012  0.5930195E+02  0.7816164E-02  0.1266605E+00
        -11   -1    0    0    0    0  0.00000000000E+00  0.00000000000E+00  0.45593999997E+02  0.45594000000E+02  0.51100000000E-03 0.  1.
         11   -1    0    0    0    0 -0.00000000000E+00 -0.00000000000E+00 -0.45593999997E+02  0.45594000000E+02  0.51100000000E-03 0. -1.
    9900012    2    1    2    0    0  0.13651518893E+02 -0.12476875140E+02  0.25974673197E+02  0.59301952439E+02  0.50000015341E+02 0.  0.
         12    1    1    2    0    0 -0.13651518893E+02  0.12476875140E+02 -0.25974673197E+02  0.31886047561E+02  0.00000000000E+00 0. -1.
         11    1    3    3    0    0  0.25801268819E+00 -0.12201437428E+02  0.10686911788E+01  0.12250867192E+02  0.51100000000E-03 0. -1.
        -11    1    3    3    0    0  0.16409143968E+02  0.41052980534E+01  0.33164075515E+02  0.37228609736E+02  0.51100000000E-03 0.  1.
         12    1    3    3    0    0 -0.30156377628E+01 -0.43807357645E+01 -0.82580934968E+01  0.98224755106E+01  0.00000000000E+00 0. -1.
</event>
<event>
 7    1  0.6184948E-012  0.5930208E+02  0.7816164E-02  0.1266604E+00
        -11   -1    0    0    0    0  0.00000000000E+00  0.00000000000E+00  0.45593999997E+02  0.45594000000E+02  0.51100000000E-03 0.  1.
         11   -1    0    0    0    0 -0.00000000000E+00 -0.00000000000E+00 -0.45593999997E+02  0.45594000000E+02  0.51100000000E-03 0. -1.
    9900012    2    1    2    0    0  0.51300007079E+01  0.89897447862E+01  0.30159230397E+02  0.59302084666E+02  0.50000256489E+02 0.  0.
         12    1    1    2    0    0 -0.51300007079E+01 -0.89897447862E+01 -0.30159230397E+02  0.31885915334E+02  0.00000000000E+00 0. -1.
         11    1    3    3    0    0 -0.10842270728E+02  0.70185644174E+01 -0.29727040343E+01  0.13253378836E+02  0.51100000000E-03 0. -1.
        -11    1    3    3    0    0 -0.40499183351E+01  0.50442856008E+01  0.22007254186E+02  0.22938306233E+02  0.51100000000E-03 0.  1.
        -12    1    3    3    0    0  0.20022189771E+02 -0.30731052319E+01  0.11124680245E+02  0.23110399597E+02  0.00000000000E+00 0.  1.
</event>
<event>
 7    1  0.6184948E-012  0.5930195E+02  0.7816164E-02  0.1266605E+00
        -11   -1    0    0    0    0  0.00000000000E+00  0.00000000000E+00  0.45593999997E+02  0.45594000000E+02  0.51100000000E-03 0. -1.
         11   -1    0    0    0    0 -0.00000000000E+00 -0.00000000000E+00 -0.45593999997E+02  0.45594000000E+02  0.51100000000E-03 0.  1.
    9900012    2    1    2    0    0 -0.13081378110E+02 -0.89338761087E+01 -0.27672799156E+02  0.59301946486E+02  0.50000004483E+02 0.  0.
         12    1    1    2    0    0  0.13081378110E+02  0.89338761087E+01  0.27672799156E+02  0.31886053514E+02  0.00000000000E+00 0. -1.
         11    1    3    3    0    0 -0.84666598826E+01  0.41327194600E+01  0.85001813981E+00  0.94597162115E+01  0.51100000000E-03 0. -1.
        -11    1    3    3    0    0  0.41961712391E+01  0.11599768799E+02 -0.17532527628E+02  0.21437164331E+02  0.51100000000E-03 0.  1.
         12    1    3    3    0    0 -0.88108894661E+01 -0.24666364367E+02 -0.10990289667E+02  0.28405065944E+02  0.00000000000E+00 0. -1.
</event>
<event>
 7    1  0.6184948E-012  0.5930196E+02  0.7816164E-02  0.1266605E+00
        -11   -1    0    0    0    0  0.00000000000E+00  0.00000000000E+00  0.45593999997E+02  0.45594000000E+02  0.51100000000E-03 0. -1.
         11   -1    0    0    0    0 -0.00000000000E+00 -0.00000000000E+00 -0.45593999997E+02  0.45594000000E+02  0.51100000000E-03 0.  1.
    9900012    2    1    2    0    0  0.17346537713E+02 -0.24876329293E+02 -0.98481191855E+01  0.59301959462E+02  0.50000028148E+02 0.  0.
         12    1    1    2    0    0 -0.17346537713E+02  0.24876329293E+02  0.98481191855E+01  0.31886040538E+02  0.00000000000E+00 0. -1.
         11    1    3    3    0    0 -0.66287149539E+01 -0.12806808104E+02 -0.47972978314E+01  0.15197640031E+02  0.51100000000E-03 0. -1.
        -11    1    3    3    0    0  0.60875159815E+00  0.42495258456E+00 -0.15575638179E+02  0.15593321268E+02  0.51100000000E-03 0.  1.
        -12    1    3    3    0    0  0.23366501069E+02 -0.12494473773E+02  0.10524816825E+02  0.28510998163E+02  0.00000000000E+00 0.  1.
</event>
<event>
 7    1  0.6184948E-012  0.5930194E+02  0.7816164E-02  0.1266605E+00
        -11   -1    0    0    0    0  0.00000000000E+00  0.00000000000E+00  0.45593999997E+02  0.45594000000E+02  0.51100000000E-03 0.  1.
         11   -1    0    0    0    0 -0.00000000000E+00 -0.00000000000E+00 -0.45593999997E+02  0.45594000000E+02  0.51100000000E-03 0. -1.
    9900012    2    1    2    0    0  0.38662864499E+01 -0.19446125359E+02  0.24972398367E+02  0.59301942819E+02  0.49999997795E+02 0.  0.
         12    1    1    2    0    0 -0.38662864499E+01  0.19446125359E+02 -0.24972398367E+02  0.31886057181E+02  0.00000000000E+00 0. -1.
         11    1    3    3    0    0  0.94538084617E+01 -0.16814453759E+02  0.28209342382E+02  0.34174074202E+02  0.51100000000E-03 0. -1.
        -11    1    3    3    0    0  0.19210266855E+01  0.48490742512E+01  0.80834537101E+01  0.96200877732E+01  0.51100000000E-03 0.  1.
         12    1    3    3    0    0 -0.75085486974E+01 -0.74807458514E+01 -0.11320397726E+02  0.15507780844E+02  0.00000000000E+00 0. -1.
</event>
<event>
 7    1  0.6184948E-012  0.5930178E+02  0.7816164E-02  0.1266605E+00
        -11   -1    0    0    0    0  0.00000000000E+00  0.00000000000E+00  0.45593999997E+02  0.45594000000E+02  0.51100000000E-03 0.  1.
         11   -1    0    0    0    0 -0.00000000000E+00 -0.00000000000E+00 -0.45593999997E+02  0.45594000000E+02  0.51100000000E-03 0. -1.
    9900012    2    1    2    0    0  0.12693687008E+02 -0.94039646377E+01  0.27697780510E+02  0.59301775923E+02  0.49999693416E+02 0.  0.
         12    1    1    2    0    0 -0.12693687008E+02  0.94039646377E+01 -0.27697780510E+02  0.31886224077E+02  0.00000000000E+00 0. -1.
         11    1    3    3    0    0  0.10915066922E+02 -0.36043127190E+01  0.32752005563E+02  0.34710569352E+02  0.51100000000E-03 0. -1.
        -11    1    3    3    0    0  0.37835639416E+01 -0.69834711504E+01  0.80341025842E+01  0.11297390407E+02  0.51100000000E-03 0.  1.
         12    1    3    3    0    0 -0.20049438559E+01  0.11838192318E+01 -0.13088327638E+02  0.13293816164E+02  0.00000000000E+00 0. -1.
</event>
<event>
 7    1  0.6184948E-012  0.5930194E+02  0.7816164E-02  0.1266605E+00
        -11   -1    0    0    0    0  0.00000000000E+00  0.00000000000E+00  0.45593999997E+02  0.45594000000E+02  0.51100000000E-03 0.  1.
         11   -1    0    0    0    0 -0.00000000000E+00 -0.00000000000E+00 -0.45593999997E+02  0.45594000000E+02  0.51100000000E-03 0. -1.
    9900012    2    1    2    0    0  0.80313853572E+01  0.29926608457E+02  0.75243622922E+01  0.59301936079E+02  0.49999985503E+02 0.  0.
         12    1    1    2    0    0 -0.80313853572E+01 -0.29926608457E+02 -0.75243622922E+01  0.31886063921E+02  0.00000000000E+00 0. -1.
         11    1    3    3    0    0 -0.20992576273E+01 -0.10208518604E+01  0.77407294500E+01  0.80850425964E+01  0.51100000000E-03 0. -1.
        -11    1    3    3    0    0 -0.13152739542E+02  0.20329294063E+02  0.58663913758E+01  0.24913636880E+02  0.51100000000E-03 0.  1.
         12    1    3    3    0    0  0.23283382527E+02  0.10618166255E+02 -0.60827585336E+01  0.26303256602E+02  0.00000000000E+00 0. -1.
</event>
<event>
 7    1  0.6184948E-012  0.5930195E+02  0.7816164E-02  0.1266605E+00
        -11   -1    0    0    0    0  0.00000000000E+00  0.00000000000E+00  0.45593999997E+02  0.45594000000E+02  0.51100000000E-03 0.  1.
         11   -1    0    0    0    0 -0.00000000000E+00 -0.00000000000E+00 -0.45593999997E+02  0.45594000000E+02  0.51100000000E-03 0. -1.
    9900012    2    1    2    0    0 -0.24099565759E+02 -0.92753483946E+01  0.18705584056E+02  0.59301952385E+02  0.50000015242E+02 0.  0.
         12    1    1    2    0    0  0.24099565759E+02  0.92753483946E+01 -0.18705584056E+02  0.31886047615E+02  0.00000000000E+00 0. -1.
         11    1    3    3    0    0 -0.11341755791E+02  0.36812067456E+01  0.14420891602E+02  0.18712263957E+02  0.51100000000E-03 0.  1.
        -11    1    3    3    0    0  0.88669797291E+01  0.35808577534E+01  0.87984401044E+01  0.12994553486E+02  0.51100000000E-03 0. -1.
         12    1    3    3    0    0 -0.21624789697E+02 -0.16537412894E+02 -0.45137476506E+01  0.27595134943E+02  0.00000000000E+00 0. -1.
</event>
<event>
 7    1  0.6184948E-012  0.5930202E+02  0.7816164E-02  0.1266604E+00
        -11   -1    0    0    0    0  0.00000000000E+00  0.00000000000E+00  0.45593999997E+02  0.45594000000E+02  0.51100000000E-03 0.  1.
         11   -1    0    0    0    0 -0.00000000000E+00 -0.00000000000E+00 -0.45593999997E+02  0.45594000000E+02  0.51100000000E-03 0. -1.
    9900012    2    1    2    0    0  0.18747488625E+02 -0.10776310899E+02  0.23433276169E+02  0.59302021289E+02  0.50000140907E+02 0.  0.
         12    1    1    2    0    0 -0.18747488625E+02  0.10776310899E+02 -0.23433276169E+02  0.31885978711E+02  0.00000000000E+00 0. -1.
         11    1    3    3    0    0  0.10950612434E+02 -0.22559216506E+02  0.15044261543E+01  0.25121653217E+02  0.51100000000E-03 0. -1.
        -11    1    3    3    0    0 -0.24951009632E+00  0.72234074002E+01 -0.28212104240E+01  0.77588077870E+01  0.51100000000E-03 0.  1.
        -12    1    3    3    0    0  0.80463862875E+01  0.45594982076E+01  0.24750060438E+02  0.26421560285E+02  0.00000000000E+00 0.  1.
</event>
<event>
 7    1  0.6184948E-012  0.5930195E+02  0.7816164E-02  0.1266605E+00
        -11   -1    0    0    0    0  0.00000000000E+00  0.00000000000E+00  0.45593999997E+02  0.45594000000E+02  0.51100000000E-03 0.  1.
         11   -1    0    0    0    0 -0.00000000000E+00 -0.00000000000E+00 -0.45593999997E+02  0.45594000000E+02  0.51100000000E-03 0. -1.
    9900012    2    1    2    0    0 -0.11458984001E+02  0.15861547438E+02  0.25175843922E+02  0.59301951035E+02  0.50000012779E+02 0.  0.
         12    1    1    2    0    0  0.11458984001E+02 -0.15861547438E+02 -0.25175843922E+02  0.31886048965E+02  0.00000000000E+00 0. -1.
         11    1    3    3    0    0 -0.55680316964E+01  0.25539341102E+02  0.20949368509E+02  0.33498312824E+02  0.51100000000E-03 0.  1.
        -11    1    3    3    0    0  0.41659575035E+01  0.34967142996E+01  0.71395204336E+01  0.89752417848E+01  0.51100000000E-03 0. -1.
        -12    1    3    3    0    0 -0.10056909808E+02 -0.13174507964E+02 -0.29130450204E+01  0.16828396426E+02  0.00000000000E+00 0.  1.
</event>
<event>
 7    1  0.6184948E-012  0.5930196E+02  0.7816164E-02  0.1266605E+00
        -11   -1    0    0    0    0  0.00000000000E+00  0.00000000000E+00  0.45593999997E+02  0.45594000000E+02  0.51100000000E-03 0.  1.
         11   -1    0    0    0    0 -0.00000000000E+00 -0.00000000000E+00 -0.45593999997E+02  0.45594000000E+02  0.51100000000E-03 0. -1.
    9900012    2    1    2    0    0 -0.14444162184E+02 -0.28125406660E+02  0.41288206695E+01  0.59301961031E+02  0.50000031010E+02 0.  0.
         12    1    1    2    0    0  0.14444162184E+02  0.28125406660E+02 -0.41288206695E+01  0.31886038969E+02  0.00000000000E+00 0. -1.
         11    1    3    3    0    0  0.75874102605E+01 -0.14652810293E+02 -0.96386448311E+01  0.19109608013E+02  0.51100000000E-03 0. -1.
        -11    1    3    3    0    0 -0.75099661585E+01  0.15955872592E+01 -0.72310249823E+01  0.10546715743E+02  0.51100000000E-03 0.  1.
        -12    1    3    3    0    0 -0.14521606286E+02 -0.15068183626E+02  0.20998490483E+02  0.29645637276E+02  0.00000000000E+00 0.  1.
</event>
<event>
 7    1  0.6184948E-012  0.5930195E+02  0.7816164E-02  0.1266605E+00
        -11   -1    0    0    0    0  0.00000000000E+00  0.00000000000E+00  0.45593999997E+02  0.45594000000E+02  0.51100000000E-03 0. -1.
         11   -1    0    0    0    0 -0.00000000000E+00 -0.00000000000E+00 -0.45593999997E+02  0.45594000000E+02  0.51100000000E-03 0.  1.
    9900012    2    1    2    0    0  0.29910820551E+01 -0.15749967134E+01 -0.31706354229E+02  0.59301951562E+02  0.50000013741E+02 0.  0.
         12    1    1    2    0    0 -0.29910820551E+01  0.15749967134E+01  0.31706354229E+02  0.31886048438E+02  0.00000000000E+00 0. -1.
         11    1    3    3    0    0 -0.48939192209E+00  0.10682644009E+02 -0.12045180921E+02  0.16107289379E+02  0.51100000000E-03 0. -1.
        -11    1    3    3    0    0  0.16304610661E+02  0.12452978983E+01 -0.18272201691E+02  0.24520694333E+02  0.51100000000E-03 0.  1.
         12    1    3    3    0    0 -0.12824136684E+02 -0.13502938621E+02 -0.13889716167E+01  0.18673967849E+02  0.00000000000E+00 0. -1.
</event>
<event>
 7    1  0.6184948E-012  0.5930195E+02  0.7816164E-02  0.1266605E+00
        -11   -1    0    0    0    0  0.00000000000E+00  0.00000000000E+00  0.45593999997E+02  0.45594000000E+02  0.51100000000E-03 0. -1.
         11   -1    0    0    0    0 -0.00000000000E+00 -0.00000000000E+00 -0.45593999997E+02  0.45594000000E+02  0.51100000000E-03 0.  1.
    9900012    2    1    2    0    0 -0.29027133868E+02  0.55261749666E+01 -0.11983607465E+02  0.59301953550E+02  0.50000017366E+02 0.  0.
         12    1    1    2    0    0  0.29027133868E+02 -0.55261749666E+01  0.11983607465E+02  0.31886046450E+02  0.00000000000E+00 0. -1.
         11    1    3    3    0    0 -0.18056180665E+02  0.82315417651E+01  0.12000934090E+02  0.23190652412E+02  0.51100000000E-03 0. -1.
        -11    1    3    3    0    0 -0.14784959866E+02 -0.31424449306E+01 -0.38279800355E+01  0.15592415778E+02  0.51100000000E-03 0.  1.
         12    1    3    3    0    0  0.38140066622E+01  0.43707813209E+00 -0.20156561519E+02  0.20518885360E+02  0.00000000000E+00 0. -1.
</event>
<event>
 7    1  0.6184948E-012  0.5930196E+02  0.7816164E-02  0.1266605E+00
        -11   -1    0    0    0    0  0.00000000000E+00  0.00000000000E+00  0.45593999997E+02  0.45594000000E+02  0.51100000000E-03 0.  1.
         11   -1    0    0    0    0 -0.00000000000E+00 -0.00000000000E+00 -0.45593999997E+02  0.45594000000E+02  0.51100000000E-03 0. -1.
    9900012    2    1    2    0    0  0.29920923898E+02  0.27298462347E+01  0.10677361428E+02  0.59301956118E+02  0.50000022051E+02 0.  0.
         12    1    1    2    0    0 -0.29920923898E+02 -0.27298462347E+01 -0.10677361428E+02  0.31886043882E+02  0.00000000000E+00 0. -1.
         11    1    3    3    0    0  0.30006999089E+01 -0.11629273130E+02  0.91738015442E+01  0.15113001969E+02  0.51100000000E-03 0. -1.
        -11    1    3    3    0    0  0.19472611625E+02  0.17369167955E+02  0.13787152322E+02  0.29511966528E+02  0.51100000000E-03 0.  1.
         12    1    3    3    0    0  0.74476123641E+01 -0.30100485902E+01 -0.12283592438E+02  0.14676987621E+02  0.00000000000E+00 0. -1.
</event>
<event>
 7    1  0.6184948E-012  0.5930181E+02  0.7816164E-02  0.1266605E+00
        -11   -1    0    0    0    0  0.00000000000E+00  0.00000000000E+00  0.45593999997E+02  0.45594000000E+02  0.51100000000E-03 0.  1.
         11   -1    0    0    0    0 -0.00000000000E+00 -0.00000000000E+00 -0.45593999997E+02  0.45594000000E+02  0.51100000000E-03 0. -1.
    9900012    2    1    2    0    0  0.12847493541E+02  0.26685583312E+02 -0.11813167820E+02  0.59301805795E+02  0.49999747895E+02 0.  0.
         12    1    1    2    0    0 -0.12847493541E+02 -0.26685583312E+02  0.11813167820E+02  0.31886194205E+02  0.00000000000E+00 0. -1.
         11    1    3    3    0    0  0.19701035062E+02  0.10673203401E+02  0.85284619647E+01  0.23974626527E+02  0.51100000000E-03 0. -1.
        -11    1    3    3    0    0  0.68695071696E+01  0.92895587849E+01 -0.24729513850E+01  0.11815308713E+02  0.51100000000E-03 0.  1.
        -12    1    3    3    0    0 -0.13723048690E+02  0.67228211253E+01 -0.17868678400E+02  0.23511870555E+02  0.00000000000E+00 0.  1.
</event>
<event>
 7    1  0.6184948E-012  0.5930194E+02  0.7816164E-02  0.1266605E+00
        -11   -1    0    0    0    0  0.00000000000E+00  0.00000000000E+00  0.45593999997E+02  0.45594000000E+02  0.51100000000E-03 0.  1.
         11   -1    0    0    0    0 -0.00000000000E+00 -0.00000000000E+00 -0.45593999997E+02  0.45594000000E+02  0.51100000000E-03 0. -1.
    9900012    2    1    2    0    0  0.18882035779E+02 -0.21751269868E+02  0.13677424145E+02  0.59301938040E+02  0.49999989080E+02 0.  0.
         12    1    1    2    0    0 -0.18882035779E+02  0.21751269868E+02 -0.13677424145E+02  0.31886061960E+02  0.00000000000E+00 0. -1.
         11    1    3    3    0    0 -0.54760327648E+01 -0.93265460366E+01  0.28989310190E+01  0.11197106641E+02  0.51100000000E-03 0. -1.
        -11    1    3    3    0    0  0.20586662448E+02  0.78528304584E+01  0.15508371146E+02  0.26944149510E+02  0.51100000000E-03 0.  1.
         12    1    3    3    0    0  0.37714060964E+01 -0.20277554290E+02 -0.47298780203E+01  0.21160681889E+02  0.00000000000E+00 0. -1.
</event>
<event>
 7    1  0.6184948E-012  0.5930194E+02  0.7816164E-02  0.1266605E+00
        -11   -1    0    0    0    0  0.00000000000E+00  0.00000000000E+00  0.45593999997E+02  0.45594000000E+02  0.51100000000E-03 0.  1.
         11   -1    0    0    0    0 -0.00000000000E+00 -0.00000000000E+00 -0.45593999997E+02  0.45594000000E+02  0.51100000000E-03 0. -1.
    9900012    2    1    2    0    0 -0.31476029625E+02 -0.37719629858E+01 -0.34282234624E+01  0.59301939380E+02  0.49999991524E+02 0.  0.
         12    1    1    2    0    0  0.31476029625E+02  0.37719629858E+01  0.34282234624E+01  0.31886060620E+02  0.00000000000E+00 0. -1.
         11    1    3    3    0    0  0.62426934274E+01  0.12807596625E+01 -0.32073841697E+01  0.71343451006E+01  0.51100000000E-03 0. -1.
        -11    1    3    3    0    0 -0.19900705238E+02  0.36129894068E+01  0.16608608340E+02  0.26171313163E+02  0.51100000000E-03 0.  1.
         12    1    3    3    0    0 -0.17818017814E+02 -0.86657120551E+01 -0.16829447633E+02  0.25996281116E+02  0.00000000000E+00 0. -1.
</event>
<event>
 7    1  0.6184948E-012  0.5930189E+02  0.7816164E-02  0.1266605E+00
        -11   -1    0    0    0    0  0.00000000000E+00  0.00000000000E+00  0.45593999997E+02  0.45594000000E+02  0.51100000000E-03 0.  1.
         11   -1    0    0    0    0 -0.00000000000E+00 -0.00000000000E+00 -0.45593999997E+02  0.45594000000E+02  0.51100000000E-03 0. -1.
    9900012    2    1    2    0    0 -0.27369691746E+02 -0.59571405142E+01  0.15236027905E+02  0.59301888671E+02  0.49999899043E+02 0.  0.
         12    1    1    2    0    0  0.27369691746E+02  0.59571405142E+01 -0.15236027905E+02  0.31886111329E+02  0.00000000000E+00 0. -1.
         11    1    3    3    0    0 -0.30562278977E+02 -0.11874705737E+02 -0.34586502938E+01  0.32970043899E+02  0.51100000000E-03 0. -1.
        -11    1    3    3    0    0  0.27583057336E+01 -0.42663974650E+00 -0.27776307159E+01  0.39377029660E+01  0.51100000000E-03 0.  1.
        -12    1    3    3    0    0  0.43428149786E+00  0.63442049692E+01  0.21472308914E+02  0.22394141806E+02  0.00000000000E+00 0.  1.
</event>
<event>
 7    1  0.6184948E-012  0.5930194E+02  0.7816164E-02  0.1266605E+00
        -11   -1    0    0    0    0  0.00000000000E+00  0.00000000000E+00  0.45593999997E+02  0.45594000000E+02  0.51100000000E-03 0.  1.
         11   -1    0    0    0    0 -0.00000000000E+00 -0.00000000000E+00 -0.45593999997E+02  0.45594000000E+02  0.51100000000E-03 0. -1.
    9900012    2    1    2    0    0 -0.21110040241E+02 -0.23672260084E+02  0.32727756086E+01  0.59301941030E+02  0.49999994533E+02 0.  0.
         12    1    1    2    0    0  0.21110040241E+02  0.23672260084E+02 -0.32727756086E+01  0.31886058970E+02  0.00000000000E+00 0. -1.
         11    1    3    3    0    0  0.13762919363E+01  0.35991291333E+01  0.19478704195E+01  0.43176509174E+01  0.51100000000E-03 0. -1.
        -11    1    3    3    0    0 -0.21925123346E+02 -0.22944862520E+02  0.18858272595E+02  0.36916286316E+02  0.51100000000E-03 0.  1.
         12    1    3    3    0    0 -0.56120883126E+00 -0.43265266971E+01 -0.17533367406E+02  0.18068003797E+02  0.00000000000E+00 0. -1.
</event>
<event>
 7    1  0.6184948E-012  0.5930198E+02  0.7816164E-02  0.1266605E+00
        -11   -1    0    0    0    0  0.00000000000E+00  0.00000000000E+00  0.45593999997E+02  0.45594000000E+02  0.51100000000E-03 0. -1.
         11   -1    0    0    0    0 -0.00000000000E+00 -0.00000000000E+00 -0.45593999997E+02  0.45594000000E+02  0.51100000000E-03 0.  1.
    9900012    2    1    2    0    0 -0.15712936862E+02 -0.21828353183E+02 -0.17127321869E+02  0.59301975759E+02  0.50000057870E+02 0.  0.
         12    1    1    2    0    0  0.15712936862E+02  0.21828353183E+02  0.17127321869E+02  0.31886024241E+02  0.00000000000E+00 0. -1.
         11    1    3    3    0    0  0.34701957887E+00  0.71034754470E+01  0.89624023126E+01  0.11441347888E+02  0.51100000000E-03 0. -1.
        -11    1    3    3    0    0 -0.16898446998E+01  0.48949887951E+00  0.33788201685E+01  0.38094107490E+01  0.51100000000E-03 0.  1.
        -12    1    3    3    0    0 -0.14370111741E+02 -0.29421327509E+02 -0.29468544350E+02  0.44051217122E+02  0.00000000000E+00 0.  1.
</event>
<event>
 7    1  0.6184948E-012  0.5930194E+02  0.7816164E-02  0.1266605E+00
        -11   -1    0    0    0    0  0.00000000000E+00  0.00000000000E+00  0.45593999997E+02  0.45594000000E+02  0.51100000000E-03 0.  1.
         11   -1    0    0    0    0 -0.00000000000E+00 -0.00000000000E+00 -0.45593999997E+02  0.45594000000E+02  0.51100000000E-03 0. -1.
    9900012    2    1    2    0    0 -0.18921327493E+02  0.19199307566E+02  0.17032046583E+02  0.59301942610E+02  0.49999997414E+02 0.  0.
         12    1    1    2    0    0  0.18921327493E+02 -0.19199307566E+02 -0.17032046583E+02  0.31886057390E+02  0.00000000000E+00 0. -1.
         11    1    3    3    0    0 -0.92266009820E+01 -0.16780436941E+01 -0.11493366731E+02  0.14833862457E+02  0.51100000000E-03 0. -1.
        -11    1    3    3    0    0 -0.11654463966E+02  0.70186625362E+01  0.10649594794E+01  0.13646328923E+02  0.51100000000E-03 0.  1.
        -12    1    3    3    0    0  0.19597374551E+01  0.13858688724E+02  0.27460453834E+02  0.30821751229E+02  0.00000000000E+00 0.  1.
</event>
<event>
 7    1  0.6184948E-012  0.5930193E+02  0.7816164E-02  0.1266605E+00
        -11   -1    0    0    0    0  0.00000000000E+00  0.00000000000E+00  0.45593999997E+02  0.45594000000E+02  0.51100000000E-03 0.  1.
         11   -1    0    0    0    0 -0.00000000000E+00 -0.00000000000E+00 -0.45593999997E+02  0.45594000000E+02  0.51100000000E-03 0. -1.
    9900012    2    1    2    0    0 -0.31689163357E+02  0.32598006098E+01  0.13754362655E+01  0.59301934091E+02  0.49999981877E+02 0.  0.
         12    1    1    2    0    0  0.31689163357E+02 -0.32598006098E+01 -0.13754362655E+01  0.31886065909E+02  0.00000000000E+00 0. -1.
         11    1    3    3    0    0 -0.30036759193E+02 -0.75709262183E+01  0.48063372806E+01  0.31346877117E+02  0.51100000000E-03 0.  1.
        -11    1    3    3    0    0 -0.22382323973E+01 -0.76931235460E+01 -0.48533544265E+01  0.93674374088E+01  0.51100000000E-03 0. -1.
        -12    1    3    3    0    0  0.58582823408E+00  0.18523850374E+02  0.14224534114E+01  0.18587619565E+02  0.00000000000E+00 0.  1.
</event>
<event>
 7    1  0.6184948E-012  0.5930197E+02  0.7816164E-02  0.1266605E+00
        -11   -1    0    0    0    0  0.00000000000E+00  0.00000000000E+00  0.45593999997E+02  0.45594000000E+02  0.51100000000E-03 0.  1.
         11   -1    0    0    0    0 -0.00000000000E+00 -0.00000000000E+00 -0.45593999997E+02  0.45594000000E+02  0.51100000000E-03 0. -1.
    9900012    2    1    2    0    0  0.19575081251E+02 -0.32333474582E+01  0.24961582927E+02  0.59301969140E+02  0.50000045798E+02 0.  0.
         12    1    1    2    0    0 -0.19575081251E+02  0.32333474582E+01 -0.24961582927E+02  0.31886030860E+02  0.00000000000E+00 0. -1.
         11    1    3    3    0    0  0.19475527140E+02 -0.52369887220E+01 -0.53904705953E+01  0.20875329501E+02  0.51100000000E-03 0. -1.
        -11    1    3    3    0    0 -0.28518009233E+01 -0.29435451737E+01 -0.26794331380E+01  0.48965895170E+01  0.51100000000E-03 0.  1.
        -12    1    3    3    0    0  0.29513550347E+01  0.49471864375E+01  0.33031486661E+02  0.33530050122E+02  0.00000000000E+00 0.  1.
</event>
<event>
 7    1  0.6184948E-012  0.5930194E+02  0.7816164E-02  0.1266605E+00
        -11   -1    0    0    0    0  0.00000000000E+00  0.00000000000E+00  0.45593999997E+02  0.45594000000E+02  0.51100000000E-03 0. -1.
         11   -1    0    0    0    0 -0.00000000000E+00 -0.00000000000E+00 -0.45593999997E+02  0.45594000000E+02  0.51100000000E-03 0.  1.
    9900012    2    1    2    0    0 -0.64469969648E+00 -0.21876249133E+02 -0.23189105115E+02  0.59301944900E+02  0.50000001591E+02 0.  0.
         12    1    1    2    0    0  0.64469969648E+00  0.21876249133E+02  0.23189105115E+02  0.31886055100E+02  0.00000000000E+00 0. -1.
         11    1    3    3    0    0 -0.12858129544E+01  0.20533279985E+01 -0.92187131055E+01  0.95317439331E+01  0.51100000000E-03 0.  1.
        -11    1    3    3    0    0  0.16388202441E+02 -0.29060884246E+01 -0.16431252035E+02  0.23388128888E+02  0.51100000000E-03 0. -1.
         12    1    3    3    0    0 -0.15747089183E+02 -0.21023488707E+02  0.24608600260E+01  0.26382072079E+02  0.00000000000E+00 0. -1.
</event>
<event>
 7    1  0.6184948E-012  0.5930190E+02  0.7816164E-02  0.1266605E+00
        -11   -1    0    0    0    0  0.00000000000E+00  0.00000000000E+00  0.45593999997E+02  0.45594000000E+02  0.51100000000E-03 0.  1.
         11   -1    0    0    0    0 -0.00000000000E+00 -0.00000000000E+00 -0.45593999997E+02  0.45594000000E+02  0.51100000000E-03 0. -1.
    9900012    2    1    2    0    0  0.13013994477E+02 -0.18803560865E+01  0.29048642084E+02  0.59301899608E+02  0.49999918989E+02 0.  0.
         12    1    1    2    0    0 -0.13013994477E+02  0.18803560865E+01 -0.29048642084E+02  0.31886100392E+02  0.00000000000E+00 0. -1.
         11    1    3    3    0    0 -0.12117316142E+02  0.10093013161E+02  0.11996239454E+02  0.19814338911E+02  0.51100000000E-03 0. -1.
        -11    1    3    3    0    0  0.36944392523E+01  0.45062807161E+01  0.99506293470E+01  0.11531282320E+02  0.51100000000E-03 0.  1.
         12    1    3    3    0    0  0.21436871367E+02 -0.16479649964E+02  0.71017732828E+01  0.27956278377E+02  0.00000000000E+00 0. -1.
</event>
<event>
 7    1  0.6184948E-012  0.5930190E+02  0.7816164E-02  0.1266605E+00
        -11   -1    0    0    0    0  0.00000000000E+00  0.00000000000E+00  0.45593999997E+02  0.45594000000E+02  0.51100000000E-03 0.  1.
         11   -1    0    0    0    0 -0.00000000000E+00 -0.00000000000E+00 -0.45593999997E+02  0.45594000000E+02  0.51100000000E-03 0. -1.
    9900012    2    1    2    0    0  0.22975093966E+02  0.22049296533E+02  0.16422402438E+01  0.59301899997E+02  0.49999919699E+02 0.  0.
         12    1    1    2    0    0 -0.22975093966E+02 -0.22049296533E+02 -0.16422402438E+01  0.31886100003E+02  0.00000000000E+00 0. -1.
         11    1    3    3    0    0  0.80824835362E+00  0.14378134940E+02  0.13541162573E+02  0.19767324398E+02  0.51100000000E-03 0.  1.
        -11    1    3    3    0    0  0.64466542941E+01 -0.11097896085E+02 -0.68075749380E+01  0.14528101249E+02  0.51100000000E-03 0. -1.
         12    1    3    3    0    0  0.15720191318E+02  0.18769057678E+02 -0.50913473916E+01  0.25006474351E+02  0.00000000000E+00 0. -1.
</event>
<event>
 7    1  0.6184948E-012  0.5930196E+02  0.7816164E-02  0.1266605E+00
        -11   -1    0    0    0    0  0.00000000000E+00  0.00000000000E+00  0.45593999997E+02  0.45594000000E+02  0.51100000000E-03 0.  1.
         11   -1    0    0    0    0 -0.00000000000E+00 -0.00000000000E+00 -0.45593999997E+02  0.45594000000E+02  0.51100000000E-03 0. -1.
    9900012    2    1    2    0    0  0.15337730935E+02  0.10072263215E+02  0.26077247812E+02  0.59301963402E+02  0.50000035334E+02 0.  0.
         12    1    1    2    0    0 -0.15337730935E+02 -0.10072263215E+02 -0.26077247812E+02  0.31886036598E+02  0.00000000000E+00 0. -1.
         11    1    3    3    0    0  0.23455096705E+02  0.22446456140E+02  0.82864913613E+01  0.33505982959E+02  0.51100000000E-03 0. -1.
        -11    1    3    3    0    0 -0.58302876181E+01  0.20025750374E+00  0.46009192276E+01  0.74297250808E+01  0.51100000000E-03 0.  1.
        -12    1    3    3    0    0 -0.22870781518E+01 -0.12574450429E+02  0.13189837223E+02  0.18366255362E+02  0.00000000000E+00 0.  1.
</event>
<event>
 7    1  0.6184948E-012  0.5930197E+02  0.7816164E-02  0.1266605E+00
        -11   -1    0    0    0    0  0.00000000000E+00  0.00000000000E+00  0.45593999997E+02  0.45594000000E+02  0.51100000000E-03 0. -1.
         11   -1    0    0    0    0 -0.00000000000E+00 -0.00000000000E+00 -0.45593999997E+02  0.45594000000E+02  0.51100000000E-03 0.  1.
    9900012    2    1    2    0    0  0.24036679279E+02  0.20948575120E+02  0.33783393629E+00  0.59301970425E+02  0.50000048141E+02 0.  0.
         12    1    1    2    0    0 -0.24036679279E+02 -0.20948575120E+02 -0.33783393629E+00  0.31886029575E+02  0.00000000000E+00 0. -1.
         11    1    3    3    0    0  0.19934051989E+02  0.19471654368E+02 -0.74456472730E+00  0.27875905894E+02  0.51100000000E-03 0. -1.
        -11    1    3    3    0    0  0.13895345547E+02  0.63653483943E+01  0.91639911633E+01  0.17820690849E+02  0.51100000000E-03 0.  1.
        -12    1    3    3    0    0 -0.97927182563E+01 -0.48884276429E+01 -0.80815924997E+01  0.13605373681E+02  0.00000000000E+00 0.  1.
</event>
<event>
 7    1  0.6184948E-012  0.5930195E+02  0.7816164E-02  0.1266605E+00
        -11   -1    0    0    0    0  0.00000000000E+00  0.00000000000E+00  0.45593999997E+02  0.45594000000E+02  0.51100000000E-03 0.  1.
         11   -1    0    0    0    0 -0.00000000000E+00 -0.00000000000E+00 -0.45593999997E+02  0.45594000000E+02  0.51100000000E-03 0. -1.
    9900012    2    1    2    0    0 -0.14443962134E+02  0.62119199212E+01  0.27739938684E+02  0.59301949924E+02  0.50000010754E+02 0.  0.
         12    1    1    2    0    0  0.14443962134E+02 -0.62119199212E+01 -0.27739938684E+02  0.31886050076E+02  0.00000000000E+00 0. -1.
         11    1    3    3    0    0 -0.16313721730E+02  0.46297075816E+01  0.16894681531E+02  0.23937459624E+02  0.51100000000E-03 0. -1.
        -11    1    3    3    0    0 -0.11053961199E+02  0.10363354394E+02 -0.18069090822E+01  0.15259557437E+02  0.51100000000E-03 0.  1.
         12    1    3    3    0    0  0.12923720795E+02 -0.87811420540E+01  0.12652166236E+02  0.20104932863E+02  0.00000000000E+00 0. -1.
</event>
<event>
 7    1  0.6184948E-012  0.5930194E+02  0.7816164E-02  0.1266605E+00
        -11   -1    0    0    0    0  0.00000000000E+00  0.00000000000E+00  0.45593999997E+02  0.45594000000E+02  0.51100000000E-03 0. -1.
         11   -1    0    0    0    0 -0.00000000000E+00 -0.00000000000E+00 -0.45593999997E+02  0.45594000000E+02  0.51100000000E-03 0.  1.
    9900012    2    1    2    0    0  0.39584052947E+01  0.36437745557E+01 -0.31428881857E+02  0.59301942228E+02  0.49999996717E+02 0.  0.
         12    1    1    2    0    0 -0.39584052947E+01 -0.36437745557E+01  0.31428881857E+02  0.31886057772E+02  0.00000000000E+00 0. -1.
         11    1    3    3    0    0  0.12137499537E+02 -0.76582492851E+01 -0.50108194821E+01  0.15201183812E+02  0.51100000000E-03 0. -1.
        -11    1    3    3    0    0  0.88310840614E+01 -0.26371264141E+01 -0.18604095586E+02  0.20761860568E+02  0.51100000000E-03 0.  1.
         12    1    3    3    0    0 -0.17010178304E+02  0.13939150255E+02 -0.78139667887E+01  0.23338897848E+02  0.00000000000E+00 0. -1.
</event>
<event>
 7    1  0.6184948E-012  0.5930195E+02  0.7816164E-02  0.1266605E+00
        -11   -1    0    0    0    0  0.00000000000E+00  0.00000000000E+00  0.45593999997E+02  0.45594000000E+02  0.51100000000E-03 0.  1.
         11   -1    0    0    0    0 -0.00000000000E+00 -0.00000000000E+00 -0.45593999997E+02  0.45594000000E+02  0.51100000000E-03 0. -1.
    9900012    2    1    2    0    0 -0.13384142657E+02 -0.12214881910E+02  0.26237020842E+02  0.59301954817E+02  0.50000019677E+02 0.  0.
         12    1    1    2    0    0  0.13384142657E+02  0.12214881910E+02 -0.26237020842E+02  0.31886045183E+02  0.00000000000E+00 0. -1.
         11    1    3    3    0    0 -0.19008352607E+02 -0.15060902326E+01  0.10022781237E+02  0.21541632265E+02  0.51100000000E-03 0. -1.
        -11    1    3    3    0    0 -0.12002052339E+02 -0.89726933221E+01  0.12832200816E+02  0.19728757281E+02  0.51100000000E-03 0.  1.
         12    1    3    3    0    0  0.17626262289E+02 -0.17360983550E+01  0.33820387893E+01  0.18031565272E+02  0.00000000000E+00 0. -1.
</event>
<event>
 7    1  0.6184948E-012  0.5930194E+02  0.7816164E-02  0.1266605E+00
        -11   -1    0    0    0    0  0.00000000000E+00  0.00000000000E+00  0.45593999997E+02  0.45594000000E+02  0.51100000000E-03 0.  1.
         11   -1    0    0    0    0 -0.00000000000E+00 -0.00000000000E+00 -0.45593999997E+02  0.45594000000E+02  0.51100000000E-03 0. -1.
    9900012    2    1    2    0    0  0.29340515958E+02  0.90757295770E+01  0.85723948731E+01  0.59301941952E+02  0.49999996214E+02 0.  0.
         12    1    1    2    0    0 -0.29340515958E+02 -0.90757295770E+01 -0.85723948731E+01  0.31886058048E+02  0.00000000000E+00 0. -1.
         11    1    3    3    0    0  0.19381208199E+02  0.33940145057E+01 -0.13319490323E+02  0.23760458507E+02  0.51100000000E-03 0. -1.
        -11    1    3    3    0    0  0.62163428047E+01 -0.98167214881E+01  0.61967828061E+01  0.13168563173E+02  0.51100000000E-03 0.  1.
        -12    1    3    3    0    0  0.37429649533E+01  0.15498436559E+02  0.15695102390E+02  0.22372920271E+02  0.00000000000E+00 0.  1.
</event>
<event>
 7    1  0.6184948E-012  0.5930193E+02  0.7816164E-02  0.1266605E+00
        -11   -1    0    0    0    0  0.00000000000E+00  0.00000000000E+00  0.45593999997E+02  0.45594000000E+02  0.51100000000E-03 0.  1.
         11   -1    0    0    0    0 -0.00000000000E+00 -0.00000000000E+00 -0.45593999997E+02  0.45594000000E+02  0.51100000000E-03 0. -1.
    9900012    2    1    2    0    0  0.74547022710E+01 -0.30258539792E+02  0.67505199050E+01  0.59301931956E+02  0.49999977984E+02 0.  0.
         12    1    1    2    0    0 -0.74547022710E+01  0.30258539792E+02 -0.67505199050E+01  0.31886068044E+02  0.00000000000E+00 0. -1.
         11    1    3    3    0    0 -0.11841015915E+02 -0.17329360876E+02  0.54247630606E+01  0.21678202435E+02  0.51100000000E-03 0. -1.
        -11    1    3    3    0    0  0.12627424032E+01 -0.17402979967E+02  0.60238935701E+01  0.18459293706E+02  0.51100000000E-03 0.  1.
        -12    1    3    3    0    0  0.18032975783E+02  0.44738010512E+01 -0.46981367257E+01  0.19164435816E+02  0.00000000000E+00 0.  1.
</event>
<event>
 7    1  0.6184948E-012  0.5930197E+02  0.7816164E-02  0.1266605E+00
        -11   -1    0    0    0    0  0.00000000000E+00  0.00000000000E+00  0.45593999997E+02  0.45594000000E+02  0.51100000000E-03 0.  1.
         11   -1    0    0    0    0 -0.00000000000E+00 -0.00000000000E+00 -0.45593999997E+02  0.45594000000E+02  0.51100000000E-03 0. -1.
    9900012    2    1    2    0    0 -0.26241914601E+02 -0.16513777222E+02  0.74415150062E+01  0.59301967546E+02  0.50000042892E+02 0.  0.
         12    1    1    2    0    0  0.26241914601E+02  0.16513777222E+02 -0.74415150062E+01  0.31886032454E+02  0.00000000000E+00 0. -1.
         11    1    3    3    0    0 -0.45193911720E+01  0.77390588363E+01  0.17403705916E+02  0.19575671332E+02  0.51100000000E-03 0.  1.
        -11    1    3    3    0    0 -0.67741018100E+01 -0.15234098978E+02  0.42603006181E+01  0.17208032677E+02  0.51100000000E-03 0. -1.
        -12    1    3    3    0    0 -0.14948421619E+02 -0.90187370798E+01 -0.14222491528E+02  0.22518263536E+02  0.00000000000E+00 0.  1.
</event>
<event>
 7    1  0.6184948E-012  0.5930198E+02  0.7816164E-02  0.1266605E+00
        -11   -1    0    0    0    0  0.00000000000E+00  0.00000000000E+00  0.45593999997E+02  0.45594000000E+02  0.51100000000E-03 0.  1.
         11   -1    0    0    0    0 -0.00000000000E+00 -0.00000000000E+00 -0.45593999997E+02  0.45594000000E+02  0.51100000000E-03 0. -1.
    9900012    2    1    2    0    0 -0.81452224659E+01 -0.75876330852E+00  0.30818787130E+02  0.59301984085E+02  0.50000073054E+02 0.  0.
         12    1    1    2    0    0  0.81452224659E+01  0.75876330852E+00 -0.30818787130E+02  0.31886015915E+02  0.00000000000E+00 0. -1.
         11    1    3    3    0    0 -0.19394361511E+02 -0.12219604731E+02  0.12305090964E+02  0.26016826518E+02  0.51100000000E-03 0. -1.
        -11    1    3    3    0    0 -0.61019714604E+01  0.39369814118E+01  0.68480567821E+00  0.72940275170E+01  0.51100000000E-03 0.  1.
         12    1    3    3    0    0  0.17351110505E+02  0.75238600107E+01  0.17828890488E+02  0.25991130049E+02  0.00000000000E+00 0. -1.
</event>
<event>
 7    1  0.6184948E-012  0.5930194E+02  0.7816164E-02  0.1266605E+00
        -11   -1    0    0    0    0  0.00000000000E+00  0.00000000000E+00  0.45593999997E+02  0.45594000000E+02  0.51100000000E-03 0. -1.
         11   -1    0    0    0    0 -0.00000000000E+00 -0.00000000000E+00 -0.45593999997E+02  0.45594000000E+02  0.51100000000E-03 0.  1.
    9900012    2    1    2    0    0  0.95454328116E+01  0.21281628009E+01 -0.30349241888E+02  0.59301939603E+02  0.49999991930E+02 0.  0.
         12    1    1    2    0    0 -0.95454328116E+01 -0.21281628009E+01  0.30349241888E+02  0.31886060397E+02  0.00000000000E+00 0. -1.
         11    1    3    3    0    0 -0.39945866928E+01  0.16044146813E+01 -0.81767757085E+00  0.43817195468E+01  0.51100000000E-03 0. -1.
        -11    1    3    3    0    0 -0.37933485682E+01 -0.16150912851E+02  0.30908253005E+00  0.16593282121E+02  0.51100000000E-03 0.  1.
        -12    1    3    3    0    0  0.17333368073E+02  0.16674660971E+02 -0.29840646847E+02  0.38326937935E+02  0.00000000000E+00 0.  1.
</event>
<event>
 7    1  0.6184948E-012  0.5930193E+02  0.7816164E-02  0.1266605E+00
        -11   -1    0    0    0    0  0.00000000000E+00  0.00000000000E+00  0.45593999997E+02  0.45594000000E+02  0.51100000000E-03 0. -1.
         11   -1    0    0    0    0 -0.00000000000E+00 -0.00000000000E+00 -0.45593999997E+02  0.45594000000E+02  0.51100000000E-03 0.  1.
    9900012    2    1    2    0    0 -0.22864158558E+02  0.62785401172E+01  0.21319751010E+02  0.59301927873E+02  0.49999970538E+02 0.  0.
         12    1    1    2    0    0  0.22864158558E+02 -0.62785401172E+01 -0.21319751010E+02  0.31886072127E+02  0.00000000000E+00 0. -1.
         11    1    3    3    0    0 -0.88801048131E+01 -0.10205225044E+02 -0.66197909539E+01  0.15060694281E+02  0.51100000000E-03 0.  1.
        -11    1    3    3    0    0 -0.10711302613E+02  0.50644711189E+01 -0.20139747101E+01  0.12018193116E+02  0.51100000000E-03 0. -1.
         12    1    3    3    0    0 -0.32727511314E+01  0.11419294043E+02  0.29953516674E+02  0.32223040476E+02  0.00000000000E+00 0. -1.
</event>
<event>
 7    1  0.6184948E-012  0.5930193E+02  0.7816164E-02  0.1266605E+00
        -11   -1    0    0    0    0  0.00000000000E+00  0.00000000000E+00  0.45593999997E+02  0.45594000000E+02  0.51100000000E-03 0. -1.
         11   -1    0    0    0    0 -0.00000000000E+00 -0.00000000000E+00 -0.45593999997E+02  0.45594000000E+02  0.51100000000E-03 0.  1.
    9900012    2    1    2    0    0 -0.31745781159E+02  0.29661048598E+01  0.35921007535E+00  0.59301930451E+02  0.49999975239E+02 0.  0.
         12    1    1    2    0    0  0.31745781159E+02 -0.29661048598E+01 -0.35921007535E+00  0.31886069549E+02  0.00000000000E+00 0. -1.
         11    1    3    3    0    0 -0.20283871842E+02  0.10332326223E+02 -0.95000093738E+01  0.24666629288E+02  0.51100000000E-03 0. -1.
        -11    1    3    3    0    0  0.14431630374E+01  0.69655841545E+01 -0.62788134383E+01  0.94881811018E+01  0.51100000000E-03 0.  1.
         12    1    3    3    0    0 -0.12905072354E+02 -0.14331805518E+02  0.16138032888E+02  0.25147120061E+02  0.00000000000E+00 0. -1.
</event>
<event>
 7    1  0.6184948E-012  0.5930194E+02  0.7816164E-02  0.1266605E+00
        -11   -1    0    0    0    0  0.00000000000E+00  0.00000000000E+00  0.45593999997E+02  0.45594000000E+02  0.51100000000E-03 0. -1.
         11   -1    0    0    0    0 -0.00000000000E+00 -0.00000000000E+00 -0.45593999997E+02  0.45594000000E+02  0.51100000000E-03 0.  1.
    9900012    2    1    2    0    0 -0.20895413602E+02  0.12450009287E+02 -0.20617946908E+02  0.59301940733E+02  0.49999993992E+02 0.  0.
         12    1    1    2    0    0  0.20895413602E+02 -0.12450009287E+02  0.20617946908E+02  0.31886059267E+02  0.00000000000E+00 0. -1.
         11    1    3    3    0    0  0.24787065059E+01 -0.75439024061E+01 -0.14358367663E+01  0.80694533232E+01  0.51100000000E-03 0. -1.
        -11    1    3    3    0    0 -0.28673016899E+02  0.77889254190E+01 -0.22790578718E+02  0.37446224588E+02  0.51100000000E-03 0.  1.
         12    1    3    3    0    0  0.52988967911E+01  0.12204986274E+02  0.36084685764E+01  0.13786262823E+02  0.00000000000E+00 0. -1.
</event>
<event>
 7    1  0.6184948E-012  0.5930193E+02  0.7816164E-02  0.1266605E+00
        -11   -1    0    0    0    0  0.00000000000E+00  0.00000000000E+00  0.45593999997E+02  0.45594000000E+02  0.51100000000E-03 0. -1.
         11   -1    0    0    0    0 -0.00000000000E+00 -0.00000000000E+00 -0.45593999997E+02  0.45594000000E+02  0.51100000000E-03 0.  1.
    9900012    2    1    2    0    0  0.22195072863E+02 -0.16507333086E+02  0.15862155581E+02  0.59301932750E+02  0.49999979432E+02 0.  0.
         12    1    1    2    0    0 -0.22195072863E+02  0.16507333086E+02 -0.15862155581E+02  0.31886067250E+02  0.00000000000E+00 0. -1.
         11    1    3    3    0    0  0.13114903147E+02  0.26232642835E+01  0.11206799238E+02  0.17449199107E+02  0.51100000000E-03 0.  1.
        -11    1    3    3    0    0  0.21783563471E+02 -0.16760362801E+02  0.77655243153E+01  0.28561105842E+02  0.51100000000E-03 0. -1.
        -12    1    3    3    0    0 -0.12703393755E+02 -0.23702345686E+01 -0.31101679723E+01  0.13291627802E+02  0.00000000000E+00 0.  1.
</event>
<event>
 7    1  0.6184948E-012  0.5930193E+02  0.7816164E-02  0.1266605E+00
        -11   -1    0    0    0    0  0.00000000000E+00  0.00000000000E+00  0.45593999997E+02  0.45594000000E+02  0.51100000000E-03 0. -1.
         11   -1    0    0    0    0 -0.00000000000E+00 -0.00000000000E+00 -0.45593999997E+02  0.45594000000E+02  0.51100000000E-03 0.  1.
    9900012    2    1    2    0    0 -0.36481408417E+01  0.25273502647E+02 -0.19096145308E+02  0.59301927284E+02  0.49999969464E+02 0.  0.
         12    1    1    2    0    0  0.36481408417E+01 -0.25273502647E+02  0.19096145308E+02  0.31886072716E+02  0.00000000000E+00 0. -1.
         11    1    3    3    0    0 -0.20209427853E+02  0.40687382661E+01 -0.61609292087E+01  0.21515869822E+02  0.51100000000E-03 0. -1.
        -11    1    3    3    0    0 -0.12025100136E+01  0.64050931619E+01  0.52513778074E+01  0.83694813389E+01  0.51100000000E-03 0.  1.
        -12    1    3    3    0    0  0.17763797025E+02  0.14799671219E+02 -0.18186593906E+02  0.29416576123E+02  0.00000000000E+00 0.  1.
</event>
<event>
 7    1  0.6184948E-012  0.5930194E+02  0.7816164E-02  0.1266605E+00
        -11   -1    0    0    0    0  0.00000000000E+00  0.00000000000E+00  0.45593999997E+02  0.45594000000E+02  0.51100000000E-03 0.  1.
         11   -1    0    0    0    0 -0.00000000000E+00 -0.00000000000E+00 -0.45593999997E+02  0.45594000000E+02  0.51100000000E-03 0. -1.
    9900012    2    1    2    0    0  0.17641063648E+02  0.25996884749E+02 -0.54475596450E+01  0.59301936440E+02  0.49999986161E+02 0.  0.
         12    1    1    2    0    0 -0.17641063648E+02 -0.25996884749E+02  0.54475596450E+01  0.31886063560E+02  0.00000000000E+00 0. -1.
         11    1    3    3    0    0 -0.26664086723E+01  0.11690014242E+02 -0.22576922290E+02  0.25563325068E+02  0.51100000000E-03 0. -1.
        -11    1    3    3    0    0  0.12037134923E+02  0.14572859827E+02  0.59215772903E+01  0.19807219354E+02  0.51100000000E-03 0.  1.
        -12    1    3    3    0    0  0.82703373970E+01 -0.26598931892E+00  0.11207785355E+02  0.13931392017E+02  0.00000000000E+00 0.  1.
</event>
<event>
 7    1  0.6184948E-012  0.5930195E+02  0.7816164E-02  0.1266605E+00
        -11   -1    0    0    0    0  0.00000000000E+00  0.00000000000E+00  0.45593999997E+02  0.45594000000E+02  0.51100000000E-03 0.  1.
         11   -1    0    0    0    0 -0.00000000000E+00 -0.00000000000E+00 -0.45593999997E+02  0.45594000000E+02  0.51100000000E-03 0. -1.
    9900012    2    1    2    0    0  0.19339812030E+02  0.11025512703E+02  0.22828272028E+02  0.59301948763E+02  0.50000008635E+02 0.  0.
         12    1    1    2    0    0 -0.19339812030E+02 -0.11025512703E+02 -0.22828272028E+02  0.31886051237E+02  0.00000000000E+00 0. -1.
         11    1    3    3    0    0 -0.25123101431E+01  0.87853400537E+01 -0.50935246552E+01  0.10461256893E+02  0.51100000000E-03 0. -1.
        -11    1    3    3    0    0  0.72179820477E+01  0.42278648681E+01 -0.70108322449E+01  0.10914480071E+02  0.51100000000E-03 0.  1.
        -12    1    3    3    0    0  0.14634140125E+02 -0.19876922187E+01  0.34932628928E+02  0.37926211799E+02  0.00000000000E+00 0.  1.
</event>
<event>
 7    1  0.6184948E-012  0.5930206E+02  0.7816164E-02  0.1266604E+00
        -11   -1    0    0    0    0  0.00000000000E+00  0.00000000000E+00  0.45593999997E+02  0.45594000000E+02  0.51100000000E-03 0.  1.
         11   -1    0    0    0    0 -0.00000000000E+00 -0.00000000000E+00 -0.45593999997E+02  0.45594000000E+02  0.51100000000E-03 0. -1.
    9900012    2    1    2    0    0 -0.12236169139E+02  0.22224569531E+02  0.19314712937E+02  0.59302055418E+02  0.50000203149E+02 0.  0.
         12    1    1    2    0    0  0.12236169139E+02 -0.22224569531E+02 -0.19314712937E+02  0.31885944582E+02  0.00000000000E+00 0. -1.
         11    1    3    3    0    0 -0.71878351941E+01  0.26029013063E+01  0.22167293085E+02  0.23448431781E+02  0.51100000000E-03 0. -1.
        -11    1    3    3    0    0 -0.13951382976E+02  0.56599107707E+01  0.69804911889E+01  0.16595268433E+02  0.51100000000E-03 0.  1.
         12    1    3    3    0    0  0.89030490306E+01  0.13961757454E+02 -0.98330713378E+01  0.19258355204E+02  0.00000000000E+00 0. -1.
</event>
<event>
 7    1  0.6184948E-012  0.5930192E+02  0.7816164E-02  0.1266605E+00
        -11   -1    0    0    0    0  0.00000000000E+00  0.00000000000E+00  0.45593999997E+02  0.45594000000E+02  0.51100000000E-03 0. -1.
         11   -1    0    0    0    0 -0.00000000000E+00 -0.00000000000E+00 -0.45593999997E+02  0.45594000000E+02  0.51100000000E-03 0.  1.
    9900012    2    1    2    0    0  0.25857798641E+02  0.10660259217E+02 -0.15311930722E+02  0.59301919972E+02  0.49999956128E+02 0.  0.
         12    1    1    2    0    0 -0.25857798641E+02 -0.10660259217E+02  0.15311930722E+02  0.31886080028E+02  0.00000000000E+00 0. -1.
         11    1    3    3    0    0 -0.11913496276E+02  0.61563153036E+01  0.13063415233E+01  0.13473609021E+02  0.51100000000E-03 0. -1.
        -11    1    3    3    0    0  0.20966254308E+02  0.11406322301E+02 -0.53833577866E+01  0.24467704213E+02  0.51100000000E-03 0.  1.
        -12    1    3    3    0    0  0.16805040609E+02 -0.69023783884E+01 -0.11234914459E+02  0.21360606737E+02  0.00000000000E+00 0.  1.
</event>
<event>
 7    1  0.6184948E-012  0.5930192E+02  0.7816164E-02  0.1266605E+00
        -11   -1    0    0    0    0  0.00000000000E+00  0.00000000000E+00  0.45593999997E+02  0.45594000000E+02  0.51100000000E-03 0. -1.
         11   -1    0    0    0    0 -0.00000000000E+00 -0.00000000000E+00 -0.45593999997E+02  0.45594000000E+02  0.51100000000E-03 0.  1.
    9900012    2    1    2    0    0 -0.17577405030E+02 -0.25964266171E+02  0.57977591306E+01  0.59301916886E+02  0.49999950501E+02 0.  0.
         12    1    1    2    0    0  0.17577405030E+02  0.25964266171E+02 -0.57977591306E+01  0.31886083114E+02  0.00000000000E+00 0. -1.
         11    1    3    3    0    0 -0.93751902010E+01 -0.72367294966E+01 -0.13562170746E+02  0.18005469189E+02  0.51100000000E-03 0. -1.
        -11    1    3    3    0    0 -0.14782256728E+02 -0.23466018006E+02  0.18030028618E+02  0.33079465643E+02  0.51100000000E-03 0.  1.
         12    1    3    3    0    0  0.65800418992E+01  0.47384813313E+01  0.13299012588E+01  0.82169820543E+01  0.00000000000E+00 0. -1.
</event>
<event>
 7    1  0.6184948E-012  0.5930195E+02  0.7816164E-02  0.1266605E+00
        -11   -1    0    0    0    0  0.00000000000E+00  0.00000000000E+00  0.45593999997E+02  0.45594000000E+02  0.51100000000E-03 0.  1.
         11   -1    0    0    0    0 -0.00000000000E+00 -0.00000000000E+00 -0.45593999997E+02  0.45594000000E+02  0.51100000000E-03 0. -1.
    9900012    2    1    2    0    0  0.12513176912E+02 -0.28918945099E+02  0.48821157445E+01  0.59301952327E+02  0.50000015136E+02 0.  0.
         12    1    1    2    0    0 -0.12513176912E+02  0.28918945099E+02 -0.48821157445E+01  0.31886047673E+02  0.00000000000E+00 0. -1.
         11    1    3    3    0    0 -0.14440486895E+02 -0.61992184052E+01  0.44046975118E+01  0.16320518712E+02  0.51100000000E-03 0. -1.
        -11    1    3    3    0    0  0.98838821067E+01 -0.22152317148E+02 -0.55243125309E+01  0.24878390417E+02  0.51100000000E-03 0.  1.
        -12    1    3    3    0    0  0.17069781700E+02 -0.56740954531E+00  0.60017307635E+01  0.18103043198E+02  0.00000000000E+00 0.  1.
</event>
<event>
 7    1  0.6184948E-012  0.5930196E+02  0.7816164E-02  0.1266605E+00
        -11   -1    0    0    0    0  0.00000000000E+00  0.00000000000E+00  0.45593999997E+02  0.45594000000E+02  0.51100000000E-03 0.  1.
         11   -1    0    0    0    0 -0.00000000000E+00 -0.00000000000E+00 -0.45593999997E+02  0.45594000000E+02  0.51100000000E-03 0. -1.
    9900012    2    1    2    0    0  0.82632976088E+01  0.23802849671E+02  0.19541290405E+02  0.59301956493E+02  0.50000022734E+02 0.  0.
         12    1    1    2    0    0 -0.82632976088E+01 -0.23802849671E+02 -0.19541290405E+02  0.31886043507E+02  0.00000000000E+00 0. -1.
         11    1    3    3    0    0 -0.20544007018E+01  0.22725506301E+01 -0.88311580918E+01  0.93474275666E+01  0.51100000000E-03 0. -1.
        -11    1    3    3    0    0  0.16110083198E+02  0.15645345801E+02  0.22631951391E+01  0.22570637527E+02  0.51100000000E-03 0.  1.
        -12    1    3    3    0    0 -0.57923848874E+01  0.58849532404E+01  0.26109253357E+02  0.27383891400E+02  0.00000000000E+00 0.  1.
</event>
<event>
 7    1  0.6184948E-012  0.5930195E+02  0.7816164E-02  0.1266605E+00
        -11   -1    0    0    0    0  0.00000000000E+00  0.00000000000E+00  0.45593999997E+02  0.45594000000E+02  0.51100000000E-03 0.  1.
         11   -1    0    0    0    0 -0.00000000000E+00 -0.00000000000E+00 -0.45593999997E+02  0.45594000000E+02  0.51100000000E-03 0. -1.
    9900012    2    1    2    0    0  0.72850539274E+01  0.21917316458E+02  0.21983620777E+02  0.59301947345E+02  0.50000006050E+02 0.  0.
         12    1    1    2    0    0 -0.72850539274E+01 -0.21917316458E+02 -0.21983620777E+02  0.31886052655E+02  0.00000000000E+00 0. -1.
         11    1    3    3    0    0  0.87890472031E+01  0.24117721969E+01  0.17488155422E+01  0.92802129248E+01  0.51100000000E-03 0. -1.
        -11    1    3    3    0    0  0.17516657454E+02  0.10936167133E+02  0.20583779828E+02  0.29156903680E+02  0.51100000000E-03 0.  1.
         12    1    3    3    0    0 -0.19020650730E+02  0.85693771287E+01 -0.34897459401E+00  0.20864830740E+02  0.00000000000E+00 0. -1.
</event>
<event>
 7    1  0.6184948E-012  0.5930199E+02  0.7816164E-02  0.1266605E+00
        -11   -1    0    0    0    0  0.00000000000E+00  0.00000000000E+00  0.45593999997E+02  0.45594000000E+02  0.51100000000E-03 0. -1.
         11   -1    0    0    0    0 -0.00000000000E+00 -0.00000000000E+00 -0.45593999997E+02  0.45594000000E+02  0.51100000000E-03 0.  1.
    9900012    2    1    2    0    0  0.35238053107E+01  0.19891071620E+02 -0.24670751842E+02  0.59301985346E+02  0.50000075355E+02 0.  0.
         12    1    1    2    0    0 -0.35238053107E+01 -0.19891071620E+02  0.24670751842E+02  0.31886014654E+02  0.00000000000E+00 0. -1.
         11    1    3    3    0    0 -0.69752230039E+01  0.64925753455E+01  0.76373561418E+01  0.12212144761E+02  0.51100000000E-03 0. -1.
        -11    1    3    3    0    0 -0.49623032887E+01 -0.65919272460E+01 -0.12511875815E+02  0.14987494634E+02  0.51100000000E-03 0.  1.
        -12    1    3    3    0    0  0.15461331603E+02  0.19990423520E+02 -0.19796232168E+02  0.32102345951E+02  0.00000000000E+00 0.  1.
</event>
<event>
 7    1  0.6404013E-012  0.5930196E+02  0.7816164E-02  0.1266605E+00
        -11   -1    0    0    0    0  0.00000000000E+00  0.00000000000E+00  0.45593999997E+02  0.45594000000E+02  0.51100000000E-03 0. -1.
         11   -1    0    0    0    0 -0.00000000000E+00 -0.00000000000E+00 -0.45593999997E+02  0.45594000000E+02  0.51100000000E-03 0.  1.
    9900012    2    1    2    0    0  0.91154454524E+01 -0.64277951706E+01 -0.29871590700E+02  0.59301955600E+02  0.50000021105E+02 0.  0.
         12    1    1    2    0    0 -0.91154454524E+01  0.64277951706E+01  0.29871590700E+02  0.31886044400E+02  0.00000000000E+00 0. -1.
         11    1    3    3    0    0  0.12247187785E+02 -0.41357893018E+01 -0.11335971236E+02  0.17193097624E+02  0.51100000000E-03 0. -1.
        -11    1    3    3    0    0  0.35715764542E+01 -0.11387201164E+02 -0.25972020741E+02  0.28582693546E+02  0.51100000000E-03 0.  1.
         12    1    3    3    0    0 -0.67033187869E+01  0.90951952950E+01  0.74364012776E+01  0.13526164429E+02  0.00000000000E+00 0. -1.
</event>
<event>
 7    1  0.6184948E-012  0.5930196E+02  0.7816164E-02  0.1266605E+00
        -11   -1    0    0    0    0  0.00000000000E+00  0.00000000000E+00  0.45593999997E+02  0.45594000000E+02  0.51100000000E-03 0.  1.
         11   -1    0    0    0    0 -0.00000000000E+00 -0.00000000000E+00 -0.45593999997E+02  0.45594000000E+02  0.51100000000E-03 0. -1.
    9900012    2    1    2    0    0  0.12629168561E+02 -0.22456553648E+02  0.18786343348E+02  0.59301962355E+02  0.50000033425E+02 0.  0.
         12    1    1    2    0    0 -0.12629168561E+02  0.22456553648E+02 -0.18786343348E+02  0.31886037645E+02  0.00000000000E+00 0. -1.
         11    1    3    3    0    0  0.10928720264E+02 -0.22938529139E+01  0.64012051378E+01  0.12871445733E+02  0.51100000000E-03 0. -1.
        -11    1    3    3    0    0  0.12867066206E+02  0.74786577556E+01  0.30553165588E+01  0.15192981080E+02  0.51100000000E-03 0.  1.
         12    1    3    3    0    0 -0.11166617908E+02 -0.27641358490E+02  0.93298216513E+01  0.31237535542E+02  0.00000000000E+00 0. -1.
</event>
<event>
 7    1  0.6184948E-012  0.5930195E+02  0.7816164E-02  0.1266605E+00
        -11   -1    0    0    0    0  0.00000000000E+00  0.00000000000E+00  0.45593999997E+02  0.45594000000E+02  0.51100000000E-03 0.  1.
         11   -1    0    0    0    0 -0.00000000000E+00 -0.00000000000E+00 -0.45593999997E+02  0.45594000000E+02  0.51100000000E-03 0. -1.
    9900012    2    1    2    0    0  0.20810110707E+02  0.12228427351E+02  0.20835672728E+02  0.59301946604E+02  0.50000004699E+02 0.  0.
         12    1    1    2    0    0 -0.20810110707E+02 -0.12228427351E+02 -0.20835672728E+02  0.31886053396E+02  0.00000000000E+00 0. -1.
         11    1    3    3    0    0  0.20570048945E+01  0.15495579311E+02  0.99363438638E+00  0.15663063457E+02  0.51100000000E-03 0. -1.
        -11    1    3    3    0    0 -0.75407695638E+01 -0.73475455870E+01  0.11859574383E+02  0.15858724305E+02  0.51100000000E-03 0.  1.
        -12    1    3    3    0    0  0.26293875376E+02  0.40803936273E+01  0.79824639581E+01  0.27780158842E+02  0.00000000000E+00 0.  1.
</event>
<event>
 7    1  0.6184948E-012  0.5930192E+02  0.7816164E-02  0.1266605E+00
        -11   -1    0    0    0    0  0.00000000000E+00  0.00000000000E+00  0.45593999997E+02  0.45594000000E+02  0.51100000000E-03 0. -1.
         11   -1    0    0    0    0 -0.00000000000E+00 -0.00000000000E+00 -0.45593999997E+02  0.45594000000E+02  0.51100000000E-03 0.  1.
    9900012    2    1    2    0    0 -0.26281371110E+02 -0.76470082344E+01 -0.16356497987E+02  0.59301917946E+02  0.49999952433E+02 0.  0.
         12    1    1    2    0    0  0.26281371110E+02  0.76470082344E+01  0.16356497987E+02  0.31886082054E+02  0.00000000000E+00 0. -1.
         11    1    3    3    0    0 -0.27623393161E+01 -0.88670206976E+01  0.40852417588E+01  0.10146121182E+02  0.51100000000E-03 0. -1.
        -11    1    3    3    0    0  0.15692103777E+01 -0.11236974319E+02 -0.17682481043E+02  0.21009572798E+02  0.51100000000E-03 0.  1.
        -12    1    3    3    0    0 -0.25088242172E+02  0.12456986782E+02 -0.27592587028E+01  0.28146223966E+02  0.00000000000E+00 0.  1.
</event>
<event>
 7    1  0.6184948E-012  0.5930189E+02  0.7816164E-02  0.1266605E+00
        -11   -1    0    0    0    0  0.00000000000E+00  0.00000000000E+00  0.45593999997E+02  0.45594000000E+02  0.51100000000E-03 0. -1.
         11   -1    0    0    0    0 -0.00000000000E+00 -0.00000000000E+00 -0.45593999997E+02  0.45594000000E+02  0.51100000000E-03 0.  1.
    9900012    2    1    2    0    0  0.14906476984E+02 -0.12548788301E+00 -0.28186973236E+02  0.59301886040E+02  0.49999894244E+02 0.  0.
         12    1    1    2    0    0 -0.14906476984E+02  0.12548788301E+00  0.28186973236E+02  0.31886113960E+02  0.00000000000E+00 0. -1.
         11    1    3    3    0    0  0.44749333340E+01 -0.14189783727E+01  0.20382274642E+01  0.51178999036E+01  0.51100000000E-03 0. -1.
        -11    1    3    3    0    0  0.18585884660E+02 -0.16665140731E+02 -0.19881699772E+02  0.31913069584E+02  0.51100000000E-03 0.  1.
         12    1    3    3    0    0 -0.81543410096E+01  0.17958631221E+02 -0.10343500928E+02  0.22270916552E+02  0.00000000000E+00 0. -1.
</event>
<event>
 7    1  0.6184948E-012  0.5930191E+02  0.7816164E-02  0.1266605E+00
        -11   -1    0    0    0    0  0.00000000000E+00  0.00000000000E+00  0.45593999997E+02  0.45594000000E+02  0.51100000000E-03 0.  1.
         11   -1    0    0    0    0 -0.00000000000E+00 -0.00000000000E+00 -0.45593999997E+02  0.45594000000E+02  0.51100000000E-03 0. -1.
    9900012    2    1    2    0    0  0.19602205241E+02 -0.71247366662E+01  0.24118758742E+02  0.59301908265E+02  0.49999934778E+02 0.  0.
         12    1    1    2    0    0 -0.19602205241E+02  0.71247366662E+01 -0.24118758742E+02  0.31886091735E+02  0.00000000000E+00 0. -1.
         11    1    3    3    0    0  0.97270686709E+01 -0.16788771469E+02 -0.53164584513E+01  0.20118236580E+02  0.51100000000E-03 0. -1.
        -11    1    3    3    0    0  0.11179503001E+02  0.43700101581E+01  0.32481007443E+01  0.12434968228E+02  0.51100000000E-03 0.  1.
        -12    1    3    3    0    0 -0.13043664309E+01  0.52940246447E+01  0.26187116449E+02  0.26748703457E+02  0.00000000000E+00 0.  1.
</event>
<event>
 7    1  0.6184948E-012  0.5930187E+02  0.7816164E-02  0.1266605E+00
        -11   -1    0    0    0    0  0.00000000000E+00  0.00000000000E+00  0.45593999997E+02  0.45594000000E+02  0.51100000000E-03 0.  1.
         11   -1    0    0    0    0 -0.00000000000E+00 -0.00000000000E+00 -0.45593999997E+02  0.45594000000E+02  0.51100000000E-03 0. -1.
    9900012    2    1    2    0    0 -0.21905858846E+02 -0.68951155605E+01  0.22120485662E+02  0.59301872040E+02  0.49999868712E+02 0.  0.
         12    1    1    2    0    0  0.21905858846E+02  0.68951155605E+01 -0.22120485662E+02  0.31886127960E+02  0.00000000000E+00 0. -1.
         11    1    3    3    0    0  0.26031528125E+01  0.15069687092E+01 -0.67371843694E+01  0.73781442615E+01  0.51100000000E-03 0. -1.
        -11    1    3    3    0    0 -0.11364231846E+01 -0.17898784876E+02  0.11690985438E+02  0.21408808899E+02  0.51100000000E-03 0.  1.
        -12    1    3    3    0    0 -0.23372588474E+02  0.94967006059E+01  0.17166684593E+02  0.30514918880E+02  0.00000000000E+00 0.  1.
</event>
<event>
 7    1  0.6184948E-012  0.5930198E+02  0.7816164E-02  0.1266605E+00
        -11   -1    0    0    0    0  0.00000000000E+00  0.00000000000E+00  0.45593999997E+02  0.45594000000E+02  0.51100000000E-03 0.  1.
         11   -1    0    0    0    0 -0.00000000000E+00 -0.00000000000E+00 -0.45593999997E+02  0.45594000000E+02  0.51100000000E-03 0. -1.
    9900012    2    1    2    0    0 -0.24895893471E+02 -0.10644320277E+02  0.16840755909E+02  0.59301982289E+02  0.50000069779E+02 0.  0.
         12    1    1    2    0    0  0.24895893471E+02  0.10644320277E+02 -0.16840755909E+02  0.31886017711E+02  0.00000000000E+00 0. -1.
         11    1    3    3    0    0 -0.22525919783E+02 -0.13929801509E+01  0.78752244661E+01  0.23903485445E+02  0.51100000000E-03 0. -1.
        -11    1    3    3    0    0 -0.11390154960E+02  0.79555763599E+01  0.78058383978E+01  0.15936057812E+02  0.51100000000E-03 0.  1.
         12    1    3    3    0    0  0.90201812713E+01 -0.17206916486E+02  0.11596930455E+01  0.19462439032E+02  0.00000000000E+00 0. -1.
</event>
<event>
 7    1  0.6184948E-012  0.5930198E+02  0.7816164E-02  0.1266605E+00
        -11   -1    0    0    0    0  0.00000000000E+00  0.00000000000E+00  0.45593999997E+02  0.45594000000E+02  0.51100000000E-03 0. -1.
         11   -1    0    0    0    0 -0.00000000000E+00 -0.00000000000E+00 -0.45593999997E+02  0.45594000000E+02  0.51100000000E-03 0.  1.
    9900012    2    1    2    0    0 -0.31871555285E+02 -0.94347318620E+00  0.17924807466E+00  0.59301979429E+02  0.50000064564E+02 0.  0.
         12    1    1    2    0    0  0.31871555285E+02  0.94347318620E+00 -0.17924807466E+00  0.31886020571E+02  0.00000000000E+00 0. -1.
         11    1    3    3    0    0 -0.18172118008E+02  0.23258694316E+01 -0.75382627553E+01  0.19810627126E+02  0.51100000000E-03 0.  1.
        -11    1    3    3    0    0 -0.78214835198E+01 -0.14710081880E+02  0.16866210760E+02  0.23707196777E+02  0.51100000000E-03 0. -1.
         12    1    3    3    0    0 -0.58779537576E+01  0.11440739263E+02 -0.91486999300E+01  0.15784155526E+02  0.00000000000E+00 0. -1.
</event>
<event>
 7    1  0.6184948E-012  0.5930192E+02  0.7816164E-02  0.1266605E+00
        -11   -1    0    0    0    0  0.00000000000E+00  0.00000000000E+00  0.45593999997E+02  0.45594000000E+02  0.51100000000E-03 0.  1.
         11   -1    0    0    0    0 -0.00000000000E+00 -0.00000000000E+00 -0.45593999997E+02  0.45594000000E+02  0.51100000000E-03 0. -1.
    9900012    2    1    2    0    0  0.26975708528E+02 -0.94671626266E+01  0.14121125626E+02  0.59301918276E+02  0.49999953035E+02 0.  0.
         12    1    1    2    0    0 -0.26975708528E+02  0.94671626266E+01 -0.14121125626E+02  0.31886081724E+02  0.00000000000E+00 0. -1.
         11    1    3    3    0    0 -0.16410678473E+01  0.32696069250E+01  0.30369400873E+01  0.47546228534E+01  0.51100000000E-03 0. -1.
        -11    1    3    3    0    0  0.21866865539E+02 -0.10216782547E+02  0.27518238868E+02  0.36603222874E+02  0.51100000000E-03 0.  1.
         12    1    3    3    0    0  0.67499108364E+01 -0.25199870047E+01 -0.16434053329E+02  0.17944072549E+02  0.00000000000E+00 0. -1.
</event>
<event>
 7    1  0.6184948E-012  0.5930188E+02  0.7816164E-02  0.1266605E+00
        -11   -1    0    0    0    0  0.00000000000E+00  0.00000000000E+00  0.45593999997E+02  0.45594000000E+02  0.51100000000E-03 0.  1.
         11   -1    0    0    0    0 -0.00000000000E+00 -0.00000000000E+00 -0.45593999997E+02  0.45594000000E+02  0.51100000000E-03 0. -1.
    9900012    2    1    2    0    0 -0.75339713486E+00 -0.26493525937E+02  0.17727100502E+02  0.59301880512E+02  0.49999884162E+02 0.  0.
         12    1    1    2    0    0  0.75339713486E+00  0.26493525937E+02 -0.17727100502E+02  0.31886119488E+02  0.00000000000E+00 0. -1.
         11    1    3    3    0    0 -0.85780166230E+01 -0.11320689984E+02  0.13264784562E+02  0.19434374202E+02  0.51100000000E-03 0. -1.
        -11    1    3    3    0    0  0.15555876899E+02  0.14392758054E+00  0.13390747739E+02  0.20526035821E+02  0.51100000000E-03 0.  1.
        -12    1    3    3    0    0 -0.77312574111E+01 -0.15316763534E+02 -0.89284317989E+01  0.19341470489E+02  0.00000000000E+00 0.  1.
</event>
<event>
 7    1  0.6184948E-012  0.5930193E+02  0.7816164E-02  0.1266605E+00
        -11   -1    0    0    0    0  0.00000000000E+00  0.00000000000E+00  0.45593999997E+02  0.45594000000E+02  0.51100000000E-03 0. -1.
         11   -1    0    0    0    0 -0.00000000000E+00 -0.00000000000E+00 -0.45593999997E+02  0.45594000000E+02  0.51100000000E-03 0.  1.
    9900012    2    1    2    0    0 -0.16039844074E+02 -0.21834600318E+02 -0.16813536361E+02  0.59301931350E+02  0.49999976879E+02 0.  0.
         12    1    1    2    0    0  0.16039844074E+02  0.21834600318E+02  0.16813536361E+02  0.31886068650E+02  0.00000000000E+00 0. -1.
         11    1    3    3    0    0 -0.47945415868E+01  0.28425260721E+01 -0.15455664369E+02  0.16430007451E+02  0.51100000000E-03 0. -1.
        -11    1    3    3    0    0 -0.17832220308E+02 -0.28724519253E+02 -0.52528013159E+01  0.34215172210E+02  0.51100000000E-03 0.  1.
         12    1    3    3    0    0  0.65869178211E+01  0.40473928622E+01  0.38949293237E+01  0.86567516887E+01  0.00000000000E+00 0. -1.
</event>
<event>
 7    1  0.6184948E-012  0.5930190E+02  0.7816164E-02  0.1266605E+00
        -11   -1    0    0    0    0  0.00000000000E+00  0.00000000000E+00  0.45593999997E+02  0.45594000000E+02  0.51100000000E-03 0. -1.
         11   -1    0    0    0    0 -0.00000000000E+00 -0.00000000000E+00 -0.45593999997E+02  0.45594000000E+02  0.51100000000E-03 0.  1.
    9900012    2    1    2    0    0 -0.26049046109E+02 -0.11277643238E+02 -0.14525334531E+02  0.59301899839E+02  0.49999919411E+02 0.  0.
         12    1    1    2    0    0  0.26049046109E+02  0.11277643238E+02  0.14525334531E+02  0.31886100161E+02  0.00000000000E+00 0. -1.
         11    1    3    3    0    0 -0.11643231918E+02  0.11150794878E+02  0.70884590378E+01  0.17611113755E+02  0.51100000000E-03 0. -1.
        -11    1    3    3    0    0 -0.18405594594E+02 -0.72704632482E+01 -0.99446539488E+01  0.22147724277E+02  0.51100000000E-03 0.  1.
         12    1    3    3    0    0  0.39997804029E+01 -0.15157974868E+02 -0.11669139620E+02  0.19543061808E+02  0.00000000000E+00 0. -1.
</event>
<event>
 7    1  0.6184948E-012  0.5930200E+02  0.7816164E-02  0.1266605E+00
        -11   -1    0    0    0    0  0.00000000000E+00  0.00000000000E+00  0.45593999997E+02  0.45594000000E+02  0.51100000000E-03 0.  1.
         11   -1    0    0    0    0 -0.00000000000E+00 -0.00000000000E+00 -0.45593999997E+02  0.45594000000E+02  0.51100000000E-03 0. -1.
    9900012    2    1    2    0    0  0.20342612393E+02 -0.21987348629E+02  0.10929395438E+02  0.59301998944E+02  0.50000100154E+02 0.  0.
         12    1    1    2    0    0 -0.20342612393E+02  0.21987348629E+02 -0.10929395438E+02  0.31886001056E+02  0.00000000000E+00 0. -1.
         11    1    3    3    0    0  0.14519556290E+02 -0.25188321805E+02  0.18097034859E+02  0.34245755082E+02  0.51100000000E-03 0. -1.
        -11    1    3    3    0    0  0.91259849539E+01 -0.88896683782E+00  0.59458309558E+01  0.10928255553E+02  0.51100000000E-03 0.  1.
         12    1    3    3    0    0 -0.33029288507E+01  0.40899400137E+01 -0.13113470378E+02  0.14127988309E+02  0.00000000000E+00 0. -1.
</event>
<event>
 7    1  0.6184948E-012  0.5930195E+02  0.7816164E-02  0.1266605E+00
        -11   -1    0    0    0    0  0.00000000000E+00  0.00000000000E+00  0.45593999997E+02  0.45594000000E+02  0.51100000000E-03 0. -1.
         11   -1    0    0    0    0 -0.00000000000E+00 -0.00000000000E+00 -0.45593999997E+02  0.45594000000E+02  0.51100000000E-03 0.  1.
    9900012    2    1    2    0    0  0.74377702049E+01 -0.49953804790E+01 -0.30601400987E+02  0.59301952987E+02  0.50000016339E+02 0.  0.
         12    1    1    2    0    0 -0.74377702049E+01  0.49953804790E+01  0.30601400987E+02  0.31886047013E+02  0.00000000000E+00 0. -1.
         11    1    3    3    0    0  0.80993899021E+01 -0.45762560037E+01 -0.23898588905E+02  0.25645365813E+02  0.51100000000E-03 0. -1.
        -11    1    3    3    0    0  0.92018621157E+01  0.79250805991E+01 -0.14227349088E+02  0.18705577544E+02  0.51100000000E-03 0.  1.
         12    1    3    3    0    0 -0.98634818128E+01 -0.83442050745E+01  0.75245370059E+01  0.14951009630E+02  0.00000000000E+00 0. -1.
</event>
<event>
 7    1  0.6184948E-012  0.5930193E+02  0.7816164E-02  0.1266605E+00
        -11   -1    0    0    0    0  0.00000000000E+00  0.00000000000E+00  0.45593999997E+02  0.45594000000E+02  0.51100000000E-03 0.  1.
         11   -1    0    0    0    0 -0.00000000000E+00 -0.00000000000E+00 -0.45593999997E+02  0.45594000000E+02  0.51100000000E-03 0. -1.
    9900012    2    1    2    0    0  0.72447102122E+01  0.15331025809E+02  0.27003612025E+02  0.59301933438E+02  0.49999980686E+02 0.  0.
         12    1    1    2    0    0 -0.72447102122E+01 -0.15331025809E+02 -0.27003612025E+02  0.31886066562E+02  0.00000000000E+00 0. -1.
         11    1    3    3    0    0  0.47553849581E+01 -0.30430368914E+01 -0.11861317589E+01  0.57689399748E+01  0.51100000000E-03 0. -1.
        -11    1    3    3    0    0  0.39261798073E+01 -0.12688449963E+02  0.14173964188E+02  0.19424544046E+02  0.51100000000E-03 0.  1.
         12    1    3    3    0    0 -0.14368545531E+01  0.31062512663E+02  0.14015779596E+02  0.34108449417E+02  0.00000000000E+00 0. -1.
</event>
<event>
 7    1  0.6184948E-012  0.5930197E+02  0.7816164E-02  0.1266605E+00
        -11   -1    0    0    0    0  0.00000000000E+00  0.00000000000E+00  0.45593999997E+02  0.45594000000E+02  0.51100000000E-03 0. -1.
         11   -1    0    0    0    0 -0.00000000000E+00 -0.00000000000E+00 -0.45593999997E+02  0.45594000000E+02  0.51100000000E-03 0.  1.
    9900012    2    1    2    0    0 -0.19660182693E+02  0.19323824643E+02 -0.16024539674E+02  0.59301970863E+02  0.50000048941E+02 0.  0.
         12    1    1    2    0    0  0.19660182693E+02 -0.19323824643E+02  0.16024539674E+02  0.31886029137E+02  0.00000000000E+00 0. -1.
         11    1    3    3    0    0 -0.10955459384E+02 -0.94732231956E+00 -0.19537383537E+02  0.22419385933E+02  0.51100000000E-03 0.  1.
        -11    1    3    3    0    0  0.83086707973E+00 -0.42149178698E+01  0.90593293085E+01  0.10026331360E+02  0.51100000000E-03 0. -1.
         12    1    3    3    0    0 -0.95355903887E+01  0.24486064832E+02 -0.55464854460E+01  0.26856253570E+02  0.00000000000E+00 0. -1.
</event>
<event>
 7    1  0.6184948E-012  0.5930163E+02  0.7816164E-02  0.1266606E+00
        -11   -1    0    0    0    0  0.00000000000E+00  0.00000000000E+00  0.45593999997E+02  0.45594000000E+02  0.51100000000E-03 0. -1.
         11   -1    0    0    0    0 -0.00000000000E+00 -0.00000000000E+00 -0.45593999997E+02  0.45594000000E+02  0.51100000000E-03 0.  1.
    9900012    2    1    2    0    0  0.12059487166E+02 -0.12187420904E+02 -0.26884495048E+02  0.59301630922E+02  0.49999428968E+02 0.  0.
         12    1    1    2    0    0 -0.12059487166E+02  0.12187420904E+02  0.26884495048E+02  0.31886369078E+02  0.00000000000E+00 0. -1.
         11    1    3    3    0    0  0.17687130025E+02  0.21143267849E+01  0.30673355344E+01  0.18075217670E+02  0.51100000000E-03 0. -1.
        -11    1    3    3    0    0 -0.11935052423E+01  0.65274140768E+01 -0.43918330018E+01  0.79573731011E+01  0.51100000000E-03 0.  1.
        -12    1    3    3    0    0 -0.44341376172E+01 -0.20829161765E+02 -0.25559997580E+02  0.33269040151E+02  0.00000000000E+00 0.  1.
</event>
<event>
 7    1  0.6184948E-012  0.5930194E+02  0.7816164E-02  0.1266605E+00
        -11   -1    0    0    0    0  0.00000000000E+00  0.00000000000E+00  0.45593999997E+02  0.45594000000E+02  0.51100000000E-03 0.  1.
         11   -1    0    0    0    0 -0.00000000000E+00 -0.00000000000E+00 -0.45593999997E+02  0.45594000000E+02  0.51100000000E-03 0. -1.
    9900012    2    1    2    0    0 -0.18868400062E+02  0.71566348763E+01  0.24687781662E+02  0.59301944944E+02  0.50000001671E+02 0.  0.
         12    1    1    2    0    0  0.18868400062E+02 -0.71566348763E+01 -0.24687781662E+02  0.31886055056E+02  0.00000000000E+00 0. -1.
         11    1    3    3    0    0 -0.45450254492E+01  0.14155194337E+02  0.54003633899E+01  0.15817417869E+02  0.51100000000E-03 0. -1.
        -11    1    3    3    0    0 -0.17010759794E+02  0.57233574229E+01  0.23721929740E+02  0.29746474074E+02  0.51100000000E-03 0.  1.
         12    1    3    3    0    0  0.26873851807E+01 -0.12721916883E+02 -0.44345114687E+01  0.13738053001E+02  0.00000000000E+00 0. -1.
</event>
<event>
 7    1  0.6184948E-012  0.5930201E+02  0.7816164E-02  0.1266605E+00
        -11   -1    0    0    0    0  0.00000000000E+00  0.00000000000E+00  0.45593999997E+02  0.45594000000E+02  0.51100000000E-03 0. -1.
         11   -1    0    0    0    0 -0.00000000000E+00 -0.00000000000E+00 -0.45593999997E+02  0.45594000000E+02  0.51100000000E-03 0.  1.
    9900012    2    1    2    0    0 -0.23850297729E+02 -0.13240391925E+02 -0.16509748517E+02  0.59302008151E+02  0.50000116946E+02 0.  0.
         12    1    1    2    0    0  0.23850297729E+02  0.13240391925E+02  0.16509748517E+02  0.31885991849E+02  0.00000000000E+00 0. -1.
         11    1    3    3    0    0 -0.20426974768E+02  0.51854875154E+01 -0.17108530911E+02  0.27145025495E+02  0.51100000000E-03 0.  1.
        -11    1    3    3    0    0  0.38756929417E+01  0.19282719751E+01  0.81704248712E+01  0.92463544938E+01  0.51100000000E-03 0. -1.
        -12    1    3    3    0    0 -0.72990159029E+01 -0.20354151416E+02 -0.75716424769E+01  0.22910628163E+02  0.00000000000E+00 0.  1.
</event>
<event>
 7    1  0.6184948E-012  0.5930193E+02  0.7816164E-02  0.1266605E+00
        -11   -1    0    0    0    0  0.00000000000E+00  0.00000000000E+00  0.45593999997E+02  0.45594000000E+02  0.51100000000E-03 0. -1.
         11   -1    0    0    0    0 -0.00000000000E+00 -0.00000000000E+00 -0.45593999997E+02  0.45594000000E+02  0.51100000000E-03 0.  1.
    9900012    2    1    2    0    0  0.22443167072E+02  0.15711682392E+02 -0.16314685263E+02  0.59301926755E+02  0.49999968498E+02 0.  0.
         12    1    1    2    0    0 -0.22443167072E+02 -0.15711682392E+02  0.16314685263E+02  0.31886073245E+02  0.00000000000E+00 0. -1.
         11    1    3    3    0    0  0.12324422095E+01 -0.92829928207E+01  0.87836341772E+01  0.12839201655E+02  0.51100000000E-03 0. -1.
        -11    1    3    3    0    0  0.41469092568E+01 -0.37992286875E+01 -0.39029286939E+01  0.68457174682E+01  0.51100000000E-03 0.  1.
        -12    1    3    3    0    0  0.17063815605E+02  0.28793903900E+02 -0.21195390746E+02  0.39617007632E+02  0.00000000000E+00 0.  1.
</event>
<event>
 7    1  0.6184948E-012  0.5930196E+02  0.7816164E-02  0.1266605E+00
        -11   -1    0    0    0    0  0.00000000000E+00  0.00000000000E+00  0.45593999997E+02  0.45594000000E+02  0.51100000000E-03 0. -1.
         11   -1    0    0    0    0 -0.00000000000E+00 -0.00000000000E+00 -0.45593999997E+02  0.45594000000E+02  0.51100000000E-03 0.  1.
    9900012    2    1    2    0    0 -0.25470837587E+02 -0.15110368872E+02 -0.11816619078E+02  0.59301963851E+02  0.50000036154E+02 0.  0.
         12    1    1    2    0    0  0.25470837587E+02  0.15110368872E+02  0.11816619078E+02  0.31886036149E+02  0.00000000000E+00 0. -1.
         11    1    3    3    0    0 -0.50814125361E+01 -0.25471617915E+01 -0.22259300837E+02  0.22973577444E+02  0.51100000000E-03 0. -1.
        -11    1    3    3    0    0 -0.53195750968E+01 -0.90769589309E+01 -0.72883172858E+01  0.12798774620E+02  0.51100000000E-03 0.  1.
         12    1    3    3    0    0 -0.15069849954E+02 -0.34862481499E+01  0.17730999044E+02  0.23529611788E+02  0.00000000000E+00 0. -1.
</event>
<event>
 7    1  0.6184948E-012  0.5930194E+02  0.7816164E-02  0.1266605E+00
        -11   -1    0    0    0    0  0.00000000000E+00  0.00000000000E+00  0.45593999997E+02  0.45594000000E+02  0.51100000000E-03 0.  1.
         11   -1    0    0    0    0 -0.00000000000E+00 -0.00000000000E+00 -0.45593999997E+02  0.45594000000E+02  0.51100000000E-03 0. -1.
    9900012    2    1    2    0    0  0.26357330685E+02  0.11285813071E+01  0.17909159577E+02  0.59301943904E+02  0.49999999774E+02 0.  0.
         12    1    1    2    0    0 -0.26357330685E+02 -0.11285813071E+01 -0.17909159577E+02  0.31886056096E+02  0.00000000000E+00 0. -1.
         11    1    3    3    0    0  0.21519841713E+02  0.35147979535E+01  0.12452147744E+02  0.25110025402E+02  0.51100000000E-03 0. -1.
        -11    1    3    3    0    0  0.28588083458E+01  0.51012411438E+01  0.18290603617E+02  0.19202646362E+02  0.51100000000E-03 0.  1.
         12    1    3    3    0    0  0.19786806270E+01 -0.74874577901E+01 -0.12833591784E+02  0.14989272139E+02  0.00000000000E+00 0. -1.
</event>
<event>
 7    1  0.6184948E-012  0.5930194E+02  0.7816164E-02  0.1266605E+00
        -11   -1    0    0    0    0  0.00000000000E+00  0.00000000000E+00  0.45593999997E+02  0.45594000000E+02  0.51100000000E-03 0.  1.
         11   -1    0    0    0    0 -0.00000000000E+00 -0.00000000000E+00 -0.45593999997E+02  0.45594000000E+02  0.51100000000E-03 0. -1.
    9900012    2    1    2    0    0 -0.15065678767E+02 -0.18706321130E+02  0.20971884446E+02  0.59301936208E+02  0.49999985740E+02 0.  0.
         12    1    1    2    0    0  0.15065678767E+02  0.18706321130E+02 -0.20971884446E+02  0.31886063792E+02  0.00000000000E+00 0. -1.
         11    1    3    3    0    0  0.10773751221E+02  0.29076622035E+01  0.98712334835E+01  0.14898639723E+02  0.51100000000E-03 0. -1.
        -11    1    3    3    0    0 -0.46132547027E+01 -0.55150616682E+01  0.15792825678E+02  0.17352560829E+02  0.51100000000E-03 0.  1.
         12    1    3    3    0    0 -0.21226175285E+02 -0.16098921665E+02 -0.46921747160E+01  0.27050735657E+02  0.00000000000E+00 0. -1.
</event>
<event>
 7    1  0.6184948E-012  0.5930195E+02  0.7816164E-02  0.1266605E+00
        -11   -1    0    0    0    0  0.00000000000E+00  0.00000000000E+00  0.45593999997E+02  0.45594000000E+02  0.51100000000E-03 0. -1.
         11   -1    0    0    0    0 -0.00000000000E+00 -0.00000000000E+00 -0.45593999997E+02  0.45594000000E+02  0.51100000000E-03 0.  1.
    9900012    2    1    2    0    0  0.14330858619E+02 -0.26114876764E+02 -0.11373636525E+02  0.59301954385E+02  0.50000018890E+02 0.  0.
         12    1    1    2    0    0 -0.14330858619E+02  0.26114876764E+02  0.11373636525E+02  0.31886045615E+02  0.00000000000E+00 0. -1.
         11    1    3    3    0    0 -0.24164106018E+00 -0.84221508017E+01  0.24651556301E+01  0.87788385946E+01  0.51100000000E-03 0. -1.
        -11    1    3    3    0    0  0.23075983244E+02 -0.11938070050E+02  0.73302542615E+01  0.26995391217E+02  0.51100000000E-03 0.  1.
        -12    1    3    3    0    0 -0.85034835648E+01 -0.57546559125E+01 -0.21169046417E+02  0.23527724573E+02  0.00000000000E+00 0.  1.
</event>
<event>
 7    1  0.6184948E-012  0.5930193E+02  0.7816164E-02  0.1266605E+00
        -11   -1    0    0    0    0  0.00000000000E+00  0.00000000000E+00  0.45593999997E+02  0.45594000000E+02  0.51100000000E-03 0. -1.
         11   -1    0    0    0    0 -0.00000000000E+00 -0.00000000000E+00 -0.45593999997E+02  0.45594000000E+02  0.51100000000E-03 0.  1.
    9900012    2    1    2    0    0  0.10795177877E+01 -0.11217926102E+02 -0.29828078148E+02  0.59301929833E+02  0.49999974113E+02 0.  0.
         12    1    1    2    0    0 -0.10795177877E+01  0.11217926102E+02  0.29828078148E+02  0.31886070167E+02  0.00000000000E+00 0. -1.
         11    1    3    3    0    0  0.98548044706E+01 -0.50891234724E+01 -0.70825423757E+01  0.13159739953E+02  0.51100000000E-03 0. -1.
        -11    1    3    3    0    0  0.47787693462E+00  0.10946467273E+02 -0.24302808099E+02  0.26658581993E+02  0.51100000000E-03 0.  1.
        -12    1    3    3    0    0 -0.92531636176E+01 -0.17075269903E+02  0.15572723269E+01  0.19483607887E+02  0.00000000000E+00 0.  1.
</event>
<event>
 7    1  0.6184948E-012  0.5930212E+02  0.7816164E-02  0.1266604E+00
        -11   -1    0    0    0    0  0.00000000000E+00  0.00000000000E+00  0.45593999997E+02  0.45594000000E+02  0.51100000000E-03 0. -1.
         11   -1    0    0    0    0 -0.00000000000E+00 -0.00000000000E+00 -0.45593999997E+02  0.45594000000E+02  0.51100000000E-03 0.  1.
    9900012    2    1    2    0    0 -0.28668488854E+02 -0.90758155429E+01 -0.10604569982E+02  0.59302116204E+02  0.50000314008E+02 0.  0.
         12    1    1    2    0    0  0.28668488854E+02  0.90758155429E+01  0.10604569982E+02  0.31885883796E+02  0.00000000000E+00 0. -1.
         11    1    3    3    0    0 -0.35009014683E+00 -0.10835909684E+02 -0.76677064849E+01  0.13279052105E+02  0.51100000000E-03 0. -1.
        -11    1    3    3    0    0 -0.19786193021E+02 -0.16367401973E+02 -0.38585956502E+01  0.25966787292E+02  0.51100000000E-03 0.  1.
         12    1    3    3    0    0 -0.85322056863E+01  0.18127496114E+02  0.92173215362E+00  0.20056276808E+02  0.00000000000E+00 0. -1.
</event>
<event>
 7    1  0.6184948E-012  0.5930197E+02  0.7816164E-02  0.1266605E+00
        -11   -1    0    0    0    0  0.00000000000E+00  0.00000000000E+00  0.45593999997E+02  0.45594000000E+02  0.51100000000E-03 0.  1.
         11   -1    0    0    0    0 -0.00000000000E+00 -0.00000000000E+00 -0.45593999997E+02  0.45594000000E+02  0.51100000000E-03 0. -1.
    9900012    2    1    2    0    0  0.88620604416E+00 -0.30950912021E+02  0.76141139044E+01  0.59301967845E+02  0.50000043437E+02 0.  0.
         12    1    1    2    0    0 -0.88620604416E+00  0.30950912021E+02 -0.76141139044E+01  0.31886032155E+02  0.00000000000E+00 0. -1.
         11    1    3    3    0    0  0.31305081376E+00  0.30001416459E+01 -0.10177137026E+02  0.10614752424E+02  0.51100000000E-03 0. -1.
        -11    1    3    3    0    0  0.94540267739E+01  0.57752474216E+00  0.56255942677E+01  0.11016327346E+02  0.51100000000E-03 0.  1.
        -12    1    3    3    0    0 -0.88808715435E+01 -0.34528578409E+02  0.12165656663E+02  0.37670888075E+02  0.00000000000E+00 0.  1.
</event>
<event>
 7    1  0.6184948E-012  0.5930193E+02  0.7816164E-02  0.1266605E+00
        -11   -1    0    0    0    0  0.00000000000E+00  0.00000000000E+00  0.45593999997E+02  0.45594000000E+02  0.51100000000E-03 0.  1.
         11   -1    0    0    0    0 -0.00000000000E+00 -0.00000000000E+00 -0.45593999997E+02  0.45594000000E+02  0.51100000000E-03 0. -1.
    9900012    2    1    2    0    0 -0.15858886601E+02  0.26081482873E+02  0.92180862257E+01  0.59301934913E+02  0.49999983377E+02 0.  0.
         12    1    1    2    0    0  0.15858886601E+02 -0.26081482873E+02 -0.92180862257E+01  0.31886065087E+02  0.00000000000E+00 0. -1.
         11    1    3    3    0    0 -0.65100092843E+01  0.79848101909E+01  0.16092960917E+02  0.19108134551E+02  0.51100000000E-03 0. -1.
        -11    1    3    3    0    0 -0.11766364153E+02  0.23864992583E+02  0.47164311456E+01  0.27022766686E+02  0.51100000000E-03 0.  1.
         12    1    3    3    0    0  0.24174868369E+01 -0.57683199009E+01 -0.11591305837E+02  0.13171033676E+02  0.00000000000E+00 0. -1.
</event>
<event>
 7    1  0.6184948E-012  0.5930195E+02  0.7816164E-02  0.1266605E+00
        -11   -1    0    0    0    0  0.00000000000E+00  0.00000000000E+00  0.45593999997E+02  0.45594000000E+02  0.51100000000E-03 0.  1.
         11   -1    0    0    0    0 -0.00000000000E+00 -0.00000000000E+00 -0.45593999997E+02  0.45594000000E+02  0.51100000000E-03 0. -1.
    9900012    2    1    2    0    0  0.28220401868E+02 -0.66587661348E+01  0.13266129299E+02  0.59301946080E+02  0.50000003742E+02 0.  0.
         12    1    1    2    0    0 -0.28220401868E+02  0.66587661348E+01 -0.13266129299E+02  0.31886053920E+02  0.00000000000E+00 0. -1.
         11    1    3    3    0    0  0.14064555136E+02  0.14831855403E+01 -0.10416396189E+02  0.17564534162E+02  0.51100000000E-03 0. -1.
        -11    1    3    3    0    0  0.70201472214E+01  0.11298945027E+02  0.63879359668E+01  0.14756502021E+02  0.51100000000E-03 0.  1.
        -12    1    3    3    0    0  0.71356995113E+01 -0.19440896702E+02  0.17294589521E+02  0.26980909896E+02  0.00000000000E+00 0.  1.
</event>
<event>
 7    1  0.6184948E-012  0.5930195E+02  0.7816164E-02  0.1266605E+00
        -11   -1    0    0    0    0  0.00000000000E+00  0.00000000000E+00  0.45593999997E+02  0.45594000000E+02  0.51100000000E-03 0.  1.
         11   -1    0    0    0    0 -0.00000000000E+00 -0.00000000000E+00 -0.45593999997E+02  0.45594000000E+02  0.51100000000E-03 0. -1.
    9900012    2    1    2    0    0 -0.23828982195E+02  0.52649370820E-01 -0.21187195374E+02  0.59301946431E+02  0.50000004383E+02 0.  0.
         12    1    1    2    0    0  0.23828982195E+02 -0.52649370820E-01  0.21187195374E+02  0.31886053569E+02  0.00000000000E+00 0. -1.
         11    1    3    3    0    0  0.70866694138E+01  0.72467283575E+01 -0.64672461896E+01  0.12023361793E+02  0.51100000000E-03 0. -1.
        -11    1    3    3    0    0 -0.64912879879E+00 -0.63440150427E+01  0.74090294373E+01  0.97755620055E+01  0.51100000000E-03 0.  1.
         12    1    3    3    0    0 -0.30266522810E+02 -0.85006394397E+00 -0.22128978622E+02  0.37503022632E+02  0.00000000000E+00 0. -1.
</event>
<event>
 7    1  0.6184948E-012  0.5930207E+02  0.7816164E-02  0.1266604E+00
        -11   -1    0    0    0    0  0.00000000000E+00  0.00000000000E+00  0.45593999997E+02  0.45594000000E+02  0.51100000000E-03 0.  1.
         11   -1    0    0    0    0 -0.00000000000E+00 -0.00000000000E+00 -0.45593999997E+02  0.45594000000E+02  0.51100000000E-03 0. -1.
    9900012    2    1    2    0    0  0.26129845634E+02  0.30691824660E+01  0.18014549472E+02  0.59302067262E+02  0.50000224750E+02 0.  0.
         12    1    1    2    0    0 -0.26129845634E+02 -0.30691824660E+01 -0.18014549472E+02  0.31885932738E+02  0.00000000000E+00 0. -1.
         11    1    3    3    0    0  0.11491851334E+02  0.19064591462E+02 -0.25923571833E+01  0.22410747661E+02  0.51100000000E-03 0. -1.
        -11    1    3    3    0    0 -0.41715817726E+01 -0.55337046579E+01  0.11699281087E+02  0.13597689507E+02  0.51100000000E-03 0.  1.
        -12    1    3    3    0    0  0.18809576073E+02 -0.10461704338E+02  0.89076255689E+01  0.23293630094E+02  0.00000000000E+00 0.  1.
</event>
<event>
 7    1  0.6184948E-012  0.5930194E+02  0.7816164E-02  0.1266605E+00
        -11   -1    0    0    0    0  0.00000000000E+00  0.00000000000E+00  0.45593999997E+02  0.45594000000E+02  0.51100000000E-03 0.  1.
         11   -1    0    0    0    0 -0.00000000000E+00 -0.00000000000E+00 -0.45593999997E+02  0.45594000000E+02  0.51100000000E-03 0. -1.
    9900012    2    1    2    0    0  0.26611510084E+02 -0.17564209640E+02 -0.21660581216E+00  0.59301939608E+02  0.49999991940E+02 0.  0.
         12    1    1    2    0    0 -0.26611510084E+02  0.17564209640E+02  0.21660581216E+00  0.31886060392E+02  0.00000000000E+00 0. -1.
         11    1    3    3    0    0  0.15817147297E+02 -0.15376731207E+02 -0.14860226631E+02  0.26597976371E+02  0.51100000000E-03 0. -1.
        -11    1    3    3    0    0  0.18895214559E+02 -0.27263591335E+01  0.43256636514E+01  0.19574818866E+02  0.51100000000E-03 0.  1.
         12    1    3    3    0    0 -0.81008517718E+01  0.53888070030E+00  0.10317957167E+02  0.13129144372E+02  0.00000000000E+00 0. -1.
</event>
<event>
 7    1  0.6184948E-012  0.5930194E+02  0.7816164E-02  0.1266605E+00
        -11   -1    0    0    0    0  0.00000000000E+00  0.00000000000E+00  0.45593999997E+02  0.45594000000E+02  0.51100000000E-03 0. -1.
         11   -1    0    0    0    0 -0.00000000000E+00 -0.00000000000E+00 -0.45593999997E+02  0.45594000000E+02  0.51100000000E-03 0.  1.
    9900012    2    1    2    0    0  0.11522866711E+02  0.29204826972E+02  0.55697863378E+01  0.59301938851E+02  0.49999990560E+02 0.  0.
         12    1    1    2    0    0 -0.11522866711E+02 -0.29204826972E+02 -0.55697863378E+01  0.31886061149E+02  0.00000000000E+00 0. -1.
         11    1    3    3    0    0 -0.28917911855E+01 -0.41590537753E+01 -0.50154152610E+01  0.71284342649E+01  0.51100000000E-03 0.  1.
        -11    1    3    3    0    0  0.17226629662E+02 -0.37059420290E+00  0.31820616453E+01  0.17521975521E+02  0.51100000000E-03 0. -1.
         12    1    3    3    0    0 -0.28119717659E+01  0.33734474951E+02  0.74031399535E+01  0.34651529066E+02  0.00000000000E+00 0. -1.
</event>
<event>
 7    1  0.6184948E-012  0.5930194E+02  0.7816164E-02  0.1266605E+00
        -11   -1    0    0    0    0  0.00000000000E+00  0.00000000000E+00  0.45593999997E+02  0.45594000000E+02  0.51100000000E-03 0.  1.
         11   -1    0    0    0    0 -0.00000000000E+00 -0.00000000000E+00 -0.45593999997E+02  0.45594000000E+02  0.51100000000E-03 0. -1.
    9900012    2    1    2    0    0 -0.30047180335E+02  0.10471439656E+02  0.20582860596E+01  0.59301942921E+02  0.49999997981E+02 0.  0.
         12    1    1    2    0    0  0.30047180335E+02 -0.10471439656E+02 -0.20582860596E+01  0.31886057079E+02  0.00000000000E+00 0. -1.
         11    1    3    3    0    0 -0.12752951124E+01 -0.42163018833E+01 -0.21282112925E+01  0.48921225211E+01  0.51100000000E-03 0. -1.
        -11    1    3    3    0    0 -0.27271512383E+01 -0.99228908308E+01  0.13889365019E+02  0.17286282921E+02  0.51100000000E-03 0.  1.
         12    1    3    3    0    0 -0.26044733984E+02  0.24610632370E+02 -0.97028676672E+01  0.37123537479E+02  0.00000000000E+00 0. -1.
</event>
<event>
 7    1  0.6184948E-012  0.5930195E+02  0.7816164E-02  0.1266605E+00
        -11   -1    0    0    0    0  0.00000000000E+00  0.00000000000E+00  0.45593999997E+02  0.45594000000E+02  0.51100000000E-03 0. -1.
         11   -1    0    0    0    0 -0.00000000000E+00 -0.00000000000E+00 -0.45593999997E+02  0.45594000000E+02  0.51100000000E-03 0.  1.
    9900012    2    1    2    0    0  0.20847885757E+02  0.58543000590E+01 -0.23405407175E+02  0.59301948901E+02  0.50000008887E+02 0.  0.
         12    1    1    2    0    0 -0.20847885757E+02 -0.58543000590E+01  0.23405407175E+02  0.31886051099E+02  0.00000000000E+00 0. -1.
         11    1    3    3    0    0  0.25757069627E+01  0.69197138415E+01 -0.12019020648E+02  0.14105798935E+02  0.51100000000E-03 0. -1.
        -11    1    3    3    0    0  0.13004341930E+02  0.93511647690E+01 -0.23457402673E+02  0.28404347062E+02  0.51100000000E-03 0.  1.
         12    1    3    3    0    0  0.52678368637E+01 -0.10416578552E+02  0.12071016146E+02  0.16791802903E+02  0.00000000000E+00 0. -1.
</event>
<event>
 7    1  0.6184948E-012  0.5930195E+02  0.7816164E-02  0.1266605E+00
        -11   -1    0    0    0    0  0.00000000000E+00  0.00000000000E+00  0.45593999997E+02  0.45594000000E+02  0.51100000000E-03 0.  1.
         11   -1    0    0    0    0 -0.00000000000E+00 -0.00000000000E+00 -0.45593999997E+02  0.45594000000E+02  0.51100000000E-03 0. -1.
    9900012    2    1    2    0    0  0.14409871072E+02  0.28196723275E+02  0.37444054877E+01  0.59301950382E+02  0.50000011589E+02 0.  0.
         12    1    1    2    0    0 -0.14409871072E+02 -0.28196723275E+02 -0.37444054877E+01  0.31886049618E+02  0.00000000000E+00 0. -1.
         11    1    3    3    0    0 -0.57968791750E+01  0.31864372308E+01 -0.91031692188E+01  0.11252772124E+02  0.51100000000E-03 0. -1.
        -11    1    3    3    0    0 -0.44954284693E+00  0.25354385590E+02  0.44370710078E+01  0.25743631384E+02  0.51100000000E-03 0.  1.
        -12    1    3    3    0    0  0.20656293094E+02 -0.34409954594E+00  0.84105036986E+01  0.22305546874E+02  0.00000000000E+00 0.  1.
</event>
<event>
 7    1  0.6184948E-012  0.5930194E+02  0.7816164E-02  0.1266605E+00
        -11   -1    0    0    0    0  0.00000000000E+00  0.00000000000E+00  0.45593999997E+02  0.45594000000E+02  0.51100000000E-03 0.  1.
         11   -1    0    0    0    0 -0.00000000000E+00 -0.00000000000E+00 -0.45593999997E+02  0.45594000000E+02  0.51100000000E-03 0. -1.
    9900012    2    1    2    0    0  0.29387292187E+02  0.11752105824E+02 -0.38724450691E+01  0.59301940912E+02  0.49999994317E+02 0.  0.
         12    1    1    2    0    0 -0.29387292187E+02 -0.11752105824E+02  0.38724450691E+01  0.31886059088E+02  0.00000000000E+00 0. -1.
         11    1    3    3    0    0 -0.57117785716E+01  0.93997491502E+00  0.23885176259E+01  0.62620271480E+01  0.51100000000E-03 0. -1.
        -11    1    3    3    0    0  0.28465939595E+01  0.28176130538E+01  0.13702294003E+02  0.14275675175E+02  0.51100000000E-03 0.  1.
         12    1    3    3    0    0  0.32252476799E+02  0.79945178555E+01 -0.19963256698E+02  0.38764238589E+02  0.00000000000E+00 0. -1.
</event>
<event>
 7    1  0.6184948E-012  0.5930194E+02  0.7816164E-02  0.1266605E+00
        -11   -1    0    0    0    0  0.00000000000E+00  0.00000000000E+00  0.45593999997E+02  0.45594000000E+02  0.51100000000E-03 0.  1.
         11   -1    0    0    0    0 -0.00000000000E+00 -0.00000000000E+00 -0.45593999997E+02  0.45594000000E+02  0.51100000000E-03 0. -1.
    9900012    2    1    2    0    0  0.28658038150E+01  0.25468085871E+02 -0.18970626763E+02  0.59301938638E+02  0.49999990170E+02 0.  0.
         12    1    1    2    0    0 -0.28658038150E+01 -0.25468085871E+02  0.18970626763E+02  0.31886061362E+02  0.00000000000E+00 0. -1.
         11    1    3    3    0    0  0.29995275130E+01  0.11546266684E+02 -0.88626439140E+01  0.14861355828E+02  0.51100000000E-03 0.  1.
        -11    1    3    3    0    0  0.17172748264E+02 -0.40533807130E+01 -0.35017606945E+00  0.17648110428E+02  0.51100000000E-03 0. -1.
        -12    1    3    3    0    0 -0.17306471962E+02  0.17975199899E+02 -0.97578067798E+01  0.26792472382E+02  0.00000000000E+00 0.  1.
</event>
<event>
 7    1  0.6184948E-012  0.5930194E+02  0.7816164E-02  0.1266605E+00
        -11   -1    0    0    0    0  0.00000000000E+00  0.00000000000E+00  0.45593999997E+02  0.45594000000E+02  0.51100000000E-03 0.  1.
         11   -1    0    0    0    0 -0.00000000000E+00 -0.00000000000E+00 -0.45593999997E+02  0.45594000000E+02  0.51100000000E-03 0. -1.
    9900012    2    1    2    0    0  0.26983919428E+02  0.13183804531E+02 -0.10713355941E+02  0.59301943406E+02  0.49999998867E+02 0.  0.
         12    1    1    2    0    0 -0.26983919428E+02 -0.13183804531E+02  0.10713355941E+02  0.31886056594E+02  0.00000000000E+00 0. -1.
         11    1    3    3    0    0  0.65945501019E+01 -0.36526904779E+01 -0.62723252612E+01  0.98067478410E+01  0.51100000000E-03 0. -1.
        -11    1    3    3    0    0  0.28783101020E+02  0.98669523705E+01 -0.15338610542E+02  0.34074867968E+02  0.51100000000E-03 0.  1.
         12    1    3    3    0    0 -0.83937316943E+01  0.69695426383E+01  0.10897579863E+02  0.15420327597E+02  0.00000000000E+00 0. -1.
</event>
<event>
 7    1  0.6184948E-012  0.5930189E+02  0.7816164E-02  0.1266605E+00
        -11   -1    0    0    0    0  0.00000000000E+00  0.00000000000E+00  0.45593999997E+02  0.45594000000E+02  0.51100000000E-03 0. -1.
         11   -1    0    0    0    0 -0.00000000000E+00 -0.00000000000E+00 -0.45593999997E+02  0.45594000000E+02  0.51100000000E-03 0.  1.
    9900012    2    1    2    0    0 -0.13655332847E+02  0.22348622391E+02  0.18187770465E+02  0.59301889663E+02  0.49999900851E+02 0.  0.
         12    1    1    2    0    0  0.13655332847E+02 -0.22348622391E+02 -0.18187770465E+02  0.31886110337E+02  0.00000000000E+00 0. -1.
         11    1    3    3    0    0 -0.13612950319E+02  0.17663484604E+02  0.32056009522E+01  0.22529691131E+02  0.51100000000E-03 0. -1.
        -11    1    3    3    0    0 -0.60722099849E+01  0.12741541185E+02  0.20808769605E+02  0.25144054936E+02  0.51100000000E-03 0.  1.
        -12    1    3    3    0    0  0.60298274561E+01 -0.80564033975E+01 -0.58266000925E+01  0.11628143596E+02  0.00000000000E+00 0.  1.
</event>
<event>
 7    1  0.6184948E-012  0.5930198E+02  0.7816164E-02  0.1266605E+00
        -11   -1    0    0    0    0  0.00000000000E+00  0.00000000000E+00  0.45593999997E+02  0.45594000000E+02  0.51100000000E-03 0.  1.
         11   -1    0    0    0    0 -0.00000000000E+00 -0.00000000000E+00 -0.45593999997E+02  0.45594000000E+02  0.51100000000E-03 0. -1.
    9900012    2    1    2    0    0  0.13242107722E+02 -0.21066315066E+02  0.19939289824E+02  0.59301979144E+02  0.50000064043E+02 0.  0.
         12    1    1    2    0    0 -0.13242107722E+02  0.21066315066E+02 -0.19939289824E+02  0.31886020856E+02  0.00000000000E+00 0. -1.
         11    1    3    3    0    0  0.11157667415E+02 -0.15274164950E+02  0.10122058536E+02  0.21453431575E+02  0.51100000000E-03 0. -1.
        -11    1    3    3    0    0 -0.12612479449E+02 -0.11267656493E+02  0.13614656673E+02  0.21711600523E+02  0.51100000000E-03 0.  1.
         12    1    3    3    0    0  0.14696919756E+02  0.54755063773E+01 -0.37974253850E+01  0.16136947046E+02  0.00000000000E+00 0. -1.
</event>
<event>
 7    1  0.6184948E-012  0.5930192E+02  0.7816164E-02  0.1266605E+00
        -11   -1    0    0    0    0  0.00000000000E+00  0.00000000000E+00  0.45593999997E+02  0.45594000000E+02  0.51100000000E-03 0.  1.
         11   -1    0    0    0    0 -0.00000000000E+00 -0.00000000000E+00 -0.45593999997E+02  0.45594000000E+02  0.51100000000E-03 0. -1.
    9900012    2    1    2    0    0 -0.20521638471E+02  0.20255006476E+02 -0.13613188710E+02  0.59301924047E+02  0.49999963559E+02 0.  0.
         12    1    1    2    0    0  0.20521638471E+02 -0.20255006476E+02  0.13613188710E+02  0.31886075953E+02  0.00000000000E+00 0. -1.
         11    1    3    3    0    0  0.56145085996E+01 -0.35521360973E+01 -0.11177171398E+00  0.66447626628E+01  0.51100000000E-03 0. -1.
        -11    1    3    3    0    0 -0.17007501279E+01  0.87680405338E+01  0.11527108088E+02  0.14582362872E+02  0.51100000000E-03 0.  1.
        -12    1    3    3    0    0 -0.24435396942E+02  0.15039102039E+02 -0.25028525083E+02  0.38074798512E+02  0.00000000000E+00 0.  1.
</event>
<event>
 7    1  0.6184948E-012  0.5930195E+02  0.7816164E-02  0.1266605E+00
        -11   -1    0    0    0    0  0.00000000000E+00  0.00000000000E+00  0.45593999997E+02  0.45594000000E+02  0.51100000000E-03 0.  1.
         11   -1    0    0    0    0 -0.00000000000E+00 -0.00000000000E+00 -0.45593999997E+02  0.45594000000E+02  0.51100000000E-03 0. -1.
    9900012    2    1    2    0    0  0.17370088071E+02 -0.25962073754E+01  0.26613155783E+02  0.59301947986E+02  0.50000007218E+02 0.  0.
         12    1    1    2    0    0 -0.17370088071E+02  0.25962073754E+01 -0.26613155783E+02  0.31886052014E+02  0.00000000000E+00 0. -1.
         11    1    3    3    0    0  0.19202992235E+00  0.16514144871E+01  0.19025973726E+01  0.25266424999E+01  0.51100000000E-03 0. -1.
        -11    1    3    3    0    0  0.12945652841E+02 -0.15907831964E+02  0.35061267814E+02  0.40619472501E+02  0.51100000000E-03 0.  1.
         12    1    3    3    0    0  0.42324053072E+01  0.11660210101E+02 -0.10350709403E+02  0.16155832985E+02  0.00000000000E+00 0. -1.
</event>
<event>
 7    1  0.6184948E-012  0.5930191E+02  0.7816164E-02  0.1266605E+00
        -11   -1    0    0    0    0  0.00000000000E+00  0.00000000000E+00  0.45593999997E+02  0.45594000000E+02  0.51100000000E-03 0.  1.
         11   -1    0    0    0    0 -0.00000000000E+00 -0.00000000000E+00 -0.45593999997E+02  0.45594000000E+02  0.51100000000E-03 0. -1.
    9900012    2    1    2    0    0  0.27480797598E+00  0.59068452753E+01  0.31332993105E+02  0.59301909029E+02  0.49999936171E+02 0.  0.
         12    1    1    2    0    0 -0.27480797598E+00 -0.59068452753E+01 -0.31332993105E+02  0.31886090971E+02  0.00000000000E+00 0. -1.
         11    1    3    3    0    0 -0.83954852816E+01 -0.76780359463E+01  0.33751896421E+01  0.11867110621E+02  0.51100000000E-03 0. -1.
        -11    1    3    3    0    0 -0.10871728779E+02 -0.28812083893E+01  0.28338397493E+01  0.11598555790E+02  0.51100000000E-03 0.  1.
        -12    1    3    3    0    0  0.19542022036E+02  0.16466089611E+02  0.25123963713E+02  0.35836242618E+02  0.00000000000E+00 0.  1.
</event>
<event>
 7    1  0.6184948E-012  0.5930199E+02  0.7816164E-02  0.1266605E+00
        -11   -1    0    0    0    0  0.00000000000E+00  0.00000000000E+00  0.45593999997E+02  0.45594000000E+02  0.51100000000E-03 0.  1.
         11   -1    0    0    0    0 -0.00000000000E+00 -0.00000000000E+00 -0.45593999997E+02  0.45594000000E+02  0.51100000000E-03 0. -1.
    9900012    2    1    2    0    0  0.17451876502E+02 -0.87954937010E+01  0.25195017333E+02  0.59301990509E+02  0.50000084770E+02 0.  0.
         12    1    1    2    0    0 -0.17451876502E+02  0.87954937010E+01 -0.25195017333E+02  0.31886009491E+02  0.00000000000E+00 0. -1.
         11    1    3    3    0    0 -0.58987379806E+01 -0.23902260697E+01 -0.80793557983E+01  0.10285148555E+02  0.51100000000E-03 0. -1.
        -11    1    3    3    0    0  0.21442103739E+02 -0.95907342141E+01  0.10136867287E+02  0.25583238149E+02  0.51100000000E-03 0.  1.
        -12    1    3    3    0    0  0.19085107431E+01  0.31854665828E+01  0.23137505844E+02  0.23433603805E+02  0.00000000000E+00 0.  1.
</event>
<event>
 7    1  0.6184948E-012  0.5930194E+02  0.7816164E-02  0.1266605E+00
        -11   -1    0    0    0    0  0.00000000000E+00  0.00000000000E+00  0.45593999997E+02  0.45594000000E+02  0.51100000000E-03 0.  1.
         11   -1    0    0    0    0 -0.00000000000E+00 -0.00000000000E+00 -0.45593999997E+02  0.45594000000E+02  0.51100000000E-03 0. -1.
    9900012    2    1    2    0    0 -0.11708636432E+02  0.26494097250E+02  0.13330100367E+02  0.59301938281E+02  0.49999989519E+02 0.  0.
         12    1    1    2    0    0  0.11708636432E+02 -0.26494097250E+02 -0.13330100367E+02  0.31886061719E+02  0.00000000000E+00 0. -1.
         11    1    3    3    0    0  0.13199702976E+02  0.16810653368E+02 -0.18799103484E+01  0.21456101428E+02  0.51100000000E-03 0. -1.
        -11    1    3    3    0    0  0.11206761699E-01 -0.32364450356E+01 -0.29784994938E+01  0.43984271684E+01  0.51100000000E-03 0.  1.
        -12    1    3    3    0    0 -0.24919546170E+02  0.12919888918E+02  0.18188510209E+02  0.33447409684E+02  0.00000000000E+00 0.  1.
</event>
<event>
 7    1  0.6184948E-012  0.5930197E+02  0.7816164E-02  0.1266605E+00
        -11   -1    0    0    0    0  0.00000000000E+00  0.00000000000E+00  0.45593999997E+02  0.45594000000E+02  0.51100000000E-03 0. -1.
         11   -1    0    0    0    0 -0.00000000000E+00 -0.00000000000E+00 -0.45593999997E+02  0.45594000000E+02  0.51100000000E-03 0.  1.
    9900012    2    1    2    0    0 -0.27866539887E+02 -0.15124209573E+02 -0.33812602359E+01  0.59301973574E+02  0.50000053885E+02 0.  0.
         12    1    1    2    0    0  0.27866539887E+02  0.15124209573E+02  0.33812602359E+01  0.31886026426E+02  0.00000000000E+00 0. -1.
         11    1    3    3    0    0  0.92183215873E+00 -0.37630357454E+01 -0.14051016017E+02  0.14575364967E+02  0.51100000000E-03 0. -1.
        -11    1    3    3    0    0  0.27261478486E+01 -0.95476427190E+01 -0.29336874900E+01  0.10353544617E+02  0.51100000000E-03 0.  1.
        -12    1    3    3    0    0 -0.31514519894E+02 -0.18135311080E+01  0.13603443271E+02  0.34373063990E+02  0.00000000000E+00 0.  1.
</event>
<event>
 7    1  0.6184948E-012  0.5930192E+02  0.7816164E-02  0.1266605E+00
        -11   -1    0    0    0    0  0.00000000000E+00  0.00000000000E+00  0.45593999997E+02  0.45594000000E+02  0.51100000000E-03 0. -1.
         11   -1    0    0    0    0 -0.00000000000E+00 -0.00000000000E+00 -0.45593999997E+02  0.45594000000E+02  0.51100000000E-03 0.  1.
    9900012    2    1    2    0    0 -0.99086304617E+01  0.30196586597E+02  0.25898021745E+01  0.59301923493E+02  0.49999962549E+02 0.  0.
         12    1    1    2    0    0  0.99086304617E+01 -0.30196586597E+02 -0.25898021745E+01  0.31886076507E+02  0.00000000000E+00 0. -1.
         11    1    3    3    0    0 -0.28525277255E+01  0.12421848324E+01  0.23967810932E+01  0.39274033982E+01  0.51100000000E-03 0. -1.
        -11    1    3    3    0    0  0.11384573652E+02  0.82892673682E+01  0.17692303899E+02  0.22612785946E+02  0.51100000000E-03 0.  1.
        -12    1    3    3    0    0 -0.18440676388E+02  0.20665134396E+02 -0.17499282818E+02  0.32761734148E+02  0.00000000000E+00 0.  1.
</event>
<event>
 7    1  0.6184948E-012  0.5930194E+02  0.7816164E-02  0.1266605E+00
        -11   -1    0    0    0    0  0.00000000000E+00  0.00000000000E+00  0.45593999997E+02  0.45594000000E+02  0.51100000000E-03 0. -1.
         11   -1    0    0    0    0 -0.00000000000E+00 -0.00000000000E+00 -0.45593999997E+02  0.45594000000E+02  0.51100000000E-03 0.  1.
    9900012    2    1    2    0    0 -0.23110347475E+02  0.16562431226E+02 -0.14433240887E+02  0.59301941432E+02  0.49999995265E+02 0.  0.
         12    1    1    2    0    0  0.23110347475E+02 -0.16562431226E+02  0.14433240887E+02  0.31886058568E+02  0.00000000000E+00 0. -1.
         11    1    3    3    0    0  0.15168948399E+01 -0.22393538577E+01  0.90934306654E+01  0.94871574870E+01  0.51100000000E-03 0.  1.
        -11    1    3    3    0    0  0.25856644705E+01  0.11171453534E+02  0.21075140955E+01  0.11658844314E+02  0.51100000000E-03 0. -1.
        -12    1    3    3    0    0 -0.27212906785E+02  0.76303315495E+01 -0.25634185648E+02  0.38155939630E+02  0.00000000000E+00 0.  1.
</event>
<event>
 7    1  0.6184948E-012  0.5930192E+02  0.7816164E-02  0.1266605E+00
        -11   -1    0    0    0    0  0.00000000000E+00  0.00000000000E+00  0.45593999997E+02  0.45594000000E+02  0.51100000000E-03 0.  1.
         11   -1    0    0    0    0 -0.00000000000E+00 -0.00000000000E+00 -0.45593999997E+02  0.45594000000E+02  0.51100000000E-03 0. -1.
    9900012    2    1    2    0    0  0.11467331904E+02  0.26544787955E+02  0.13438620507E+02  0.59301921695E+02  0.49999959270E+02 0.  0.
         12    1    1    2    0    0 -0.11467331904E+02 -0.26544787955E+02 -0.13438620507E+02  0.31886078305E+02  0.00000000000E+00 0. -1.
         11    1    3    3    0    0  0.46402225409E+01 -0.11101465623E+01  0.10928654844E+02  0.11924746856E+02  0.51100000000E-03 0. -1.
        -11    1    3    3    0    0  0.14992547744E+02  0.16542906061E+02  0.16478678788E+02  0.27748713189E+02  0.51100000000E-03 0.  1.
        -12    1    3    3    0    0 -0.81654383807E+01  0.11112028456E+02 -0.13968713125E+02  0.19628461649E+02  0.00000000000E+00 0.  1.
</event>
<event>
 7    1  0.6700829E-012  0.5930194E+02  0.7816164E-02  0.1266605E+00
        -11   -1    0    0    0    0  0.00000000000E+00  0.00000000000E+00  0.45593999997E+02  0.45594000000E+02  0.51100000000E-03 0. -1.
         11   -1    0    0    0    0 -0.00000000000E+00 -0.00000000000E+00 -0.45593999997E+02  0.45594000000E+02  0.51100000000E-03 0.  1.
    9900012    2    1    2    0    0 -0.17533982133E+02  0.65735312377E+01 -0.25808309042E+02  0.59301942577E+02  0.49999997354E+02 0.  0.
         12    1    1    2    0    0  0.17533982133E+02 -0.65735312377E+01  0.25808309042E+02  0.31886057423E+02  0.00000000000E+00 0. -1.
         11    1    3    3    0    0  0.17149531373E+01 -0.56422942290E+01 -0.21248051679E+02  0.22051218760E+02  0.51100000000E-03 0. -1.
        -11    1    3    3    0    0 -0.23320309959E+02  0.66797637251E+01 -0.12049941327E+02  0.27086106886E+02  0.51100000000E-03 0.  1.
         12    1    3    3    0    0  0.40713746884E+01  0.55360617415E+01  0.74896839635E+01  0.10164616930E+02  0.00000000000E+00 0. -1.
</event>
<event>
 7    1  0.6184948E-012  0.5930193E+02  0.7816164E-02  0.1266605E+00
        -11   -1    0    0    0    0  0.00000000000E+00  0.00000000000E+00  0.45593999997E+02  0.45594000000E+02  0.51100000000E-03 0.  1.
         11   -1    0    0    0    0 -0.00000000000E+00 -0.00000000000E+00 -0.45593999997E+02  0.45594000000E+02  0.51100000000E-03 0. -1.
    9900012    2    1    2    0    0  0.26843179760E+02 -0.16159701791E+02 -0.59185599613E+01  0.59301927592E+02  0.49999970025E+02 0.  0.
         12    1    1    2    0    0 -0.26843179760E+02  0.16159701791E+02  0.59185599613E+01  0.31886072408E+02  0.00000000000E+00 0. -1.
         11    1    3    3    0    0 -0.89546325707E+01 -0.95813237180E+00 -0.57651831869E+01  0.10693025744E+02  0.51100000000E-03 0. -1.
        -11    1    3    3    0    0 -0.37264673824E+01 -0.55511886533E+01  0.38697684558E+01  0.77251124768E+01  0.51100000000E-03 0.  1.
        -12    1    3    3    0    0  0.39524279714E+02 -0.96503807655E+01 -0.40231452301E+01  0.40883789371E+02  0.00000000000E+00 0.  1.
</event>
<event>
 7    1  0.6184948E-012  0.5930188E+02  0.7816164E-02  0.1266605E+00
        -11   -1    0    0    0    0  0.00000000000E+00  0.00000000000E+00  0.45593999997E+02  0.45594000000E+02  0.51100000000E-03 0.  1.
         11   -1    0    0    0    0 -0.00000000000E+00 -0.00000000000E+00 -0.45593999997E+02  0.45594000000E+02  0.51100000000E-03 0. -1.
    9900012    2    1    2    0    0 -0.25428483625E+02 -0.19193604408E+02 -0.13124510922E+01  0.59301878293E+02  0.49999880116E+02 0.  0.
         12    1    1    2    0    0  0.25428483625E+02  0.19193604408E+02  0.13124510922E+01  0.31886121707E+02  0.00000000000E+00 0. -1.
         11    1    3    3    0    0  0.10943743735E+02 -0.24743074577E+01 -0.20853915307E+01  0.11412124361E+02  0.51100000000E-03 0. -1.
        -11    1    3    3    0    0 -0.19506613071E+02  0.51968843836E+01 -0.66490583640E+00  0.20197961799E+02  0.51100000000E-03 0.  1.
        -12    1    3    3    0    0 -0.16865614289E+02 -0.21916181334E+02  0.14378462750E+01  0.27691792133E+02  0.00000000000E+00 0.  1.
</event>
<event>
 7    1  0.6184948E-012  0.5930195E+02  0.7816164E-02  0.1266605E+00
        -11   -1    0    0    0    0  0.00000000000E+00  0.00000000000E+00  0.45593999997E+02  0.45594000000E+02  0.51100000000E-03 0.  1.
         11   -1    0    0    0    0 -0.00000000000E+00 -0.00000000000E+00 -0.45593999997E+02  0.45594000000E+02  0.51100000000E-03 0. -1.
    9900012    2    1    2    0    0  0.21879793270E+02 -0.18432921427E+02  0.14079144998E+02  0.59301948665E+02  0.50000008457E+02 0.  0.
         12    1    1    2    0    0 -0.21879793270E+02  0.18432921427E+02 -0.14079144998E+02  0.31886051335E+02  0.00000000000E+00 0. -1.
         11    1    3    3    0    0  0.11151765416E+02 -0.21434903493E+01 -0.13347406383E+02  0.17524545078E+02  0.51100000000E-03 0. -1.
        -11    1    3    3    0    0  0.13572201254E+01 -0.11170988471E+02 -0.11108682161E+01  0.11307831726E+02  0.51100000000E-03 0.  1.
        -12    1    3    3    0    0  0.93708077281E+01 -0.51184426071E+01  0.28537419597E+02  0.30469571862E+02  0.00000000000E+00 0.  1.
</event>
<event>
 7    1  0.6184948E-012  0.5930194E+02  0.7816164E-02  0.1266605E+00
        -11   -1    0    0    0    0  0.00000000000E+00  0.00000000000E+00  0.45593999997E+02  0.45594000000E+02  0.51100000000E-03 0. -1.
         11   -1    0    0    0    0 -0.00000000000E+00 -0.00000000000E+00 -0.45593999997E+02  0.45594000000E+02  0.51100000000E-03 0.  1.
    9900012    2    1    2    0    0 -0.17071735728E+02  0.19893049626E+02 -0.18153326575E+02  0.59301939567E+02  0.49999991865E+02 0.  0.
         12    1    1    2    0    0  0.17071735728E+02 -0.19893049626E+02  0.18153326575E+02  0.31886060433E+02  0.00000000000E+00 0. -1.
         11    1    3    3    0    0 -0.10821288064E+02  0.19419521826E+00 -0.14085285488E+02  0.17763255745E+02  0.51100000000E-03 0. -1.
        -11    1    3    3    0    0 -0.59228778287E+01  0.25908895340E+02 -0.13833010373E+02  0.29961700816E+02  0.51100000000E-03 0.  1.
         12    1    3    3    0    0 -0.32756983507E+00 -0.62100409322E+01  0.97649692853E+01  0.11576983006E+02  0.00000000000E+00 0. -1.
</event>
<event>
 7    1  0.6184948E-012  0.5930195E+02  0.7816164E-02  0.1266605E+00
        -11   -1    0    0    0    0  0.00000000000E+00  0.00000000000E+00  0.45593999997E+02  0.45594000000E+02  0.51100000000E-03 0.  1.
         11   -1    0    0    0    0 -0.00000000000E+00 -0.00000000000E+00 -0.45593999997E+02  0.45594000000E+02  0.51100000000E-03 0. -1.
    9900012    2    1    2    0    0  0.10778664825E+02 -0.23111888578E+02  0.19141093085E+02  0.59301945783E+02  0.50000003201E+02 0.  0.
         12    1    1    2    0    0 -0.10778664825E+02  0.23111888578E+02 -0.19141093085E+02  0.31886054217E+02  0.00000000000E+00 0. -1.
         11    1    3    3    0    0 -0.42609748221E+01 -0.22218172803E+02  0.11957001089E+02  0.25588532284E+02  0.51100000000E-03 0. -1.
        -11    1    3    3    0    0  0.54229544516E+01 -0.13707528519E+02 -0.25599072213E+01  0.14961881510E+02  0.51100000000E-03 0.  1.
        -12    1    3    3    0    0  0.96166851954E+01  0.12813812744E+02  0.97439992173E+01  0.18751531989E+02  0.00000000000E+00 0.  1.
</event>
<event>
 7    1  0.6184948E-012  0.5930195E+02  0.7816164E-02  0.1266605E+00
        -11   -1    0    0    0    0  0.00000000000E+00  0.00000000000E+00  0.45593999997E+02  0.45594000000E+02  0.51100000000E-03 0.  1.
         11   -1    0    0    0    0 -0.00000000000E+00 -0.00000000000E+00 -0.45593999997E+02  0.45594000000E+02  0.51100000000E-03 0. -1.
    9900012    2    1    2    0    0 -0.33327726339E+01 -0.23940371530E+02  0.20795947165E+02  0.59301950058E+02  0.50000010998E+02 0.  0.
         12    1    1    2    0    0  0.33327726339E+01  0.23940371530E+02 -0.20795947165E+02  0.31886049942E+02  0.00000000000E+00 0. -1.
         11    1    3    3    0    0  0.33923258614E+01  0.91289230995E+01 -0.69956851523E+01  0.11991026758E+02  0.51100000000E-03 0. -1.
        -11    1    3    3    0    0 -0.29913461298E+01 -0.23355658466E+01 -0.20476127291E+01  0.43122775469E+01  0.51100000000E-03 0.  1.
        -12    1    3    3    0    0 -0.37337523655E+01 -0.30733728783E+02  0.29839245046E+02  0.42998645753E+02  0.00000000000E+00 0.  1.
</event>
<event>
 7    1  0.6184948E-012  0.5930194E+02  0.7816164E-02  0.1266605E+00
        -11   -1    0    0    0    0  0.00000000000E+00  0.00000000000E+00  0.45593999997E+02  0.45594000000E+02  0.51100000000E-03 0.  1.
         11   -1    0    0    0    0 -0.00000000000E+00 -0.00000000000E+00 -0.45593999997E+02  0.45594000000E+02  0.51100000000E-03 0. -1.
    9900012    2    1    2    0    0  0.31139367522E+02  0.56359306186E+01  0.39111255276E+01  0.59301939935E+02  0.49999992535E+02 0.  0.
         12    1    1    2    0    0 -0.31139367522E+02 -0.56359306186E+01 -0.39111255276E+01  0.31886060065E+02  0.00000000000E+00 0. -1.
         11    1    3    3    0    0 -0.54280389096E+00  0.13422502586E+02  0.24101195321E+01  0.13647962784E+02  0.51100000000E-03 0. -1.
        -11    1    3    3    0    0 -0.38638686715E+01  0.25256059402E+01 -0.63187619863E+01  0.78252744218E+01  0.51100000000E-03 0.  1.
         12    1    3    3    0    0  0.35546040084E+02 -0.10312177907E+02  0.78197679818E+01  0.37828702729E+02  0.00000000000E+00 0. -1.
</event>
<event>
 7    1  0.6184948E-012  0.5930195E+02  0.7816164E-02  0.1266605E+00
        -11   -1    0    0    0    0  0.00000000000E+00  0.00000000000E+00  0.45593999997E+02  0.45594000000E+02  0.51100000000E-03 0. -1.
         11   -1    0    0    0    0 -0.00000000000E+00 -0.00000000000E+00 -0.45593999997E+02  0.45594000000E+02  0.51100000000E-03 0.  1.
    9900012    2    1    2    0    0  0.58700877602E+01 -0.17883520539E+02 -0.25737944328E+02  0.59301952653E+02  0.50000015730E+02 0.  0.
         12    1    1    2    0    0 -0.58700877602E+01  0.17883520539E+02  0.25737944328E+02  0.31886047347E+02  0.00000000000E+00 0. -1.
         11    1    3    3    0    0 -0.23383323225E+01 -0.58074967513E+01  0.19858365559E+01  0.65679801808E+01  0.51100000000E-03 0. -1.
        -11    1    3    3    0    0  0.58378919103E+01 -0.18951106914E+02 -0.36376925516E+02  0.41430739137E+02  0.51100000000E-03 0.  1.
         12    1    3    3    0    0  0.23705281723E+01  0.68750831259E+01  0.86531446318E+01  0.11303233335E+02  0.00000000000E+00 0. -1.
</event>
<event>
 7    1  0.6184948E-012  0.5930193E+02  0.7816164E-02  0.1266605E+00
        -11   -1    0    0    0    0  0.00000000000E+00  0.00000000000E+00  0.45593999997E+02  0.45594000000E+02  0.51100000000E-03 0. -1.
         11   -1    0    0    0    0 -0.00000000000E+00 -0.00000000000E+00 -0.45593999997E+02  0.45594000000E+02  0.51100000000E-03 0.  1.
    9900012    2    1    2    0    0  0.10203936504E+02 -0.24335605362E+02  0.17899144950E+02  0.59301930966E+02  0.49999976178E+02 0.  0.
         12    1    1    2    0    0 -0.10203936504E+02  0.24335605362E+02 -0.17899144950E+02  0.31886069034E+02  0.00000000000E+00 0. -1.
         11    1    3    3    0    0 -0.23095276829E+01 -0.10309270907E+02  0.83312626774E+01  0.13454550264E+02  0.51100000000E-03 0. -1.
        -11    1    3    3    0    0  0.11029879667E+02 -0.23564591900E+02 -0.67577195535E+01  0.26881499413E+02  0.51100000000E-03 0.  1.
         12    1    3    3    0    0  0.14835845201E+01  0.95382574440E+01  0.16325601826E+02  0.18965881289E+02  0.00000000000E+00 0. -1.
</event>
<event>
 7    1  0.6184948E-012  0.5930197E+02  0.7816164E-02  0.1266605E+00
        -11   -1    0    0    0    0  0.00000000000E+00  0.00000000000E+00  0.45593999997E+02  0.45594000000E+02  0.51100000000E-03 0. -1.
         11   -1    0    0    0    0 -0.00000000000E+00 -0.00000000000E+00 -0.45593999997E+02  0.45594000000E+02  0.51100000000E-03 0.  1.
    9900012    2    1    2    0    0  0.31294846149E+02 -0.76874534805E+00 -0.60630594656E+01  0.59301967713E+02  0.50000043197E+02 0.  0.
         12    1    1    2    0    0 -0.31294846149E+02  0.76874534805E+00  0.60630594656E+01  0.31886032287E+02  0.00000000000E+00 0. -1.
         11    1    3    3    0    0  0.19447676331E+02  0.55335095878E+01 -0.44373853176E+00  0.20224459132E+02  0.51100000000E-03 0. -1.
        -11    1    3    3    0    0  0.24312637527E+02 -0.85967438767E+01 -0.18499911332E+01  0.25854029014E+02  0.51100000000E-03 0.  1.
         12    1    3    3    0    0 -0.12465467709E+02  0.22944889408E+01 -0.37693298007E+01  0.13223479567E+02  0.00000000000E+00 0. -1.
</event>
<event>
 7    1  0.6184948E-012  0.5930194E+02  0.7816164E-02  0.1266605E+00
        -11   -1    0    0    0    0  0.00000000000E+00  0.00000000000E+00  0.45593999997E+02  0.45594000000E+02  0.51100000000E-03 0.  1.
         11   -1    0    0    0    0 -0.00000000000E+00 -0.00000000000E+00 -0.45593999997E+02  0.45594000000E+02  0.51100000000E-03 0. -1.
    9900012    2    1    2    0    0 -0.38448087348E+01 -0.86956182814E+01  0.30435584271E+02  0.59301935309E+02  0.49999984100E+02 0.  0.
         12    1    1    2    0    0  0.38448087348E+01  0.86956182814E+01 -0.30435584271E+02  0.31886064691E+02  0.00000000000E+00 0. -1.
         11    1    3    3    0    0 -0.42584417248E+01  0.15264432218E+02  0.99514970479E+01  0.18712816747E+02  0.51100000000E-03 0. -1.
        -11    1    3    3    0    0 -0.81823415610E+01 -0.13467364759E+01  0.12715237557E+02  0.15180305627E+02  0.51100000000E-03 0.  1.
         12    1    3    3    0    0  0.85959745509E+01 -0.22613314024E+02  0.77688496667E+01  0.25408812935E+02  0.00000000000E+00 0. -1.
</event>
<event>
 7    1  0.6184948E-012  0.5930186E+02  0.7816164E-02  0.1266605E+00
        -11   -1    0    0    0    0  0.00000000000E+00  0.00000000000E+00  0.45593999997E+02  0.45594000000E+02  0.51100000000E-03 0.  1.
         11   -1    0    0    0    0 -0.00000000000E+00 -0.00000000000E+00 -0.45593999997E+02  0.45594000000E+02  0.51100000000E-03 0. -1.
    9900012    2    1    2    0    0 -0.10570767845E+02 -0.16416002923E+02  0.25209115749E+02  0.59301861920E+02  0.49999850255E+02 0.  0.
         12    1    1    2    0    0  0.10570767845E+02  0.16416002923E+02 -0.25209115749E+02  0.31886138080E+02  0.00000000000E+00 0. -1.
         11    1    3    3    0    0  0.76711749559E+01  0.97988120265E+01  0.16946718963E+01  0.12559281645E+02  0.51100000000E-03 0. -1.
        -11    1    3    3    0    0  0.57282776674E+01 -0.97791334617E+01  0.65384920101E+01  0.13084207822E+02  0.51100000000E-03 0.  1.
         12    1    3    3    0    0 -0.23970220468E+02 -0.16435681488E+02  0.16975951843E+02  0.33658372454E+02  0.00000000000E+00 0. -1.
</event>
<event>
 7    1  0.6184948E-012  0.5930192E+02  0.7816164E-02  0.1266605E+00
        -11   -1    0    0    0    0  0.00000000000E+00  0.00000000000E+00  0.45593999997E+02  0.45594000000E+02  0.51100000000E-03 0.  1.
         11   -1    0    0    0    0 -0.00000000000E+00 -0.00000000000E+00 -0.45593999997E+02  0.45594000000E+02  0.51100000000E-03 0. -1.
    9900012    2    1    2    0    0 -0.22338198379E+02 -0.14849531179E+02  0.17240022333E+02  0.59301920700E+02  0.49999957456E+02 0.  0.
         12    1    1    2    0    0  0.22338198379E+02  0.14849531179E+02 -0.17240022333E+02  0.31886079300E+02  0.00000000000E+00 0. -1.
         11    1    3    3    0    0 -0.13981130611E+02 -0.33838958114E+01 -0.45160473690E+01  0.15077050378E+02  0.51100000000E-03 0. -1.
        -11    1    3    3    0    0 -0.94749880509E+01  0.11073290346E+02  0.29953200060E+01  0.14878343317E+02  0.51100000000E-03 0.  1.
         12    1    3    3    0    0  0.11179202825E+01 -0.22538925714E+02  0.18760749696E+02  0.29346527005E+02  0.00000000000E+00 0. -1.
</event>
<event>
 7    1  0.6184948E-012  0.5930195E+02  0.7816164E-02  0.1266605E+00
        -11   -1    0    0    0    0  0.00000000000E+00  0.00000000000E+00  0.45593999997E+02  0.45594000000E+02  0.51100000000E-03 0. -1.
         11   -1    0    0    0    0 -0.00000000000E+00 -0.00000000000E+00 -0.45593999997E+02  0.45594000000E+02  0.51100000000E-03 0.  1.
    9900012    2    1    2    0    0  0.30639194061E+02  0.88272232973E+01 -0.20065016131E+00  0.59301947496E+02  0.50000006325E+02 0.  0.
         12    1    1    2    0    0 -0.30639194061E+02 -0.88272232973E+01  0.20065016131E+00  0.31886052504E+02  0.00000000000E+00 0. -1.
         11    1    3    3    0    0  0.14892826266E+02  0.56687584472E+01  0.73552480503E+01  0.17550805414E+02  0.51100000000E-03 0. -1.
        -11    1    3    3    0    0  0.25188491259E+02 -0.73248512773E+01 -0.11521167916E+01  0.26257206848E+02  0.51100000000E-03 0.  1.
        -12    1    3    3    0    0 -0.94421234644E+01  0.10483316127E+02 -0.64037814200E+01  0.15493935233E+02  0.00000000000E+00 0.  1.
</event>
<event>
 7    1  0.6184948E-012  0.5930194E+02  0.7816164E-02  0.1266605E+00
        -11   -1    0    0    0    0  0.00000000000E+00  0.00000000000E+00  0.45593999997E+02  0.45594000000E+02  0.51100000000E-03 0.  1.
         11   -1    0    0    0    0 -0.00000000000E+00 -0.00000000000E+00 -0.45593999997E+02  0.45594000000E+02  0.51100000000E-03 0. -1.
    9900012    2    1    2    0    0 -0.19867784996E+02 -0.84177742403E+01  0.23476226817E+02  0.59301936753E+02  0.49999986733E+02 0.  0.
         12    1    1    2    0    0  0.19867784996E+02  0.84177742403E+01 -0.23476226817E+02  0.31886063247E+02  0.00000000000E+00 0. -1.
         11    1    3    3    0    0  0.66736720782E+01 -0.64009457495E+01  0.15917156180E+02  0.18408309716E+02  0.51100000000E-03 0. -1.
        -11    1    3    3    0    0 -0.18836645524E+02 -0.24388802769E+01  0.19148120002E+02  0.26970685039E+02  0.51100000000E-03 0.  1.
         12    1    3    3    0    0 -0.77048115493E+01  0.42205178607E+00 -0.11589049364E+02  0.13922941998E+02  0.00000000000E+00 0. -1.
</event>
<event>
 7    1  0.6184948E-012  0.5930194E+02  0.7816164E-02  0.1266605E+00
        -11   -1    0    0    0    0  0.00000000000E+00  0.00000000000E+00  0.45593999997E+02  0.45594000000E+02  0.51100000000E-03 0.  1.
         11   -1    0    0    0    0 -0.00000000000E+00 -0.00000000000E+00 -0.45593999997E+02  0.45594000000E+02  0.51100000000E-03 0. -1.
    9900012    2    1    2    0    0  0.25706887603E+01 -0.30285124923E+02 -0.96396752542E+01  0.59301943936E+02  0.49999999833E+02 0.  0.
         12    1    1    2    0    0 -0.25706887603E+01  0.30285124923E+02  0.96396752542E+01  0.31886056064E+02  0.00000000000E+00 0. -1.
         11    1    3    3    0    0 -0.18303465463E+02 -0.10098855223E+02 -0.52295197108E+01  0.21548819026E+02  0.51100000000E-03 0. -1.
        -11    1    3    3    0    0  0.27317168163E+01 -0.17622277338E+02 -0.71767524276E+01  0.19222713414E+02  0.51100000000E-03 0.  1.
        -12    1    3    3    0    0  0.18142437407E+02 -0.25639923625E+01  0.27665968842E+01  0.18530411496E+02  0.00000000000E+00 0.  1.
</event>
<event>
 7    1  0.6184948E-012  0.5930178E+02  0.7816164E-02  0.1266605E+00
        -11   -1    0    0    0    0  0.00000000000E+00  0.00000000000E+00  0.45593999997E+02  0.45594000000E+02  0.51100000000E-03 0. -1.
         11   -1    0    0    0    0 -0.00000000000E+00 -0.00000000000E+00 -0.45593999997E+02  0.45594000000E+02  0.51100000000E-03 0.  1.
    9900012    2    1    2    0    0  0.19290611674E+02  0.48751701581E+01 -0.24916575974E+02  0.59301784466E+02  0.49999708996E+02 0.  0.
         12    1    1    2    0    0 -0.19290611674E+02 -0.48751701581E+01  0.24916575974E+02  0.31886215534E+02  0.00000000000E+00 0. -1.
         11    1    3    3    0    0  0.10159184962E+02  0.42896060044E+01  0.37601500044E+01  0.11651115272E+02  0.51100000000E-03 0. -1.
        -11    1    3    3    0    0 -0.11374403298E+01  0.13126648554E+02  0.16353951773E+01  0.13276942058E+02  0.51100000000E-03 0.  1.
        -12    1    3    3    0    0  0.10268867042E+02 -0.12541084400E+02 -0.30312121156E+02  0.34373727136E+02  0.00000000000E+00 0.  1.
</event>
<event>
 7    1  0.6184948E-012  0.5930195E+02  0.7816164E-02  0.1266605E+00
        -11   -1    0    0    0    0  0.00000000000E+00  0.00000000000E+00  0.45593999997E+02  0.45594000000E+02  0.51100000000E-03 0. -1.
         11   -1    0    0    0    0 -0.00000000000E+00 -0.00000000000E+00 -0.45593999997E+02  0.45594000000E+02  0.51100000000E-03 0.  1.
    9900012    2    1    2    0    0 -0.20732451185E+02 -0.23898401638E+02  0.39688652388E+01  0.59301952514E+02  0.50000015477E+02 0.  0.
         12    1    1    2    0    0  0.20732451185E+02  0.23898401638E+02 -0.39688652388E+01  0.31886047486E+02  0.00000000000E+00 0. -1.
         11    1    3    3    0    0  0.54558789794E+01 -0.51096928900E+01  0.10589040086E+02  0.12961610513E+02  0.51100000000E-03 0. -1.
        -11    1    3    3    0    0 -0.13876281083E+02 -0.83352267259E+01  0.13118705956E+02  0.20835729588E+02  0.51100000000E-03 0.  1.
         12    1    3    3    0    0 -0.12312049082E+02 -0.10453482022E+02 -0.19738880803E+02  0.25504612413E+02  0.00000000000E+00 0. -1.
</event>
<event>
 7    1  0.6184948E-012  0.5930203E+02  0.7816164E-02  0.1266604E+00
        -11   -1    0    0    0    0  0.00000000000E+00  0.00000000000E+00  0.45593999997E+02  0.45594000000E+02  0.51100000000E-03 0.  1.
         11   -1    0    0    0    0 -0.00000000000E+00 -0.00000000000E+00 -0.45593999997E+02  0.45594000000E+02  0.51100000000E-03 0. -1.
    9900012    2    1    2    0    0  0.28535870860E+02 -0.14033039385E+02 -0.23436406838E+01  0.59302034878E+02  0.50000165689E+02 0.  0.
         12    1    1    2    0    0 -0.28535870860E+02  0.14033039385E+02  0.23436406838E+01  0.31885965122E+02  0.00000000000E+00 0. -1.
         11    1    3    3    0    0 -0.77421864047E+01 -0.89969872503E+00 -0.52912828519E+01  0.94206466127E+01  0.51100000000E-03 0. -1.
        -11    1    3    3    0    0  0.29282226533E+02 -0.26658278612E+01 -0.10722032086E+02  0.31297242710E+02  0.51100000000E-03 0.  1.
        -12    1    3    3    0    0  0.69958307315E+01 -0.10467512799E+02  0.13669674254E+02  0.18584145556E+02  0.00000000000E+00 0.  1.
</event>
<event>
 7    1  0.6184948E-012  0.5930195E+02  0.7816164E-02  0.1266605E+00
        -11   -1    0    0    0    0  0.00000000000E+00  0.00000000000E+00  0.45593999997E+02  0.45594000000E+02  0.51100000000E-03 0. -1.
         11   -1    0    0    0    0 -0.00000000000E+00 -0.00000000000E+00 -0.45593999997E+02  0.45594000000E+02  0.51100000000E-03 0.  1.
    9900012    2    1    2    0    0 -0.30436660460E+02 -0.75279182437E+01 -0.58017556371E+01  0.59301949421E+02  0.50000009836E+02 0.  0.
         12    1    1    2    0    0  0.30436660460E+02  0.75279182437E+01  0.58017556371E+01  0.31886050579E+02  0.00000000000E+00 0. -1.
         11    1    3    3    0    0 -0.57982644105E+01  0.28925078147E+01  0.34134343251E+01  0.73237972245E+01  0.51100000000E-03 0. -1.
        -11    1    3    3    0    0 -0.97004139967E+01 -0.10131889493E+02  0.16856226488E+02  0.21929103677E+02  0.51100000000E-03 0.  1.
        -12    1    3    3    0    0 -0.14937982053E+02 -0.28853656580E+00 -0.26071416451E+02  0.30049048519E+02  0.00000000000E+00 0.  1.
</event>
<event>
 7    1  0.6184948E-012  0.5930194E+02  0.7816164E-02  0.1266605E+00
        -11   -1    0    0    0    0  0.00000000000E+00  0.00000000000E+00  0.45593999997E+02  0.45594000000E+02  0.51100000000E-03 0.  1.
         11   -1    0    0    0    0 -0.00000000000E+00 -0.00000000000E+00 -0.45593999997E+02  0.45594000000E+02  0.51100000000E-03 0. -1.
    9900012    2    1    2    0    0 -0.35512572427E+01 -0.94233165851E+01  0.30254103505E+02  0.59301935609E+02  0.49999984646E+02 0.  0.
         12    1    1    2    0    0  0.35512572427E+01  0.94233165851E+01 -0.30254103505E+02  0.31886064391E+02  0.00000000000E+00 0. -1.
         11    1    3    3    0    0 -0.34021251130E+00  0.17639368944E+01 -0.84106750145E+01  0.86003879203E+01  0.51100000000E-03 0. -1.
        -11    1    3    3    0    0 -0.10921728604E+02 -0.28405360682E+01  0.96473609859E+00  0.11326231362E+02  0.51100000000E-03 0.  1.
         12    1    3    3    0    0  0.77106838727E+01 -0.83467174113E+01  0.37700042421E+02  0.39375316327E+02  0.00000000000E+00 0. -1.
</event>
<event>
 7    1  0.6184948E-012  0.5930194E+02  0.7816164E-02  0.1266605E+00
        -11   -1    0    0    0    0  0.00000000000E+00  0.00000000000E+00  0.45593999997E+02  0.45594000000E+02  0.51100000000E-03 0.  1.
         11   -1    0    0    0    0 -0.00000000000E+00 -0.00000000000E+00 -0.45593999997E+02  0.45594000000E+02  0.51100000000E-03 0. -1.
    9900012    2    1    2    0    0 -0.29407402113E+02  0.16033083678E+01 -0.12221091921E+02  0.59301937457E+02  0.49999988016E+02 0.  0.
         12    1    1    2    0    0  0.29407402113E+02 -0.16033083678E+01  0.12221091921E+02  0.31886062543E+02  0.00000000000E+00 0. -1.
         11    1    3    3    0    0 -0.31839477947E+02  0.75393293820E+01  0.60824658129E+00  0.32725583381E+02  0.51100000000E-03 0. -1.
        -11    1    3    3    0    0 -0.17386725105E+01 -0.84774049329E+01  0.36473137829E+01  0.93910741977E+01  0.51100000000E-03 0.  1.
        -12    1    3    3    0    0  0.41707483438E+01  0.25413839187E+01 -0.16476652285E+02  0.17185279878E+02  0.00000000000E+00 0.  1.
</event>
<event>
 7    1  0.6184948E-012  0.5930196E+02  0.7816164E-02  0.1266605E+00
        -11   -1    0    0    0    0  0.00000000000E+00  0.00000000000E+00  0.45593999997E+02  0.45594000000E+02  0.51100000000E-03 0.  1.
         11   -1    0    0    0    0 -0.00000000000E+00 -0.00000000000E+00 -0.45593999997E+02  0.45594000000E+02  0.51100000000E-03 0. -1.
    9900012    2    1    2    0    0 -0.50846896579E+01  0.31061377364E+02  0.51045696325E+01  0.59301955031E+02  0.50000020067E+02 0.  0.
         12    1    1    2    0    0  0.50846896579E+01 -0.31061377364E+02 -0.51045696325E+01  0.31886044969E+02  0.00000000000E+00 0. -1.
         11    1    3    3    0    0 -0.14888022422E+01  0.34447216582E+00  0.17504160673E+01  0.23236070793E+01  0.51100000000E-03 0. -1.
        -11    1    3    3    0    0 -0.23432743609E+02  0.13988302557E+02  0.11739383183E+02  0.29708234536E+02  0.51100000000E-03 0.  1.
         12    1    3    3    0    0  0.19836856193E+02  0.16728602641E+02 -0.83852296178E+01  0.27270113416E+02  0.00000000000E+00 0. -1.
</event>
<event>
 7    1  0.6184948E-012  0.5930195E+02  0.7816164E-02  0.1266605E+00
        -11   -1    0    0    0    0  0.00000000000E+00  0.00000000000E+00  0.45593999997E+02  0.45594000000E+02  0.51100000000E-03 0. -1.
         11   -1    0    0    0    0 -0.00000000000E+00 -0.00000000000E+00 -0.45593999997E+02  0.45594000000E+02  0.51100000000E-03 0.  1.
    9900012    2    1    2    0    0  0.99229892544E+01  0.29714165139E+02 -0.59433124708E+01  0.59301948366E+02  0.50000007913E+02 0.  0.
         12    1    1    2    0    0 -0.99229892544E+01 -0.29714165139E+02  0.59433124708E+01  0.31886051634E+02  0.00000000000E+00 0. -1.
         11    1    3    3    0    0 -0.55864157199E+01  0.73956008201E+00 -0.14473425891E+02  0.15531743205E+02  0.51100000000E-03 0. -1.
        -11    1    3    3    0    0  0.36625885014E+01  0.20625038752E+02 -0.74159424417E+01  0.22221678168E+02  0.51100000000E-03 0.  1.
         12    1    3    3    0    0  0.11846816473E+02  0.83495663052E+01  0.15946055862E+02  0.21548526993E+02  0.00000000000E+00 0. -1.
</event>
<event>
 7    1  0.6184948E-012  0.5930191E+02  0.7816164E-02  0.1266605E+00
        -11   -1    0    0    0    0  0.00000000000E+00  0.00000000000E+00  0.45593999997E+02  0.45594000000E+02  0.51100000000E-03 0.  1.
         11   -1    0    0    0    0 -0.00000000000E+00 -0.00000000000E+00 -0.45593999997E+02  0.45594000000E+02  0.51100000000E-03 0. -1.
    9900012    2    1    2    0    0 -0.81407515030E+01 -0.28839226320E+02  0.10897251646E+02  0.59301907370E+02  0.49999933145E+02 0.  0.
         12    1    1    2    0    0  0.81407515030E+01  0.28839226320E+02 -0.10897251646E+02  0.31886092630E+02  0.00000000000E+00 0. -1.
         11    1    3    3    0    0  0.82460341377E+01 -0.44807338763E+01  0.16894325104E+02  0.19325948258E+02  0.51100000000E-03 0. -1.
        -11    1    3    3    0    0 -0.28554058430E+01 -0.10766769535E+02  0.10024433199E+02  0.14985524014E+02  0.51100000000E-03 0.  1.
         12    1    3    3    0    0 -0.13531379798E+02 -0.13591722909E+02 -0.16021506657E+02  0.24990435099E+02  0.00000000000E+00 0. -1.
</event>
<event>
 7    1  0.6184948E-012  0.5930195E+02  0.7816164E-02  0.1266605E+00
        -11   -1    0    0    0    0  0.00000000000E+00  0.00000000000E+00  0.45593999997E+02  0.45594000000E+02  0.51100000000E-03 0.  1.
         11   -1    0    0    0    0 -0.00000000000E+00 -0.00000000000E+00 -0.45593999997E+02  0.45594000000E+02  0.51100000000E-03 0. -1.
    9900012    2    1    2    0    0 -0.34177119216E+00 -0.47034252689E+01  0.31535397210E+02  0.59301948285E+02  0.50000007764E+02 0.  0.
         12    1    1    2    0    0  0.34177119216E+00  0.47034252689E+01 -0.31535397210E+02  0.31886051715E+02  0.00000000000E+00 0. -1.
         11    1    3    3    0    0 -0.99556703620E+01 -0.39349868307E+01 -0.16205141474E+01  0.10827075324E+02  0.51100000000E-03 0. -1.
        -11    1    3    3    0    0 -0.96238386890E+01  0.90861590987E+01  0.87138055743E+01  0.15846354979E+02  0.51100000000E-03 0.  1.
        -12    1    3    3    0    0  0.19237737859E+02 -0.98545975368E+01  0.24442105783E+02  0.32628517981E+02  0.00000000000E+00 0.  1.
</event>
<event>
 7    1  0.6184948E-012  0.5930194E+02  0.7816164E-02  0.1266605E+00
        -11   -1    0    0    0    0  0.00000000000E+00  0.00000000000E+00  0.45593999997E+02  0.45594000000E+02  0.51100000000E-03 0.  1.
         11   -1    0    0    0    0 -0.00000000000E+00 -0.00000000000E+00 -0.45593999997E+02  0.45594000000E+02  0.51100000000E-03 0. -1.
    9900012    2    1    2    0    0  0.19708886716E+02  0.13381564202E+01  0.25029778270E+02  0.59301942256E+02  0.49999996768E+02 0.  0.
         12    1    1    2    0    0 -0.19708886716E+02 -0.13381564202E+01 -0.25029778270E+02  0.31886057744E+02  0.00000000000E+00 0. -1.
         11    1    3    3    0    0  0.24432383543E+02 -0.34421728640E+01 -0.45444613531E-01  0.24673710404E+02  0.51100000000E-03 0. -1.
        -11    1    3    3    0    0 -0.50635322217E+00 -0.84429934693E+01  0.39104228966E+01  0.93183657258E+01  0.51100000000E-03 0.  1.
        -12    1    3    3    0    0 -0.42171436044E+01  0.13223322753E+02  0.21164799987E+02  0.25309866126E+02  0.00000000000E+00 0.  1.
</event>
<event>
 7    1  0.6184948E-012  0.5930192E+02  0.7816164E-02  0.1266605E+00
        -11   -1    0    0    0    0  0.00000000000E+00  0.00000000000E+00  0.45593999997E+02  0.45594000000E+02  0.51100000000E-03 0.  1.
         11   -1    0    0    0    0 -0.00000000000E+00 -0.00000000000E+00 -0.45593999997E+02  0.45594000000E+02  0.51100000000E-03 0. -1.
    9900012    2    1    2    0    0  0.77474594311E+01 -0.12369043616E+02  0.28349705291E+02  0.59301919060E+02  0.49999954466E+02 0.  0.
         12    1    1    2    0    0 -0.77474594311E+01  0.12369043616E+02 -0.28349705291E+02  0.31886080940E+02  0.00000000000E+00 0. -1.
         11    1    3    3    0    0 -0.16009060363E+02 -0.13440842161E+02  0.17341175653E+02  0.27159945231E+02  0.51100000000E-03 0. -1.
        -11    1    3    3    0    0  0.23325597908E+01 -0.25082611027E+01  0.98067695582E+01  0.10387730184E+02  0.51100000000E-03 0.  1.
        -12    1    3    3    0    0  0.21423960003E+02  0.35800596475E+01  0.12017600796E+01  0.21754243645E+02  0.00000000000E+00 0.  1.
</event>
<event>
 7    1  0.6184948E-012  0.5930184E+02  0.7816164E-02  0.1266605E+00
        -11   -1    0    0    0    0  0.00000000000E+00  0.00000000000E+00  0.45593999997E+02  0.45594000000E+02  0.51100000000E-03 0.  1.
         11   -1    0    0    0    0 -0.00000000000E+00 -0.00000000000E+00 -0.45593999997E+02  0.45594000000E+02  0.51100000000E-03 0. -1.
    9900012    2    1    2    0    0  0.68236868210E+01 -0.22501692993E+02 -0.21536911746E+02  0.59301835963E+02  0.49999802916E+02 0.  0.
         12    1    1    2    0    0 -0.68236868210E+01  0.22501692993E+02  0.21536911746E+02  0.31886164037E+02  0.00000000000E+00 0. -1.
         11    1    3    3    0    0  0.11315942631E+01  0.39282227477E+01 -0.64560791211E+01  0.76414918315E+01  0.51100000000E-03 0. -1.
        -11    1    3    3    0    0  0.78705042767E+01 -0.78488841229E+01  0.13508588280E+02  0.17493763950E+02  0.51100000000E-03 0.  1.
         12    1    3    3    0    0 -0.21784117188E+01 -0.18581031618E+02 -0.28589420906E+02  0.34166580182E+02  0.00000000000E+00 0. -1.
</event>
<event>
 7    1  0.6184948E-012  0.5930190E+02  0.7816164E-02  0.1266605E+00
        -11   -1    0    0    0    0  0.00000000000E+00  0.00000000000E+00  0.45593999997E+02  0.45594000000E+02  0.51100000000E-03 0.  1.
         11   -1    0    0    0    0 -0.00000000000E+00 -0.00000000000E+00 -0.45593999997E+02  0.45594000000E+02  0.51100000000E-03 0. -1.
    9900012    2    1    2    0    0 -0.25287479972E+02 -0.60131911162E+01  0.18469113855E+02  0.59301901504E+02  0.49999922447E+02 0.  0.
         12    1    1    2    0    0  0.25287479972E+02  0.60131911162E+01 -0.18469113855E+02  0.31886098496E+02  0.00000000000E+00 0. -1.
         11    1    3    3    0    0 -0.13687973038E+02 -0.10189769730E+02 -0.17769188386E+01  0.17156615454E+02  0.51100000000E-03 0. -1.
        -11    1    3    3    0    0 -0.82393013341E+01 -0.54355109051E+01  0.27778134902E+02  0.29479749730E+02  0.51100000000E-03 0.  1.
         12    1    3    3    0    0 -0.33602056000E+01  0.96120895186E+01 -0.75321022082E+01  0.12665536320E+02  0.00000000000E+00 0. -1.
</event>
<event>
 7    1  0.6184948E-012  0.5930225E+02  0.7816164E-02  0.1266604E+00
        -11   -1    0    0    0    0  0.00000000000E+00  0.00000000000E+00  0.45593999997E+02  0.45594000000E+02  0.51100000000E-03 0. -1.
         11   -1    0    0    0    0 -0.00000000000E+00 -0.00000000000E+00 -0.45593999997E+02  0.45594000000E+02  0.51100000000E-03 0.  1.
    9900012    2    1    2    0    0  0.38379938265E+00 -0.16062845528E+01 -0.31842956312E+02  0.59302245834E+02  0.50000550419E+02 0.  0.
         12    1    1    2    0    0 -0.38379938265E+00  0.16062845528E+01  0.31842956312E+02  0.31885754166E+02  0.00000000000E+00 0. -1.
         11    1    3    3    0    0 -0.31643197322E+01  0.94933493572E+00 -0.13408044769E+01  0.35653769918E+01  0.51100000000E-03 0. -1.
        -11    1    3    3    0    0  0.67283833035E+01  0.20398376508E+02 -0.22782888240E+02  0.31311737462E+02  0.51100000000E-03 0.  1.
         12    1    3    3    0    0 -0.31802641886E+01 -0.22953995996E+02 -0.77192635951E+01  0.24425131381E+02  0.00000000000E+00 0. -1.
</event>
<event>
 7    1  0.6184948E-012  0.5930196E+02  0.7816164E-02  0.1266605E+00
        -11   -1    0    0    0    0  0.00000000000E+00  0.00000000000E+00  0.45593999997E+02  0.45594000000E+02  0.51100000000E-03 0.  1.
         11   -1    0    0    0    0 -0.00000000000E+00 -0.00000000000E+00 -0.45593999997E+02  0.45594000000E+02  0.51100000000E-03 0. -1.
    9900012    2    1    2    0    0  0.12747998362E+02 -0.24621490556E+02  0.15747699494E+02  0.59301963890E+02  0.50000036224E+02 0.  0.
         12    1    1    2    0    0 -0.12747998362E+02  0.24621490556E+02 -0.15747699494E+02  0.31886036110E+02  0.00000000000E+00 0. -1.
         11    1    3    3    0    0  0.16566602604E+02  0.17367749974E+01 -0.23473746676E+01  0.16821976023E+02  0.51100000000E-03 0. -1.
        -11    1    3    3    0    0 -0.53344505525E+01  0.65489693663E+00  0.14152419399E+02  0.15138567561E+02  0.51100000000E-03 0.  1.
        -12    1    3    3    0    0  0.15158463109E+01 -0.27013162490E+02  0.39426547629E+01  0.27341420306E+02  0.00000000000E+00 0.  1.
</event>
<event>
 7    1  0.6184948E-012  0.5930195E+02  0.7816164E-02  0.1266605E+00
        -11   -1    0    0    0    0  0.00000000000E+00  0.00000000000E+00  0.45593999997E+02  0.45594000000E+02  0.51100000000E-03 0.  1.
         11   -1    0    0    0    0 -0.00000000000E+00 -0.00000000000E+00 -0.45593999997E+02  0.45594000000E+02  0.51100000000E-03 0. -1.
    9900012    2    1    2    0    0  0.93038839715E+01 -0.98392773007E+01  0.28867745290E+02  0.59301947362E+02  0.50000006080E+02 0.  0.
         12    1    1    2    0    0 -0.93038839715E+01  0.98392773007E+01 -0.28867745290E+02  0.31886052638E+02  0.00000000000E+00 0. -1.
         11    1    3    3    0    0  0.57343057104E+01 -0.54767934119E+01 -0.84406517396E+01  0.11581110918E+02  0.51100000000E-03 0. -1.
        -11    1    3    3    0    0 -0.65415332966E+01 -0.13710000530E+02  0.14050499943E+02  0.20692325179E+02  0.51100000000E-03 0.  1.
        -12    1    3    3    0    0  0.10111111558E+02  0.93475166410E+01  0.23257897086E+02  0.27028511264E+02  0.00000000000E+00 0.  1.
</event>
<event>
 7    1  0.6184948E-012  0.5930195E+02  0.7816164E-02  0.1266605E+00
        -11   -1    0    0    0    0  0.00000000000E+00  0.00000000000E+00  0.45593999997E+02  0.45594000000E+02  0.51100000000E-03 0.  1.
         11   -1    0    0    0    0 -0.00000000000E+00 -0.00000000000E+00 -0.45593999997E+02  0.45594000000E+02  0.51100000000E-03 0. -1.
    9900012    2    1    2    0    0 -0.44764861138E+01 -0.48948015138E+01  0.31188497551E+02  0.59301946790E+02  0.50000005038E+02 0.  0.
         12    1    1    2    0    0  0.44764861138E+01  0.48948015138E+01 -0.31188497551E+02  0.31886053210E+02  0.00000000000E+00 0. -1.
         11    1    3    3    0    0  0.99813068919E+00  0.18380226986E+02  0.19059301175E+02  0.26496904923E+02  0.51100000000E-03 0. -1.
        -11    1    3    3    0    0  0.41702149701E+01 -0.10560494879E+02 -0.19538005955E+01  0.11520941021E+02  0.51100000000E-03 0.  1.
        -12    1    3    3    0    0 -0.96448317732E+01 -0.12714533621E+02  0.14082996972E+02  0.21284100846E+02  0.00000000000E+00 0.  1.
</event>
<event>
 7    1  0.6184948E-012  0.5930195E+02  0.7816164E-02  0.1266605E+00
        -11   -1    0    0    0    0  0.00000000000E+00  0.00000000000E+00  0.45593999997E+02  0.45594000000E+02  0.51100000000E-03 0.  1.
         11   -1    0    0    0    0 -0.00000000000E+00 -0.00000000000E+00 -0.45593999997E+02  0.45594000000E+02  0.51100000000E-03 0. -1.
    9900012    2    1    2    0    0  0.26118588820E+02 -0.10560543807E+02  0.14933667692E+02  0.59301949787E+02  0.50000010504E+02 0.  0.
         12    1    1    2    0    0 -0.26118588820E+02  0.10560543807E+02 -0.14933667692E+02  0.31886050213E+02  0.00000000000E+00 0. -1.
         11    1    3    3    0    0  0.19157556607E+02 -0.22145227689E+02 -0.45861440288E+01  0.29638755066E+02  0.51100000000E-03 0. -1.
        -11    1    3    3    0    0  0.72927966293E+01  0.34984432427E+00  0.19064770584E+00  0.73036717161E+01  0.51100000000E-03 0.  1.
         12    1    3    3    0    0 -0.33176441649E+00  0.11234839558E+02  0.19329164015E+02  0.22359523005E+02  0.00000000000E+00 0. -1.
</event>
<event>
 7    1  0.6184948E-012  0.5930201E+02  0.7816164E-02  0.1266605E+00
        -11   -1    0    0    0    0  0.00000000000E+00  0.00000000000E+00  0.45593999997E+02  0.45594000000E+02  0.51100000000E-03 0.  1.
         11   -1    0    0    0    0 -0.00000000000E+00 -0.00000000000E+00 -0.45593999997E+02  0.45594000000E+02  0.51100000000E-03 0. -1.
    9900012    2    1    2    0    0  0.24907904915E+02  0.17741196031E+02  0.90311933515E+01  0.59302012212E+02  0.50000124352E+02 0.  0.
         12    1    1    2    0    0 -0.24907904915E+02 -0.17741196031E+02 -0.90311933515E+01  0.31885987788E+02  0.00000000000E+00 0. -1.
         11    1    3    3    0    0  0.54149312452E+01 -0.66745671595E+00 -0.26394665668E+01  0.60608384632E+01  0.51100000000E-03 0. -1.
        -11    1    3    3    0    0  0.33558984157E+02  0.91394371747E+01  0.10604639104E+02  0.36361973273E+02  0.51100000000E-03 0.  1.
         12    1    3    3    0    0 -0.14066010487E+02  0.92692155719E+01  0.10660208148E+01  0.16879200476E+02  0.00000000000E+00 0. -1.
</event>
<event>
 7    1  0.6184948E-012  0.5930194E+02  0.7816164E-02  0.1266605E+00
        -11   -1    0    0    0    0  0.00000000000E+00  0.00000000000E+00  0.45593999997E+02  0.45594000000E+02  0.51100000000E-03 0.  1.
         11   -1    0    0    0    0 -0.00000000000E+00 -0.00000000000E+00 -0.45593999997E+02  0.45594000000E+02  0.51100000000E-03 0. -1.
    9900012    2    1    2    0    0 -0.20871199183E+02 -0.24097923899E+02  0.63557788735E+00  0.59301939553E+02  0.49999991839E+02 0.  0.
         12    1    1    2    0    0  0.20871199183E+02  0.24097923899E+02 -0.63557788735E+00  0.31886060447E+02  0.00000000000E+00 0. -1.
         11    1    3    3    0    0 -0.31655792731E+01 -0.61542034059E+01 -0.86982337524E+01  0.11115501895E+02  0.51100000000E-03 0. -1.
        -11    1    3    3    0    0 -0.62781515273E+01 -0.29580683519E+02  0.20055235728E+01  0.30306008466E+02  0.51100000000E-03 0.  1.
        -12    1    3    3    0    0 -0.11427468383E+02  0.11636963026E+02  0.73282880670E+01  0.17880429193E+02  0.00000000000E+00 0.  1.
</event>
<event>
 7    1  0.6184948E-012  0.5930179E+02  0.7816164E-02  0.1266605E+00
        -11   -1    0    0    0    0  0.00000000000E+00  0.00000000000E+00  0.45593999997E+02  0.45594000000E+02  0.51100000000E-03 0. -1.
         11   -1    0    0    0    0 -0.00000000000E+00 -0.00000000000E+00 -0.45593999997E+02  0.45594000000E+02  0.51100000000E-03 0.  1.
    9900012    2    1    2    0    0  0.13771361590E+02 -0.28755909706E+02  0.42115083895E+00  0.59301794345E+02  0.49999727014E+02 0.  0.
         12    1    1    2    0    0 -0.13771361590E+02  0.28755909706E+02 -0.42115083895E+00  0.31886205655E+02  0.00000000000E+00 0. -1.
         11    1    3    3    0    0 -0.67335727789E+01 -0.16376342050E+02 -0.57193136312E+01  0.18607421369E+02  0.51100000000E-03 0. -1.
        -11    1    3    3    0    0  0.11414499369E+02 -0.10204874225E+02 -0.12549831681E+02  0.19797184883E+02  0.51100000000E-03 0.  1.
         12    1    3    3    0    0  0.90904349999E+01 -0.21746934297E+01  0.18690296151E+02  0.20897188093E+02  0.00000000000E+00 0. -1.
</event>
<event>
 7    1  0.6184948E-012  0.5930192E+02  0.7816164E-02  0.1266605E+00
        -11   -1    0    0    0    0  0.00000000000E+00  0.00000000000E+00  0.45593999997E+02  0.45594000000E+02  0.51100000000E-03 0.  1.
         11   -1    0    0    0    0 -0.00000000000E+00 -0.00000000000E+00 -0.45593999997E+02  0.45594000000E+02  0.51100000000E-03 0. -1.
    9900012    2    1    2    0    0 -0.19074816344E+01  0.22977632362E+02  0.22025262575E+02  0.59301917352E+02  0.49999951351E+02 0.  0.
         12    1    1    2    0    0  0.19074816344E+01 -0.22977632362E+02 -0.22025262575E+02  0.31886082648E+02  0.00000000000E+00 0. -1.
         11    1    3    3    0    0  0.15020474407E+02  0.23418294976E+01 -0.49218760863E+01  0.15978851062E+02  0.51100000000E-03 0. -1.
        -11    1    3    3    0    0 -0.13086232452E+02  0.66703625980E+01  0.24886319897E+01  0.14897533568E+02  0.51100000000E-03 0.  1.
        -12    1    3    3    0    0 -0.38417235891E+01  0.13965440266E+02  0.24458506671E+02  0.28425532722E+02  0.00000000000E+00 0.  1.
</event>
<event>
 7    1  0.6184948E-012  0.5930192E+02  0.7816164E-02  0.1266605E+00
        -11   -1    0    0    0    0  0.00000000000E+00  0.00000000000E+00  0.45593999997E+02  0.45594000000E+02  0.51100000000E-03 0.  1.
         11   -1    0    0    0    0 -0.00000000000E+00 -0.00000000000E+00 -0.45593999997E+02  0.45594000000E+02  0.51100000000E-03 0. -1.
    9900012    2    1    2    0    0 -0.60950669381E+01  0.30720449951E+02  0.59854866515E+01  0.59301922527E+02  0.49999960788E+02 0.  0.
         12    1    1    2    0    0  0.60950669381E+01 -0.30720449951E+02 -0.59854866515E+01  0.31886077473E+02  0.00000000000E+00 0. -1.
         11    1    3    3    0    0  0.17045907055E+01  0.16880436672E+02 -0.94364605321E+01  0.19413952698E+02  0.51100000000E-03 0. -1.
        -11    1    3    3    0    0 -0.11318063245E+02  0.22573681556E+02  0.16859660276E+02  0.30363099306E+02  0.51100000000E-03 0.  1.
         12    1    3    3    0    0  0.35184056010E+01 -0.87336682770E+01 -0.14377130924E+01  0.95248705231E+01  0.00000000000E+00 0. -1.
</event>
<event>
 7    1  0.6184948E-012  0.5930194E+02  0.7816164E-02  0.1266605E+00
        -11   -1    0    0    0    0  0.00000000000E+00  0.00000000000E+00  0.45593999997E+02  0.45594000000E+02  0.51100000000E-03 0.  1.
         11   -1    0    0    0    0 -0.00000000000E+00 -0.00000000000E+00 -0.45593999997E+02  0.45594000000E+02  0.51100000000E-03 0. -1.
    9900012    2    1    2    0    0  0.21890861195E+02  0.10201018735E+02  0.20819462137E+02  0.59301943631E+02  0.49999999276E+02 0.  0.
         12    1    1    2    0    0 -0.21890861195E+02 -0.10201018735E+02 -0.20819462137E+02  0.31886056369E+02  0.00000000000E+00 0. -1.
         11    1    3    3    0    0  0.21437299877E+02  0.13361848530E+02 -0.62648108561E+01  0.26025846336E+02  0.51100000000E-03 0. -1.
        -11    1    3    3    0    0  0.85809511556E+01  0.82982713612E+00  0.65266353170E+01  0.10812876797E+02  0.51100000000E-03 0.  1.
         12    1    3    3    0    0 -0.81273898374E+01 -0.39906569314E+01  0.20557637676E+02  0.22463220498E+02  0.00000000000E+00 0. -1.
</event>
<event>
 7    1  0.6184948E-012  0.5930197E+02  0.7816164E-02  0.1266605E+00
        -11   -1    0    0    0    0  0.00000000000E+00  0.00000000000E+00  0.45593999997E+02  0.45594000000E+02  0.51100000000E-03 0. -1.
         11   -1    0    0    0    0 -0.00000000000E+00 -0.00000000000E+00 -0.45593999997E+02  0.45594000000E+02  0.51100000000E-03 0.  1.
    9900012    2    1    2    0    0 -0.15064697484E+01 -0.31260186865E+02  0.61032830995E+01  0.59301971735E+02  0.50000050532E+02 0.  0.
         12    1    1    2    0    0  0.15064697484E+01  0.31260186865E+02 -0.61032830995E+01  0.31886028265E+02  0.00000000000E+00 0. -1.
         11    1    3    3    0    0  0.22891855156E+01  0.10333146094E+02 -0.16810497276E+01  0.10716352316E+02  0.51100000000E-03 0. -1.
        -11    1    3    3    0    0 -0.13684591528E+02 -0.25277739137E+02  0.64598198567E+01  0.29461184871E+02  0.51100000000E-03 0.  1.
        -12    1    3    3    0    0  0.98889362643E+01 -0.16315593821E+02  0.13245129704E+01  0.19124434548E+02  0.00000000000E+00 0.  1.
</event>
<event>
 7    1  0.6184948E-012  0.5930194E+02  0.7816164E-02  0.1266605E+00
        -11   -1    0    0    0    0  0.00000000000E+00  0.00000000000E+00  0.45593999997E+02  0.45594000000E+02  0.51100000000E-03 0. -1.
         11   -1    0    0    0    0 -0.00000000000E+00 -0.00000000000E+00 -0.45593999997E+02  0.45594000000E+02  0.51100000000E-03 0.  1.
    9900012    2    1    2    0    0  0.11663995799E+02 -0.27699544674E+02  0.10649272435E+02  0.59301943855E+02  0.49999999685E+02 0.  0.
         12    1    1    2    0    0 -0.11663995799E+02  0.27699544674E+02 -0.10649272435E+02  0.31886056145E+02  0.00000000000E+00 0. -1.
         11    1    3    3    0    0 -0.95083496677E+01 -0.44078368124E+00  0.21352822103E+01  0.97551234762E+01  0.51100000000E-03 0. -1.
        -11    1    3    3    0    0 -0.39123175582E+01 -0.20172263653E+02  0.11096247837E+02  0.23352797817E+02  0.51100000000E-03 0.  1.
        -12    1    3    3    0    0  0.25084663025E+02 -0.70864973397E+01 -0.25822576125E+01  0.26194022562E+02  0.00000000000E+00 0.  1.
</event>
<event>
 7    1  0.6184948E-012  0.5930194E+02  0.7816164E-02  0.1266605E+00
        -11   -1    0    0    0    0  0.00000000000E+00  0.00000000000E+00  0.45593999997E+02  0.45594000000E+02  0.51100000000E-03 0.  1.
         11   -1    0    0    0    0 -0.00000000000E+00 -0.00000000000E+00 -0.45593999997E+02  0.45594000000E+02  0.51100000000E-03 0. -1.
    9900012    2    1    2    0    0 -0.82197294620E+01  0.16188448491E+02  0.26212424671E+02  0.59301936836E+02  0.49999986884E+02 0.  0.
         12    1    1    2    0    0  0.82197294620E+01 -0.16188448491E+02 -0.26212424671E+02  0.31886063164E+02  0.00000000000E+00 0. -1.
         11    1    3    3    0    0  0.28366594511E+01 -0.34072869466E+00 -0.16470274556E+01  0.32977920774E+01  0.51100000000E-03 0. -1.
        -11    1    3    3    0    0  0.26223490365E+01  0.33662179928E+01  0.35342425860E+02  0.35599089932E+02  0.51100000000E-03 0.  1.
         12    1    3    3    0    0 -0.13678737950E+02  0.13162959193E+02 -0.74829737333E+01  0.20405054827E+02  0.00000000000E+00 0. -1.
</event>
<event>
 7    1  0.6184948E-012  0.5930194E+02  0.7816164E-02  0.1266605E+00
        -11   -1    0    0    0    0  0.00000000000E+00  0.00000000000E+00  0.45593999997E+02  0.45594000000E+02  0.51100000000E-03 0.  1.
         11   -1    0    0    0    0 -0.00000000000E+00 -0.00000000000E+00 -0.45593999997E+02  0.45594000000E+02  0.51100000000E-03 0. -1.
    9900012    2    1    2    0    0  0.31285242291E+02 -0.43310361741E+01 -0.43813698405E+01  0.59301942526E+02  0.49999997262E+02 0.  0.
         12    1    1    2    0    0 -0.31285242291E+02  0.43310361741E+01  0.43813698405E+01  0.31886057474E+02  0.00000000000E+00 0. -1.
         11    1    3    3    0    0  0.74673881691E+01 -0.97326078264E+01 -0.16823746914E+02  0.20821239196E+02  0.51100000000E-03 0. -1.
        -11    1    3    3    0    0  0.12316408696E+02 -0.32799888671E+00 -0.77434653296E+01  0.14552070712E+02  0.51100000000E-03 0.  1.
         12    1    3    3    0    0  0.11501445426E+02  0.57295705390E+01  0.20185842403E+02  0.23928632618E+02  0.00000000000E+00 0. -1.
</event>
<event>
 7    1  0.6184948E-012  0.5930197E+02  0.7816164E-02  0.1266605E+00
        -11   -1    0    0    0    0  0.00000000000E+00  0.00000000000E+00  0.45593999997E+02  0.45594000000E+02  0.51100000000E-03 0.  1.
         11   -1    0    0    0    0 -0.00000000000E+00 -0.00000000000E+00 -0.45593999997E+02  0.45594000000E+02  0.51100000000E-03 0. -1.
    9900012    2    1    2    0    0  0.52164212581E+01  0.19671530409E+01  0.31394874270E+02  0.59301970579E+02  0.50000048422E+02 0.  0.
         12    1    1    2    0    0 -0.52164212581E+01 -0.19671530409E+01 -0.31394874270E+02  0.31886029421E+02  0.00000000000E+00 0. -1.
         11    1    3    3    0    0 -0.22914280208E+01 -0.22199568578E+01  0.21987488712E+02  0.22217752158E+02  0.51100000000E-03 0. -1.
        -11    1    3    3    0    0  0.14058856053E+02  0.13332978952E+02  0.15016367299E+02  0.24513487071E+02  0.51100000000E-03 0.  1.
         12    1    3    3    0    0 -0.65510067742E+01 -0.91458690537E+01 -0.56089817405E+01  0.12570731350E+02  0.00000000000E+00 0. -1.
</event>
<event>
 7    1  0.6184948E-012  0.5930195E+02  0.7816164E-02  0.1266605E+00
        -11   -1    0    0    0    0  0.00000000000E+00  0.00000000000E+00  0.45593999997E+02  0.45594000000E+02  0.51100000000E-03 0.  1.
         11   -1    0    0    0    0 -0.00000000000E+00 -0.00000000000E+00 -0.45593999997E+02  0.45594000000E+02  0.51100000000E-03 0. -1.
    9900012    2    1    2    0    0 -0.14961898313E+02 -0.26768649733E+02 -0.87350700432E+01  0.59301945708E+02  0.50000003064E+02 0.  0.
         12    1    1    2    0    0  0.14961898313E+02  0.26768649733E+02  0.87350700432E+01  0.31886054292E+02  0.00000000000E+00 0. -1.
         11    1    3    3    0    0 -0.48525377714E+01 -0.21202782908E+01  0.74505042350E+01  0.91407175031E+01  0.51100000000E-03 0. -1.
        -11    1    3    3    0    0 -0.15681958864E+02  0.28172767584E+01  0.29799757577E+01  0.16209291716E+02  0.51100000000E-03 0.  1.
         12    1    3    3    0    0  0.55725983232E+01 -0.27465648201E+02 -0.19165550036E+02  0.33951936489E+02  0.00000000000E+00 0. -1.
</event>
<event>
 7    1  0.6184948E-012  0.5930195E+02  0.7816164E-02  0.1266605E+00
        -11   -1    0    0    0    0  0.00000000000E+00  0.00000000000E+00  0.45593999997E+02  0.45594000000E+02  0.51100000000E-03 0.  1.
         11   -1    0    0    0    0 -0.00000000000E+00 -0.00000000000E+00 -0.45593999997E+02  0.45594000000E+02  0.51100000000E-03 0. -1.
    9900012    2    1    2    0    0 -0.23810785197E+01 -0.10351646322E+02  0.30064830938E+02  0.59301950137E+02  0.50000011142E+02 0.  0.
         12    1    1    2    0    0  0.23810785197E+01  0.10351646322E+02 -0.30064830938E+02  0.31886049863E+02  0.00000000000E+00 0. -1.
         11    1    3    3    0    0 -0.11754834605E+02  0.40013715638E+01 -0.13732504141E+01  0.12492915110E+02  0.51100000000E-03 0. -1.
        -11    1    3    3    0    0  0.95992657756E+00  0.25150533872E+01 -0.50594934534E+01  0.57310929884E+01  0.51100000000E-03 0.  1.
        -12    1    3    3    0    0  0.84138295074E+01 -0.16868071273E+02  0.36497574806E+02  0.41077942039E+02  0.00000000000E+00 0.  1.
</event>
<event>
 7    1  0.6184948E-012  0.5930192E+02  0.7816164E-02  0.1266605E+00
        -11   -1    0    0    0    0  0.00000000000E+00  0.00000000000E+00  0.45593999997E+02  0.45594000000E+02  0.51100000000E-03 0.  1.
         11   -1    0    0    0    0 -0.00000000000E+00 -0.00000000000E+00 -0.45593999997E+02  0.45594000000E+02  0.51100000000E-03 0. -1.
    9900012    2    1    2    0    0  0.75513315396E+00  0.18694603713E+02  0.25819827862E+02  0.59301922397E+02  0.49999960551E+02 0.  0.
         12    1    1    2    0    0 -0.75513315396E+00 -0.18694603713E+02 -0.25819827862E+02  0.31886077603E+02  0.00000000000E+00 0. -1.
         11    1    3    3    0    0  0.39447725262E+01  0.78169222793E+01 -0.10023686501E+02  0.13309387496E+02  0.51100000000E-03 0. -1.
        -11    1    3    3    0    0 -0.12020034397E+02  0.19239276893E+01  0.59247579650E+01  0.13538296860E+02  0.51100000000E-03 0.  1.
        -12    1    3    3    0    0  0.88303950250E+01  0.89537537447E+01  0.29918756398E+02  0.32454238041E+02  0.00000000000E+00 0.  1.
</event>
<event>
 7    1  0.6184948E-012  0.5930195E+02  0.7816164E-02  0.1266605E+00
        -11   -1    0    0    0    0  0.00000000000E+00  0.00000000000E+00  0.45593999997E+02  0.45594000000E+02  0.51100000000E-03 0.  1.
         11   -1    0    0    0    0 -0.00000000000E+00 -0.00000000000E+00 -0.45593999997E+02  0.45594000000E+02  0.51100000000E-03 0. -1.
    9900012    2    1    2    0    0  0.14136997441E+01  0.27829368104E+02  0.15499928442E+02  0.59301951989E+02  0.50000014519E+02 0.  0.
         12    1    1    2    0    0 -0.14136997441E+01 -0.27829368104E+02 -0.15499928442E+02  0.31886048011E+02  0.00000000000E+00 0. -1.
         11    1    3    3    0    0  0.14657791357E+02  0.20007470751E+02  0.13179555097E+02  0.28086480843E+02  0.51100000000E-03 0. -1.
        -11    1    3    3    0    0  0.47568564006E+01 -0.58155697592E+01  0.41050847509E+01  0.85615568393E+01  0.51100000000E-03 0.  1.
         12    1    3    3    0    0 -0.18000948013E+02  0.13637467112E+02 -0.17847114057E+01  0.22653914307E+02  0.00000000000E+00 0. -1.
</event>
<event>
 7    1  0.6184948E-012  0.5930194E+02  0.7816164E-02  0.1266605E+00
        -11   -1    0    0    0    0  0.00000000000E+00  0.00000000000E+00  0.45593999997E+02  0.45594000000E+02  0.51100000000E-03 0.  1.
         11   -1    0    0    0    0 -0.00000000000E+00 -0.00000000000E+00 -0.45593999997E+02  0.45594000000E+02  0.51100000000E-03 0. -1.
    9900012    2    1    2    0    0 -0.30595405795E+02  0.73915188612E+00  0.89496030723E+01  0.59301943543E+02  0.49999999115E+02 0.  0.
         12    1    1    2    0    0  0.30595405795E+02 -0.73915188612E+00 -0.89496030723E+01  0.31886056457E+02  0.00000000000E+00 0. -1.
         11    1    3    3    0    0  0.91715999376E+01  0.38770468706E+01  0.16141551259E+00  0.99587043877E+01  0.51100000000E-03 0. -1.
        -11    1    3    3    0    0 -0.26891456420E+02  0.10718855185E+02  0.93443380061E+01  0.30419745855E+02  0.51100000000E-03 0.  1.
        -12    1    3    3    0    0 -0.12875549313E+02 -0.13856750169E+02 -0.55615044640E+00  0.18923493300E+02  0.00000000000E+00 0.  1.
</event>
<event>
 7    1  0.6184948E-012  0.5930195E+02  0.7816164E-02  0.1266605E+00
        -11   -1    0    0    0    0  0.00000000000E+00  0.00000000000E+00  0.45593999997E+02  0.45594000000E+02  0.51100000000E-03 0.  1.
         11   -1    0    0    0    0 -0.00000000000E+00 -0.00000000000E+00 -0.45593999997E+02  0.45594000000E+02  0.51100000000E-03 0. -1.
    9900012    2    1    2    0    0  0.15082441505E+02 -0.28714689065E+01  0.27946285230E+02  0.59301949232E+02  0.50000009490E+02 0.  0.
         12    1    1    2    0    0 -0.15082441505E+02  0.28714689065E+01 -0.27946285230E+02  0.31886050768E+02  0.00000000000E+00 0. -1.
         11    1    3    3    0    0 -0.14195990892E+02 -0.38522376658E+01 -0.21424438145E+01  0.14864587388E+02  0.51100000000E-03 0. -1.
        -11    1    3    3    0    0  0.15733246098E+02 -0.25800977879E+01  0.69549037647E+01  0.17394327351E+02  0.51100000000E-03 0.  1.
        -12    1    3    3    0    0  0.13545186300E+02  0.35608665472E+01  0.23133825280E+02  0.27043034492E+02  0.00000000000E+00 0.  1.
</event>
<event>
 7    1  0.6184948E-012  0.5930194E+02  0.7816164E-02  0.1266605E+00
        -11   -1    0    0    0    0  0.00000000000E+00  0.00000000000E+00  0.45593999997E+02  0.45594000000E+02  0.51100000000E-03 0.  1.
         11   -1    0    0    0    0 -0.00000000000E+00 -0.00000000000E+00 -0.45593999997E+02  0.45594000000E+02  0.51100000000E-03 0. -1.
    9900012    2    1    2    0    0 -0.17047738645E+02 -0.26739548737E+02  0.33304260224E+01  0.59301943532E+02  0.49999999097E+02 0.  0.
         12    1    1    2    0    0  0.17047738645E+02  0.26739548737E+02 -0.33304260224E+01  0.31886056468E+02  0.00000000000E+00 0. -1.
         11    1    3    3    0    0  0.44242058279E+01 -0.13835742896E+02 -0.26130669398E+01  0.14759047997E+02  0.51100000000E-03 0. -1.
        -11    1    3    3    0    0  0.49233284698E+01 -0.25109864849E+01  0.14001700685E+02  0.15052967770E+02  0.51100000000E-03 0.  1.
         12    1    3    3    0    0 -0.26395272943E+02 -0.10392819357E+02 -0.80582077232E+01  0.29489927765E+02  0.00000000000E+00 0. -1.
</event>
<event>
 7    1  0.6184948E-012  0.5930196E+02  0.7816164E-02  0.1266605E+00
        -11   -1    0    0    0    0  0.00000000000E+00  0.00000000000E+00  0.45593999997E+02  0.45594000000E+02  0.51100000000E-03 0.  1.
         11   -1    0    0    0    0 -0.00000000000E+00 -0.00000000000E+00 -0.45593999997E+02  0.45594000000E+02  0.51100000000E-03 0. -1.
    9900012    2    1    2    0    0 -0.11426796959E+02 -0.61869199544E+01  0.29118203813E+02  0.59301961353E+02  0.50000031598E+02 0.  0.
         12    1    1    2    0    0  0.11426796959E+02  0.61869199544E+01 -0.29118203813E+02  0.31886038647E+02  0.00000000000E+00 0. -1.
         11    1    3    3    0    0  0.17829145417E+01 -0.80161427536E+01  0.13697477217E+02  0.15970541985E+02  0.51100000000E-03 0. -1.
        -11    1    3    3    0    0 -0.10712462746E+02  0.33829771110E+01  0.28127914487E+02  0.30288297507E+02  0.51100000000E-03 0.  1.
         12    1    3    3    0    0 -0.24972487549E+01 -0.15537543118E+01 -0.12707187891E+02  0.13043121862E+02  0.00000000000E+00 0. -1.
</event>
<event>
 7    1  0.6184948E-012  0.5930196E+02  0.7816164E-02  0.1266605E+00
        -11   -1    0    0    0    0  0.00000000000E+00  0.00000000000E+00  0.45593999997E+02  0.45594000000E+02  0.51100000000E-03 0.  1.
         11   -1    0    0    0    0 -0.00000000000E+00 -0.00000000000E+00 -0.45593999997E+02  0.45594000000E+02  0.51100000000E-03 0. -1.
    9900012    2    1    2    0    0  0.11058166681E+02  0.24747003620E+02  0.16793511357E+02  0.59301964464E+02  0.50000037271E+02 0.  0.
         12    1    1    2    0    0 -0.11058166681E+02 -0.24747003620E+02 -0.16793511357E+02  0.31886035536E+02  0.00000000000E+00 0. -1.
         11    1    3    3    0    0  0.59323169869E+01 -0.45144811415E+01 -0.92480012793E+00  0.75118692978E+01  0.51100000000E-03 0. -1.
        -11    1    3    3    0    0 -0.91828823614E+01 -0.28217125899E+01  0.13266945171E+02  0.16379842027E+02  0.51100000000E-03 0.  1.
         12    1    3    3    0    0  0.14308732055E+02  0.32083197351E+02  0.44513663143E+01  0.35410253139E+02  0.00000000000E+00 0. -1.
</event>
<event>
 7    1  0.6184948E-012  0.5930195E+02  0.7816164E-02  0.1266605E+00
        -11   -1    0    0    0    0  0.00000000000E+00  0.00000000000E+00  0.45593999997E+02  0.45594000000E+02  0.51100000000E-03 0.  1.
         11   -1    0    0    0    0 -0.00000000000E+00 -0.00000000000E+00 -0.45593999997E+02  0.45594000000E+02  0.51100000000E-03 0. -1.
    9900012    2    1    2    0    0  0.26667788391E+02 -0.10591471969E+01  0.17447856374E+02  0.59301946270E+02  0.50000004089E+02 0.  0.
         12    1    1    2    0    0 -0.26667788391E+02  0.10591471969E+01 -0.17447856374E+02  0.31886053730E+02  0.00000000000E+00 0. -1.
         11    1    3    3    0    0  0.44738112310E+01 -0.11349677008E+02  0.81718661581E+01  0.14683649134E+02  0.51100000000E-03 0. -1.
        -11    1    3    3    0    0  0.15407165257E+02 -0.11366801351E+02 -0.20455536605E+01  0.19255368193E+02  0.51100000000E-03 0.  1.
         12    1    3    3    0    0  0.67868119030E+01  0.21657331162E+02  0.11321543876E+02  0.25362928944E+02  0.00000000000E+00 0. -1.
</event>
<event>
 7    1  0.6184948E-012  0.5930194E+02  0.7816164E-02  0.1266605E+00
        -11   -1    0    0    0    0  0.00000000000E+00  0.00000000000E+00  0.45593999997E+02  0.45594000000E+02  0.51100000000E-03 0. -1.
         11   -1    0    0    0    0 -0.00000000000E+00 -0.00000000000E+00 -0.45593999997E+02  0.45594000000E+02  0.51100000000E-03 0.  1.
    9900012    2    1    2    0    0 -0.21659632417E+02  0.12763034664E+02 -0.19613413927E+02  0.59301941351E+02  0.49999995118E+02 0.  0.
         12    1    1    2    0    0  0.21659632417E+02 -0.12763034664E+02  0.19613413927E+02  0.31886058649E+02  0.00000000000E+00 0. -1.
         11    1    3    3    0    0 -0.72414531489E+00 -0.51529291456E+01 -0.51608472252E+01  0.73288068305E+01  0.51100000000E-03 0. -1.
        -11    1    3    3    0    0 -0.34907118470E+01  0.21983849606E+02  0.76374593798E+01  0.23533072445E+02  0.51100000000E-03 0.  1.
         12    1    3    3    0    0 -0.17444775255E+02 -0.40678857957E+01 -0.22090026082E+02  0.28440062075E+02  0.00000000000E+00 0. -1.
</event>
<event>
 7    1  0.6184948E-012  0.5930194E+02  0.7816164E-02  0.1266605E+00
        -11   -1    0    0    0    0  0.00000000000E+00  0.00000000000E+00  0.45593999997E+02  0.45594000000E+02  0.51100000000E-03 0. -1.
         11   -1    0    0    0    0 -0.00000000000E+00 -0.00000000000E+00 -0.45593999997E+02  0.45594000000E+02  0.51100000000E-03 0.  1.
    9900012    2    1    2    0    0 -0.14464485684E+02  0.20238038708E+02 -0.19947961889E+02  0.59301941285E+02  0.49999994998E+02 0.  0.
         12    1    1    2    0    0  0.14464485684E+02 -0.20238038708E+02  0.19947961889E+02  0.31886058715E+02  0.00000000000E+00 0. -1.
         11    1    3    3    0    0  0.45498539088E+01 -0.10020772384E+02 -0.88590446327E+01  0.14127976566E+02  0.51100000000E-03 0. -1.
        -11    1    3    3    0    0 -0.83821688200E+01 -0.26922087393E+01  0.44823567036E-01  0.88040190502E+01  0.51100000000E-03 0.  1.
        -12    1    3    3    0    0 -0.10632170773E+02  0.32951019831E+02 -0.11133740824E+02  0.36369945669E+02  0.00000000000E+00 0.  1.
</event>
<event>
 7    1  0.6184948E-012  0.5930198E+02  0.7816164E-02  0.1266605E+00
        -11   -1    0    0    0    0  0.00000000000E+00  0.00000000000E+00  0.45593999997E+02  0.45594000000E+02  0.51100000000E-03 0.  1.
         11   -1    0    0    0    0 -0.00000000000E+00 -0.00000000000E+00 -0.45593999997E+02  0.45594000000E+02  0.51100000000E-03 0. -1.
    9900012    2    1    2    0    0  0.39417232427E+01 -0.34718237832E+01  0.31450398769E+02  0.59301979157E+02  0.50000064067E+02 0.  0.
         12    1    1    2    0    0 -0.39417232427E+01  0.34718237832E+01 -0.31450398769E+02  0.31886020843E+02  0.00000000000E+00 0. -1.
         11    1    3    3    0    0  0.30680433316E+01  0.63603087791E+01  0.17650315759E+01  0.72788566668E+01  0.51100000000E-03 0. -1.
        -11    1    3    3    0    0  0.21078073085E+02 -0.34994842609E+01  0.17307929154E+02  0.27497199256E+02  0.51100000000E-03 0.  1.
         12    1    3    3    0    0 -0.20204393174E+02 -0.63326483014E+01  0.12377438039E+02  0.24525923234E+02  0.00000000000E+00 0. -1.
</event>
<event>
 7    1  0.6184948E-012  0.5930199E+02  0.7816164E-02  0.1266605E+00
        -11   -1    0    0    0    0  0.00000000000E+00  0.00000000000E+00  0.45593999997E+02  0.45594000000E+02  0.51100000000E-03 0.  1.
         11   -1    0    0    0    0 -0.00000000000E+00 -0.00000000000E+00 -0.45593999997E+02  0.45594000000E+02  0.51100000000E-03 0. -1.
    9900012    2    1    2    0    0 -0.15048566743E+02  0.46913588582E+01  0.27717315621E+02  0.59301987483E+02  0.50000079253E+02 0.  0.
         12    1    1    2    0    0  0.15048566743E+02 -0.46913588582E+01 -0.27717315621E+02  0.31886012517E+02  0.00000000000E+00 0. -1.
         11    1    3    3    0    0 -0.26547801262E+02  0.10165789718E+02  0.16454458211E+02  0.32846281794E+02  0.51100000000E-03 0. -1.
        -11    1    3    3    0    0 -0.26253800269E+01  0.44600241451E+01  0.69349547280E+01  0.86532094047E+01  0.51100000000E-03 0.  1.
         12    1    3    3    0    0  0.14124614546E+02 -0.99344550054E+01  0.43279026828E+01  0.17802496284E+02  0.00000000000E+00 0. -1.
</event>
<event>
 7    1  0.6184948E-012  0.5930188E+02  0.7816164E-02  0.1266605E+00
        -11   -1    0    0    0    0  0.00000000000E+00  0.00000000000E+00  0.45593999997E+02  0.45594000000E+02  0.51100000000E-03 0.  1.
         11   -1    0    0    0    0 -0.00000000000E+00 -0.00000000000E+00 -0.45593999997E+02  0.45594000000E+02  0.51100000000E-03 0. -1.
    9900012    2    1    2    0    0 -0.19866429718E+02  0.15360002583E+02  0.19649932213E+02  0.59301881624E+02  0.49999886191E+02 0.  0.
         12    1    1    2    0    0  0.19866429718E+02 -0.15360002583E+02 -0.19649932213E+02  0.31886118376E+02  0.00000000000E+00 0. -1.
         11    1    3    3    0    0 -0.20398120801E+02  0.16720759041E+02  0.34997012224E+00  0.26377823915E+02  0.51100000000E-03 0.  1.
        -11    1    3    3    0    0  0.41712906718E+00  0.45430386093E+01 -0.56630880099E+01  0.72721222854E+01  0.51100000000E-03 0. -1.
        -12    1    3    3    0    0  0.11456201591E+00 -0.59037950675E+01  0.24963050101E+02  0.25651935424E+02  0.00000000000E+00 0.  1.
</event>
<event>
 7    1  0.6184948E-012  0.5930206E+02  0.7816164E-02  0.1266604E+00
        -11   -1    0    0    0    0  0.00000000000E+00  0.00000000000E+00  0.45593999997E+02  0.45594000000E+02  0.51100000000E-03 0.  1.
         11   -1    0    0    0    0 -0.00000000000E+00 -0.00000000000E+00 -0.45593999997E+02  0.45594000000E+02  0.51100000000E-03 0. -1.
    9900012    2    1    2    0    0 -0.28835033127E+02  0.24918551744E+01  0.13380756884E+02  0.59302060584E+02  0.50000212570E+02 0.  0.
         12    1    1    2    0    0  0.28835033127E+02 -0.24918551744E+01 -0.13380756884E+02  0.31885939416E+02  0.00000000000E+00 0. -1.
         11    1    3    3    0    0  0.10368479210E+02 -0.26743739860E+01  0.10579857876E+01  0.10759970797E+02  0.51100000000E-03 0. -1.
        -11    1    3    3    0    0 -0.28149061277E+02  0.14294831773E+02  0.36364139538E+01  0.31779480375E+02  0.51100000000E-03 0.  1.
         12    1    3    3    0    0 -0.11054451061E+02 -0.91286026123E+01  0.86863571422E+01  0.16762609412E+02  0.00000000000E+00 0. -1.
</event>
<event>
 7    1  0.6184948E-012  0.5930200E+02  0.7816164E-02  0.1266605E+00
        -11   -1    0    0    0    0  0.00000000000E+00  0.00000000000E+00  0.45593999997E+02  0.45594000000E+02  0.51100000000E-03 0.  1.
         11   -1    0    0    0    0 -0.00000000000E+00 -0.00000000000E+00 -0.45593999997E+02  0.45594000000E+02  0.51100000000E-03 0. -1.
    9900012    2    1    2    0    0 -0.20197907835E+02 -0.13846527556E+02  0.20421438232E+02  0.59302000788E+02  0.50000103518E+02 0.  0.
         12    1    1    2    0    0  0.20197907835E+02  0.13846527556E+02 -0.20421438232E+02  0.31885999212E+02  0.00000000000E+00 0. -1.
         11    1    3    3    0    0 -0.11343210961E+02  0.11302055821E+02  0.10577185115E+01  0.16047544030E+02  0.51100000000E-03 0. -1.
        -11    1    3    3    0    0 -0.18519637081E+02 -0.10990025679E+02  0.10704454666E+02  0.24048762379E+02  0.51100000000E-03 0.  1.
        -12    1    3    3    0    0  0.96649402067E+01 -0.14158557698E+02  0.86592650544E+01  0.19205694379E+02  0.00000000000E+00 0.  1.
</event>
<event>
 7    1  0.6184948E-012  0.5930194E+02  0.7816164E-02  0.1266605E+00
        -11   -1    0    0    0    0  0.00000000000E+00  0.00000000000E+00  0.45593999997E+02  0.45594000000E+02  0.51100000000E-03 0.  1.
         11   -1    0    0    0    0 -0.00000000000E+00 -0.00000000000E+00 -0.45593999997E+02  0.45594000000E+02  0.51100000000E-03 0. -1.
    9900012    2    1    2    0    0  0.14418560056E+02  0.86203306496E+01  0.27101950965E+02  0.59301941593E+02  0.49999995560E+02 0.  0.
         12    1    1    2    0    0 -0.14418560056E+02 -0.86203306496E+01 -0.27101950965E+02  0.31886058407E+02  0.00000000000E+00 0. -1.
         11    1    3    3    0    0  0.13297250487E+02 -0.62537678456E+01 -0.11473262373E+01  0.14739160103E+02  0.51100000000E-03 0. -1.
        -11    1    3    3    0    0  0.12301711772E+02  0.13100138990E+02  0.27962066843E+02  0.33238876884E+02  0.51100000000E-03 0.  1.
         12    1    3    3    0    0 -0.11180402203E+02  0.17739595048E+01  0.28721035963E+00  0.11323904606E+02  0.00000000000E+00 0. -1.
</event>
<event>
 7    1  0.6184948E-012  0.5930193E+02  0.7816164E-02  0.1266605E+00
        -11   -1    0    0    0    0  0.00000000000E+00  0.00000000000E+00  0.45593999997E+02  0.45594000000E+02  0.51100000000E-03 0.  1.
         11   -1    0    0    0    0 -0.00000000000E+00 -0.00000000000E+00 -0.45593999997E+02  0.45594000000E+02  0.51100000000E-03 0. -1.
    9900012    2    1    2    0    0  0.24409270592E+02  0.97700272455E+01  0.18040383629E+02  0.59301931496E+02  0.49999977145E+02 0.  0.
         12    1    1    2    0    0 -0.24409270592E+02 -0.97700272455E+01 -0.18040383629E+02  0.31886068504E+02  0.00000000000E+00 0. -1.
         11    1    3    3    0    0  0.67657743461E+01 -0.88178385402E+01  0.38327952675E+01  0.11756712927E+02  0.51100000000E-03 0. -1.
        -11    1    3    3    0    0  0.10439421785E+02 -0.55427472703E+01  0.18545011138E+02  0.21991384969E+02  0.51100000000E-03 0.  1.
        -12    1    3    3    0    0  0.72040744608E+01  0.24130613056E+02 -0.43374227767E+01  0.25553833600E+02  0.00000000000E+00 0.  1.
</event>
<event>
 7    1  0.6184948E-012  0.5930193E+02  0.7816164E-02  0.1266605E+00
        -11   -1    0    0    0    0  0.00000000000E+00  0.00000000000E+00  0.45593999997E+02  0.45594000000E+02  0.51100000000E-03 0. -1.
         11   -1    0    0    0    0 -0.00000000000E+00 -0.00000000000E+00 -0.45593999997E+02  0.45594000000E+02  0.51100000000E-03 0.  1.
    9900012    2    1    2    0    0  0.38484119506E+01  0.17453232276E+02 -0.26406360699E+02  0.59301929738E+02  0.49999973939E+02 0.  0.
         12    1    1    2    0    0 -0.38484119506E+01 -0.17453232276E+02  0.26406360699E+02  0.31886070262E+02  0.00000000000E+00 0. -1.
         11    1    3    3    0    0  0.26302113277E+01  0.72429561558E+01  0.68886966279E+01  0.10335984085E+02  0.51100000000E-03 0. -1.
        -11    1    3    3    0    0 -0.14924312104E+02 -0.18244967966E+01 -0.94570655413E+01  0.17762318803E+02  0.51100000000E-03 0.  1.
         12    1    3    3    0    0  0.16142512727E+02  0.12034772917E+02 -0.23837991785E+02  0.31203626851E+02  0.00000000000E+00 0. -1.
</event>
<event>
 7    1  0.6184948E-012  0.5930195E+02  0.7816164E-02  0.1266605E+00
        -11   -1    0    0    0    0  0.00000000000E+00  0.00000000000E+00  0.45593999997E+02  0.45594000000E+02  0.51100000000E-03 0. -1.
         11   -1    0    0    0    0 -0.00000000000E+00 -0.00000000000E+00 -0.45593999997E+02  0.45594000000E+02  0.51100000000E-03 0.  1.
    9900012    2    1    2    0    0 -0.22875101315E+02 -0.17433807476E+02 -0.13766355663E+02  0.59301945815E+02  0.50000003260E+02 0.  0.
         12    1    1    2    0    0  0.22875101315E+02  0.17433807476E+02  0.13766355663E+02  0.31886054185E+02  0.00000000000E+00 0. -1.
         11    1    3    3    0    0  0.58296292874E+01  0.59776554612E+01  0.24164944382E+01  0.86923177618E+01  0.51100000000E-03 0. -1.
        -11    1    3    3    0    0 -0.15197981177E+02 -0.81797992963E+01 -0.23341881175E+02  0.29029832336E+02  0.51100000000E-03 0.  1.
         12    1    3    3    0    0 -0.13506749425E+02 -0.15231663641E+02  0.71590310743E+01  0.21579795718E+02  0.00000000000E+00 0. -1.
</event>
<event>
 7    1  0.6184948E-012  0.5930191E+02  0.7816164E-02  0.1266605E+00
        -11   -1    0    0    0    0  0.00000000000E+00  0.00000000000E+00  0.45593999997E+02  0.45594000000E+02  0.51100000000E-03 0. -1.
         11   -1    0    0    0    0 -0.00000000000E+00 -0.00000000000E+00 -0.45593999997E+02  0.45594000000E+02  0.51100000000E-03 0.  1.
    9900012    2    1    2    0    0 -0.18411428853E+02 -0.72662053662E+01 -0.24998887845E+02  0.59301908262E+02  0.49999934772E+02 0.  0.
         12    1    1    2    0    0  0.18411428853E+02  0.72662053662E+01  0.24998887845E+02  0.31886091738E+02  0.00000000000E+00 0. -1.
         11    1    3    3    0    0 -0.11308414763E+02 -0.16241578925E+02 -0.68132548684E+01  0.20930589399E+02  0.51100000000E-03 0. -1.
        -11    1    3    3    0    0  0.56578722168E+01  0.53357472601E+01  0.66372058897E+01  0.10224197725E+02  0.51100000000E-03 0.  1.
        -12    1    3    3    0    0 -0.12760886307E+02  0.36396262986E+01 -0.24822838867E+02  0.28147121137E+02  0.00000000000E+00 0.  1.
</event>
<event>
 7    1  0.6184948E-012  0.5930184E+02  0.7816164E-02  0.1266605E+00
        -11   -1    0    0    0    0  0.00000000000E+00  0.00000000000E+00  0.45593999997E+02  0.45594000000E+02  0.51100000000E-03 0.  1.
         11   -1    0    0    0    0 -0.00000000000E+00 -0.00000000000E+00 -0.45593999997E+02  0.45594000000E+02  0.51100000000E-03 0. -1.
    9900012    2    1    2    0    0  0.17946012306E+02 -0.26152956781E+02  0.32696737031E+01  0.59301838860E+02  0.49999808200E+02 0.  0.
         12    1    1    2    0    0 -0.17946012306E+02  0.26152956781E+02 -0.32696737031E+01  0.31886161140E+02  0.00000000000E+00 0. -1.
         11    1    3    3    0    0  0.96198860173E+01 -0.19083437285E+02 -0.10622948027E+02  0.23865598896E+02  0.51100000000E-03 0. -1.
        -11    1    3    3    0    0  0.17883506620E+02 -0.12298014074E+02  0.90938518317E+01  0.23532086618E+02  0.51100000000E-03 0.  1.
         12    1    3    3    0    0 -0.95573803315E+01  0.52284945779E+01  0.47987698988E+01  0.11904153346E+02  0.00000000000E+00 0. -1.
</event>
<event>
 7    1  0.6184948E-012  0.5930195E+02  0.7816164E-02  0.1266605E+00
        -11   -1    0    0    0    0  0.00000000000E+00  0.00000000000E+00  0.45593999997E+02  0.45594000000E+02  0.51100000000E-03 0.  1.
         11   -1    0    0    0    0 -0.00000000000E+00 -0.00000000000E+00 -0.45593999997E+02  0.45594000000E+02  0.51100000000E-03 0. -1.
    9900012    2    1    2    0    0 -0.23702782517E+02 -0.62650603684E+01  0.20387422645E+02  0.59301954736E+02  0.50000019530E+02 0.  0.
         12    1    1    2    0    0  0.23702782517E+02  0.62650603684E+01 -0.20387422645E+02  0.31886045264E+02  0.00000000000E+00 0. -1.
         11    1    3    3    0    0  0.21884855026E+01 -0.57744715170E+01 -0.18244733682E+01  0.64391531608E+01  0.51100000000E-03 0. -1.
        -11    1    3    3    0    0 -0.18002340698E+02  0.10903274039E+02 -0.56090006840E+01  0.21781334769E+02  0.51100000000E-03 0.  1.
        -12    1    3    3    0    0 -0.78889273221E+01 -0.11393862891E+02  0.27820896697E+02  0.31081466807E+02  0.00000000000E+00 0.  1.
</event>
<event>
 7    1  0.6184948E-012  0.5930197E+02  0.7816164E-02  0.1266605E+00
        -11   -1    0    0    0    0  0.00000000000E+00  0.00000000000E+00  0.45593999997E+02  0.45594000000E+02  0.51100000000E-03 0. -1.
         11   -1    0    0    0    0 -0.00000000000E+00 -0.00000000000E+00 -0.45593999997E+02  0.45594000000E+02  0.51100000000E-03 0.  1.
    9900012    2    1    2    0    0 -0.29901193810E+02 -0.81095575783E+01 -0.75414121360E+01  0.59301965245E+02  0.50000038695E+02 0.  0.
         12    1    1    2    0    0  0.29901193810E+02  0.81095575783E+01  0.75414121360E+01  0.31886034755E+02  0.00000000000E+00 0. -1.
         11    1    3    3    0    0  0.41215212426E+00  0.10133507585E+02  0.55898995101E+01  0.11580363645E+02  0.51100000000E-03 0. -1.
        -11    1    3    3    0    0  0.45820904275E+01 -0.21620045439E+01  0.31781578204E+01  0.59808447335E+01  0.51100000000E-03 0.  1.
        -12    1    3    3    0    0 -0.34895436362E+02 -0.16081060619E+02 -0.16309469466E+02  0.41740756867E+02  0.00000000000E+00 0.  1.
</event>
<event>
 7    1  0.6184948E-012  0.5930187E+02  0.7816164E-02  0.1266605E+00
        -11   -1    0    0    0    0  0.00000000000E+00  0.00000000000E+00  0.45593999997E+02  0.45594000000E+02  0.51100000000E-03 0.  1.
         11   -1    0    0    0    0 -0.00000000000E+00 -0.00000000000E+00 -0.45593999997E+02  0.45594000000E+02  0.51100000000E-03 0. -1.
    9900012    2    1    2    0    0 -0.23210090739E+02  0.46580038653E+01  0.21361640936E+02  0.59301874246E+02  0.49999872735E+02 0.  0.
         12    1    1    2    0    0  0.23210090739E+02 -0.46580038653E+01 -0.21361640936E+02  0.31886125754E+02  0.00000000000E+00 0. -1.
         11    1    3    3    0    0 -0.43630784848E+01  0.11249082896E+02  0.34061915080E+01  0.12537163185E+02  0.51100000000E-03 0. -1.
        -11    1    3    3    0    0 -0.35831167019E+01  0.45606765914E+01  0.25692490197E+02  0.26338992940E+02  0.51100000000E-03 0.  1.
        -12    1    3    3    0    0 -0.15263895553E+02 -0.11151755623E+02 -0.77370407696E+01  0.20425718121E+02  0.00000000000E+00 0.  1.
</event>
<event>
 7    1  0.6184948E-012  0.5930195E+02  0.7816164E-02  0.1266605E+00
        -11   -1    0    0    0    0  0.00000000000E+00  0.00000000000E+00  0.45593999997E+02  0.45594000000E+02  0.51100000000E-03 0. -1.
         11   -1    0    0    0    0 -0.00000000000E+00 -0.00000000000E+00 -0.45593999997E+02  0.45594000000E+02  0.51100000000E-03 0.  1.
    9900012    2    1    2    0    0  0.22036468534E+02  0.19112260952E+02 -0.12877721896E+02  0.59301949988E+02  0.50000010870E+02 0.  0.
         12    1    1    2    0    0 -0.22036468534E+02 -0.19112260952E+02  0.12877721896E+02  0.31886050012E+02  0.00000000000E+00 0. -1.
         11    1    3    3    0    0  0.20160354118E+02 -0.32365661947E+01 -0.21077578246E+02  0.29345860762E+02  0.51100000000E-03 0. -1.
        -11    1    3    3    0    0  0.98048495965E+01  0.93376176039E+01  0.31168484479E+01  0.13893916749E+02  0.51100000000E-03 0.  1.
        -12    1    3    3    0    0 -0.79287351807E+01  0.13011209543E+02  0.50830079025E+01  0.16062172476E+02  0.00000000000E+00 0.  1.
</event>
<event>
 7    1  0.6184948E-012  0.5930193E+02  0.7816164E-02  0.1266605E+00
        -11   -1    0    0    0    0  0.00000000000E+00  0.00000000000E+00  0.45593999997E+02  0.45594000000E+02  0.51100000000E-03 0. -1.
         11   -1    0    0    0    0 -0.00000000000E+00 -0.00000000000E+00 -0.45593999997E+02  0.45594000000E+02  0.51100000000E-03 0.  1.
    9900012    2    1    2    0    0  0.36830541018E-02 -0.31882119048E+02  0.50218940771E+00  0.59301925880E+02  0.49999966903E+02 0.  0.
         12    1    1    2    0    0 -0.36830541018E-02  0.31882119048E+02 -0.50218940771E+00  0.31886074120E+02  0.00000000000E+00 0. -1.
         11    1    3    3    0    0  0.42713825386E+01  0.86862383810E+01  0.85549409142E+01  0.12918299436E+02  0.51100000000E-03 0. -1.
        -11    1    3    3    0    0  0.53384183714E+01 -0.27750564604E+01  0.15715801907E+01  0.62184816172E+01  0.51100000000E-03 0.  1.
        -12    1    3    3    0    0 -0.96061178559E+01 -0.37793300969E+02 -0.96243316972E+01  0.40165144827E+02  0.00000000000E+00 0.  1.
</event>
<event>
 7    1  0.6184948E-012  0.5930159E+02  0.7816164E-02  0.1266606E+00
        -11   -1    0    0    0    0  0.00000000000E+00  0.00000000000E+00  0.45593999997E+02  0.45594000000E+02  0.51100000000E-03 0. -1.
         11   -1    0    0    0    0 -0.00000000000E+00 -0.00000000000E+00 -0.45593999997E+02  0.45594000000E+02  0.51100000000E-03 0.  1.
    9900012    2    1    2    0    0  0.11959060014E+02 -0.13738826187E+02 -0.26171911519E+02  0.59301585746E+02  0.49999346576E+02 0.  0.
         12    1    1    2    0    0 -0.11959060014E+02  0.13738826187E+02  0.26171911519E+02  0.31886414254E+02  0.00000000000E+00 0. -1.
         11    1    3    3    0    0  0.56491824064E+01  0.72864453666E+00  0.20361947143E+01  0.60489894939E+01  0.51100000000E-03 0. -1.
        -11    1    3    3    0    0 -0.43086577453E+01  0.57437296947E+01  0.78094487425E+01  0.10608602749E+02  0.51100000000E-03 0.  1.
        -12    1    3    3    0    0  0.10618535353E+02 -0.20211200418E+02 -0.36017554976E+02  0.42643993503E+02  0.00000000000E+00 0.  1.
</event>
<event>
 7    1  0.6184948E-012  0.5930194E+02  0.7816164E-02  0.1266605E+00
        -11   -1    0    0    0    0  0.00000000000E+00  0.00000000000E+00  0.45593999997E+02  0.45594000000E+02  0.51100000000E-03 0.  1.
         11   -1    0    0    0    0 -0.00000000000E+00 -0.00000000000E+00 -0.45593999997E+02  0.45594000000E+02  0.51100000000E-03 0. -1.
    9900012    2    1    2    0    0  0.17563231533E-01  0.31868225830E+02  0.10662194304E+01  0.59301938000E+02  0.49999989006E+02 0.  0.
         12    1    1    2    0    0 -0.17563231533E-01 -0.31868225830E+02 -0.10662194304E+01  0.31886062000E+02  0.00000000000E+00 0. -1.
         11    1    3    3    0    0  0.15751588993E+02  0.41285733813E+01  0.39655278343E+01  0.16759566976E+02  0.51100000000E-03 0. -1.
        -11    1    3    3    0    0  0.18406643858E+01  0.15677239326E+02  0.89587895714E+01  0.18150035513E+02  0.51100000000E-03 0.  1.
         12    1    3    3    0    0 -0.17574690147E+02  0.12062413122E+02 -0.11858097975E+02  0.24392335511E+02  0.00000000000E+00 0. -1.
</event>
<event>
 7    1  0.6184948E-012  0.5930198E+02  0.7816164E-02  0.1266605E+00
        -11   -1    0    0    0    0  0.00000000000E+00  0.00000000000E+00  0.45593999997E+02  0.45594000000E+02  0.51100000000E-03 0.  1.
         11   -1    0    0    0    0 -0.00000000000E+00 -0.00000000000E+00 -0.45593999997E+02  0.45594000000E+02  0.51100000000E-03 0. -1.
    9900012    2    1    2    0    0  0.24113127795E+02 -0.13591208905E+02 -0.15828913871E+02  0.59301977892E+02  0.50000061760E+02 0.  0.
         12    1    1    2    0    0 -0.24113127795E+02  0.13591208905E+02  0.15828913871E+02  0.31886022108E+02  0.00000000000E+00 0. -1.
         11    1    3    3    0    0  0.84806987075E+01 -0.28525260470E+00  0.10713694071E+01  0.85528622275E+01  0.51100000000E-03 0. -1.
        -11    1    3    3    0    0  0.11114764472E+02  0.14927402135E+02 -0.26381033819E+01  0.18796938939E+02  0.51100000000E-03 0.  1.
         12    1    3    3    0    0  0.45176646159E+01 -0.28233358435E+02 -0.14262179896E+02  0.31952176725E+02  0.00000000000E+00 0. -1.
</event>
<event>
 7    1  0.6184948E-012  0.5930192E+02  0.7816164E-02  0.1266605E+00
        -11   -1    0    0    0    0  0.00000000000E+00  0.00000000000E+00  0.45593999997E+02  0.45594000000E+02  0.51100000000E-03 0.  1.
         11   -1    0    0    0    0 -0.00000000000E+00 -0.00000000000E+00 -0.45593999997E+02  0.45594000000E+02  0.51100000000E-03 0. -1.
    9900012    2    1    2    0    0  0.13275775905E+02  0.16164006312E+02  0.24066584115E+02  0.59301924718E+02  0.49999964783E+02 0.  0.
         12    1    1    2    0    0 -0.13275775905E+02 -0.16164006312E+02 -0.24066584115E+02  0.31886075282E+02  0.00000000000E+00 0. -1.
         11    1    3    3    0    0  0.28846539552E+00  0.26202061808E+01 -0.27334803210E+01  0.37974475166E+01  0.51100000000E-03 0. -1.
        -11    1    3    3    0    0 -0.75535002634E+01  0.72529262721E+00 -0.93209594422E+01  0.12019222138E+02  0.51100000000E-03 0.  1.
        -12    1    3    3    0    0  0.20540810773E+02  0.12818507504E+02  0.36121023878E+02  0.43485255063E+02  0.00000000000E+00 0.  1.
</event>
<event>
 7    1  0.6184948E-012  0.5930195E+02  0.7816164E-02  0.1266605E+00
        -11   -1    0    0    0    0  0.00000000000E+00  0.00000000000E+00  0.45593999997E+02  0.45594000000E+02  0.51100000000E-03 0.  1.
         11   -1    0    0    0    0 -0.00000000000E+00 -0.00000000000E+00 -0.45593999997E+02  0.45594000000E+02  0.51100000000E-03 0. -1.
    9900012    2    1    2    0    0 -0.29226205650E+02  0.62813767391E+01  0.11094732276E+02  0.59301954859E+02  0.50000019754E+02 0.  0.
         12    1    1    2    0    0  0.29226205650E+02 -0.62813767391E+01 -0.11094732276E+02  0.31886045141E+02  0.00000000000E+00 0. -1.
         11    1    3    3    0    0 -0.84609299707E+00 -0.71965699003E+00  0.22565667541E+01  0.25151288873E+01  0.51100000000E-03 0. -1.
        -11    1    3    3    0    0 -0.88121273373E+01  0.15213952867E+01  0.27671600458E+02  0.29080675783E+02  0.51100000000E-03 0.  1.
         12    1    3    3    0    0 -0.19567985316E+02  0.54796384424E+01 -0.18833434936E+02  0.27706150189E+02  0.00000000000E+00 0. -1.
</event>
<event>
 7    1  0.6184948E-012  0.5930194E+02  0.7816164E-02  0.1266605E+00
        -11   -1    0    0    0    0  0.00000000000E+00  0.00000000000E+00  0.45593999997E+02  0.45594000000E+02  0.51100000000E-03 0. -1.
         11   -1    0    0    0    0 -0.00000000000E+00 -0.00000000000E+00 -0.45593999997E+02  0.45594000000E+02  0.51100000000E-03 0.  1.
    9900012    2    1    2    0    0 -0.22628362375E+02 -0.45019245531E+01  0.22009331504E+02  0.59301940637E+02  0.49999993817E+02 0.  0.
         12    1    1    2    0    0  0.22628362375E+02  0.45019245531E+01 -0.22009331504E+02  0.31886059363E+02  0.00000000000E+00 0. -1.
         11    1    3    3    0    0 -0.16455696964E+02 -0.67615850516E+01 -0.64472892813E+00  0.17802378230E+02  0.51100000000E-03 0. -1.
        -11    1    3    3    0    0 -0.16474593740E+01 -0.12082405574E+02 -0.22565783668E+01  0.12401241592E+02  0.51100000000E-03 0.  1.
         12    1    3    3    0    0 -0.45252060370E+01  0.14342066073E+02  0.24910638798E+02  0.29098320815E+02  0.00000000000E+00 0. -1.
</event>
<event>
 7    1  0.6184948E-012  0.5930195E+02  0.7816164E-02  0.1266605E+00
        -11   -1    0    0    0    0  0.00000000000E+00  0.00000000000E+00  0.45593999997E+02  0.45594000000E+02  0.51100000000E-03 0. -1.
         11   -1    0    0    0    0 -0.00000000000E+00 -0.00000000000E+00 -0.45593999997E+02  0.45594000000E+02  0.51100000000E-03 0.  1.
    9900012    2    1    2    0    0  0.18527673223E+02 -0.67628098284E+01 -0.25054139571E+02  0.59301950049E+02  0.50000010982E+02 0.  0.
         12    1    1    2    0    0 -0.18527673223E+02  0.67628098284E+01  0.25054139571E+02  0.31886049951E+02  0.00000000000E+00 0. -1.
         11    1    3    3    0    0  0.19540341696E+02  0.45738682136E+01  0.16203032859E+01  0.20133817498E+02  0.51100000000E-03 0. -1.
        -11    1    3    3    0    0  0.11760173973E+02 -0.82785987259E+01 -0.19415157929E+02  0.24161648255E+02  0.51100000000E-03 0.  1.
         12    1    3    3    0    0 -0.12772842446E+02 -0.30580793161E+01 -0.72592849279E+01  0.15006484296E+02  0.00000000000E+00 0. -1.
</event>
<event>
 7    1  0.6184948E-012  0.5930199E+02  0.7816164E-02  0.1266605E+00
        -11   -1    0    0    0    0  0.00000000000E+00  0.00000000000E+00  0.45593999997E+02  0.45594000000E+02  0.51100000000E-03 0.  1.
         11   -1    0    0    0    0 -0.00000000000E+00 -0.00000000000E+00 -0.45593999997E+02  0.45594000000E+02  0.51100000000E-03 0. -1.
    9900012    2    1    2    0    0 -0.89790488813E+01  0.29129987325E+02 -0.93561744554E+01  0.59301992398E+02  0.50000088215E+02 0.  0.
         12    1    1    2    0    0  0.89790488813E+01 -0.29129987325E+02  0.93561744554E+01  0.31886007602E+02  0.00000000000E+00 0. -1.
         11    1    3    3    0    0 -0.72120291728E+01  0.95126383337E+01  0.43745809170E+01  0.12713796102E+02  0.51100000000E-03 0. -1.
        -11    1    3    3    0    0 -0.88021145423E+01  0.29516838175E+02 -0.15213048007E+02  0.34353424665E+02  0.51100000000E-03 0.  1.
         12    1    3    3    0    0  0.70350948338E+01 -0.98994891837E+01  0.14822926345E+01  0.12234771631E+02  0.00000000000E+00 0. -1.
</event>
<event>
 7    1  0.6184948E-012  0.5930191E+02  0.7816164E-02  0.1266605E+00
        -11   -1    0    0    0    0  0.00000000000E+00  0.00000000000E+00  0.45593999997E+02  0.45594000000E+02  0.51100000000E-03 0.  1.
         11   -1    0    0    0    0 -0.00000000000E+00 -0.00000000000E+00 -0.45593999997E+02  0.45594000000E+02  0.51100000000E-03 0. -1.
    9900012    2    1    2    0    0 -0.98095302557E+01 -0.23160054026E+02  0.19598668173E+02  0.59301909294E+02  0.49999936654E+02 0.  0.
         12    1    1    2    0    0  0.98095302557E+01  0.23160054026E+02 -0.19598668173E+02  0.31886090706E+02  0.00000000000E+00 0. -1.
         11    1    3    3    0    0  0.85506085024E+01 -0.59587081177E+01  0.52317348815E+00  0.10435172205E+02  0.51100000000E-03 0. -1.
        -11    1    3    3    0    0  0.28018300293E+01  0.92017040154E+01  0.99094999729E+01  0.13810133898E+02  0.51100000000E-03 0.  1.
         12    1    3    3    0    0 -0.21161968787E+02 -0.26403049924E+02  0.91659947124E+01  0.35056603191E+02  0.00000000000E+00 0. -1.
</event>
<event>
 7    1  0.6184948E-012  0.5930194E+02  0.7816164E-02  0.1266605E+00
        -11   -1    0    0    0    0  0.00000000000E+00  0.00000000000E+00  0.45593999997E+02  0.45594000000E+02  0.51100000000E-03 0.  1.
         11   -1    0    0    0    0 -0.00000000000E+00 -0.00000000000E+00 -0.45593999997E+02  0.45594000000E+02  0.51100000000E-03 0. -1.
    9900012    2    1    2    0    0 -0.52865775933E+01  0.29452144059E+02  0.11015644789E+02  0.59301935294E+02  0.49999984072E+02 0.  0.
         12    1    1    2    0    0  0.52865775933E+01 -0.29452144059E+02 -0.11015644789E+02  0.31886064706E+02  0.00000000000E+00 0. -1.
         11    1    3    3    0    0 -0.44202013720E+01 -0.38560277978E+01 -0.68056822673E+01  0.89846781763E+01  0.51100000000E-03 0. -1.
        -11    1    3    3    0    0  0.72598453624E+01 -0.42565751670E+01  0.14393021543E+01  0.85378789984E+01  0.51100000000E-03 0.  1.
         12    1    3    3    0    0 -0.81262215837E+01  0.37564747024E+02  0.16382024902E+02  0.41779378120E+02  0.00000000000E+00 0. -1.
</event>
<event>
 7    1  0.6184948E-012  0.5930197E+02  0.7816164E-02  0.1266605E+00
        -11   -1    0    0    0    0  0.00000000000E+00  0.00000000000E+00  0.45593999997E+02  0.45594000000E+02  0.51100000000E-03 0.  1.
         11   -1    0    0    0    0 -0.00000000000E+00 -0.00000000000E+00 -0.45593999997E+02  0.45594000000E+02  0.51100000000E-03 0. -1.
    9900012    2    1    2    0    0 -0.28635015767E+02 -0.12236197622E+02 -0.68578701522E+01  0.59301967898E+02  0.50000043533E+02 0.  0.
         12    1    1    2    0    0  0.28635015767E+02  0.12236197622E+02  0.68578701522E+01  0.31886032102E+02  0.00000000000E+00 0. -1.
         11    1    3    3    0    0  0.38885694935E+01 -0.13300393219E+00  0.44415513971E+01  0.59047473973E+01  0.51100000000E-03 0. -1.
        -11    1    3    3    0    0  0.65117624444E+01 -0.32599815874E+00  0.62277608991E+01  0.90163368953E+01  0.51100000000E-03 0.  1.
         12    1    3    3    0    0 -0.39035347705E+02 -0.11777195531E+02 -0.17527182448E+02  0.44380883605E+02  0.00000000000E+00 0. -1.
</event>
<event>
 7    1  0.6184948E-012  0.5930195E+02  0.7816164E-02  0.1266605E+00
        -11   -1    0    0    0    0  0.00000000000E+00  0.00000000000E+00  0.45593999997E+02  0.45594000000E+02  0.51100000000E-03 0.  1.
         11   -1    0    0    0    0 -0.00000000000E+00 -0.00000000000E+00 -0.45593999997E+02  0.45594000000E+02  0.51100000000E-03 0. -1.
    9900012    2    1    2    0    0 -0.26176827105E+02 -0.10582330431E+02  0.14815814192E+02  0.59301947488E+02  0.50000006311E+02 0.  0.
         12    1    1    2    0    0  0.26176827105E+02  0.10582330431E+02 -0.14815814192E+02  0.31886052512E+02  0.00000000000E+00 0. -1.
         11    1    3    3    0    0  0.46478023440E+01  0.66596679753E+00 -0.66633805057E+00  0.47423185324E+01  0.51100000000E-03 0. -1.
        -11    1    3    3    0    0 -0.27476573966E+02 -0.39922545646E+01  0.28177576964E+02  0.39558514346E+02  0.51100000000E-03 0.  1.
         12    1    3    3    0    0 -0.33480554831E+01 -0.72560426638E+01 -0.12695424722E+02  0.15001114610E+02  0.00000000000E+00 0. -1.
</event>
<event>
 7    1  0.6184948E-012  0.5930194E+02  0.7816164E-02  0.1266605E+00
        -11   -1    0    0    0    0  0.00000000000E+00  0.00000000000E+00  0.45593999997E+02  0.45594000000E+02  0.51100000000E-03 0.  1.
         11   -1    0    0    0    0 -0.00000000000E+00 -0.00000000000E+00 -0.45593999997E+02  0.45594000000E+02  0.51100000000E-03 0. -1.
    9900012    2    1    2    0    0  0.26801379356E+02  0.40737642882E+00  0.17269653953E+02  0.59301939745E+02  0.49999992190E+02 0.  0.
         12    1    1    2    0    0 -0.26801379356E+02 -0.40737642882E+00 -0.17269653953E+02  0.31886060255E+02  0.00000000000E+00 0. -1.
         11    1    3    3    0    0  0.76588162713E+01 -0.45186572484E+01 -0.12076165287E+02  0.14996982973E+02  0.51100000000E-03 0. -1.
        -11    1    3    3    0    0  0.18988957528E+01  0.67606667533E+01  0.25624333785E+02  0.26569134390E+02  0.51100000000E-03 0.  1.
         12    1    3    3    0    0  0.17243667332E+02 -0.18346330761E+01  0.37214854543E+01  0.17735822382E+02  0.00000000000E+00 0. -1.
</event>
<event>
 7    1  0.6184948E-012  0.5930194E+02  0.7816164E-02  0.1266605E+00
        -11   -1    0    0    0    0  0.00000000000E+00  0.00000000000E+00  0.45593999997E+02  0.45594000000E+02  0.51100000000E-03 0.  1.
         11   -1    0    0    0    0 -0.00000000000E+00 -0.00000000000E+00 -0.45593999997E+02  0.45594000000E+02  0.51100000000E-03 0. -1.
    9900012    2    1    2    0    0  0.31478045871E+02  0.41385186003E+01  0.29540000493E+01  0.59301939968E+02  0.49999992597E+02 0.  0.
         12    1    1    2    0    0 -0.31478045871E+02 -0.41385186003E+01 -0.29540000493E+01  0.31886060032E+02  0.00000000000E+00 0. -1.
         11    1    3    3    0    0  0.16929207973E+02 -0.31761356311E+01 -0.11920142363E+02  0.20946973871E+02  0.51100000000E-03 0. -1.
        -11    1    3    3    0    0 -0.87248826301E+00 -0.10903556913E+02  0.78842978863E+01  0.13483728807E+02  0.51100000000E-03 0.  1.
         12    1    3    3    0    0  0.15421326161E+02  0.18218211144E+02  0.69898445265E+01  0.24871237291E+02  0.00000000000E+00 0. -1.
</event>
<event>
 7    1  0.6184948E-012  0.5930195E+02  0.7816164E-02  0.1266605E+00
        -11   -1    0    0    0    0  0.00000000000E+00  0.00000000000E+00  0.45593999997E+02  0.45594000000E+02  0.51100000000E-03 0. -1.
         11   -1    0    0    0    0 -0.00000000000E+00 -0.00000000000E+00 -0.45593999997E+02  0.45594000000E+02  0.51100000000E-03 0.  1.
    9900012    2    1    2    0    0  0.19206817765E+02 -0.21532930343E+02  0.13570238025E+02  0.59301948223E+02  0.50000007652E+02 0.  0.
         12    1    1    2    0    0 -0.19206817765E+02  0.21532930343E+02 -0.13570238025E+02  0.31886051777E+02  0.00000000000E+00 0. -1.
         11    1    3    3    0    0  0.13116151278E+02 -0.26048267175E+02 -0.70869568298E+00  0.29172725224E+02  0.51100000000E-03 0. -1.
        -11    1    3    3    0    0 -0.38122397966E+01  0.10533893390E+01 -0.60644743499E+01  0.72402106853E+01  0.51100000000E-03 0.  1.
         12    1    3    3    0    0  0.99029062841E+01  0.34619474923E+01  0.20343408058E+02  0.22889012314E+02  0.00000000000E+00 0. -1.
</event>
<event>
 7    1  0.6184948E-012  0.5930198E+02  0.7816164E-02  0.1266605E+00
        -11   -1    0    0    0    0  0.00000000000E+00  0.00000000000E+00  0.45593999997E+02  0.45594000000E+02  0.51100000000E-03 0. -1.
         11   -1    0    0    0    0 -0.00000000000E+00 -0.00000000000E+00 -0.45593999997E+02  0.45594000000E+02  0.51100000000E-03 0.  1.
    9900012    2    1    2    0    0  0.29968481804E+02  0.12557885020E+01 -0.10818095335E+02  0.59301982796E+02  0.50000070705E+02 0.  0.
         12    1    1    2    0    0 -0.29968481804E+02 -0.12557885020E+01  0.10818095335E+02  0.31886017204E+02  0.00000000000E+00 0. -1.
         11    1    3    3    0    0  0.16783192747E+02 -0.52107857409E+01 -0.10473548678E+02  0.20457836371E+02  0.51100000000E-03 0. -1.
        -11    1    3    3    0    0 -0.54067003888E+01  0.27798266476E+00 -0.13966821903E+02  0.14979379086E+02  0.51100000000E-03 0.  1.
         12    1    3    3    0    0  0.18591989446E+02  0.61885915781E+01  0.13622275246E+02  0.23864767339E+02  0.00000000000E+00 0. -1.
</event>
<event>
 7    1  0.6184948E-012  0.5930197E+02  0.7816164E-02  0.1266605E+00
        -11   -1    0    0    0    0  0.00000000000E+00  0.00000000000E+00  0.45593999997E+02  0.45594000000E+02  0.51100000000E-03 0. -1.
         11   -1    0    0    0    0 -0.00000000000E+00 -0.00000000000E+00 -0.45593999997E+02  0.45594000000E+02  0.51100000000E-03 0.  1.
    9900012    2    1    2    0    0 -0.20016160064E+02 -0.17624579041E+02 -0.17477030830E+02  0.59301967686E+02  0.50000043148E+02 0.  0.
         12    1    1    2    0    0  0.20016160064E+02  0.17624579041E+02  0.17477030830E+02  0.31886032314E+02  0.00000000000E+00 0. -1.
         11    1    3    3    0    0 -0.16489588546E+02 -0.25384151236E+01 -0.40074506272E+01  0.17158372374E+02  0.51100000000E-03 0.  1.
        -11    1    3    3    0    0  0.25577673492E+01  0.78020098688E+01 -0.16340351077E+02  0.18287170514E+02  0.51100000000E-03 0. -1.
         12    1    3    3    0    0 -0.60843388671E+01 -0.22888173787E+02  0.28707708750E+01  0.23856424798E+02  0.00000000000E+00 0. -1.
</event>
<event>
 7    1  0.6184948E-012  0.5930193E+02  0.7816164E-02  0.1266605E+00
        -11   -1    0    0    0    0  0.00000000000E+00  0.00000000000E+00  0.45593999997E+02  0.45594000000E+02  0.51100000000E-03 0.  1.
         11   -1    0    0    0    0 -0.00000000000E+00 -0.00000000000E+00 -0.45593999997E+02  0.45594000000E+02  0.51100000000E-03 0. -1.
    9900012    2    1    2    0    0  0.18934037995E+02  0.12920268299E+02  0.22165068834E+02  0.59301930877E+02  0.49999976016E+02 0.  0.
         12    1    1    2    0    0 -0.18934037995E+02 -0.12920268299E+02 -0.22165068834E+02  0.31886069123E+02  0.00000000000E+00 0. -1.
         11    1    3    3    0    0  0.14245538525E+01  0.41270866943E+01  0.30491407636E+02  0.30802404746E+02  0.51100000000E-03 0. -1.
        -11    1    3    3    0    0  0.51065525345E+01 -0.10387543442E+01  0.54326296609E+01  0.75279050651E+01  0.51100000000E-03 0.  1.
         12    1    3    3    0    0  0.12402931608E+02  0.98319359494E+01 -0.13758968463E+02  0.20971621066E+02  0.00000000000E+00 0. -1.
</event>
<event>
 7    1  0.6184948E-012  0.5930195E+02  0.7816164E-02  0.1266605E+00
        -11   -1    0    0    0    0  0.00000000000E+00  0.00000000000E+00  0.45593999997E+02  0.45594000000E+02  0.51100000000E-03 0.  1.
         11   -1    0    0    0    0 -0.00000000000E+00 -0.00000000000E+00 -0.45593999997E+02  0.45594000000E+02  0.51100000000E-03 0. -1.
    9900012    2    1    2    0    0 -0.56265717833E+01 -0.59934211551E+01  0.30808131151E+02  0.59301947372E+02  0.50000006099E+02 0.  0.
         12    1    1    2    0    0  0.56265717833E+01  0.59934211551E+01 -0.30808131151E+02  0.31886052628E+02  0.00000000000E+00 0. -1.
         11    1    3    3    0    0 -0.99922801863E+01  0.51692388459E+01  0.18369984687E+01  0.11399177918E+02  0.51100000000E-03 0. -1.
        -11    1    3    3    0    0 -0.47840672895E+01  0.95746557136E+01 -0.51004688312E+00  0.10715478522E+02  0.51100000000E-03 0.  1.
        -12    1    3    3    0    0  0.91497756925E+01 -0.20737315715E+02  0.29481179566E+02  0.37187290932E+02  0.00000000000E+00 0.  1.
</event>
<event>
 7    1  0.6184948E-012  0.5930194E+02  0.7816164E-02  0.1266605E+00
        -11   -1    0    0    0    0  0.00000000000E+00  0.00000000000E+00  0.45593999997E+02  0.45594000000E+02  0.51100000000E-03 0. -1.
         11   -1    0    0    0    0 -0.00000000000E+00 -0.00000000000E+00 -0.45593999997E+02  0.45594000000E+02  0.51100000000E-03 0.  1.
    9900012    2    1    2    0    0  0.19700302515E+02 -0.20969713324E+02 -0.13743737772E+02  0.59301935269E+02  0.49999984026E+02 0.  0.
         12    1    1    2    0    0 -0.19700302515E+02  0.20969713324E+02  0.13743737772E+02  0.31886064731E+02  0.00000000000E+00 0. -1.
         11    1    3    3    0    0 -0.38715537134E+00  0.68708324098E+01  0.20857549143E+00  0.68848915229E+01  0.51100000000E-03 0. -1.
        -11    1    3    3    0    0 -0.19460435522E+01 -0.11835093304E+02 -0.21091743819E+02  0.24263515339E+02  0.51100000000E-03 0.  1.
        -12    1    3    3    0    0  0.22033501439E+02 -0.16005452430E+02  0.71394305554E+01  0.28153528407E+02  0.00000000000E+00 0.  1.
</event>
<event>
 7    1  0.6858910E-012  0.5930195E+02  0.7816164E-02  0.1266605E+00
        -11   -1    0    0    0    0  0.00000000000E+00  0.00000000000E+00  0.45593999997E+02  0.45594000000E+02  0.51100000000E-03 0. -1.
         11   -1    0    0    0    0 -0.00000000000E+00 -0.00000000000E+00 -0.45593999997E+02  0.45594000000E+02  0.51100000000E-03 0.  1.
    9900012    2    1    2    0    0  0.12682252234E+02 -0.83751292641E+01 -0.28031020853E+02  0.59301945964E+02  0.50000003531E+02 0.  0.
         12    1    1    2    0    0 -0.12682252234E+02  0.83751292641E+01  0.28031020853E+02  0.31886054036E+02  0.00000000000E+00 0. -1.
         11    1    3    3    0    0  0.52641153448E+01 -0.65683210358E+01  0.86897117566E+01  0.12098133834E+02  0.51100000000E-03 0. -1.
        -11    1    3    3    0    0  0.13301012068E+02 -0.11974396087E+02 -0.22955170140E+02  0.29107437539E+02  0.51100000000E-03 0.  1.
         12    1    3    3    0    0 -0.58828751783E+01  0.10167587859E+02 -0.13765562470E+02  0.18096374591E+02  0.00000000000E+00 0. -1.
</event>
<event>
 7    1  0.6184948E-012  0.5930193E+02  0.7816164E-02  0.1266605E+00
        -11   -1    0    0    0    0  0.00000000000E+00  0.00000000000E+00  0.45593999997E+02  0.45594000000E+02  0.51100000000E-03 0. -1.
         11   -1    0    0    0    0 -0.00000000000E+00 -0.00000000000E+00 -0.45593999997E+02  0.45594000000E+02  0.51100000000E-03 0.  1.
    9900012    2    1    2    0    0  0.43778462951E+00  0.23709044858E+02 -0.21316913275E+02  0.59301933215E+02  0.49999980280E+02 0.  0.
         12    1    1    2    0    0 -0.43778462951E+00 -0.23709044858E+02  0.21316913275E+02  0.31886066785E+02  0.00000000000E+00 0. -1.
         11    1    3    3    0    0 -0.13169783649E+02  0.16135744034E+02 -0.64425879368E+01  0.21801659948E+02  0.51100000000E-03 0. -1.
        -11    1    3    3    0    0 -0.73963694771E+01  0.68241781986E+01 -0.12942143904E+02  0.16394352034E+02  0.51100000000E-03 0.  1.
         12    1    3    3    0    0  0.21003937756E+02  0.74912262553E+00 -0.19321814339E+01  0.21105921232E+02  0.00000000000E+00 0. -1.
</event>
<event>
 7    1  0.6184948E-012  0.5930193E+02  0.7816164E-02  0.1266605E+00
        -11   -1    0    0    0    0  0.00000000000E+00  0.00000000000E+00  0.45593999997E+02  0.45594000000E+02  0.51100000000E-03 0.  1.
         11   -1    0    0    0    0 -0.00000000000E+00 -0.00000000000E+00 -0.45593999997E+02  0.45594000000E+02  0.51100000000E-03 0. -1.
    9900012    2    1    2    0    0 -0.19562625802E+02  0.24772744520E+02 -0.45095572946E+01  0.59301932411E+02  0.49999978814E+02 0.  0.
         12    1    1    2    0    0  0.19562625802E+02 -0.24772744520E+02  0.45095572946E+01  0.31886067589E+02  0.00000000000E+00 0. -1.
         11    1    3    3    0    0 -0.22573386672E+02  0.12438436350E+02 -0.27590009591E+01  0.25920736317E+02  0.51100000000E-03 0. -1.
        -11    1    3    3    0    0 -0.79110155862E+01 -0.27660599208E+00 -0.11573142800E+02  0.14021352039E+02  0.51100000000E-03 0.  1.
        -12    1    3    3    0    0  0.10921776456E+02  0.12610914162E+02  0.98225864647E+01  0.19359844055E+02  0.00000000000E+00 0.  1.
</event>
<event>
 7    1  0.6184948E-012  0.5930195E+02  0.7816164E-02  0.1266605E+00
        -11   -1    0    0    0    0  0.00000000000E+00  0.00000000000E+00  0.45593999997E+02  0.45594000000E+02  0.51100000000E-03 0.  1.
         11   -1    0    0    0    0 -0.00000000000E+00 -0.00000000000E+00 -0.45593999997E+02  0.45594000000E+02  0.51100000000E-03 0. -1.
    9900012    2    1    2    0    0  0.20750536389E+02 -0.21362929203E+02  0.11391257936E+02  0.59301948788E+02  0.50000008682E+02 0.  0.
         12    1    1    2    0    0 -0.20750536389E+02  0.21362929203E+02 -0.11391257936E+02  0.31886051212E+02  0.00000000000E+00 0. -1.
         11    1    3    3    0    0  0.24812969442E+01 -0.12530856798E+02 -0.67056922339E+01  0.14427249052E+02  0.51100000000E-03 0. -1.
        -11    1    3    3    0    0  0.19600162619E+02 -0.19023659739E+02  0.20700326911E+02  0.34271993508E+02  0.51100000000E-03 0.  1.
        -12    1    3    3    0    0 -0.13309231750E+01  0.10191587334E+02 -0.26033767407E+01  0.10602706227E+02  0.00000000000E+00 0.  1.
</event>
<event>
 7    1  0.6184948E-012  0.5930194E+02  0.7816164E-02  0.1266605E+00
        -11   -1    0    0    0    0  0.00000000000E+00  0.00000000000E+00  0.45593999997E+02  0.45594000000E+02  0.51100000000E-03 0. -1.
         11   -1    0    0    0    0 -0.00000000000E+00 -0.00000000000E+00 -0.45593999997E+02  0.45594000000E+02  0.51100000000E-03 0.  1.
    9900012    2    1    2    0    0  0.22888851415E+02  0.16868398370E+02 -0.14431851458E+02  0.59301941617E+02  0.49999995604E+02 0.  0.
         12    1    1    2    0    0 -0.22888851415E+02 -0.16868398370E+02  0.14431851458E+02  0.31886058383E+02  0.00000000000E+00 0. -1.
         11    1    3    3    0    0 -0.66407869997E+01 -0.43756841642E+00  0.73525970452E+01  0.99172678528E+01  0.51100000000E-03 0. -1.
        -11    1    3    3    0    0  0.65898221768E+01  0.18769757395E+02 -0.39270510733E+01  0.20276865620E+02  0.51100000000E-03 0.  1.
        -12    1    3    3    0    0  0.22939816238E+02 -0.14637906084E+01 -0.17857397430E+02  0.29107808144E+02  0.00000000000E+00 0.  1.
</event>
<event>
 7    1  0.6184948E-012  0.5930194E+02  0.7816164E-02  0.1266605E+00
        -11   -1    0    0    0    0  0.00000000000E+00  0.00000000000E+00  0.45593999997E+02  0.45594000000E+02  0.51100000000E-03 0.  1.
         11   -1    0    0    0    0 -0.00000000000E+00 -0.00000000000E+00 -0.45593999997E+02  0.45594000000E+02  0.51100000000E-03 0. -1.
    9900012    2    1    2    0    0 -0.11873770989E+02 -0.77400342316E+01  0.28562670013E+02  0.59301942143E+02  0.49999996563E+02 0.  0.
         12    1    1    2    0    0  0.11873770989E+02  0.77400342316E+01 -0.28562670013E+02  0.31886057857E+02  0.00000000000E+00 0. -1.
         11    1    3    3    0    0 -0.11705465783E+02 -0.60588679724E+01  0.23164546028E+01  0.13382592144E+02  0.51100000000E-03 0. -1.
        -11    1    3    3    0    0  0.20516310787E+00 -0.16848260746E+02  0.25708496367E+02  0.30738132145E+02  0.51100000000E-03 0.  1.
         12    1    3    3    0    0 -0.37346831382E+00  0.15167094487E+02  0.53771904266E+00  0.15181217854E+02  0.00000000000E+00 0. -1.
</event>
<event>
 7    1  0.6184948E-012  0.5930197E+02  0.7816164E-02  0.1266605E+00
        -11   -1    0    0    0    0  0.00000000000E+00  0.00000000000E+00  0.45593999997E+02  0.45594000000E+02  0.51100000000E-03 0.  1.
         11   -1    0    0    0    0 -0.00000000000E+00 -0.00000000000E+00 -0.45593999997E+02  0.45594000000E+02  0.51100000000E-03 0. -1.
    9900012    2    1    2    0    0 -0.56990260581E+01  0.18686666756E+02  0.25200163774E+02  0.59301973802E+02  0.50000054302E+02 0.  0.
         12    1    1    2    0    0  0.56990260581E+01 -0.18686666756E+02 -0.25200163774E+02  0.31886026198E+02  0.00000000000E+00 0. -1.
         11    1    3    3    0    0  0.25625558951E+01  0.13177696028E+02  0.59283067330E+01  0.14675257623E+02  0.51100000000E-03 0. -1.
        -11    1    3    3    0    0  0.13206747202E+02  0.86693585631E+01  0.29664514527E+00  0.15800757835E+02  0.51100000000E-03 0.  1.
         12    1    3    3    0    0 -0.21468329155E+02 -0.31603878355E+01  0.18975211896E+02  0.28825958344E+02  0.00000000000E+00 0. -1.
</event>
<event>
 7    1  0.6184948E-012  0.5930197E+02  0.7816164E-02  0.1266605E+00
        -11   -1    0    0    0    0  0.00000000000E+00  0.00000000000E+00  0.45593999997E+02  0.45594000000E+02  0.51100000000E-03 0. -1.
         11   -1    0    0    0    0 -0.00000000000E+00 -0.00000000000E+00 -0.45593999997E+02  0.45594000000E+02  0.51100000000E-03 0.  1.
    9900012    2    1    2    0    0  0.23826950565E+02  0.21185088095E+02 -0.43255150376E+00  0.59301974352E+02  0.50000055304E+02 0.  0.
         12    1    1    2    0    0 -0.23826950565E+02 -0.21185088095E+02  0.43255150376E+00  0.31886025648E+02  0.00000000000E+00 0. -1.
         11    1    3    3    0    0 -0.49052404676E+01 -0.13532581817E+01  0.43871511610E+01  0.67186149853E+01  0.51100000000E-03 0. -1.
        -11    1    3    3    0    0  0.52891741505E+01  0.23623255462E+02 -0.13310930593E+02  0.27626335901E+02  0.51100000000E-03 0.  1.
        -12    1    3    3    0    0  0.23443016883E+02 -0.10849091852E+01  0.84912279286E+01  0.24957023465E+02  0.00000000000E+00 0.  1.
</event>
<event>
 7    1  0.6184948E-012  0.5930196E+02  0.7816164E-02  0.1266605E+00
        -11   -1    0    0    0    0  0.00000000000E+00  0.00000000000E+00  0.45593999997E+02  0.45594000000E+02  0.51100000000E-03 0. -1.
         11   -1    0    0    0    0 -0.00000000000E+00 -0.00000000000E+00 -0.45593999997E+02  0.45594000000E+02  0.51100000000E-03 0.  1.
    9900012    2    1    2    0    0  0.27028283899E+02 -0.14111980354E+02 -0.93297100500E+01  0.59301959016E+02  0.50000027334E+02 0.  0.
         12    1    1    2    0    0 -0.27028283899E+02  0.14111980354E+02  0.93297100500E+01  0.31886040984E+02  0.00000000000E+00 0. -1.
         11    1    3    3    0    0  0.40672439107E+01  0.81586171588E+01  0.34889839597E+01  0.97610714732E+01  0.51100000000E-03 0. -1.
        -11    1    3    3    0    0  0.10128434304E+02 -0.15226730517E+02  0.11176752203E+02  0.21432645515E+02  0.51100000000E-03 0.  1.
        -12    1    3    3    0    0  0.12832605684E+02 -0.70438669961E+01 -0.23995446213E+02  0.28108242028E+02  0.00000000000E+00 0.  1.
</event>
<event>
 7    1  0.6184948E-012  0.5930194E+02  0.7816164E-02  0.1266605E+00
        -11   -1    0    0    0    0  0.00000000000E+00  0.00000000000E+00  0.45593999997E+02  0.45594000000E+02  0.51100000000E-03 0.  1.
         11   -1    0    0    0    0 -0.00000000000E+00 -0.00000000000E+00 -0.45593999997E+02  0.45594000000E+02  0.51100000000E-03 0. -1.
    9900012    2    1    2    0    0  0.16408242681E+02  0.11157821567E+01 -0.27317493095E+02  0.59301939931E+02  0.49999992529E+02 0.  0.
         12    1    1    2    0    0 -0.16408242681E+02 -0.11157821567E+01  0.27317493095E+02  0.31886060069E+02  0.00000000000E+00 0. -1.
         11    1    3    3    0    0  0.14543501534E+02 -0.62385536222E+01 -0.50834342214E+01  0.16621500893E+02  0.51100000000E-03 0. -1.
        -11    1    3    3    0    0  0.15796466814E+02  0.58806271715E+01 -0.55005894247E+00  0.16864539864E+02  0.51100000000E-03 0.  1.
         12    1    3    3    0    0 -0.13931725667E+02  0.14737086075E+01 -0.21683999932E+02  0.25815899174E+02  0.00000000000E+00 0. -1.
</event>
<event>
 7    1  0.6184948E-012  0.5930191E+02  0.7816164E-02  0.1266605E+00
        -11   -1    0    0    0    0  0.00000000000E+00  0.00000000000E+00  0.45593999997E+02  0.45594000000E+02  0.51100000000E-03 0.  1.
         11   -1    0    0    0    0 -0.00000000000E+00 -0.00000000000E+00 -0.45593999997E+02  0.45594000000E+02  0.51100000000E-03 0. -1.
    9900012    2    1    2    0    0 -0.19438810243E+02  0.74216301742E+01  0.24161433097E+02  0.59301909186E+02  0.49999936458E+02 0.  0.
         12    1    1    2    0    0  0.19438810243E+02 -0.74216301742E+01 -0.24161433097E+02  0.31886090814E+02  0.00000000000E+00 0. -1.
         11    1    3    3    0    0 -0.61228079366E+01 -0.26302830924E+01 -0.33450109188E+01  0.74562902628E+01  0.51100000000E-03 0. -1.
        -11    1    3    3    0    0  0.62677306456E+01  0.53645749309E+01 -0.77013484392E+01  0.11286003707E+02  0.51100000000E-03 0.  1.
        -12    1    3    3    0    0 -0.19583732952E+02  0.46873383357E+01  0.35207792455E+02  0.40559615217E+02  0.00000000000E+00 0.  1.
</event>
<event>
 7    1  0.6184948E-012  0.5930195E+02  0.7816164E-02  0.1266605E+00
        -11   -1    0    0    0    0  0.00000000000E+00  0.00000000000E+00  0.45593999997E+02  0.45594000000E+02  0.51100000000E-03 0.  1.
         11   -1    0    0    0    0 -0.00000000000E+00 -0.00000000000E+00 -0.45593999997E+02  0.45594000000E+02  0.51100000000E-03 0. -1.
    9900012    2    1    2    0    0 -0.14071968501E+02  0.44514502472E+01  0.28264547523E+02  0.59301947352E+02  0.50000006063E+02 0.  0.
         12    1    1    2    0    0  0.14071968501E+02 -0.44514502472E+01 -0.28264547523E+02  0.31886052648E+02  0.00000000000E+00 0. -1.
         11    1    3    3    0    0 -0.90926957062E+01  0.42825865362E+01  0.38956664442E+01  0.10779326507E+02  0.51100000000E-03 0. -1.
        -11    1    3    3    0    0 -0.70817548148E+01  0.57468819662E+00  0.36000816475E+02  0.36695235452E+02  0.51100000000E-03 0.  1.
         12    1    3    3    0    0  0.21024820199E+01 -0.40582448567E+00 -0.11631935396E+02  0.11827385392E+02  0.00000000000E+00 0. -1.
</event>
<event>
 7    1  0.6184948E-012  0.5930193E+02  0.7816164E-02  0.1266605E+00
        -11   -1    0    0    0    0  0.00000000000E+00  0.00000000000E+00  0.45593999997E+02  0.45594000000E+02  0.51100000000E-03 0. -1.
         11   -1    0    0    0    0 -0.00000000000E+00 -0.00000000000E+00 -0.45593999997E+02  0.45594000000E+02  0.51100000000E-03 0.  1.
    9900012    2    1    2    0    0  0.97456162475E+01  0.29714714803E+02  0.62273481144E+01  0.59301934448E+02  0.49999982529E+02 0.  0.
         12    1    1    2    0    0 -0.97456162475E+01 -0.29714714803E+02 -0.62273481144E+01  0.31886065552E+02  0.00000000000E+00 0. -1.
         11    1    3    3    0    0 -0.13184557938E+01 -0.41173695477E+01 -0.83145006284E+00  0.44025409868E+01  0.51100000000E-03 0. -1.
        -11    1    3    3    0    0 -0.81499074864E+01  0.73269219790E+01 -0.12611160809E+02  0.16707667549E+02  0.51100000000E-03 0.  1.
        -12    1    3    3    0    0  0.19213979528E+02  0.26505162371E+02  0.19669958986E+02  0.38191725912E+02  0.00000000000E+00 0.  1.
</event>
<event>
 7    1  0.6184948E-012  0.5930196E+02  0.7816164E-02  0.1266605E+00
        -11   -1    0    0    0    0  0.00000000000E+00  0.00000000000E+00  0.45593999997E+02  0.45594000000E+02  0.51100000000E-03 0.  1.
         11   -1    0    0    0    0 -0.00000000000E+00 -0.00000000000E+00 -0.45593999997E+02  0.45594000000E+02  0.51100000000E-03 0. -1.
    9900012    2    1    2    0    0 -0.69489016962E+01 -0.25278269690E+02  0.18150515234E+02  0.59301962984E+02  0.50000034572E+02 0.  0.
         12    1    1    2    0    0  0.69489016962E+01  0.25278269690E+02 -0.18150515234E+02  0.31886037016E+02  0.00000000000E+00 0. -1.
         11    1    3    3    0    0  0.99303556455E+01  0.33503501860E+01  0.31541477630E+01  0.10944654311E+02  0.51100000000E-03 0. -1.
        -11    1    3    3    0    0  0.66700698591E+01 -0.16714777457E+02  0.12364950527E+02  0.21834963228E+02  0.51100000000E-03 0.  1.
         12    1    3    3    0    0 -0.23549327201E+02 -0.11913842419E+02  0.26314169437E+01  0.26522345445E+02  0.00000000000E+00 0. -1.
</event>
<event>
 7    1  0.6184948E-012  0.5930194E+02  0.7816164E-02  0.1266605E+00
        -11   -1    0    0    0    0  0.00000000000E+00  0.00000000000E+00  0.45593999997E+02  0.45594000000E+02  0.51100000000E-03 0.  1.
         11   -1    0    0    0    0 -0.00000000000E+00 -0.00000000000E+00 -0.45593999997E+02  0.45594000000E+02  0.51100000000E-03 0. -1.
    9900012    2    1    2    0    0  0.15422156330E+02 -0.20714909678E+02  0.18702156715E+02  0.59301936357E+02  0.49999986011E+02 0.  0.
         12    1    1    2    0    0 -0.15422156330E+02  0.20714909678E+02 -0.18702156715E+02  0.31886063643E+02  0.00000000000E+00 0. -1.
         11    1    3    3    0    0 -0.83746068803E+00 -0.10690234260E+02 -0.37904377645E+01  0.11373208327E+02  0.51100000000E-03 0. -1.
        -11    1    3    3    0    0 -0.11297789627E+01  0.96077561139E+01  0.19196141965E+02  0.21495982058E+02  0.51100000000E-03 0.  1.
         12    1    3    3    0    0  0.17389395981E+02 -0.19632431532E+02  0.32964525144E+01  0.26432745972E+02  0.00000000000E+00 0. -1.
</event>
<event>
 7    1  0.6184948E-012  0.5930195E+02  0.7816164E-02  0.1266605E+00
        -11   -1    0    0    0    0  0.00000000000E+00  0.00000000000E+00  0.45593999997E+02  0.45594000000E+02  0.51100000000E-03 0.  1.
         11   -1    0    0    0    0 -0.00000000000E+00 -0.00000000000E+00 -0.45593999997E+02  0.45594000000E+02  0.51100000000E-03 0. -1.
    9900012    2    1    2    0    0  0.28087412130E+02  0.84529028028E+01  0.12504647012E+02  0.59301945324E+02  0.50000002363E+02 0.  0.
         12    1    1    2    0    0 -0.28087412130E+02 -0.84529028028E+01 -0.12504647012E+02  0.31886054676E+02  0.00000000000E+00 0. -1.
         11    1    3    3    0    0  0.76108914199E+01 -0.15058388609E+02 -0.12846124504E+01  0.16921316885E+02  0.51100000000E-03 0. -1.
        -11    1    3    3    0    0  0.16655149719E+01  0.64544830033E+01  0.15558531699E+02  0.16926375862E+02  0.51100000000E-03 0.  1.
         12    1    3    3    0    0  0.18811005738E+02  0.17056808409E+02 -0.17692722363E+01  0.25454252576E+02  0.00000000000E+00 0. -1.
</event>
<event>
 7    1  0.6184948E-012  0.5930194E+02  0.7816164E-02  0.1266605E+00
        -11   -1    0    0    0    0  0.00000000000E+00  0.00000000000E+00  0.45593999997E+02  0.45594000000E+02  0.51100000000E-03 0.  1.
         11   -1    0    0    0    0 -0.00000000000E+00 -0.00000000000E+00 -0.45593999997E+02  0.45594000000E+02  0.51100000000E-03 0. -1.
    9900012    2    1    2    0    0 -0.23443558738E+02  0.28577110782E+01  0.21423211228E+02  0.59301938183E+02  0.49999989340E+02 0.  0.
         12    1    1    2    0    0  0.23443558738E+02 -0.28577110782E+01 -0.21423211228E+02  0.31886061817E+02  0.00000000000E+00 0. -1.
         11    1    3    3    0    0  0.87997479462E+01  0.82108711856E+01  0.11267356473E+02  0.16486579138E+02  0.51100000000E-03 0. -1.
        -11    1    3    3    0    0 -0.15915588649E+01  0.13401658692E+00  0.11535732019E+02  0.11645777498E+02  0.51100000000E-03 0.  1.
        -12    1    3    3    0    0 -0.30651747820E+02 -0.54871766943E+01 -0.13798772642E+01  0.31169581546E+02  0.00000000000E+00 0.  1.
</event>
<event>
 7    1  0.6184948E-012  0.5930189E+02  0.7816164E-02  0.1266605E+00
        -11   -1    0    0    0    0  0.00000000000E+00  0.00000000000E+00  0.45593999997E+02  0.45594000000E+02  0.51100000000E-03 0.  1.
         11   -1    0    0    0    0 -0.00000000000E+00 -0.00000000000E+00 -0.45593999997E+02  0.45594000000E+02  0.51100000000E-03 0. -1.
    9900012    2    1    2    0    0  0.29139606736E+02  0.11088675456E+02  0.66819429662E+01  0.59301893842E+02  0.49999908473E+02 0.  0.
         12    1    1    2    0    0 -0.29139606736E+02 -0.11088675456E+02 -0.66819429662E+01  0.31886106158E+02  0.00000000000E+00 0. -1.
         11    1    3    3    0    0  0.90614477940E+01 -0.37254115015E+01 -0.57728269724E+01  0.11371633941E+02  0.51100000000E-03 0. -1.
        -11    1    3    3    0    0  0.45086411169E+01 -0.12081499211E+02  0.10780718413E+02  0.16808163423E+02  0.51100000000E-03 0.  1.
         12    1    3    3    0    0  0.15569517825E+02  0.26895586168E+02  0.16740515254E+01  0.31122096477E+02  0.00000000000E+00 0. -1.
</event>
<event>
 7    1  0.6184948E-012  0.5930197E+02  0.7816164E-02  0.1266605E+00
        -11   -1    0    0    0    0  0.00000000000E+00  0.00000000000E+00  0.45593999997E+02  0.45594000000E+02  0.51100000000E-03 0.  1.
         11   -1    0    0    0    0 -0.00000000000E+00 -0.00000000000E+00 -0.45593999997E+02  0.45594000000E+02  0.51100000000E-03 0. -1.
    9900012    2    1    2    0    0  0.23874475311E+02 -0.15661815070E+02  0.14192810507E+02  0.59301970257E+02  0.50000047836E+02 0.  0.
         12    1    1    2    0    0 -0.23874475311E+02  0.15661815070E+02 -0.14192810507E+02  0.31886029743E+02  0.00000000000E+00 0. -1.
         11    1    3    3    0    0  0.14915664179E+02 -0.12661453630E+02  0.98905713283E+01  0.21922884103E+02  0.51100000000E-03 0. -1.
        -11    1    3    3    0    0 -0.15534740888E+01 -0.18102004344E+02  0.53770228575E+01  0.18947512187E+02  0.51100000000E-03 0.  1.
         12    1    3    3    0    0  0.10512285221E+02  0.15101642904E+02 -0.10747836784E+01  0.18431573967E+02  0.00000000000E+00 0. -1.
</event>
<event>
 7    1  0.6184948E-012  0.5930195E+02  0.7816164E-02  0.1266605E+00
        -11   -1    0    0    0    0  0.00000000000E+00  0.00000000000E+00  0.45593999997E+02  0.45594000000E+02  0.51100000000E-03 0. -1.
         11   -1    0    0    0    0 -0.00000000000E+00 -0.00000000000E+00 -0.45593999997E+02  0.45594000000E+02  0.51100000000E-03 0.  1.
    9900012    2    1    2    0    0 -0.95328247619E+01  0.28116206086E+02 -0.11632894178E+02  0.59301952587E+02  0.50000015611E+02 0.  0.
         12    1    1    2    0    0  0.95328247619E+01 -0.28116206086E+02  0.11632894178E+02  0.31886047413E+02  0.00000000000E+00 0. -1.
         11    1    3    3    0    0  0.75098416502E+01  0.94266431069E+01 -0.14620201794E+01  0.12140709417E+02  0.51100000000E-03 0. -1.
        -11    1    3    3    0    0 -0.74953008557E+00  0.23267902015E+02  0.56913884659E+01  0.23965578701E+02  0.51100000000E-03 0.  1.
        -12    1    3    3    0    0 -0.16293136327E+02 -0.45783390358E+01 -0.15862262465E+02  0.23195664470E+02  0.00000000000E+00 0.  1.
</event>
<event>
 7    1  0.6184948E-012  0.5930194E+02  0.7816164E-02  0.1266605E+00
        -11   -1    0    0    0    0  0.00000000000E+00  0.00000000000E+00  0.45593999997E+02  0.45594000000E+02  0.51100000000E-03 0.  1.
         11   -1    0    0    0    0 -0.00000000000E+00 -0.00000000000E+00 -0.45593999997E+02  0.45594000000E+02  0.51100000000E-03 0. -1.
    9900012    2    1    2    0    0 -0.44603005784E+00  0.30263792912E+02  0.10031195022E+02  0.59301937562E+02  0.49999988208E+02 0.  0.
         12    1    1    2    0    0  0.44603005784E+00 -0.30263792912E+02 -0.10031195022E+02  0.31886062438E+02  0.00000000000E+00 0. -1.
         11    1    3    3    0    0  0.42732696396E+01 -0.10329115651E+02  0.68773564095E+01  0.13124385509E+02  0.51100000000E-03 0. -1.
        -11    1    3    3    0    0  0.44641115929E+01  0.38669566437E+01  0.57357593130E+01  0.82328962799E+01  0.51100000000E-03 0.  1.
        -12    1    3    3    0    0 -0.91834112904E+01  0.36725951919E+02 -0.25819207004E+01  0.37944655774E+02  0.00000000000E+00 0.  1.
</event>
<event>
 7    1  0.6184948E-012  0.5930192E+02  0.7816164E-02  0.1266605E+00
        -11   -1    0    0    0    0  0.00000000000E+00  0.00000000000E+00  0.45593999997E+02  0.45594000000E+02  0.51100000000E-03 0.  1.
         11   -1    0    0    0    0 -0.00000000000E+00 -0.00000000000E+00 -0.45593999997E+02  0.45594000000E+02  0.51100000000E-03 0. -1.
    9900012    2    1    2    0    0  0.17021585044E+02 -0.46724982509E+01  0.26554766128E+02  0.59301918375E+02  0.49999953215E+02 0.  0.
         12    1    1    2    0    0 -0.17021585044E+02  0.46724982509E+01 -0.26554766128E+02  0.31886081625E+02  0.00000000000E+00 0. -1.
         11    1    3    3    0    0  0.17992591221E+02 -0.38965900501E+00 -0.34568909632E+01  0.18325808806E+02  0.51100000000E-03 0. -1.
        -11    1    3    3    0    0  0.54050197245E+01 -0.82227208156E+01 -0.20655505009E+00  0.98422579261E+01  0.51100000000E-03 0.  1.
        -12    1    3    3    0    0 -0.63760259021E+01  0.39398815698E+01  0.30218212141E+02  0.31133851643E+02  0.00000000000E+00 0.  1.
</event>
<event>
 7    1  0.6184948E-012  0.5930193E+02  0.7816164E-02  0.1266605E+00
        -11   -1    0    0    0    0  0.00000000000E+00  0.00000000000E+00  0.45593999997E+02  0.45594000000E+02  0.51100000000E-03 0.  1.
         11   -1    0    0    0    0 -0.00000000000E+00 -0.00000000000E+00 -0.45593999997E+02  0.45594000000E+02  0.51100000000E-03 0. -1.
    9900012    2    1    2    0    0 -0.15389653243E+02 -0.35201326849E+01  0.27703582878E+02  0.59301933054E+02  0.49999979986E+02 0.  0.
         12    1    1    2    0    0  0.15389653243E+02  0.35201326849E+01 -0.27703582878E+02  0.31886066946E+02  0.00000000000E+00 0. -1.
         11    1    3    3    0    0  0.56005661876E+01  0.17963293701E+02  0.92592885876E+01  0.20970948658E+02  0.51100000000E-03 0. -1.
        -11    1    3    3    0    0  0.17527947714E+01 -0.35327017412E+01 -0.75082369868E-01  0.39443514963E+01  0.51100000000E-03 0.  1.
         12    1    3    3    0    0 -0.22743014202E+02 -0.17950724645E+02  0.18519376660E+02  0.34386632899E+02  0.00000000000E+00 0. -1.
</event>
<event>
 7    1  0.6184948E-012  0.5930197E+02  0.7816164E-02  0.1266605E+00
        -11   -1    0    0    0    0  0.00000000000E+00  0.00000000000E+00  0.45593999997E+02  0.45594000000E+02  0.51100000000E-03 0.  1.
         11   -1    0    0    0    0 -0.00000000000E+00 -0.00000000000E+00 -0.45593999997E+02  0.45594000000E+02  0.51100000000E-03 0. -1.
    9900012    2    1    2    0    0 -0.10101319224E+02 -0.24018053455E+02  0.18379750298E+02  0.59301972295E+02  0.50000051552E+02 0.  0.
         12    1    1    2    0    0  0.10101319224E+02  0.24018053455E+02 -0.18379750298E+02  0.31886027705E+02  0.00000000000E+00 0. -1.
         11    1    3    3    0    0 -0.42598397083E+00  0.30684548384E+01 -0.78333965145E+01  0.84237152524E+01  0.51100000000E-03 0. -1.
        -11    1    3    3    0    0  0.11032180669E+02 -0.14830117505E+02  0.16998055044E+02  0.25111257855E+02  0.51100000000E-03 0.  1.
        -12    1    3    3    0    0 -0.20707515922E+02 -0.12256390788E+02  0.92150917685E+01  0.25766999187E+02  0.00000000000E+00 0.  1.
</event>
<event>
 7    1  0.6184948E-012  0.5930197E+02  0.7816164E-02  0.1266605E+00
        -11   -1    0    0    0    0  0.00000000000E+00  0.00000000000E+00  0.45593999997E+02  0.45594000000E+02  0.51100000000E-03 0. -1.
         11   -1    0    0    0    0 -0.00000000000E+00 -0.00000000000E+00 -0.45593999997E+02  0.45594000000E+02  0.51100000000E-03 0.  1.
    9900012    2    1    2    0    0  0.12845619864E+02 -0.29151181925E+02  0.13847450155E+01  0.59301970519E+02  0.50000048314E+02 0.  0.
         12    1    1    2    0    0 -0.12845619864E+02  0.29151181925E+02 -0.13847450155E+01  0.31886029481E+02  0.00000000000E+00 0. -1.
         11    1    3    3    0    0 -0.53207165696E+00 -0.15852831262E+02  0.29589260199E+01  0.16135383563E+02  0.51100000000E-03 0. -1.
        -11    1    3    3    0    0 -0.61389541719E+01 -0.13340095946E+02  0.12353465859E+02  0.19189920197E+02  0.51100000000E-03 0.  1.
        -12    1    3    3    0    0  0.19516645693E+02  0.41745282810E-01 -0.13927646863E+02  0.23976666760E+02  0.00000000000E+00 0.  1.
</event>
<event>
 7    1  0.6184948E-012  0.5930194E+02  0.7816164E-02  0.1266605E+00
        -11   -1    0    0    0    0  0.00000000000E+00  0.00000000000E+00  0.45593999997E+02  0.45594000000E+02  0.51100000000E-03 0.  1.
         11   -1    0    0    0    0 -0.00000000000E+00 -0.00000000000E+00 -0.45593999997E+02  0.45594000000E+02  0.51100000000E-03 0. -1.
    9900012    2    1    2    0    0 -0.15732173106E+02 -0.59770305109E+01  0.27083104064E+02  0.59301942073E+02  0.49999996435E+02 0.  0.
         12    1    1    2    0    0  0.15732173106E+02  0.59770305109E+01 -0.27083104064E+02  0.31886057927E+02  0.00000000000E+00 0. -1.
         11    1    3    3    0    0  0.28199756478E+01 -0.62540098060E+00 -0.27781236104E+01  0.40076626725E+01  0.51100000000E-03 0. -1.
        -11    1    3    3    0    0 -0.51595308891E+01  0.16070394852E+02  0.95732554651E+00  0.16905467227E+02  0.51100000000E-03 0.  1.
         12    1    3    3    0    0 -0.13392617865E+02 -0.21422024382E+02  0.28903902128E+02  0.38388812174E+02  0.00000000000E+00 0. -1.
</event>
<event>
 7    1  0.6184948E-012  0.5930196E+02  0.7816164E-02  0.1266605E+00
        -11   -1    0    0    0    0  0.00000000000E+00  0.00000000000E+00  0.45593999997E+02  0.45594000000E+02  0.51100000000E-03 0.  1.
         11   -1    0    0    0    0 -0.00000000000E+00 -0.00000000000E+00 -0.45593999997E+02  0.45594000000E+02  0.51100000000E-03 0. -1.
    9900012    2    1    2    0    0  0.23992033239E+02  0.14992899546E+02  0.14707636909E+02  0.59301964198E+02  0.50000036785E+02 0.  0.
         12    1    1    2    0    0 -0.23992033239E+02 -0.14992899546E+02 -0.14707636909E+02  0.31886035802E+02  0.00000000000E+00 0. -1.
         11    1    3    3    0    0  0.87937095193E+01  0.24688089435E+01  0.60472933644E+00  0.91536901051E+01  0.51100000000E-03 0. -1.
        -11    1    3    3    0    0  0.25832405702E+01  0.11352284841E+01  0.28032247470E+02  0.28173902357E+02  0.51100000000E-03 0.  1.
         12    1    3    3    0    0  0.12615083150E+02  0.11388862118E+02 -0.13929339897E+02  0.21974371736E+02  0.00000000000E+00 0. -1.
</event>
<event>
 7    1  0.6184948E-012  0.5930195E+02  0.7816164E-02  0.1266605E+00
        -11   -1    0    0    0    0  0.00000000000E+00  0.00000000000E+00  0.45593999997E+02  0.45594000000E+02  0.51100000000E-03 0.  1.
         11   -1    0    0    0    0 -0.00000000000E+00 -0.00000000000E+00 -0.45593999997E+02  0.45594000000E+02  0.51100000000E-03 0. -1.
    9900012    2    1    2    0    0 -0.18171197830E+02 -0.25012174843E+02 -0.78050585107E+01  0.59301948828E+02  0.50000008755E+02 0.  0.
         12    1    1    2    0    0  0.18171197830E+02  0.25012174843E+02  0.78050585107E+01  0.31886051172E+02  0.00000000000E+00 0. -1.
         11    1    3    3    0    0 -0.59277294299E+01 -0.98445123901E+01 -0.14602307143E+02  0.18581705373E+02  0.51100000000E-03 0. -1.
        -11    1    3    3    0    0 -0.23300870406E+01 -0.25606857156E+02  0.52276058415E+01  0.26238679504E+02  0.51100000000E-03 0.  1.
         12    1    3    3    0    0 -0.99133813590E+01  0.10439194702E+02  0.15696427912E+01  0.14481563952E+02  0.00000000000E+00 0. -1.
</event>
<event>
 7    1  0.6184948E-012  0.5930200E+02  0.7816164E-02  0.1266605E+00
        -11   -1    0    0    0    0  0.00000000000E+00  0.00000000000E+00  0.45593999997E+02  0.45594000000E+02  0.51100000000E-03 0.  1.
         11   -1    0    0    0    0 -0.00000000000E+00 -0.00000000000E+00 -0.45593999997E+02  0.45594000000E+02  0.51100000000E-03 0. -1.
    9900012    2    1    2    0    0 -0.10089496851E+02 -0.27985538826E+02 -0.11477305387E+02  0.59302001991E+02  0.50000105711E+02 0.  0.
         12    1    1    2    0    0  0.10089496851E+02  0.27985538826E+02  0.11477305387E+02  0.31885998009E+02  0.00000000000E+00 0. -1.
         11    1    3    3    0    0  0.93635930893E+01 -0.28897245981E+01  0.52591141384E+01  0.11121405737E+02  0.51100000000E-03 0. -1.
        -11    1    3    3    0    0  0.38220518053E+01  0.38378569184E+01 -0.86043038839E+01  0.10167166337E+02  0.51100000000E-03 0.  1.
        -12    1    3    3    0    0 -0.23275141745E+02 -0.28933671146E+02 -0.81321156411E+01  0.38013429917E+02  0.00000000000E+00 0.  1.
</event>
<event>
 7    1  0.6184948E-012  0.5930195E+02  0.7816164E-02  0.1266605E+00
        -11   -1    0    0    0    0  0.00000000000E+00  0.00000000000E+00  0.45593999997E+02  0.45594000000E+02  0.51100000000E-03 0. -1.
         11   -1    0    0    0    0 -0.00000000000E+00 -0.00000000000E+00 -0.45593999997E+02  0.45594000000E+02  0.51100000000E-03 0.  1.
    9900012    2    1    2    0    0 -0.91025474438E+01  0.23963610200E+02  0.18963367853E+02  0.59301948126E+02  0.50000007474E+02 0.  0.
         12    1    1    2    0    0  0.91025474438E+01 -0.23963610200E+02 -0.18963367853E+02  0.31886051874E+02  0.00000000000E+00 0. -1.
         11    1    3    3    0    0 -0.72053109078E+01  0.52042572865E+01  0.11298296556E+02  0.14375406238E+02  0.51100000000E-03 0.  1.
        -11    1    3    3    0    0  0.61685078922E+01 -0.11386958800E+02  0.37025273604E+01  0.13469299516E+02  0.51100000000E-03 0. -1.
         12    1    3    3    0    0 -0.80657444282E+01  0.30146311714E+02  0.39625439363E+01  0.31457242371E+02  0.00000000000E+00 0. -1.
</event>
<event>
 7    1  0.6184948E-012  0.5930207E+02  0.7816164E-02  0.1266604E+00
        -11   -1    0    0    0    0  0.00000000000E+00  0.00000000000E+00  0.45593999997E+02  0.45594000000E+02  0.51100000000E-03 0. -1.
         11   -1    0    0    0    0 -0.00000000000E+00 -0.00000000000E+00 -0.45593999997E+02  0.45594000000E+02  0.51100000000E-03 0.  1.
    9900012    2    1    2    0    0 -0.29856431714E+02  0.15256996280E+01  0.11089565502E+02  0.59302066783E+02  0.50000223876E+02 0.  0.
         12    1    1    2    0    0  0.29856431714E+02 -0.15256996280E+01 -0.11089565502E+02  0.31885933217E+02  0.00000000000E+00 0. -1.
         11    1    3    3    0    0  0.85694724128E+00 -0.20757790057E+01 -0.13808107981E+00  0.22499519329E+01  0.51100000000E-03 0. -1.
        -11    1    3    3    0    0 -0.31609785654E+02 -0.98243821661E+01 -0.75496736337E+01  0.33951356472E+02  0.51100000000E-03 0.  1.
        -12    1    3    3    0    0  0.89640669825E+00  0.13425860800E+02  0.18777320216E+02  0.23100758379E+02  0.00000000000E+00 0.  1.
</event>
<event>
 7    1  0.6184948E-012  0.5930194E+02  0.7816164E-02  0.1266605E+00
        -11   -1    0    0    0    0  0.00000000000E+00  0.00000000000E+00  0.45593999997E+02  0.45594000000E+02  0.51100000000E-03 0. -1.
         11   -1    0    0    0    0 -0.00000000000E+00 -0.00000000000E+00 -0.45593999997E+02  0.45594000000E+02  0.51100000000E-03 0.  1.
    9900012    2    1    2    0    0  0.25041921413E+02 -0.68642402831E+01 -0.18506892437E+02  0.59301942069E+02  0.49999996428E+02 0.  0.
         12    1    1    2    0    0 -0.25041921413E+02  0.68642402831E+01  0.18506892437E+02  0.31886057931E+02  0.00000000000E+00 0. -1.
         11    1    3    3    0    0  0.14331145776E+02  0.39848953876E+01 -0.12881823713E+01  0.14930523922E+02  0.51100000000E-03 0. -1.
        -11    1    3    3    0    0  0.58945870555E+01  0.36767312800E+01 -0.25873605995E+02  0.26790072730E+02  0.51100000000E-03 0.  1.
         12    1    3    3    0    0  0.48161885813E+01 -0.14525866951E+02  0.86548959290E+01  0.17581345417E+02  0.00000000000E+00 0. -1.
</event>
<event>
 7    1  0.6184948E-012  0.5930195E+02  0.7816164E-02  0.1266605E+00
        -11   -1    0    0    0    0  0.00000000000E+00  0.00000000000E+00  0.45593999997E+02  0.45594000000E+02  0.51100000000E-03 0.  1.
         11   -1    0    0    0    0 -0.00000000000E+00 -0.00000000000E+00 -0.45593999997E+02  0.45594000000E+02  0.51100000000E-03 0. -1.
    9900012    2    1    2    0    0  0.13344047972E+02 -0.95435532395E+01  0.27341860166E+02  0.59301947531E+02  0.50000006390E+02 0.  0.
         12    1    1    2    0    0 -0.13344047972E+02  0.95435532395E+01 -0.27341860166E+02  0.31886052469E+02  0.00000000000E+00 0. -1.
         11    1    3    3    0    0 -0.80965768616E+01 -0.81957994228E+00  0.11873749884E+02  0.14394867305E+02  0.51100000000E-03 0. -1.
        -11    1    3    3    0    0  0.10109054411E+02 -0.12789329958E+02  0.24797750445E+02  0.29676394142E+02  0.51100000000E-03 0.  1.
         12    1    3    3    0    0  0.11331570422E+02  0.40653566607E+01 -0.93296401637E+01  0.15230686084E+02  0.00000000000E+00 0. -1.
</event>
<event>
 7    1  0.6184948E-012  0.5930196E+02  0.7816164E-02  0.1266605E+00
        -11   -1    0    0    0    0  0.00000000000E+00  0.00000000000E+00  0.45593999997E+02  0.45594000000E+02  0.51100000000E-03 0. -1.
         11   -1    0    0    0    0 -0.00000000000E+00 -0.00000000000E+00 -0.45593999997E+02  0.45594000000E+02  0.51100000000E-03 0.  1.
    9900012    2    1    2    0    0  0.31409110397E+01  0.15106189035E+02 -0.27904435115E+02  0.59301956526E+02  0.50000022794E+02 0.  0.
         12    1    1    2    0    0 -0.31409110397E+01 -0.15106189035E+02  0.27904435115E+02  0.31886043474E+02  0.00000000000E+00 0. -1.
         11    1    3    3    0    0  0.18816111878E+02 -0.29381683951E+01 -0.11067419206E+02  0.22026499220E+02  0.51100000000E-03 0. -1.
        -11    1    3    3    0    0 -0.82542689229E+01 -0.27923290844E+01 -0.11664653434E+02  0.14560020507E+02  0.51100000000E-03 0.  1.
         12    1    3    3    0    0 -0.74209319159E+01  0.20836686515E+02 -0.51723624745E+01  0.22715436799E+02  0.00000000000E+00 0. -1.
</event>
<event>
 7    1  0.6184948E-012  0.5930195E+02  0.7816164E-02  0.1266605E+00
        -11   -1    0    0    0    0  0.00000000000E+00  0.00000000000E+00  0.45593999997E+02  0.45594000000E+02  0.51100000000E-03 0. -1.
         11   -1    0    0    0    0 -0.00000000000E+00 -0.00000000000E+00 -0.45593999997E+02  0.45594000000E+02  0.51100000000E-03 0.  1.
    9900012    2    1    2    0    0 -0.21973176047E+02 -0.22489600635E+02 -0.53025815416E+01  0.59301953313E+02  0.50000016934E+02 0.  0.
         12    1    1    2    0    0  0.21973176047E+02  0.22489600635E+02  0.53025815416E+01  0.31886046687E+02  0.00000000000E+00 0. -1.
         11    1    3    3    0    0 -0.17153735694E+02 -0.12851320672E+02  0.10889390131E+02  0.24041337503E+02  0.51100000000E-03 0. -1.
        -11    1    3    3    0    0 -0.16893243538E+02 -0.55730631933E+01 -0.54740158117E+01  0.18611973565E+02  0.51100000000E-03 0.  1.
        -12    1    3    3    0    0  0.12073803186E+02 -0.40652167705E+01 -0.10717955861E+02  0.16648642245E+02  0.00000000000E+00 0.  1.
</event>
<event>
 7    1  0.6184948E-012  0.5930194E+02  0.7816164E-02  0.1266605E+00
        -11   -1    0    0    0    0  0.00000000000E+00  0.00000000000E+00  0.45593999997E+02  0.45594000000E+02  0.51100000000E-03 0.  1.
         11   -1    0    0    0    0 -0.00000000000E+00 -0.00000000000E+00 -0.45593999997E+02  0.45594000000E+02  0.51100000000E-03 0. -1.
    9900012    2    1    2    0    0  0.17337629914E+02  0.20775563140E+02  0.16867236396E+02  0.59301935670E+02  0.49999984757E+02 0.  0.
         12    1    1    2    0    0 -0.17337629914E+02 -0.20775563140E+02 -0.16867236396E+02  0.31886064330E+02  0.00000000000E+00 0. -1.
         11    1    3    3    0    0  0.26910800014E+02 -0.31662761062E+01  0.96969719501E+01  0.28779293373E+02  0.51100000000E-03 0. -1.
        -11    1    3    3    0    0  0.27152618823E+01  0.33077306049E+01  0.47367075884E+01  0.63835826840E+01  0.51100000000E-03 0.  1.
        -12    1    3    3    0    0 -0.12288431983E+02  0.20634108641E+02  0.24335568574E+01  0.24139059613E+02  0.00000000000E+00 0.  1.
</event>
<event>
 7    1  0.6184948E-012  0.5930194E+02  0.7816164E-02  0.1266605E+00
        -11   -1    0    0    0    0  0.00000000000E+00  0.00000000000E+00  0.45593999997E+02  0.45594000000E+02  0.51100000000E-03 0.  1.
         11   -1    0    0    0    0 -0.00000000000E+00 -0.00000000000E+00 -0.45593999997E+02  0.45594000000E+02  0.51100000000E-03 0. -1.
    9900012    2    1    2    0    0 -0.24801544513E+02  0.12040570299E+01  0.20003856230E+02  0.59301943053E+02  0.49999998223E+02 0.  0.
         12    1    1    2    0    0  0.24801544513E+02 -0.12040570299E+01 -0.20003856230E+02  0.31886056947E+02  0.00000000000E+00 0. -1.
         11    1    3    3    0    0 -0.16218754130E+02  0.37984941866E+01  0.15086455590E+02  0.22473933481E+02  0.51100000000E-03 0. -1.
        -11    1    3    3    0    0 -0.17554300039E+01  0.52741038816E+00  0.19945277443E+02  0.20029323223E+02  0.51100000000E-03 0.  1.
         12    1    3    3    0    0 -0.68273603792E+01 -0.31218475448E+01 -0.15027876803E+02  0.16798686349E+02  0.00000000000E+00 0. -1.
</event>
<event>
 7    1  0.6184948E-012  0.5930208E+02  0.7816164E-02  0.1266604E+00
        -11   -1    0    0    0    0  0.00000000000E+00  0.00000000000E+00  0.45593999997E+02  0.45594000000E+02  0.51100000000E-03 0. -1.
         11   -1    0    0    0    0 -0.00000000000E+00 -0.00000000000E+00 -0.45593999997E+02  0.45594000000E+02  0.51100000000E-03 0.  1.
    9900012    2    1    2    0    0 -0.55259121555E+01  0.59813609597E+01 -0.30828551770E+02  0.59302078525E+02  0.50000245290E+02 0.  0.
         12    1    1    2    0    0  0.55259121555E+01 -0.59813609597E+01  0.30828551770E+02  0.31885921475E+02  0.00000000000E+00 0. -1.
         11    1    3    3    0    0  0.82338947657E+01  0.27685653221E+01  0.57327358514E+01  0.10407989122E+02  0.51100000000E-03 0. -1.
        -11    1    3    3    0    0 -0.37274089153E+01 -0.29760310416E+00  0.48593299439E+01  0.61314951353E+01  0.51100000000E-03 0.  1.
        -12    1    3    3    0    0 -0.10032398006E+02  0.35103987418E+01 -0.41420617565E+02  0.42762594268E+02  0.00000000000E+00 0.  1.
</event>
<event>
 7    1  0.6184948E-012  0.5930194E+02  0.7816164E-02  0.1266605E+00
        -11   -1    0    0    0    0  0.00000000000E+00  0.00000000000E+00  0.45593999997E+02  0.45594000000E+02  0.51100000000E-03 0.  1.
         11   -1    0    0    0    0 -0.00000000000E+00 -0.00000000000E+00 -0.45593999997E+02  0.45594000000E+02  0.51100000000E-03 0. -1.
    9900012    2    1    2    0    0  0.40970566874E+01  0.17102698334E+02  0.26597603550E+02  0.59301942256E+02  0.49999996769E+02 0.  0.
         12    1    1    2    0    0 -0.40970566874E+01 -0.17102698334E+02 -0.26597603550E+02  0.31886057744E+02  0.00000000000E+00 0. -1.
         11    1    3    3    0    0 -0.10881183506E+02 -0.66124323772E+01  0.11866259424E+02  0.17404957036E+02  0.51100000000E-03 0. -1.
        -11    1    3    3    0    0  0.19267373354E+02  0.54558290450E+01  0.10730438840E+02  0.22718716171E+02  0.51100000000E-03 0.  1.
         12    1    3    3    0    0 -0.42891331597E+01  0.18259301666E+02  0.40009052867E+01  0.19178269049E+02  0.00000000000E+00 0. -1.
</event>
<event>
 7    1  0.6184948E-012  0.5930197E+02  0.7816164E-02  0.1266605E+00
        -11   -1    0    0    0    0  0.00000000000E+00  0.00000000000E+00  0.45593999997E+02  0.45594000000E+02  0.51100000000E-03 0.  1.
         11   -1    0    0    0    0 -0.00000000000E+00 -0.00000000000E+00 -0.45593999997E+02  0.45594000000E+02  0.51100000000E-03 0. -1.
    9900012    2    1    2    0    0 -0.20147480569E+02  0.83345286568E+01  0.23266572245E+02  0.59301972884E+02  0.50000052627E+02 0.  0.
         12    1    1    2    0    0  0.20147480569E+02 -0.83345286568E+01 -0.23266572245E+02  0.31886027116E+02  0.00000000000E+00 0. -1.
         11    1    3    3    0    0 -0.21491564317E+02 -0.21188374456E+00  0.11567664551E+02  0.24407849044E+02  0.51100000000E-03 0. -1.
        -11    1    3    3    0    0 -0.10176234810E+02 -0.61004956641E+01 -0.16398124406E+01  0.11977511735E+02  0.51100000000E-03 0.  1.
         12    1    3    3    0    0  0.11520318559E+02  0.14646908065E+02  0.13338720135E+02  0.22916612106E+02  0.00000000000E+00 0. -1.
</event>
<event>
 7    1  0.6184948E-012  0.5930194E+02  0.7816164E-02  0.1266605E+00
        -11   -1    0    0    0    0  0.00000000000E+00  0.00000000000E+00  0.45593999997E+02  0.45594000000E+02  0.51100000000E-03 0.  1.
         11   -1    0    0    0    0 -0.00000000000E+00 -0.00000000000E+00 -0.45593999997E+02  0.45594000000E+02  0.51100000000E-03 0. -1.
    9900012    2    1    2    0    0 -0.28890029033E+02 -0.12982224084E+02 -0.36808924829E+01  0.59301938952E+02  0.49999990743E+02 0.  0.
         12    1    1    2    0    0  0.28890029033E+02  0.12982224084E+02  0.36808924829E+01  0.31886061048E+02  0.00000000000E+00 0. -1.
         11    1    3    3    0    0  0.68533664555E+00  0.63581024065E+00 -0.11152779170E+02  0.11191891014E+02  0.51100000000E-03 0. -1.
        -11    1    3    3    0    0 -0.27120875442E+02  0.28309207697E+01  0.13491248201E+02  0.30423178260E+02  0.51100000000E-03 0.  1.
         12    1    3    3    0    0 -0.24544902364E+01 -0.16448955094E+02 -0.60193615130E+01  0.17686869679E+02  0.00000000000E+00 0. -1.
</event>
<event>
 7    1  0.6184948E-012  0.5930193E+02  0.7816164E-02  0.1266605E+00
        -11   -1    0    0    0    0  0.00000000000E+00  0.00000000000E+00  0.45593999997E+02  0.45594000000E+02  0.51100000000E-03 0.  1.
         11   -1    0    0    0    0 -0.00000000000E+00 -0.00000000000E+00 -0.45593999997E+02  0.45594000000E+02  0.51100000000E-03 0. -1.
    9900012    2    1    2    0    0 -0.77305474844E+01  0.26730787303E+02  0.15570006055E+02  0.59301930271E+02  0.49999974911E+02 0.  0.
         12    1    1    2    0    0  0.77305474844E+01 -0.26730787303E+02 -0.15570006055E+02  0.31886069729E+02  0.00000000000E+00 0. -1.
         11    1    3    3    0    0  0.46817533304E+01  0.92486392016E+01 -0.36672033330E+01  0.10995659229E+02  0.51100000000E-03 0. -1.
        -11    1    3    3    0    0  0.93916599884E+01  0.11961882636E+02 -0.42455717590E+01  0.15789705297E+02  0.51100000000E-03 0.  1.
        -12    1    3    3    0    0 -0.21803960803E+02  0.55202654653E+01  0.23482781147E+02  0.32516565746E+02  0.00000000000E+00 0.  1.
</event>
<event>
 7    1  0.6184948E-012  0.5930199E+02  0.7816164E-02  0.1266605E+00
        -11   -1    0    0    0    0  0.00000000000E+00  0.00000000000E+00  0.45593999997E+02  0.45594000000E+02  0.51100000000E-03 0. -1.
         11   -1    0    0    0    0 -0.00000000000E+00 -0.00000000000E+00 -0.45593999997E+02  0.45594000000E+02  0.51100000000E-03 0.  1.
    9900012    2    1    2    0    0  0.28834479337E+02 -0.12550848651E+02  0.52693842431E+01  0.59301993496E+02  0.50000090218E+02 0.  0.
         12    1    1    2    0    0 -0.28834479337E+02  0.12550848651E+02 -0.52693842431E+01  0.31886006504E+02  0.00000000000E+00 0. -1.
         11    1    3    3    0    0 -0.41329818466E+01 -0.98503667078E+01 -0.64770815440E+01  0.12492551733E+02  0.51100000000E-03 0. -1.
        -11    1    3    3    0    0  0.64641946863E+01 -0.13036073440E+02  0.11191298566E+02  0.18356747738E+02  0.51100000000E-03 0.  1.
        -12    1    3    3    0    0  0.26503266497E+02  0.10335591497E+02  0.55516722126E+00  0.28452694024E+02  0.00000000000E+00 0.  1.
</event>
<event>
 7    1  0.6184948E-012  0.5930187E+02  0.7816164E-02  0.1266605E+00
        -11   -1    0    0    0    0  0.00000000000E+00  0.00000000000E+00  0.45593999997E+02  0.45594000000E+02  0.51100000000E-03 0.  1.
         11   -1    0    0    0    0 -0.00000000000E+00 -0.00000000000E+00 -0.45593999997E+02  0.45594000000E+02  0.51100000000E-03 0. -1.
    9900012    2    1    2    0    0 -0.20335760245E+01  0.12234995331E+02  0.29375067557E+02  0.59301872355E+02  0.49999869286E+02 0.  0.
         12    1    1    2    0    0  0.20335760245E+01 -0.12234995331E+02 -0.29375067557E+02  0.31886127645E+02  0.00000000000E+00 0. -1.
         11    1    3    3    0    0  0.13575075943E+02  0.41619470109E+01  0.10040699371E+02  0.17390230991E+02  0.51100000000E-03 0. -1.
        -11    1    3    3    0    0  0.33806488899E+01  0.33996161688E+01  0.21690714863E+02  0.22214258676E+02  0.51100000000E-03 0.  1.
        -12    1    3    3    0    0 -0.18989300857E+02  0.46734321518E+01 -0.23563466771E+01  0.19697382689E+02  0.00000000000E+00 0.  1.
</event>
<event>
 7    1  0.6184948E-012  0.5930195E+02  0.7816164E-02  0.1266605E+00
        -11   -1    0    0    0    0  0.00000000000E+00  0.00000000000E+00  0.45593999997E+02  0.45594000000E+02  0.51100000000E-03 0.  1.
         11   -1    0    0    0    0 -0.00000000000E+00 -0.00000000000E+00 -0.45593999997E+02  0.45594000000E+02  0.51100000000E-03 0. -1.
    9900012    2    1    2    0    0  0.44559451484E+01 -0.31319330853E+02 -0.39955155599E+01  0.59301951690E+02  0.50000013975E+02 0.  0.
         12    1    1    2    0    0 -0.44559451484E+01  0.31319330853E+02  0.39955155599E+01  0.31886048310E+02  0.00000000000E+00 0. -1.
         11    1    3    3    0    0 -0.19860891237E+01 -0.63737954194E+01  0.91845569055E+01  0.11354554323E+02  0.51100000000E-03 0. -1.
        -11    1    3    3    0    0  0.79694260223E+01 -0.11107734730E+01  0.11217819545E+02  0.13805254233E+02  0.51100000000E-03 0.  1.
         12    1    3    3    0    0 -0.15273917502E+01 -0.23834761960E+02 -0.24397892011E+02  0.34142143134E+02  0.00000000000E+00 0. -1.
</event>
<event>
 7    1  0.6184948E-012  0.5930195E+02  0.7816164E-02  0.1266605E+00
        -11   -1    0    0    0    0  0.00000000000E+00  0.00000000000E+00  0.45593999997E+02  0.45594000000E+02  0.51100000000E-03 0. -1.
         11   -1    0    0    0    0 -0.00000000000E+00 -0.00000000000E+00 -0.45593999997E+02  0.45594000000E+02  0.51100000000E-03 0.  1.
    9900012    2    1    2    0    0  0.19277585133E+02  0.13965327842E+02 -0.21214728425E+02  0.59301947055E+02  0.50000005521E+02 0.  0.
         12    1    1    2    0    0 -0.19277585133E+02 -0.13965327842E+02  0.21214728425E+02  0.31886052945E+02  0.00000000000E+00 0. -1.
         11    1    3    3    0    0  0.40933921124E+01 -0.36816431242E+01 -0.66363188229E+00  0.55453370156E+01  0.51100000000E-03 0. -1.
        -11    1    3    3    0    0  0.23007304005E+02 -0.22880893207E+01 -0.22488854627E+02  0.32253991582E+02  0.51100000000E-03 0.  1.
         12    1    3    3    0    0 -0.78231109842E+01  0.19935060287E+02  0.19377580846E+01  0.21502618457E+02  0.00000000000E+00 0. -1.
</event>
<event>
 7    1  0.6184948E-012  0.5930195E+02  0.7816164E-02  0.1266605E+00
        -11   -1    0    0    0    0  0.00000000000E+00  0.00000000000E+00  0.45593999997E+02  0.45594000000E+02  0.51100000000E-03 0. -1.
         11   -1    0    0    0    0 -0.00000000000E+00 -0.00000000000E+00 -0.45593999997E+02  0.45594000000E+02  0.51100000000E-03 0.  1.
    9900012    2    1    2    0    0  0.98020788181E+01 -0.30245616879E+02 -0.24170552804E+01  0.59301949041E+02  0.50000009143E+02 0.  0.
         12    1    1    2    0    0 -0.98020788181E+01  0.30245616879E+02  0.24170552804E+01  0.31886050959E+02  0.00000000000E+00 0. -1.
         11    1    3    3    0    0  0.31181647456E+01 -0.96515109032E+01  0.84325034679E+01  0.13190213383E+02  0.51100000000E-03 0. -1.
        -11    1    3    3    0    0 -0.16410181363E+02 -0.61642135617E+01 -0.53753915808E+01  0.18335386991E+02  0.51100000000E-03 0.  1.
        -12    1    3    3    0    0  0.23094095436E+02 -0.14429892414E+02 -0.54741671675E+01  0.27776348667E+02  0.00000000000E+00 0.  1.
</event>
<event>
 7    1  0.6184948E-012  0.5930194E+02  0.7816164E-02  0.1266605E+00
        -11   -1    0    0    0    0  0.00000000000E+00  0.00000000000E+00  0.45593999997E+02  0.45594000000E+02  0.51100000000E-03 0.  1.
         11   -1    0    0    0    0 -0.00000000000E+00 -0.00000000000E+00 -0.45593999997E+02  0.45594000000E+02  0.51100000000E-03 0. -1.
    9900012    2    1    2    0    0  0.19915602995E+02  0.52653361934E+01  0.24338567210E+02  0.59301939382E+02  0.49999991527E+02 0.  0.
         12    1    1    2    0    0 -0.19915602995E+02 -0.52653361934E+01 -0.24338567210E+02  0.31886060618E+02  0.00000000000E+00 0. -1.
         11    1    3    3    0    0 -0.33399754077E+01 -0.56422864832E+00 -0.89204763052E+01  0.95419435895E+01  0.51100000000E-03 0. -1.
        -11    1    3    3    0    0  0.65692015566E+01  0.59450375933E+01  0.31798145813E+02  0.33009391974E+02  0.51100000000E-03 0.  1.
         12    1    3    3    0    0  0.16686376846E+02 -0.11547275153E+00  0.14608977028E+01  0.16750603819E+02  0.00000000000E+00 0. -1.
</event>
<event>
 7    1  0.6184948E-012  0.5930200E+02  0.7816164E-02  0.1266605E+00
        -11   -1    0    0    0    0  0.00000000000E+00  0.00000000000E+00  0.45593999997E+02  0.45594000000E+02  0.51100000000E-03 0.  1.
         11   -1    0    0    0    0 -0.00000000000E+00 -0.00000000000E+00 -0.45593999997E+02  0.45594000000E+02  0.51100000000E-03 0. -1.
    9900012    2    1    2    0    0 -0.97853950029E+01  0.25777552295E+02  0.16015017579E+02  0.59302000788E+02  0.50000103518E+02 0.  0.
         12    1    1    2    0    0  0.97853950029E+01 -0.25777552295E+02 -0.16015017579E+02  0.31885999212E+02  0.00000000000E+00 0. -1.
         11    1    3    3    0    0 -0.97474085455E+01  0.23036975525E+02 -0.82516852908E+01  0.26340169420E+02  0.51100000000E-03 0. -1.
        -11    1    3    3    0    0 -0.35255428916E+00 -0.41716044812E+01 -0.27922388912E+01  0.50322139025E+01  0.51100000000E-03 0.  1.
        -12    1    3    3    0    0  0.31456783177E+00  0.69121812515E+01  0.27058941761E+02  0.27929617466E+02  0.00000000000E+00 0.  1.
</event>
<event>
 7    1  0.6184948E-012  0.5930196E+02  0.7816164E-02  0.1266605E+00
        -11   -1    0    0    0    0  0.00000000000E+00  0.00000000000E+00  0.45593999997E+02  0.45594000000E+02  0.51100000000E-03 0. -1.
         11   -1    0    0    0    0 -0.00000000000E+00 -0.00000000000E+00 -0.45593999997E+02  0.45594000000E+02  0.51100000000E-03 0.  1.
    9900012    2    1    2    0    0  0.19724865877E+02  0.24759218653E+02 -0.38249476048E+01  0.59301961263E+02  0.50000031434E+02 0.  0.
         12    1    1    2    0    0 -0.19724865877E+02 -0.24759218653E+02  0.38249476048E+01  0.31886038737E+02  0.00000000000E+00 0. -1.
         11    1    3    3    0    0 -0.59992529768E+01 -0.14952073669E+01 -0.26335740590E+01  0.67202971612E+01  0.51100000000E-03 0. -1.
        -11    1    3    3    0    0  0.34877116177E+02  0.15754527215E+02 -0.36240397201E+01  0.38441540353E+02  0.51100000000E-03 0.  1.
         12    1    3    3    0    0 -0.91529973236E+01  0.10499898805E+02  0.24326661743E+01  0.14140123749E+02  0.00000000000E+00 0. -1.
</event>
<event>
 7    1  0.6184948E-012  0.5930198E+02  0.7816164E-02  0.1266605E+00
        -11   -1    0    0    0    0  0.00000000000E+00  0.00000000000E+00  0.45593999997E+02  0.45594000000E+02  0.51100000000E-03 0.  1.
         11   -1    0    0    0    0 -0.00000000000E+00 -0.00000000000E+00 -0.45593999997E+02  0.45594000000E+02  0.51100000000E-03 0. -1.
    9900012    2    1    2    0    0  0.16169235142E+02 -0.27463162173E+02  0.10242236144E+01  0.59301976798E+02  0.50000059765E+02 0.  0.
         12    1    1    2    0    0 -0.16169235142E+02  0.27463162173E+02 -0.10242236144E+01  0.31886023202E+02  0.00000000000E+00 0. -1.
         11    1    3    3    0    0 -0.66735093604E+01 -0.16620132045E+02 -0.81007316510E+01  0.19656713101E+02  0.51100000000E-03 0. -1.
        -11    1    3    3    0    0 -0.48900362666E+01  0.31178155458E+00  0.84234365196E+01  0.97449446118E+01  0.51100000000E-03 0.  1.
        -12    1    3    3    0    0  0.27732780769E+02 -0.11154811682E+02  0.70151874592E+00  0.29900319085E+02  0.00000000000E+00 0.  1.
</event>
<event>
 7    1  0.6184948E-012  0.5930195E+02  0.7816164E-02  0.1266605E+00
        -11   -1    0    0    0    0  0.00000000000E+00  0.00000000000E+00  0.45593999997E+02  0.45594000000E+02  0.51100000000E-03 0.  1.
         11   -1    0    0    0    0 -0.00000000000E+00 -0.00000000000E+00 -0.45593999997E+02  0.45594000000E+02  0.51100000000E-03 0. -1.
    9900012    2    1    2    0    0 -0.22240782299E+01 -0.59470578082E+01  0.31247494955E+02  0.59301953498E+02  0.50000017272E+02 0.  0.
         12    1    1    2    0    0  0.22240782299E+01  0.59470578082E+01 -0.31247494955E+02  0.31886046502E+02  0.00000000000E+00 0. -1.
         11    1    3    3    0    0  0.57681555944E+01 -0.67581708507E+01  0.76816613100E+01  0.11745314511E+02  0.51100000000E-03 0. -1.
        -11    1    3    3    0    0 -0.27796110567E+01  0.45595188883E+01  0.34481620967E+02  0.34892658754E+02  0.51100000000E-03 0.  1.
         12    1    3    3    0    0 -0.52126227676E+01 -0.37484058458E+01 -0.10915787322E+02  0.12663980234E+02  0.00000000000E+00 0. -1.
</event>
<event>
 7    1  0.6184948E-012  0.5930193E+02  0.7816164E-02  0.1266605E+00
        -11   -1    0    0    0    0  0.00000000000E+00  0.00000000000E+00  0.45593999997E+02  0.45594000000E+02  0.51100000000E-03 0.  1.
         11   -1    0    0    0    0 -0.00000000000E+00 -0.00000000000E+00 -0.45593999997E+02  0.45594000000E+02  0.51100000000E-03 0. -1.
    9900012    2    1    2    0    0 -0.70542001996E+01  0.44331413242E+01  0.30778349937E+02  0.59301932395E+02  0.49999978785E+02 0.  0.
         12    1    1    2    0    0  0.70542001996E+01 -0.44331413242E+01 -0.30778349937E+02  0.31886067605E+02  0.00000000000E+00 0. -1.
         11    1    3    3    0    0 -0.13931675720E+01  0.10059678426E+02 -0.67892927123E+01  0.12216077182E+02  0.51100000000E-03 0. -1.
        -11    1    3    3    0    0 -0.13501917596E+02  0.82394355369E+00  0.77563985620E+01  0.15593023461E+02  0.51100000000E-03 0.  1.
        -12    1    3    3    0    0  0.78408849679E+01 -0.64504806557E+01  0.29811244087E+02  0.31492831753E+02  0.00000000000E+00 0.  1.
</event>
<event>
 7    1  0.6184948E-012  0.5930194E+02  0.7816164E-02  0.1266605E+00
        -11   -1    0    0    0    0  0.00000000000E+00  0.00000000000E+00  0.45593999997E+02  0.45594000000E+02  0.51100000000E-03 0. -1.
         11   -1    0    0    0    0 -0.00000000000E+00 -0.00000000000E+00 -0.45593999997E+02  0.45594000000E+02  0.51100000000E-03 0.  1.
    9900012    2    1    2    0    0  0.20490220690E+02 -0.10459108189E+01 -0.24408560658E+02  0.59301938676E+02  0.49999990240E+02 0.  0.
         12    1    1    2    0    0 -0.20490220690E+02  0.10459108189E+01  0.24408560658E+02  0.31886061324E+02  0.00000000000E+00 0. -1.
         11    1    3    3    0    0 -0.31550406199E+01 -0.94241647655E+01  0.10263740867E+02  0.14286830988E+02  0.51100000000E-03 0. -1.
        -11    1    3    3    0    0 -0.14470477974E+01  0.46575838560E+00 -0.56105814473E+01  0.58128738710E+01  0.51100000000E-03 0.  1.
        -12    1    3    3    0    0  0.25092309107E+02  0.79124955611E+01 -0.29061720078E+02  0.39202233817E+02  0.00000000000E+00 0.  1.
</event>
<event>
 7    1  0.6184948E-012  0.5930197E+02  0.7816164E-02  0.1266605E+00
        -11   -1    0    0    0    0  0.00000000000E+00  0.00000000000E+00  0.45593999997E+02  0.45594000000E+02  0.51100000000E-03 0. -1.
         11   -1    0    0    0    0 -0.00000000000E+00 -0.00000000000E+00 -0.45593999997E+02  0.45594000000E+02  0.51100000000E-03 0.  1.
    9900012    2    1    2    0    0  0.31078379504E+02 -0.12621914564E+01 -0.70185440751E+01  0.59301972326E+02  0.50000051609E+02 0.  0.
         12    1    1    2    0    0 -0.31078379504E+02  0.12621914564E+01  0.70185440751E+01  0.31886027674E+02  0.00000000000E+00 0. -1.
         11    1    3    3    0    0  0.20762549554E+02  0.59419927151E+01 -0.94957123659E+01  0.23591508960E+02  0.51100000000E-03 0. -1.
        -11    1    3    3    0    0  0.21230986737E+02 -0.92257426545E+01  0.62642803312E+01  0.23981458123E+02  0.51100000000E-03 0.  1.
         12    1    3    3    0    0 -0.10915156787E+02  0.20215584829E+01 -0.37871120404E+01  0.11729005243E+02  0.00000000000E+00 0. -1.
</event>
<event>
 7    1  0.6184948E-012  0.5930197E+02  0.7816164E-02  0.1266605E+00
        -11   -1    0    0    0    0  0.00000000000E+00  0.00000000000E+00  0.45593999997E+02  0.45594000000E+02  0.51100000000E-03 0. -1.
         11   -1    0    0    0    0 -0.00000000000E+00 -0.00000000000E+00 -0.45593999997E+02  0.45594000000E+02  0.51100000000E-03 0.  1.
    9900012    2    1    2    0    0  0.26867530588E+02  0.13835048002E+01 -0.17115515724E+02  0.59301966005E+02  0.50000040082E+02 0.  0.
         12    1    1    2    0    0 -0.26867530588E+02 -0.13835048002E+01  0.17115515724E+02  0.31886033995E+02  0.00000000000E+00 0. -1.
         11    1    3    3    0    0  0.33205021850E+01  0.14553922934E+02 -0.16872169180E+02  0.22528038100E+02  0.51100000000E-03 0. -1.
        -11    1    3    3    0    0  0.99629436178E+01 -0.54904895987E+01 -0.12521973548E+02  0.16917610451E+02  0.51100000000E-03 0.  1.
        -12    1    3    3    0    0  0.13584084785E+02 -0.76799285355E+01  0.12278627004E+02  0.19856317455E+02  0.00000000000E+00 0.  1.
</event>
<event>
 7    1  0.6184948E-012  0.5930195E+02  0.7816164E-02  0.1266605E+00
        -11   -1    0    0    0    0  0.00000000000E+00  0.00000000000E+00  0.45593999997E+02  0.45594000000E+02  0.51100000000E-03 0.  1.
         11   -1    0    0    0    0 -0.00000000000E+00 -0.00000000000E+00 -0.45593999997E+02  0.45594000000E+02  0.51100000000E-03 0. -1.
    9900012    2    1    2    0    0 -0.65106972872E+01 -0.30590968024E+02 -0.62067469434E+01  0.59301949579E+02  0.50000010124E+02 0.  0.
         12    1    1    2    0    0  0.65106972872E+01  0.30590968024E+02  0.62067469434E+01  0.31886050421E+02  0.00000000000E+00 0. -1.
         11    1    3    3    0    0 -0.28016988106E+00 -0.35513777299E+01 -0.22839625676E+02  0.23115779897E+02  0.51100000000E-03 0. -1.
        -11    1    3    3    0    0 -0.92030235152E+01 -0.63883242546E+01  0.69595600590E+01  0.13188699901E+02  0.51100000000E-03 0.  1.
        -12    1    3    3    0    0  0.29724961090E+01 -0.20651266040E+02  0.96733186738E+01  0.22997469781E+02  0.00000000000E+00 0.  1.
</event>
<event>
 7    1  0.6184948E-012  0.5930208E+02  0.7816164E-02  0.1266604E+00
        -11   -1    0    0    0    0  0.00000000000E+00  0.00000000000E+00  0.45593999997E+02  0.45594000000E+02  0.51100000000E-03 0.  1.
         11   -1    0    0    0    0 -0.00000000000E+00 -0.00000000000E+00 -0.45593999997E+02  0.45594000000E+02  0.51100000000E-03 0. -1.
    9900012    2    1    2    0    0 -0.31067442886E+02 -0.44525336299E+01 -0.56303772821E+01  0.59302075025E+02  0.50000238907E+02 0.  0.
         12    1    1    2    0    0  0.31067442886E+02  0.44525336299E+01  0.56303772821E+01  0.31885924975E+02  0.00000000000E+00 0. -1.
         11    1    3    3    0    0 -0.21645698025E+02 -0.13192367672E+02 -0.38200042134E+01  0.25635273359E+02  0.51100000000E-03 0. -1.
        -11    1    3    3    0    0  0.13511839755E+01 -0.68384163971E+01 -0.10679195892E+02  0.12752837414E+02  0.51100000000E-03 0.  1.
         12    1    3    3    0    0 -0.10772928836E+02  0.15578250439E+02  0.88688228229E+01  0.20913964251E+02  0.00000000000E+00 0. -1.
</event>
<event>
 7    1  0.6184948E-012  0.5930196E+02  0.7816164E-02  0.1266605E+00
        -11   -1    0    0    0    0  0.00000000000E+00  0.00000000000E+00  0.45593999997E+02  0.45594000000E+02  0.51100000000E-03 0.  1.
         11   -1    0    0    0    0 -0.00000000000E+00 -0.00000000000E+00 -0.45593999997E+02  0.45594000000E+02  0.51100000000E-03 0. -1.
    9900012    2    1    2    0    0 -0.19648744028E+02  0.12918902853E+02  0.21534815787E+02  0.59301960990E+02  0.50000030935E+02 0.  0.
         12    1    1    2    0    0  0.19648744028E+02 -0.12918902853E+02 -0.21534815787E+02  0.31886039010E+02  0.00000000000E+00 0. -1.
         11    1    3    3    0    0 -0.72277261644E+01 -0.92319270158E+01 -0.82867400577E+01  0.14357526353E+02  0.51100000000E-03 0. -1.
        -11    1    3    3    0    0 -0.94545863889E+01 -0.86406764102E+00  0.13781124246E+02  0.16734849937E+02  0.51100000000E-03 0.  1.
         12    1    3    3    0    0 -0.29664314749E+01  0.23014897509E+02  0.16040431598E+02  0.28209584700E+02  0.00000000000E+00 0. -1.
</event>
<event>
 7    1  0.6184948E-012  0.5930195E+02  0.7816164E-02  0.1266605E+00
        -11   -1    0    0    0    0  0.00000000000E+00  0.00000000000E+00  0.45593999997E+02  0.45594000000E+02  0.51100000000E-03 0. -1.
         11   -1    0    0    0    0 -0.00000000000E+00 -0.00000000000E+00 -0.45593999997E+02  0.45594000000E+02  0.51100000000E-03 0.  1.
    9900012    2    1    2    0    0 -0.17247928077E+02 -0.25275135409E+02 -0.89664123111E+01  0.59301952226E+02  0.50000014952E+02 0.  0.
         12    1    1    2    0    0  0.17247928077E+02  0.25275135409E+02  0.89664123111E+01  0.31886047774E+02  0.00000000000E+00 0. -1.
         11    1    3    3    0    0 -0.26341467347E+01 -0.19305143528E+02 -0.23375647389E+01  0.19623748490E+02  0.51100000000E-03 0. -1.
        -11    1    3    3    0    0 -0.65912004535E+01 -0.57919441048E+00 -0.21191167978E+02  0.22200112390E+02  0.51100000000E-03 0.  1.
         12    1    3    3    0    0 -0.80225808892E+01 -0.53907974706E+01  0.14562320406E+02  0.17478091346E+02  0.00000000000E+00 0. -1.
</event>
<event>
 7    1  0.6184948E-012  0.5930195E+02  0.7816164E-02  0.1266605E+00
        -11   -1    0    0    0    0  0.00000000000E+00  0.00000000000E+00  0.45593999997E+02  0.45594000000E+02  0.51100000000E-03 0. -1.
         11   -1    0    0    0    0 -0.00000000000E+00 -0.00000000000E+00 -0.45593999997E+02  0.45594000000E+02  0.51100000000E-03 0.  1.
    9900012    2    1    2    0    0  0.22391025687E+02 -0.18944833208E+02 -0.12508218087E+02  0.59301948876E+02  0.50000008841E+02 0.  0.
         12    1    1    2    0    0 -0.22391025687E+02  0.18944833208E+02  0.12508218087E+02  0.31886051124E+02  0.00000000000E+00 0. -1.
         11    1    3    3    0    0 -0.75200793449E+01 -0.86016728613E+00 -0.43397321272E+01  0.87249502182E+01  0.51100000000E-03 0. -1.
        -11    1    3    3    0    0  0.26994148522E+02 -0.19785170105E+02 -0.19512526907E+02  0.38741137271E+02  0.51100000000E-03 0.  1.
         12    1    3    3    0    0  0.29169565096E+01  0.17005041832E+01  0.11344040946E+02  0.11835861386E+02  0.00000000000E+00 0. -1.
</event>
<event>
 7    1  0.6184948E-012  0.5930211E+02  0.7816164E-02  0.1266604E+00
        -11   -1    0    0    0    0  0.00000000000E+00  0.00000000000E+00  0.45593999997E+02  0.45594000000E+02  0.51100000000E-03 0. -1.
         11   -1    0    0    0    0 -0.00000000000E+00 -0.00000000000E+00 -0.45593999997E+02  0.45594000000E+02  0.51100000000E-03 0.  1.
    9900012    2    1    2    0    0  0.99344744987E+01  0.27608347955E+02 -0.12481805088E+02  0.59302107843E+02  0.50000298759E+02 0.  0.
         12    1    1    2    0    0 -0.99344744987E+01 -0.27608347955E+02  0.12481805088E+02  0.31885892157E+02  0.00000000000E+00 0. -1.
         11    1    3    3    0    0 -0.14023293937E+02  0.18237072012E+02  0.18273220065E+01  0.23077752802E+02  0.51100000000E-03 0. -1.
        -11    1    3    3    0    0  0.33600851378E+01 -0.58348617685E+01  0.31307796765E+00  0.67404600782E+01  0.51100000000E-03 0.  1.
         12    1    3    3    0    0  0.20597683298E+02  0.15206137712E+02 -0.14622205062E+02  0.29483894963E+02  0.00000000000E+00 0. -1.
</event>
<event>
 7    1  0.6184948E-012  0.5930191E+02  0.7816164E-02  0.1266605E+00
        -11   -1    0    0    0    0  0.00000000000E+00  0.00000000000E+00  0.45593999997E+02  0.45594000000E+02  0.51100000000E-03 0.  1.
         11   -1    0    0    0    0 -0.00000000000E+00 -0.00000000000E+00 -0.45593999997E+02  0.45594000000E+02  0.51100000000E-03 0. -1.
    9900012    2    1    2    0    0 -0.19673777511E+02  0.12019037593E+02  0.22027435701E+02  0.59301910404E+02  0.49999938678E+02 0.  0.
         12    1    1    2    0    0  0.19673777511E+02 -0.12019037593E+02 -0.22027435701E+02  0.31886089596E+02  0.00000000000E+00 0. -1.
         11    1    3    3    0    0  0.13621407804E+01 -0.29687677108E+01 -0.99471708100E+01  0.10469728583E+02  0.51100000000E-03 0. -1.
        -11    1    3    3    0    0  0.48055134150E+01  0.32454209728E+01 -0.35605486721E+00  0.58096894755E+01  0.51100000000E-03 0.  1.
        -12    1    3    3    0    0 -0.25841431706E+02  0.11742384331E+02  0.32330661378E+02  0.43022492345E+02  0.00000000000E+00 0.  1.
</event>
<event>
 7    1  0.6184948E-012  0.5930194E+02  0.7816164E-02  0.1266605E+00
        -11   -1    0    0    0    0  0.00000000000E+00  0.00000000000E+00  0.45593999997E+02  0.45594000000E+02  0.51100000000E-03 0.  1.
         11   -1    0    0    0    0 -0.00000000000E+00 -0.00000000000E+00 -0.45593999997E+02  0.45594000000E+02  0.51100000000E-03 0. -1.
    9900012    2    1    2    0    0 -0.10783304727E+02 -0.47608781795E+01  0.29627267935E+02  0.59301943061E+02  0.49999998236E+02 0.  0.
         12    1    1    2    0    0  0.10783304727E+02  0.47608781795E+01 -0.29627267935E+02  0.31886056939E+02  0.00000000000E+00 0. -1.
         11    1    3    3    0    0 -0.80828742575E+01  0.27376296003E+00 -0.16308815287E+01  0.82503077059E+01  0.51100000000E-03 0. -1.
        -11    1    3    3    0    0  0.18451735097E+02 -0.32639182962E+00  0.11627401030E+02  0.21812141451E+02  0.51100000000E-03 0.  1.
         12    1    3    3    0    0 -0.21152165566E+02 -0.47082493099E+01  0.19630748433E+02  0.29239493903E+02  0.00000000000E+00 0. -1.
</event>
<event>
 7    1  0.6184948E-012  0.5930195E+02  0.7816164E-02  0.1266605E+00
        -11   -1    0    0    0    0  0.00000000000E+00  0.00000000000E+00  0.45593999997E+02  0.45594000000E+02  0.51100000000E-03 0.  1.
         11   -1    0    0    0    0 -0.00000000000E+00 -0.00000000000E+00 -0.45593999997E+02  0.45594000000E+02  0.51100000000E-03 0. -1.
    9900012    2    1    2    0    0 -0.24439542517E+02 -0.10865827346E+02  0.17359810657E+02  0.59301945550E+02  0.50000002776E+02 0.  0.
         12    1    1    2    0    0  0.24439542517E+02  0.10865827346E+02 -0.17359810657E+02  0.31886054450E+02  0.00000000000E+00 0. -1.
         11    1    3    3    0    0 -0.20245717420E+00  0.55011190590E+01 -0.24243514948E+00  0.55101792050E+01  0.51100000000E-03 0. -1.
        -11    1    3    3    0    0 -0.11917911743E+02  0.64157636022E+01  0.23600406375E+02  0.27206209295E+02  0.51100000000E-03 0.  1.
        -12    1    3    3    0    0 -0.12319173600E+02 -0.22782710007E+02 -0.59981605681E+01  0.26585557050E+02  0.00000000000E+00 0.  1.
</event>
<event>
 7    1  0.6184948E-012  0.5930191E+02  0.7816164E-02  0.1266605E+00
        -11   -1    0    0    0    0  0.00000000000E+00  0.00000000000E+00  0.45593999997E+02  0.45594000000E+02  0.51100000000E-03 0.  1.
         11   -1    0    0    0    0 -0.00000000000E+00 -0.00000000000E+00 -0.45593999997E+02  0.45594000000E+02  0.51100000000E-03 0. -1.
    9900012    2    1    2    0    0  0.17444319467E+02 -0.12496165785E+02  0.23585259354E+02  0.59301907424E+02  0.49999933243E+02 0.  0.
         12    1    1    2    0    0 -0.17444319467E+02  0.12496165785E+02 -0.23585259354E+02  0.31886092576E+02  0.00000000000E+00 0. -1.
         11    1    3    3    0    0  0.11223801658E+02 -0.76812924667E+01  0.10334663333E+02  0.17081605430E+02  0.51100000000E-03 0.  1.
        -11    1    3    3    0    0  0.10290183463E+02 -0.13912869093E+02 -0.77604184916E+01  0.18965228644E+02  0.51100000000E-03 0. -1.
        -12    1    3    3    0    0 -0.40696656535E+01  0.90979957746E+01  0.21011014512E+02  0.23255073349E+02  0.00000000000E+00 0.  1.
</event>
<event>
 7    1  0.6184948E-012  0.5930196E+02  0.7816164E-02  0.1266605E+00
        -11   -1    0    0    0    0  0.00000000000E+00  0.00000000000E+00  0.45593999997E+02  0.45594000000E+02  0.51100000000E-03 0. -1.
         11   -1    0    0    0    0 -0.00000000000E+00 -0.00000000000E+00 -0.45593999997E+02  0.45594000000E+02  0.51100000000E-03 0.  1.
    9900012    2    1    2    0    0 -0.16284467256E+02 -0.26439195333E+02 -0.72460063741E+01  0.59301960233E+02  0.50000029554E+02 0.  0.
         12    1    1    2    0    0  0.16284467256E+02  0.26439195333E+02  0.72460063741E+01  0.31886039767E+02  0.00000000000E+00 0. -1.
         11    1    3    3    0    0  0.39514730478E+01  0.80629448867E+01 -0.35500550286E+01  0.96554704940E+01  0.51100000000E-03 0. -1.
        -11    1    3    3    0    0 -0.44713549627E+01 -0.14118810255E+02  0.12356080376E+02  0.19287471082E+02  0.51100000000E-03 0.  1.
         12    1    3    3    0    0 -0.15764585341E+02 -0.20383329965E+02 -0.16052031722E+02  0.30359018657E+02  0.00000000000E+00 0. -1.
</event>
<event>
 7    1  0.6184948E-012  0.5930193E+02  0.7816164E-02  0.1266605E+00
        -11   -1    0    0    0    0  0.00000000000E+00  0.00000000000E+00  0.45593999997E+02  0.45594000000E+02  0.51100000000E-03 0. -1.
         11   -1    0    0    0    0 -0.00000000000E+00 -0.00000000000E+00 -0.45593999997E+02  0.45594000000E+02  0.51100000000E-03 0.  1.
    9900012    2    1    2    0    0  0.68309383402E+01  0.14626660947E+02 -0.27497646401E+02  0.59301929582E+02  0.49999973655E+02 0.  0.
         12    1    1    2    0    0 -0.68309383402E+01 -0.14626660947E+02  0.27497646401E+02  0.31886070418E+02  0.00000000000E+00 0. -1.
         11    1    3    3    0    0  0.16617835469E+02  0.34268437152E+01 -0.93114140987E+01  0.19354538132E+02  0.51100000000E-03 0. -1.
        -11    1    3    3    0    0  0.24239824699E+01  0.12679869420E+02 -0.23291413344E+02  0.26629771223E+02  0.51100000000E-03 0.  1.
        -12    1    3    3    0    0 -0.12210879599E+02 -0.14800521884E+01  0.51051810417E+01  0.13317620228E+02  0.00000000000E+00 0.  1.
</event>
<event>
 7    1  0.6184948E-012  0.5930194E+02  0.7816164E-02  0.1266605E+00
        -11   -1    0    0    0    0  0.00000000000E+00  0.00000000000E+00  0.45593999997E+02  0.45594000000E+02  0.51100000000E-03 0.  1.
         11   -1    0    0    0    0 -0.00000000000E+00 -0.00000000000E+00 -0.45593999997E+02  0.45594000000E+02  0.51100000000E-03 0. -1.
    9900012    2    1    2    0    0 -0.22637742185E+02 -0.21581657656E+02  0.62036456662E+01  0.59301944459E+02  0.50000000786E+02 0.  0.
         12    1    1    2    0    0  0.22637742185E+02  0.21581657656E+02 -0.62036456662E+01  0.31886055541E+02  0.00000000000E+00 0. -1.
         11    1    3    3    0    0 -0.37713381344E+01 -0.19202885225E+02 -0.14225694550E+02  0.24193887203E+02  0.51100000000E-03 0. -1.
        -11    1    3    3    0    0  0.15642606240E+01 -0.51704574336E+01  0.11364517463E+02  0.12583036151E+02  0.51100000000E-03 0.  1.
        -12    1    3    3    0    0 -0.20430664675E+02  0.27916850030E+01  0.90648227534E+01  0.22525021104E+02  0.00000000000E+00 0.  1.
</event>
<event>
 7    1  0.6184948E-012  0.5930193E+02  0.7816164E-02  0.1266605E+00
        -11   -1    0    0    0    0  0.00000000000E+00  0.00000000000E+00  0.45593999997E+02  0.45594000000E+02  0.51100000000E-03 0.  1.
         11   -1    0    0    0    0 -0.00000000000E+00 -0.00000000000E+00 -0.45593999997E+02  0.45594000000E+02  0.51100000000E-03 0. -1.
    9900012    2    1    2    0    0 -0.28638880064E+01 -0.13210987948E+02  0.28878877444E+02  0.59301927500E+02  0.49999969857E+02 0.  0.
         12    1    1    2    0    0  0.28638880064E+01  0.13210987948E+02 -0.28878877444E+02  0.31886072500E+02  0.00000000000E+00 0. -1.
         11    1    3    3    0    0 -0.14939616566E+02  0.83985372595E+01  0.10048381355E+02  0.19866996233E+02  0.51100000000E-03 0. -1.
        -11    1    3    3    0    0 -0.76455847135E+00  0.11328364711E+01  0.12483308955E+02  0.12557900734E+02  0.51100000000E-03 0.  1.
         12    1    3    3    0    0  0.12840287031E+02 -0.22742361678E+02  0.63471871344E+01  0.26877030533E+02  0.00000000000E+00 0. -1.
</event>
<event>
 7    1  0.6184948E-012  0.5930203E+02  0.7816164E-02  0.1266604E+00
        -11   -1    0    0    0    0  0.00000000000E+00  0.00000000000E+00  0.45593999997E+02  0.45594000000E+02  0.51100000000E-03 0. -1.
         11   -1    0    0    0    0 -0.00000000000E+00 -0.00000000000E+00 -0.45593999997E+02  0.45594000000E+02  0.51100000000E-03 0.  1.
    9900012    2    1    2    0    0 -0.23399500261E+02 -0.19590404377E+02  0.92409208316E+01  0.59302028572E+02  0.50000154188E+02 0.  0.
         12    1    1    2    0    0  0.23399500261E+02  0.19590404377E+02 -0.92409208316E+01  0.31885971428E+02  0.00000000000E+00 0. -1.
         11    1    3    3    0    0 -0.28781465156E+02 -0.21352581202E+02  0.17144680259E+02  0.39727138356E+02  0.51100000000E-03 0. -1.
        -11    1    3    3    0    0 -0.55808508621E+01  0.16033356575E+01 -0.61735943179E+01  0.84752491786E+01  0.51100000000E-03 0.  1.
        -12    1    3    3    0    0  0.10962815757E+02  0.15884116734E+00 -0.17301651091E+01  0.11099641037E+02  0.00000000000E+00 0.  1.
</event>
<event>
 7    1  0.6184948E-012  0.5930191E+02  0.7816164E-02  0.1266605E+00
        -11   -1    0    0    0    0  0.00000000000E+00  0.00000000000E+00  0.45593999997E+02  0.45594000000E+02  0.51100000000E-03 0.  1.
         11   -1    0    0    0    0 -0.00000000000E+00 -0.00000000000E+00 -0.45593999997E+02  0.45594000000E+02  0.51100000000E-03 0. -1.
    9900012    2    1    2    0    0 -0.14140991239E+02 -0.50179530519E+01  0.28134949864E+02  0.59301907578E+02  0.49999933525E+02 0.  0.
         12    1    1    2    0    0  0.14140991239E+02  0.50179530519E+01 -0.28134949864E+02  0.31886092422E+02  0.00000000000E+00 0. -1.
         11    1    3    3    0    0 -0.31581280787E+01  0.10614385788E+02 -0.49018488267E+01  0.12110618514E+02  0.51100000000E-03 0. -1.
        -11    1    3    3    0    0  0.51969979073E+01  0.34672378119E+01  0.15260646818E+02  0.16489932288E+02  0.51100000000E-03 0.  1.
         12    1    3    3    0    0 -0.16179861068E+02 -0.19099576652E+02  0.17776151873E+02  0.30701356776E+02  0.00000000000E+00 0. -1.
</event>
<event>
 7    1  0.6184948E-012  0.5930195E+02  0.7816164E-02  0.1266605E+00
        -11   -1    0    0    0    0  0.00000000000E+00  0.00000000000E+00  0.45593999997E+02  0.45594000000E+02  0.51100000000E-03 0.  1.
         11   -1    0    0    0    0 -0.00000000000E+00 -0.00000000000E+00 -0.45593999997E+02  0.45594000000E+02  0.51100000000E-03 0. -1.
    9900012    2    1    2    0    0  0.25417304267E+02  0.13669965918E+02  0.13557754521E+02  0.59301952392E+02  0.50000015254E+02 0.  0.
         12    1    1    2    0    0 -0.25417304267E+02 -0.13669965918E+02 -0.13557754521E+02  0.31886047608E+02  0.00000000000E+00 0. -1.
         11    1    3    3    0    0  0.21406276139E+02 -0.51948305362E+01  0.51426505694E+01  0.22619942033E+02  0.51100000000E-03 0. -1.
        -11    1    3    3    0    0  0.10852086247E+02  0.11233655087E+02  0.17163942440E+02  0.23206975306E+02  0.51100000000E-03 0.  1.
         12    1    3    3    0    0 -0.68410581194E+01  0.76311413679E+01 -0.87488384884E+01  0.13475035053E+02  0.00000000000E+00 0. -1.
</event>
<event>
 7    1  0.6184948E-012  0.5930194E+02  0.7816164E-02  0.1266605E+00
        -11   -1    0    0    0    0  0.00000000000E+00  0.00000000000E+00  0.45593999997E+02  0.45594000000E+02  0.51100000000E-03 0. -1.
         11   -1    0    0    0    0 -0.00000000000E+00 -0.00000000000E+00 -0.45593999997E+02  0.45594000000E+02  0.51100000000E-03 0.  1.
    9900012    2    1    2    0    0  0.27636748462E+02 -0.44159636746E+01 -0.15278419950E+02  0.59301941653E+02  0.49999995669E+02 0.  0.
         12    1    1    2    0    0 -0.27636748462E+02  0.44159636746E+01  0.15278419950E+02  0.31886058347E+02  0.00000000000E+00 0. -1.
         11    1    3    3    0    0 -0.22324876360E+01  0.21955357824E+00  0.10807735244E+02  0.11038086165E+02  0.51100000000E-03 0. -1.
        -11    1    3    3    0    0  0.22419258339E+02 -0.62284359339E+01 -0.24107613364E+01  0.23392911942E+02  0.51100000000E-03 0.  1.
        -12    1    3    3    0    0  0.74499777599E+01  0.15929186811E+01 -0.23675393858E+02  0.24870943546E+02  0.00000000000E+00 0.  1.
</event>
<event>
 7    1  0.6184948E-012  0.5930192E+02  0.7816164E-02  0.1266605E+00
        -11   -1    0    0    0    0  0.00000000000E+00  0.00000000000E+00  0.45593999997E+02  0.45594000000E+02  0.51100000000E-03 0.  1.
         11   -1    0    0    0    0 -0.00000000000E+00 -0.00000000000E+00 -0.45593999997E+02  0.45594000000E+02  0.51100000000E-03 0. -1.
    9900012    2    1    2    0    0 -0.24615049502E+02 -0.13360890461E+02  0.15241660251E+02  0.59301917407E+02  0.49999951451E+02 0.  0.
         12    1    1    2    0    0  0.24615049502E+02  0.13360890461E+02 -0.15241660251E+02  0.31886082593E+02  0.00000000000E+00 0. -1.
         11    1    3    3    0    0 -0.19818893389E+02 -0.15511317269E+02  0.15061678312E+01  0.25212259723E+02  0.51100000000E-03 0. -1.
        -11    1    3    3    0    0 -0.11841220984E+02 -0.80397561675E+00 -0.57295881778E+01  0.13179114998E+02  0.51100000000E-03 0.  1.
         12    1    3    3    0    0  0.70450648713E+01  0.29544024243E+01  0.19465080598E+02  0.20910542686E+02  0.00000000000E+00 0. -1.
</event>
<event>
 7    1  0.6184948E-012  0.5930195E+02  0.7816164E-02  0.1266605E+00
        -11   -1    0    0    0    0  0.00000000000E+00  0.00000000000E+00  0.45593999997E+02  0.45594000000E+02  0.51100000000E-03 0. -1.
         11   -1    0    0    0    0 -0.00000000000E+00 -0.00000000000E+00 -0.45593999997E+02  0.45594000000E+02  0.51100000000E-03 0.  1.
    9900012    2    1    2    0    0  0.15070362211E+02 -0.18905639859E+02 -0.20788970968E+02  0.59301947413E+02  0.50000006174E+02 0.  0.
         12    1    1    2    0    0 -0.15070362211E+02  0.18905639859E+02  0.20788970968E+02  0.31886052587E+02  0.00000000000E+00 0. -1.
         11    1    3    3    0    0  0.10570220502E+00  0.68422378208E+01  0.25418762346E+01  0.72998990682E+01  0.51100000000E-03 0. -1.
        -11    1    3    3    0    0 -0.11300985795E+02 -0.12116305681E+02 -0.11313553987E+02  0.20062742768E+02  0.51100000000E-03 0.  1.
         12    1    3    3    0    0  0.26265645801E+02 -0.13631571999E+02 -0.12017293216E+02  0.31939305577E+02  0.00000000000E+00 0. -1.
</event>
<event>
 7    1  0.6184948E-012  0.5930191E+02  0.7816164E-02  0.1266605E+00
        -11   -1    0    0    0    0  0.00000000000E+00  0.00000000000E+00  0.45593999997E+02  0.45594000000E+02  0.51100000000E-03 0. -1.
         11   -1    0    0    0    0 -0.00000000000E+00 -0.00000000000E+00 -0.45593999997E+02  0.45594000000E+02  0.51100000000E-03 0.  1.
    9900012    2    1    2    0    0 -0.13854063032E+02 -0.90878251474E+01 -0.27243328710E+02  0.59301912319E+02  0.49999942171E+02 0.  0.
         12    1    1    2    0    0  0.13854063032E+02  0.90878251474E+01  0.27243328710E+02  0.31886087681E+02  0.00000000000E+00 0. -1.
         11    1    3    3    0    0  0.94820604640E+00  0.13566972865E+02 -0.22463162156E+02  0.26259388830E+02  0.51100000000E-03 0. -1.
        -11    1    3    3    0    0 -0.73389906124E+01  0.13545408176E+01 -0.74097556534E-01  0.74633139251E+01  0.51100000000E-03 0.  1.
        -12    1    3    3    0    0 -0.74632784662E+01 -0.24009338830E+02 -0.47060689973E+01  0.25579209564E+02  0.00000000000E+00 0.  1.
</event>
<event>
 7    1  0.6184948E-012  0.5930196E+02  0.7816164E-02  0.1266605E+00
        -11   -1    0    0    0    0  0.00000000000E+00  0.00000000000E+00  0.45593999997E+02  0.45594000000E+02  0.51100000000E-03 0. -1.
         11   -1    0    0    0    0 -0.00000000000E+00 -0.00000000000E+00 -0.45593999997E+02  0.45594000000E+02  0.51100000000E-03 0.  1.
    9900012    2    1    2    0    0 -0.13697695946E+02 -0.12383474847E+02 -0.25995038164E+02  0.59301963359E+02  0.50000035255E+02 0.  0.
         12    1    1    2    0    0  0.13697695946E+02  0.12383474847E+02  0.25995038164E+02  0.31886036641E+02  0.00000000000E+00 0. -1.
         11    1    3    3    0    0 -0.12345430668E+02 -0.62455012479E+01 -0.15917402620E+01  0.13926578243E+02  0.51100000000E-03 0. -1.
        -11    1    3    3    0    0 -0.18523974304E+02 -0.17488119066E+01 -0.19572275585E+02  0.27004998406E+02  0.51100000000E-03 0.  1.
        -12    1    3    3    0    0  0.17171709026E+02 -0.43891616928E+01 -0.48310223172E+01  0.18370386710E+02  0.00000000000E+00 0.  1.
</event>
<event>
 7    1  0.6184948E-012  0.5930195E+02  0.7816164E-02  0.1266605E+00
        -11   -1    0    0    0    0  0.00000000000E+00  0.00000000000E+00  0.45593999997E+02  0.45594000000E+02  0.51100000000E-03 0.  1.
         11   -1    0    0    0    0 -0.00000000000E+00 -0.00000000000E+00 -0.45593999997E+02  0.45594000000E+02  0.51100000000E-03 0. -1.
    9900012    2    1    2    0    0 -0.30344333084E+02 -0.51916888206E+01  0.83058938310E+01  0.59301952025E+02  0.50000014585E+02 0.  0.
         12    1    1    2    0    0  0.30344333084E+02  0.51916888206E+01 -0.83058938310E+01  0.31886047975E+02  0.00000000000E+00 0. -1.
         11    1    3    3    0    0  0.37698210335E+01 -0.98464636591E+01  0.10456079810E+02  0.14849040456E+02  0.51100000000E-03 0.  1.
        -11    1    3    3    0    0 -0.25109542602E+02  0.34977798747E+01  0.11676789894E+02  0.27911843655E+02  0.51100000000E-03 0. -1.
         12    1    3    3    0    0 -0.90046115157E+01  0.11569949637E+01 -0.13826975874E+02  0.16541067913E+02  0.00000000000E+00 0. -1.
</event>
<event>
 7    1  0.6184948E-012  0.5930193E+02  0.7816164E-02  0.1266605E+00
        -11   -1    0    0    0    0  0.00000000000E+00  0.00000000000E+00  0.45593999997E+02  0.45594000000E+02  0.51100000000E-03 0.  1.
         11   -1    0    0    0    0 -0.00000000000E+00 -0.00000000000E+00 -0.45593999997E+02  0.45594000000E+02  0.51100000000E-03 0. -1.
    9900012    2    1    2    0    0  0.16031571856E+02  0.26691610795E+02 -0.68751665504E+01  0.59301932540E+02  0.49999979049E+02 0.  0.
         12    1    1    2    0    0 -0.16031571856E+02 -0.26691610795E+02  0.68751665504E+01  0.31886067460E+02  0.00000000000E+00 0. -1.
         11    1    3    3    0    0 -0.80924113569E+01 -0.81814412528E+01  0.51313046976E+01  0.12599737724E+02  0.51100000000E-03 0. -1.
        -11    1    3    3    0    0  0.10407076233E+01 -0.15945214422E+01 -0.10479853721E+01  0.21734407257E+01  0.51100000000E-03 0.  1.
        -12    1    3    3    0    0  0.23083275590E+02  0.36467573490E+02 -0.10958485876E+02  0.44528754091E+02  0.00000000000E+00 0.  1.
</event>
<event>
 7    1  0.6184948E-012  0.5930195E+02  0.7816164E-02  0.1266605E+00
        -11   -1    0    0    0    0  0.00000000000E+00  0.00000000000E+00  0.45593999997E+02  0.45594000000E+02  0.51100000000E-03 0. -1.
         11   -1    0    0    0    0 -0.00000000000E+00 -0.00000000000E+00 -0.45593999997E+02  0.45594000000E+02  0.51100000000E-03 0.  1.
    9900012    2    1    2    0    0 -0.20868074066E+02 -0.20723138589E+02 -0.12320511001E+02  0.59301953216E+02  0.50000016758E+02 0.  0.
         12    1    1    2    0    0  0.20868074066E+02  0.20723138589E+02  0.12320511001E+02  0.31886046784E+02  0.00000000000E+00 0. -1.
         11    1    3    3    0    0 -0.27498823750E+02 -0.14239816117E+02 -0.80805485159E+01  0.32003951869E+02  0.51100000000E-03 0. -1.
        -11    1    3    3    0    0 -0.30052300728E+01 -0.75217002248E+01 -0.12276405963E+02  0.14707736933E+02  0.51100000000E-03 0.  1.
         12    1    3    3    0    0  0.96359797572E+01  0.10383777534E+01  0.80364434779E+01  0.12590264414E+02  0.00000000000E+00 0. -1.
</event>
<event>
 7    1  0.6184948E-012  0.5930197E+02  0.7816164E-02  0.1266605E+00
        -11   -1    0    0    0    0  0.00000000000E+00  0.00000000000E+00  0.45593999997E+02  0.45594000000E+02  0.51100000000E-03 0. -1.
         11   -1    0    0    0    0 -0.00000000000E+00 -0.00000000000E+00 -0.45593999997E+02  0.45594000000E+02  0.51100000000E-03 0.  1.
    9900012    2    1    2    0    0  0.29821440331E+02 -0.11183064999E+02 -0.15295323451E+01  0.59301973039E+02  0.50000052909E+02 0.  0.
         12    1    1    2    0    0 -0.29821440331E+02  0.11183064999E+02  0.15295323451E+01  0.31886026961E+02  0.00000000000E+00 0. -1.
         11    1    3    3    0    0  0.75671958103E+01 -0.21553476709E+01 -0.28785278510E+01  0.83781799255E+01  0.51100000000E-03 0. -1.
        -11    1    3    3    0    0  0.17041141815E+02 -0.71369587910E+01  0.22468146073E+02  0.29088731209E+02  0.51100000000E-03 0.  1.
         12    1    3    3    0    0  0.52131027059E+01 -0.18907585366E+01 -0.21119150567E+02  0.21835061904E+02  0.00000000000E+00 0. -1.
</event>
<event>
 7    1  0.6184948E-012  0.5930194E+02  0.7816164E-02  0.1266605E+00
        -11   -1    0    0    0    0  0.00000000000E+00  0.00000000000E+00  0.45593999997E+02  0.45594000000E+02  0.51100000000E-03 0.  1.
         11   -1    0    0    0    0 -0.00000000000E+00 -0.00000000000E+00 -0.45593999997E+02  0.45594000000E+02  0.51100000000E-03 0. -1.
    9900012    2    1    2    0    0 -0.10640422391E+01 -0.12588287997E+02  0.29276669322E+02  0.59301944315E+02  0.50000000523E+02 0.  0.
         12    1    1    2    0    0  0.10640422391E+01  0.12588287997E+02 -0.29276669322E+02  0.31886055685E+02  0.00000000000E+00 0. -1.
         11    1    3    3    0    0 -0.52985636773E+01 -0.10334579337E+01 -0.72100526920E+01  0.90070901198E+01  0.51100000000E-03 0. -1.
        -11    1    3    3    0    0  0.73934788793E+01 -0.16713489314E+02  0.60324461054E+01  0.19245640059E+02  0.51100000000E-03 0.  1.
         12    1    3    3    0    0 -0.31589574411E+01  0.51586592507E+01  0.30454275908E+02  0.31049214136E+02  0.00000000000E+00 0. -1.
</event>
<event>
 7    1  0.6184948E-012  0.5930194E+02  0.7816164E-02  0.1266605E+00
        -11   -1    0    0    0    0  0.00000000000E+00  0.00000000000E+00  0.45593999997E+02  0.45594000000E+02  0.51100000000E-03 0.  1.
         11   -1    0    0    0    0 -0.00000000000E+00 -0.00000000000E+00 -0.45593999997E+02  0.45594000000E+02  0.51100000000E-03 0. -1.
    9900012    2    1    2    0    0  0.28224385522E+02  0.58360130474E+01 -0.13639863748E+02  0.59301939261E+02  0.49999991306E+02 0.  0.
         12    1    1    2    0    0 -0.28224385522E+02 -0.58360130474E+01  0.13639863748E+02  0.31886060739E+02  0.00000000000E+00 0. -1.
         11    1    3    3    0    0  0.21684341554E+02  0.11761701612E+02 -0.24494845403E+02  0.34764144531E+02  0.51100000000E-03 0. -1.
        -11    1    3    3    0    0 -0.27222537813E+01  0.50922641037E+01  0.79955448270E+01  0.98625836723E+01  0.51100000000E-03 0.  1.
        -12    1    3    3    0    0  0.92622977496E+01 -0.11017952668E+02  0.28594368279E+01  0.14675211057E+02  0.00000000000E+00 0.  1.
</event>
<event>
 7    1  0.6184948E-012  0.5930193E+02  0.7816164E-02  0.1266605E+00
        -11   -1    0    0    0    0  0.00000000000E+00  0.00000000000E+00  0.45593999997E+02  0.45594000000E+02  0.51100000000E-03 0. -1.
         11   -1    0    0    0    0 -0.00000000000E+00 -0.00000000000E+00 -0.45593999997E+02  0.45594000000E+02  0.51100000000E-03 0.  1.
    9900012    2    1    2    0    0  0.10861474027E+02 -0.26448250803E+02 -0.14115224557E+02  0.59301934817E+02  0.49999983201E+02 0.  0.
         12    1    1    2    0    0 -0.10861474027E+02  0.26448250803E+02  0.14115224557E+02  0.31886065183E+02  0.00000000000E+00 0. -1.
         11    1    3    3    0    0 -0.90765948634E+00 -0.20447637813E+02  0.19999559646E+01  0.20565251324E+02  0.51100000000E-03 0. -1.
        -11    1    3    3    0    0  0.80626976925E+01 -0.19497761845E+02 -0.11301902819E+02  0.23935388416E+02  0.51100000000E-03 0.  1.
        -12    1    3    3    0    0  0.37064358208E+01  0.13497148855E+02 -0.48132777021E+01  0.14801295077E+02  0.00000000000E+00 0.  1.
</event>
<event>
 7    1  0.6184948E-012  0.5930197E+02  0.7816164E-02  0.1266605E+00
        -11   -1    0    0    0    0  0.00000000000E+00  0.00000000000E+00  0.45593999997E+02  0.45594000000E+02  0.51100000000E-03 0.  1.
         11   -1    0    0    0    0 -0.00000000000E+00 -0.00000000000E+00 -0.45593999997E+02  0.45594000000E+02  0.51100000000E-03 0. -1.
    9900012    2    1    2    0    0 -0.15620733051E+02  0.27962859536E+01  0.27656686271E+02  0.59301971529E+02  0.50000050155E+02 0.  0.
         12    1    1    2    0    0  0.15620733051E+02 -0.27962859536E+01 -0.27656686271E+02  0.31886028471E+02  0.00000000000E+00 0. -1.
         11    1    3    3    0    0  0.21886610817E+01 -0.11967886953E+02  0.74343548046E+01  0.14257986782E+02  0.51100000000E-03 0. -1.
        -11    1    3    3    0    0 -0.68872256617E+00  0.87257125860E+01  0.24818609223E+02  0.26316834212E+02  0.51100000000E-03 0.  1.
         12    1    3    3    0    0 -0.17120671567E+02  0.60384603203E+01 -0.45962777571E+01  0.18727150535E+02  0.00000000000E+00 0. -1.
</event>
<event>
 7    1  0.6184948E-012  0.5930204E+02  0.7816164E-02  0.1266604E+00
        -11   -1    0    0    0    0  0.00000000000E+00  0.00000000000E+00  0.45593999997E+02  0.45594000000E+02  0.51100000000E-03 0.  1.
         11   -1    0    0    0    0 -0.00000000000E+00 -0.00000000000E+00 -0.45593999997E+02  0.45594000000E+02  0.51100000000E-03 0. -1.
    9900012    2    1    2    0    0  0.50452211050E+01  0.11911652544E+02  0.29144003074E+02  0.59302036983E+02  0.50000169528E+02 0.  0.
         12    1    1    2    0    0 -0.50452211050E+01 -0.11911652544E+02 -0.29144003074E+02  0.31885963017E+02  0.00000000000E+00 0. -1.
         11    1    3    3    0    0  0.13523537475E+01 -0.17137107122E+01  0.60629043175E+01  0.64439486410E+01  0.51100000000E-03 0. -1.
        -11    1    3    3    0    0 -0.55063789418E+01  0.21783945007E+02  0.30960216991E+02  0.38254352765E+02  0.51100000000E-03 0.  1.
         12    1    3    3    0    0  0.91992462993E+01 -0.81585817510E+01 -0.78791182340E+01  0.14603735577E+02  0.00000000000E+00 0. -1.
</event>
<event>
 7    1  0.6184948E-012  0.5930190E+02  0.7816164E-02  0.1266605E+00
        -11   -1    0    0    0    0  0.00000000000E+00  0.00000000000E+00  0.45593999997E+02  0.45594000000E+02  0.51100000000E-03 0.  1.
         11   -1    0    0    0    0 -0.00000000000E+00 -0.00000000000E+00 -0.45593999997E+02  0.45594000000E+02  0.51100000000E-03 0. -1.
    9900012    2    1    2    0    0 -0.25025980483E+02 -0.18657137448E+02  0.65065125455E+01  0.59301902993E+02  0.49999925162E+02 0.  0.
         12    1    1    2    0    0  0.25025980483E+02  0.18657137448E+02 -0.65065125455E+01  0.31886097007E+02  0.00000000000E+00 0. -1.
         11    1    3    3    0    0  0.76146727271E+01 -0.11603706350E+02  0.30900346661E+00  0.13882533097E+02  0.51100000000E-03 0. -1.
        -11    1    3    3    0    0 -0.22608604051E+01 -0.13161001886E+02  0.54488794428E+01  0.14422681715E+02  0.51100000000E-03 0.  1.
        -12    1    3    3    0    0 -0.30379792805E+02  0.61075707886E+01  0.74862963604E+00  0.30996688180E+02  0.00000000000E+00 0.  1.
</event>
<event>
 7    1  0.6184948E-012  0.5930195E+02  0.7816164E-02  0.1266605E+00
        -11   -1    0    0    0    0  0.00000000000E+00  0.00000000000E+00  0.45593999997E+02  0.45594000000E+02  0.51100000000E-03 0.  1.
         11   -1    0    0    0    0 -0.00000000000E+00 -0.00000000000E+00 -0.45593999997E+02  0.45594000000E+02  0.51100000000E-03 0. -1.
    9900012    2    1    2    0    0  0.55673856353E+01  0.79892139241E+01  0.30362750129E+02  0.59301954191E+02  0.50000018536E+02 0.  0.
         12    1    1    2    0    0 -0.55673856353E+01 -0.79892139241E+01 -0.30362750129E+02  0.31886045809E+02  0.00000000000E+00 0. -1.
         11    1    3    3    0    0  0.75683752333E+01  0.50830325947E+01 -0.25508901770E+01  0.94670251392E+01  0.51100000000E-03 0. -1.
        -11    1    3    3    0    0  0.82414263480E+01  0.16588018022E+02  0.94140930781E+01  0.20777598487E+02  0.51100000000E-03 0.  1.
        -12    1    3    3    0    0 -0.10242415946E+02 -0.13681836692E+02  0.23499547227E+02  0.29057330565E+02  0.00000000000E+00 0.  1.
</event>
<event>
 7    1  0.6184948E-012  0.5930197E+02  0.7816164E-02  0.1266605E+00
        -11   -1    0    0    0    0  0.00000000000E+00  0.00000000000E+00  0.45593999997E+02  0.45594000000E+02  0.51100000000E-03 0.  1.
         11   -1    0    0    0    0 -0.00000000000E+00 -0.00000000000E+00 -0.45593999997E+02  0.45594000000E+02  0.51100000000E-03 0. -1.
    9900012    2    1    2    0    0 -0.22365694494E+02  0.17924889111E+02  0.13971152728E+02  0.59301967817E+02  0.50000043386E+02 0.  0.
         12    1    1    2    0    0  0.22365694494E+02 -0.17924889111E+02 -0.13971152728E+02  0.31886032183E+02  0.00000000000E+00 0. -1.
         11    1    3    3    0    0 -0.19093936861E+02  0.42779354328E+01  0.13142070969E+00  0.19567739473E+02  0.51100000000E-03 0. -1.
        -11    1    3    3    0    0 -0.10838316058E+02  0.68386093314E+01  0.22812187874E+02  0.26165465569E+02  0.51100000000E-03 0.  1.
        -12    1    3    3    0    0  0.75665584252E+01  0.68083443467E+01 -0.89724558562E+01  0.13568762775E+02  0.00000000000E+00 0.  1.
</event>
<event>
 7    1  0.6184948E-012  0.5930194E+02  0.7816164E-02  0.1266605E+00
        -11   -1    0    0    0    0  0.00000000000E+00  0.00000000000E+00  0.45593999997E+02  0.45594000000E+02  0.51100000000E-03 0.  1.
         11   -1    0    0    0    0 -0.00000000000E+00 -0.00000000000E+00 -0.45593999997E+02  0.45594000000E+02  0.51100000000E-03 0. -1.
    9900012    2    1    2    0    0 -0.18576387218E+02 -0.12314491375E+02  0.22803336660E+02  0.59301936858E+02  0.49999986923E+02 0.  0.
         12    1    1    2    0    0  0.18576387218E+02  0.12314491375E+02 -0.22803336660E+02  0.31886063142E+02  0.00000000000E+00 0. -1.
         11    1    3    3    0    0 -0.70799319611E+01 -0.16085626372E+02  0.11655218463E+02  0.21088312641E+02  0.51100000000E-03 0. -1.
        -11    1    3    3    0    0 -0.50750954541E+01  0.53418495992E+01  0.23268710307E+02  0.24407474892E+02  0.51100000000E-03 0.  1.
         12    1    3    3    0    0 -0.64213598027E+01 -0.15707146026E+01 -0.12120592110E+02  0.13806149325E+02  0.00000000000E+00 0. -1.
</event>
<event>
 7    1  0.6184948E-012  0.5930194E+02  0.7816164E-02  0.1266605E+00
        -11   -1    0    0    0    0  0.00000000000E+00  0.00000000000E+00  0.45593999997E+02  0.45594000000E+02  0.51100000000E-03 0.  1.
         11   -1    0    0    0    0 -0.00000000000E+00 -0.00000000000E+00 -0.45593999997E+02  0.45594000000E+02  0.51100000000E-03 0. -1.
    9900012    2    1    2    0    0 -0.47264078708E+01 -0.27835463495E+02  0.14817849553E+02  0.59301943098E+02  0.49999998305E+02 0.  0.
         12    1    1    2    0    0  0.47264078708E+01  0.27835463495E+02 -0.14817849553E+02  0.31886056902E+02  0.00000000000E+00 0. -1.
         11    1    3    3    0    0  0.91849077940E+01  0.54453915311E+01  0.37446562230E+01  0.11315355523E+02  0.51100000000E-03 0.  1.
        -11    1    3    3    0    0  0.70081150988E+01 -0.21407551265E+02  0.36959977712E+01  0.22826680183E+02  0.51100000000E-03 0. -1.
        -12    1    3    3    0    0 -0.20919430764E+02 -0.11873303762E+02  0.73771955592E+01  0.25159907393E+02  0.00000000000E+00 0.  1.
</event>
<event>
 7    1  0.6184948E-012  0.5930196E+02  0.7816164E-02  0.1266605E+00
        -11   -1    0    0    0    0  0.00000000000E+00  0.00000000000E+00  0.45593999997E+02  0.45594000000E+02  0.51100000000E-03 0.  1.
         11   -1    0    0    0    0 -0.00000000000E+00 -0.00000000000E+00 -0.45593999997E+02  0.45594000000E+02  0.51100000000E-03 0. -1.
    9900012    2    1    2    0    0 -0.21797244291E+02 -0.22917928143E+02  0.40457930259E+01  0.59301957124E+02  0.50000023885E+02 0.  0.
         12    1    1    2    0    0  0.21797244291E+02  0.22917928143E+02 -0.40457930259E+01  0.31886042876E+02  0.00000000000E+00 0. -1.
         11    1    3    3    0    0  0.42297395247E+01  0.50227347082E+01  0.14174331994E+01  0.67177137131E+01  0.51100000000E-03 0. -1.
        -11    1    3    3    0    0  0.43318886861E+00 -0.13566574577E+02  0.14820800652E+02  0.20097157276E+02  0.51100000000E-03 0.  1.
        -12    1    3    3    0    0 -0.26460172685E+02 -0.14374088275E+02 -0.12192440826E+02  0.32487086135E+02  0.00000000000E+00 0.  1.
</event>
<event>
 7    1  0.6184948E-012  0.5930194E+02  0.7816164E-02  0.1266605E+00
        -11   -1    0    0    0    0  0.00000000000E+00  0.00000000000E+00  0.45593999997E+02  0.45594000000E+02  0.51100000000E-03 0.  1.
         11   -1    0    0    0    0 -0.00000000000E+00 -0.00000000000E+00 -0.45593999997E+02  0.45594000000E+02  0.51100000000E-03 0. -1.
    9900012    2    1    2    0    0  0.15875138701E+02 -0.19236575812E+02  0.19865928203E+02  0.59301937511E+02  0.49999988115E+02 0.  0.
         12    1    1    2    0    0 -0.15875138701E+02  0.19236575812E+02 -0.19865928203E+02  0.31886062489E+02  0.00000000000E+00 0. -1.
         11    1    3    3    0    0  0.71478391869E+01  0.83270640334E+01 -0.62602732108E+01  0.12634184635E+02  0.51100000000E-03 0. -1.
        -11    1    3    3    0    0  0.15938988559E+02 -0.82231954408E+01  0.10540876989E+02  0.20803422495E+02  0.51100000000E-03 0.  1.
        -12    1    3    3    0    0 -0.72116890452E+01 -0.19340444404E+02  0.15585324424E+02  0.25864330381E+02  0.00000000000E+00 0.  1.
</event>
<event>
 7    1  0.6184948E-012  0.5930190E+02  0.7816164E-02  0.1266605E+00
        -11   -1    0    0    0    0  0.00000000000E+00  0.00000000000E+00  0.45593999997E+02  0.45594000000E+02  0.51100000000E-03 0.  1.
         11   -1    0    0    0    0 -0.00000000000E+00 -0.00000000000E+00 -0.45593999997E+02  0.45594000000E+02  0.51100000000E-03 0. -1.
    9900012    2    1    2    0    0 -0.46232127389E+01  0.51077613262E+01  0.31132940778E+02  0.59301900783E+02  0.49999921133E+02 0.  0.
         12    1    1    2    0    0  0.46232127389E+01 -0.51077613262E+01 -0.31132940778E+02  0.31886099217E+02  0.00000000000E+00 0. -1.
         11    1    3    3    0    0 -0.57642344786E+01 -0.62966001950E+01  0.84115314645E+01  0.11984466404E+02  0.51100000000E-03 0. -1.
        -11    1    3    3    0    0 -0.14631527612E+02  0.94823039583E+00 -0.34100720579E+01  0.15053548845E+02  0.51100000000E-03 0.  1.
        -12    1    3    3    0    0  0.15772549351E+02  0.10456131125E+02  0.26131481371E+02  0.32263885535E+02  0.00000000000E+00 0.  1.
</event>
<event>
 7    1  0.6184948E-012  0.5930195E+02  0.7816164E-02  0.1266605E+00
        -11   -1    0    0    0    0  0.00000000000E+00  0.00000000000E+00  0.45593999997E+02  0.45594000000E+02  0.51100000000E-03 0.  1.
         11   -1    0    0    0    0 -0.00000000000E+00 -0.00000000000E+00 -0.45593999997E+02  0.45594000000E+02  0.51100000000E-03 0. -1.
    9900012    2    1    2    0    0 -0.28577672951E+01  0.67166153208E+01  0.31039336336E+02  0.59301950457E+02  0.50000011726E+02 0.  0.
         12    1    1    2    0    0  0.28577672951E+01 -0.67166153208E+01 -0.31039336336E+02  0.31886049543E+02  0.00000000000E+00 0. -1.
         11    1    3    3    0    0  0.31213976347E+01 -0.93896885817E+00  0.24596798645E+02  0.24811837690E+02  0.51100000000E-03 0. -1.
        -11    1    3    3    0    0 -0.83550281332E+01 -0.67916636629E+00  0.18109989436E+02  0.19955938457E+02  0.51100000000E-03 0.  1.
         12    1    3    3    0    0  0.23758632035E+01  0.83347505452E+01 -0.11667451746E+02  0.14534174310E+02  0.00000000000E+00 0. -1.
</event>
<event>
 7    1  0.6184948E-012  0.5930205E+02  0.7816164E-02  0.1266604E+00
        -11   -1    0    0    0    0  0.00000000000E+00  0.00000000000E+00  0.45593999997E+02  0.45594000000E+02  0.51100000000E-03 0.  1.
         11   -1    0    0    0    0 -0.00000000000E+00 -0.00000000000E+00 -0.45593999997E+02  0.45594000000E+02  0.51100000000E-03 0. -1.
    9900012    2    1    2    0    0  0.14811004240E+02 -0.16061045912E+02 -0.23224793728E+02  0.59302045630E+02  0.50000185298E+02 0.  0.
         12    1    1    2    0    0 -0.14811004240E+02  0.16061045912E+02  0.23224793728E+02  0.31885954370E+02  0.00000000000E+00 0. -1.
         11    1    3    3    0    0 -0.33893203789E+01  0.30198863838E+01  0.20026837279E+01  0.49616477885E+01  0.51100000000E-03 0. -1.
        -11    1    3    3    0    0 -0.78139118995E+01  0.52109699871E-01  0.56644341286E+01  0.96512045286E+01  0.51100000000E-03 0.  1.
         12    1    3    3    0    0  0.26014236518E+02 -0.19133041995E+02 -0.30891911585E+02  0.44689193313E+02  0.00000000000E+00 0. -1.
</event>
<event>
 7    1  0.6184948E-012  0.5930196E+02  0.7816164E-02  0.1266605E+00
        -11   -1    0    0    0    0  0.00000000000E+00  0.00000000000E+00  0.45593999997E+02  0.45594000000E+02  0.51100000000E-03 0. -1.
         11   -1    0    0    0    0 -0.00000000000E+00 -0.00000000000E+00 -0.45593999997E+02  0.45594000000E+02  0.51100000000E-03 0.  1.
    9900012    2    1    2    0    0  0.14091766435E+02 -0.55227096890E+01 -0.28064944257E+02  0.59301963876E+02  0.50000036198E+02 0.  0.
         12    1    1    2    0    0 -0.14091766435E+02  0.55227096890E+01  0.28064944257E+02  0.31886036124E+02  0.00000000000E+00 0. -1.
         11    1    3    3    0    0 -0.11627466833E+02  0.12601719316E+02 -0.62127798485E+01  0.18237322950E+02  0.51100000000E-03 0. -1.
        -11    1    3    3    0    0  0.10099553410E+02 -0.11361935544E+02 -0.18096902670E+02  0.23634560392E+02  0.51100000000E-03 0.  1.
        -12    1    3    3    0    0  0.15619679859E+02 -0.67624934606E+01 -0.37552617379E+01  0.17430080534E+02  0.00000000000E+00 0.  1.
</event>
<event>
 7    1  0.6184948E-012  0.5930192E+02  0.7816164E-02  0.1266605E+00
        -11   -1    0    0    0    0  0.00000000000E+00  0.00000000000E+00  0.45593999997E+02  0.45594000000E+02  0.51100000000E-03 0. -1.
         11   -1    0    0    0    0 -0.00000000000E+00 -0.00000000000E+00 -0.45593999997E+02  0.45594000000E+02  0.51100000000E-03 0.  1.
    9900012    2    1    2    0    0 -0.70791058402E+01 -0.22826155922E+01 -0.31006420421E+02  0.59301918699E+02  0.49999953806E+02 0.  0.
         12    1    1    2    0    0  0.70791058402E+01  0.22826155922E+01  0.31006420421E+02  0.31886081301E+02  0.00000000000E+00 0. -1.
         11    1    3    3    0    0  0.62727135397E+01 -0.39411313420E+01 -0.50012566727E+01  0.89382336047E+01  0.51100000000E-03 0. -1.
        -11    1    3    3    0    0  0.34603358333E+00 -0.18011436073E+02 -0.55436920566E+01  0.18848450614E+02  0.51100000000E-03 0.  1.
         12    1    3    3    0    0 -0.13697852963E+02  0.19669951823E+02 -0.20461471692E+02  0.31515234480E+02  0.00000000000E+00 0. -1.
</event>
<event>
 7    1  0.6184948E-012  0.5930206E+02  0.7816164E-02  0.1266604E+00
        -11   -1    0    0    0    0  0.00000000000E+00  0.00000000000E+00  0.45593999997E+02  0.45594000000E+02  0.51100000000E-03 0. -1.
         11   -1    0    0    0    0 -0.00000000000E+00 -0.00000000000E+00 -0.45593999997E+02  0.45594000000E+02  0.51100000000E-03 0.  1.
    9900012    2    1    2    0    0 -0.19993015095E+02  0.18751147238E+02 -0.16290703658E+02  0.59302059509E+02  0.50000210609E+02 0.  0.
         12    1    1    2    0    0  0.19993015095E+02 -0.18751147238E+02  0.16290703658E+02  0.31885940491E+02  0.00000000000E+00 0. -1.
         11    1    3    3    0    0 -0.87048427171E+01  0.11773123384E+02  0.79759879893E+01  0.16673245203E+02  0.51100000000E-03 0. -1.
        -11    1    3    3    0    0 -0.11437368028E+02  0.19262172684E+02 -0.12679096689E+02  0.25741098986E+02  0.51100000000E-03 0.  1.
         12    1    3    3    0    0  0.14919564980E+00 -0.12284148829E+02 -0.11587594958E+02  0.16887715319E+02  0.00000000000E+00 0. -1.
</event>
<event>
 7    1  0.6184948E-012  0.5930193E+02  0.7816164E-02  0.1266605E+00
        -11   -1    0    0    0    0  0.00000000000E+00  0.00000000000E+00  0.45593999997E+02  0.45594000000E+02  0.51100000000E-03 0.  1.
         11   -1    0    0    0    0 -0.00000000000E+00 -0.00000000000E+00 -0.45593999997E+02  0.45594000000E+02  0.51100000000E-03 0. -1.
    9900012    2    1    2    0    0  0.24628179991E+01 -0.19369633955E+02  0.25208588993E+02  0.59301934846E+02  0.49999983254E+02 0.  0.
         12    1    1    2    0    0 -0.24628179991E+01  0.19369633955E+02 -0.25208588993E+02  0.31886065154E+02  0.00000000000E+00 0. -1.
         11    1    3    3    0    0  0.77449466552E+01  0.25933275729E+01 -0.99191554844E+01  0.12849093057E+02  0.51100000000E-03 0. -1.
        -11    1    3    3    0    0 -0.62138169173E+01  0.79949276288E+00  0.26987554819E+01  0.68215827175E+01  0.51100000000E-03 0.  1.
        -12    1    3    3    0    0  0.93168826125E+00 -0.22762454290E+02  0.32428988995E+02  0.39631259071E+02  0.00000000000E+00 0.  1.
</event>
<event>
 7    1  0.6184948E-012  0.5930186E+02  0.7816164E-02  0.1266605E+00
        -11   -1    0    0    0    0  0.00000000000E+00  0.00000000000E+00  0.45593999997E+02  0.45594000000E+02  0.51100000000E-03 0.  1.
         11   -1    0    0    0    0 -0.00000000000E+00 -0.00000000000E+00 -0.45593999997E+02  0.45594000000E+02  0.51100000000E-03 0. -1.
    9900012    2    1    2    0    0  0.22337307705E+01  0.78981784207E+00  0.31797995955E+02  0.59301860188E+02  0.49999847096E+02 0.  0.
         12    1    1    2    0    0 -0.22337307705E+01 -0.78981784207E+00 -0.31797995955E+02  0.31886139812E+02  0.00000000000E+00 0. -1.
         11    1    3    3    0    0 -0.11651792385E+02 -0.16481252701E+02  0.40325265185E+01  0.20582935329E+02  0.51100000000E-03 0. -1.
        -11    1    3    3    0    0  0.73721028788E+01  0.94006826449E+00  0.23114291151E+01  0.77829514975E+01  0.51100000000E-03 0.  1.
        -12    1    3    3    0    0  0.65134202770E+01  0.16331002279E+02  0.25454040321E+02  0.30935973361E+02  0.00000000000E+00 0.  1.
</event>
<event>
 7    1  0.6184948E-012  0.5930195E+02  0.7816164E-02  0.1266605E+00
        -11   -1    0    0    0    0  0.00000000000E+00  0.00000000000E+00  0.45593999997E+02  0.45594000000E+02  0.51100000000E-03 0. -1.
         11   -1    0    0    0    0 -0.00000000000E+00 -0.00000000000E+00 -0.45593999997E+02  0.45594000000E+02  0.51100000000E-03 0.  1.
    9900012    2    1    2    0    0  0.23161021401E+01  0.19776355753E+02 -0.24904855718E+02  0.59301946398E+02  0.50000004323E+02 0.  0.
         12    1    1    2    0    0 -0.23161021401E+01 -0.19776355753E+02  0.24904855718E+02  0.31886053602E+02  0.00000000000E+00 0. -1.
         11    1    3    3    0    0 -0.44825113836E+01  0.15150416830E+02 -0.22578449544E+01  0.15960134791E+02  0.51100000000E-03 0. -1.
        -11    1    3    3    0    0  0.15414393545E+02  0.57883972374E+01  0.25731512363E+01  0.16665238627E+02  0.51100000000E-03 0.  1.
        -12    1    3    3    0    0 -0.86157800213E+01 -0.11624583152E+01 -0.25220162000E+02  0.26676572981E+02  0.00000000000E+00 0.  1.
</event>
<event>
 7    1  0.6184948E-012  0.5930190E+02  0.7816164E-02  0.1266605E+00
        -11   -1    0    0    0    0  0.00000000000E+00  0.00000000000E+00  0.45593999997E+02  0.45594000000E+02  0.51100000000E-03 0.  1.
         11   -1    0    0    0    0 -0.00000000000E+00 -0.00000000000E+00 -0.45593999997E+02  0.45594000000E+02  0.51100000000E-03 0. -1.
    9900012    2    1    2    0    0  0.16189180202E+02 -0.36286622774E+01  0.27229882637E+02  0.59301901870E+02  0.49999923114E+02 0.  0.
         12    1    1    2    0    0 -0.16189180202E+02  0.36286622774E+01 -0.27229882637E+02  0.31886098130E+02  0.00000000000E+00 0. -1.
         11    1    3    3    0    0 -0.61817739272E+01 -0.41914807765E+01 -0.47387521140E+01  0.88452592865E+01  0.51100000000E-03 0. -1.
        -11    1    3    3    0    0  0.64579927339E+01 -0.15043582588E+02  0.10126873553E+02  0.19250158842E+02  0.51100000000E-03 0.  1.
         12    1    3    3    0    0  0.15912961396E+02  0.15606401087E+02  0.21841761198E+02  0.31206483741E+02  0.00000000000E+00 0. -1.
</event>
<event>
 7    1  0.6184948E-012  0.5930199E+02  0.7816164E-02  0.1266605E+00
        -11   -1    0    0    0    0  0.00000000000E+00  0.00000000000E+00  0.45593999997E+02  0.45594000000E+02  0.51100000000E-03 0.  1.
         11   -1    0    0    0    0 -0.00000000000E+00 -0.00000000000E+00 -0.45593999997E+02  0.45594000000E+02  0.51100000000E-03 0. -1.
    9900012    2    1    2    0    0 -0.13322153240E+02 -0.26458978019E+02  0.11796634497E+02  0.59301986291E+02  0.50000077078E+02 0.  0.
         12    1    1    2    0    0  0.13322153240E+02  0.26458978019E+02 -0.11796634497E+02  0.31886013709E+02  0.00000000000E+00 0. -1.
         11    1    3    3    0    0  0.70510572403E+01 -0.41393214684E+01 -0.92821831060E+01  0.12369733784E+02  0.51100000000E-03 0. -1.
        -11    1    3    3    0    0 -0.15052838833E+02  0.78219835884E+00 -0.20294537488E+00  0.15074514197E+02  0.51100000000E-03 0.  1.
        -12    1    3    3    0    0 -0.53203716481E+01 -0.23101854910E+02  0.21281762978E+02  0.31857738310E+02  0.00000000000E+00 0.  1.
</event>
<event>
 7    1  0.6184948E-012  0.5930194E+02  0.7816164E-02  0.1266605E+00
        -11   -1    0    0    0    0  0.00000000000E+00  0.00000000000E+00  0.45593999997E+02  0.45594000000E+02  0.51100000000E-03 0. -1.
         11   -1    0    0    0    0 -0.00000000000E+00 -0.00000000000E+00 -0.45593999997E+02  0.45594000000E+02  0.51100000000E-03 0.  1.
    9900012    2    1    2    0    0 -0.31547382789E+02  0.45690490099E+01 -0.77914898797E+00  0.59301942815E+02  0.49999997788E+02 0.  0.
         12    1    1    2    0    0  0.31547382789E+02 -0.45690490099E+01  0.77914898797E+00  0.31886057185E+02  0.00000000000E+00 0. -1.
         11    1    3    3    0    0 -0.22777761111E+02  0.14267954927E+02  0.24950023714E+01  0.26993072743E+02  0.51100000000E-03 0. -1.
        -11    1    3    3    0    0 -0.18881223790E+02 -0.22406947826E+01 -0.49120274384E+01  0.19637956582E+02  0.51100000000E-03 0.  1.
         12    1    3    3    0    0  0.10111602112E+02 -0.74582111347E+01  0.16378760790E+01  0.12670913489E+02  0.00000000000E+00 0. -1.
</event>
<event>
 7    1  0.6184948E-012  0.5930192E+02  0.7816164E-02  0.1266605E+00
        -11   -1    0    0    0    0  0.00000000000E+00  0.00000000000E+00  0.45593999997E+02  0.45594000000E+02  0.51100000000E-03 0.  1.
         11   -1    0    0    0    0 -0.00000000000E+00 -0.00000000000E+00 -0.45593999997E+02  0.45594000000E+02  0.51100000000E-03 0. -1.
    9900012    2    1    2    0    0 -0.10090294136E+02  0.25024694196E+02  0.16990367753E+02  0.59301922290E+02  0.49999960355E+02 0.  0.
         12    1    1    2    0    0  0.10090294136E+02 -0.25024694196E+02 -0.16990367753E+02  0.31886077710E+02  0.00000000000E+00 0. -1.
         11    1    3    3    0    0  0.31820118680E+01  0.16302320968E+02  0.72440890714E-02  0.16609964516E+02  0.51100000000E-03 0. -1.
        -11    1    3    3    0    0 -0.14922410253E+02  0.21550874293E+02  0.12033004979E+02  0.28842879878E+02  0.51100000000E-03 0.  1.
        -12    1    3    3    0    0  0.16501042491E+01 -0.12828501064E+02  0.49501186841E+01  0.13849077896E+02  0.00000000000E+00 0.  1.
</event>
<event>
 7    1  0.6184948E-012  0.5930192E+02  0.7816164E-02  0.1266605E+00
        -11   -1    0    0    0    0  0.00000000000E+00  0.00000000000E+00  0.45593999997E+02  0.45594000000E+02  0.51100000000E-03 0. -1.
         11   -1    0    0    0    0 -0.00000000000E+00 -0.00000000000E+00 -0.45593999997E+02  0.45594000000E+02  0.51100000000E-03 0.  1.
    9900012    2    1    2    0    0  0.16127722225E+02  0.21935678994E+02  0.16596519220E+02  0.59301923300E+02  0.49999962197E+02 0.  0.
         12    1    1    2    0    0 -0.16127722225E+02 -0.21935678994E+02 -0.16596519220E+02  0.31886076700E+02  0.00000000000E+00 0. -1.
         11    1    3    3    0    0 -0.15367767431E+00 -0.36392988526E+01  0.51984166698E+01  0.63475703305E+01  0.51100000000E-03 0. -1.
        -11    1    3    3    0    0  0.21808381320E+02 -0.38260157112E+00  0.14563402106E+02  0.26226790900E+02  0.51100000000E-03 0.  1.
        -12    1    3    3    0    0 -0.55269814212E+01  0.25957579418E+02 -0.31652995556E+01  0.26727562069E+02  0.00000000000E+00 0.  1.
</event>
<event>
 7    1  0.6184948E-012  0.5930194E+02  0.7816164E-02  0.1266605E+00
        -11   -1    0    0    0    0  0.00000000000E+00  0.00000000000E+00  0.45593999997E+02  0.45594000000E+02  0.51100000000E-03 0. -1.
         11   -1    0    0    0    0 -0.00000000000E+00 -0.00000000000E+00 -0.45593999997E+02  0.45594000000E+02  0.51100000000E-03 0.  1.
    9900012    2    1    2    0    0 -0.22805730609E+02  0.22278242794E+02 -0.54740418147E+00  0.59301935615E+02  0.49999984657E+02 0.  0.
         12    1    1    2    0    0  0.22805730609E+02 -0.22278242794E+02  0.54740418147E+00  0.31886064385E+02  0.00000000000E+00 0. -1.
         11    1    3    3    0    0  0.36848998525E+00  0.45573585079E+01  0.39169417651E+00  0.45889787565E+01  0.51100000000E-03 0. -1.
        -11    1    3    3    0    0 -0.45456519504E+01  0.30952960460E+02 -0.44335126144E+01  0.31597543373E+02  0.51100000000E-03 0.  1.
         12    1    3    3    0    0 -0.18628568644E+02 -0.13232076174E+02  0.34944142564E+01  0.23115413485E+02  0.00000000000E+00 0. -1.
</event>
<event>
 7    1  0.6184948E-012  0.5930193E+02  0.7816164E-02  0.1266605E+00
        -11   -1    0    0    0    0  0.00000000000E+00  0.00000000000E+00  0.45593999997E+02  0.45594000000E+02  0.51100000000E-03 0.  1.
         11   -1    0    0    0    0 -0.00000000000E+00 -0.00000000000E+00 -0.45593999997E+02  0.45594000000E+02  0.51100000000E-03 0. -1.
    9900012    2    1    2    0    0 -0.20992671595E+02  0.69943819714E+01  0.22958832643E+02  0.59301927238E+02  0.49999969379E+02 0.  0.
         12    1    1    2    0    0  0.20992671595E+02 -0.69943819714E+01 -0.22958832643E+02  0.31886072762E+02  0.00000000000E+00 0. -1.
         11    1    3    3    0    0  0.35813450827E+01  0.15376166955E+02  0.19812412401E+01  0.15911563718E+02  0.51100000000E-03 0. -1.
        -11    1    3    3    0    0  0.55504030615E+01 -0.46045714870E+01  0.16437775397E+01  0.73966923409E+01  0.51100000000E-03 0.  1.
        -12    1    3    3    0    0 -0.30124419740E+02 -0.37772134965E+01  0.19333813864E+02  0.35993671179E+02  0.00000000000E+00 0.  1.
</event>
<event>
 7    1  0.6184948E-012  0.5930195E+02  0.7816164E-02  0.1266605E+00
        -11   -1    0    0    0    0  0.00000000000E+00  0.00000000000E+00  0.45593999997E+02  0.45594000000E+02  0.51100000000E-03 0. -1.
         11   -1    0    0    0    0 -0.00000000000E+00 -0.00000000000E+00 -0.45593999997E+02  0.45594000000E+02  0.51100000000E-03 0.  1.
    9900012    2    1    2    0    0 -0.18469116983E+01 -0.31781743012E+02  0.17971836661E+01  0.59301950686E+02  0.50000012144E+02 0.  0.
         12    1    1    2    0    0  0.18469116983E+01  0.31781743012E+02 -0.17971836661E+01  0.31886049314E+02  0.00000000000E+00 0. -1.
         11    1    3    3    0    0 -0.16862424125E+02 -0.83969809810E+01  0.11033794979E+02  0.21831062018E+02  0.51100000000E-03 0. -1.
        -11    1    3    3    0    0  0.30273847717E+01  0.23025028154E+01 -0.82754010022E+01  0.91076253644E+01  0.51100000000E-03 0.  1.
        -12    1    3    3    0    0  0.11988127655E+02 -0.25687264846E+02 -0.96121031048E+00  0.28363263303E+02  0.00000000000E+00 0.  1.
</event>
<event>
 7    1  0.6184948E-012  0.5930194E+02  0.7816164E-02  0.1266605E+00
        -11   -1    0    0    0    0  0.00000000000E+00  0.00000000000E+00  0.45593999997E+02  0.45594000000E+02  0.51100000000E-03 0. -1.
         11   -1    0    0    0    0 -0.00000000000E+00 -0.00000000000E+00 -0.45593999997E+02  0.45594000000E+02  0.51100000000E-03 0.  1.
    9900012    2    1    2    0    0  0.17402787663E+02  0.95231765132E+01 -0.24963432027E+02  0.59301939598E+02  0.49999991922E+02 0.  0.
         12    1    1    2    0    0 -0.17402787663E+02 -0.95231765132E+01  0.24963432027E+02  0.31886060402E+02  0.00000000000E+00 0. -1.
         11    1    3    3    0    0 -0.56667428030E+01  0.69397506234E+01 -0.11384844813E+01  0.90315148168E+01  0.51100000000E-03 0.  1.
        -11    1    3    3    0    0  0.51811409313E+01  0.13515783586E+02  0.43840597523E+01  0.15124172952E+02  0.51100000000E-03 0. -1.
        -12    1    3    3    0    0  0.17888389535E+02 -0.10932357696E+02 -0.28209007298E+02  0.35146251830E+02  0.00000000000E+00 0.  1.
</event>
<event>
 7    1  0.6184948E-012  0.5930194E+02  0.7816164E-02  0.1266605E+00
        -11   -1    0    0    0    0  0.00000000000E+00  0.00000000000E+00  0.45593999997E+02  0.45594000000E+02  0.51100000000E-03 0. -1.
         11   -1    0    0    0    0 -0.00000000000E+00 -0.00000000000E+00 -0.45593999997E+02  0.45594000000E+02  0.51100000000E-03 0.  1.
    9900012    2    1    2    0    0 -0.16206819800E+02 -0.14463093371E+02 -0.23342638241E+02  0.59301939755E+02  0.49999992207E+02 0.  0.
         12    1    1    2    0    0  0.16206819800E+02  0.14463093371E+02  0.23342638241E+02  0.31886060245E+02  0.00000000000E+00 0. -1.
         11    1    3    3    0    0  0.40024864237E+01 -0.72380308119E+01  0.94753957866E+01  0.12577444620E+02  0.51100000000E-03 0. -1.
        -11    1    3    3    0    0 -0.20279614924E+02 -0.10491922199E+02 -0.12275230554E+02  0.25923435311E+02  0.51100000000E-03 0.  1.
        -12    1    3    3    0    0  0.70308700437E-01  0.32668596393E+01 -0.20542803474E+02  0.20801059823E+02  0.00000000000E+00 0.  1.
</event>
<event>
 7    1  0.6184948E-012  0.5930194E+02  0.7816164E-02  0.1266605E+00
        -11   -1    0    0    0    0  0.00000000000E+00  0.00000000000E+00  0.45593999997E+02  0.45594000000E+02  0.51100000000E-03 0.  1.
         11   -1    0    0    0    0 -0.00000000000E+00 -0.00000000000E+00 -0.45593999997E+02  0.45594000000E+02  0.51100000000E-03 0. -1.
    9900012    2    1    2    0    0  0.23815320787E+02  0.19623386054E+02  0.80295626920E+01  0.59301942523E+02  0.49999997255E+02 0.  0.
         12    1    1    2    0    0 -0.23815320787E+02 -0.19623386054E+02 -0.80295626920E+01  0.31886057477E+02  0.00000000000E+00 0. -1.
         11    1    3    3    0    0 -0.17624019378E+00 -0.60265413083E+01  0.79029074733E+01  0.99401311631E+01  0.51100000000E-03 0. -1.
        -11    1    3    3    0    0  0.11050950872E+02  0.89930815343E+01  0.17121476078E+02  0.22274289529E+02  0.51100000000E-03 0.  1.
        -12    1    3    3    0    0  0.12940610109E+02  0.16656845828E+02 -0.16994820859E+02  0.27087521831E+02  0.00000000000E+00 0.  1.
</event>
<event>
 7    1  0.6184948E-012  0.5930189E+02  0.7816164E-02  0.1266605E+00
        -11   -1    0    0    0    0  0.00000000000E+00  0.00000000000E+00  0.45593999997E+02  0.45594000000E+02  0.51100000000E-03 0. -1.
         11   -1    0    0    0    0 -0.00000000000E+00 -0.00000000000E+00 -0.45593999997E+02  0.45594000000E+02  0.51100000000E-03 0.  1.
    9900012    2    1    2    0    0  0.27923076942E+02 -0.15317778548E+02 -0.15464983527E+01  0.59301886679E+02  0.49999895409E+02 0.  0.
         12    1    1    2    0    0 -0.27923076942E+02  0.15317778548E+02  0.15464983527E+01  0.31886113321E+02  0.00000000000E+00 0. -1.
         11    1    3    3    0    0  0.15317355559E+02 -0.79746070722E+01  0.13934428295E+02  0.22189728061E+02  0.51100000000E-03 0. -1.
        -11    1    3    3    0    0  0.20713642589E+02  0.22960474190E+01 -0.11982049819E+02  0.24039474645E+02  0.51100000000E-03 0.  1.
         12    1    3    3    0    0 -0.81079212056E+01 -0.96392188952E+01 -0.34988768280E+01  0.13072683972E+02  0.00000000000E+00 0. -1.
</event>
<event>
 7    1  0.6184948E-012  0.5930180E+02  0.7816164E-02  0.1266605E+00
        -11   -1    0    0    0    0  0.00000000000E+00  0.00000000000E+00  0.45593999997E+02  0.45594000000E+02  0.51100000000E-03 0. -1.
         11   -1    0    0    0    0 -0.00000000000E+00 -0.00000000000E+00 -0.45593999997E+02  0.45594000000E+02  0.51100000000E-03 0.  1.
    9900012    2    1    2    0    0 -0.19083654931E+02 -0.80100755523E+01 -0.24256594144E+02  0.59301803059E+02  0.49999742907E+02 0.  0.
         12    1    1    2    0    0  0.19083654931E+02  0.80100755523E+01  0.24256594144E+02  0.31886196941E+02  0.00000000000E+00 0. -1.
         11    1    3    3    0    0 -0.20818155723E+02 -0.19541633345E+02 -0.54612998718E+01  0.29070549325E+02  0.51100000000E-03 0. -1.
        -11    1    3    3    0    0 -0.94458997829E+01  0.55953025294E+01 -0.96193981531E+01  0.14596754920E+02  0.51100000000E-03 0.  1.
        -12    1    3    3    0    0  0.11180400575E+02  0.59362552637E+01 -0.91758961195E+01  0.15634498814E+02  0.00000000000E+00 0.  1.
</event>
<event>
 7    1  0.6184948E-012  0.5930195E+02  0.7816164E-02  0.1266605E+00
        -11   -1    0    0    0    0  0.00000000000E+00  0.00000000000E+00  0.45593999997E+02  0.45594000000E+02  0.51100000000E-03 0.  1.
         11   -1    0    0    0    0 -0.00000000000E+00 -0.00000000000E+00 -0.45593999997E+02  0.45594000000E+02  0.51100000000E-03 0. -1.
    9900012    2    1    2    0    0 -0.14120555921E+02 -0.14354443774E+02  0.24724072850E+02  0.59301953931E+02  0.50000018062E+02 0.  0.
         12    1    1    2    0    0  0.14120555921E+02  0.14354443774E+02 -0.24724072850E+02  0.31886046069E+02  0.00000000000E+00 0. -1.
         11    1    3    3    0    0  0.25083835456E+01  0.59199256485E+01 -0.31244733636E+00  0.64370126063E+01  0.51100000000E-03 0. -1.
        -11    1    3    3    0    0 -0.22792654121E+02  0.20060693855E+01  0.16551233731E+02  0.28239559744E+02  0.51100000000E-03 0.  1.
        -12    1    3    3    0    0  0.61637146541E+01 -0.22280438807E+02  0.84852864563E+01  0.24625381582E+02  0.00000000000E+00 0.  1.
</event>
<event>
 7    1  0.6184948E-012  0.5930194E+02  0.7816164E-02  0.1266605E+00
        -11   -1    0    0    0    0  0.00000000000E+00  0.00000000000E+00  0.45593999997E+02  0.45594000000E+02  0.51100000000E-03 0.  1.
         11   -1    0    0    0    0 -0.00000000000E+00 -0.00000000000E+00 -0.45593999997E+02  0.45594000000E+02  0.51100000000E-03 0. -1.
    9900012    2    1    2    0    0  0.28792437826E+02  0.13054205596E+02 -0.41597816475E+01  0.59301944379E+02  0.50000000640E+02 0.  0.
         12    1    1    2    0    0 -0.28792437826E+02 -0.13054205596E+02  0.41597816475E+01  0.31886055621E+02  0.00000000000E+00 0. -1.
         11    1    3    3    0    0  0.60286149215E+01  0.21927712476E+02 -0.39657519745E+01  0.23084539443E+02  0.51100000000E-03 0. -1.
        -11    1    3    3    0    0  0.11308240962E+02  0.64331649405E+01 -0.83205832386E+01  0.15443251941E+02  0.51100000000E-03 0.  1.
         12    1    3    3    0    0  0.11455581942E+02 -0.15306671820E+02  0.81265535656E+01  0.20774152996E+02  0.00000000000E+00 0. -1.
</event>
<event>
 7    1  0.6184948E-012  0.5930193E+02  0.7816164E-02  0.1266605E+00
        -11   -1    0    0    0    0  0.00000000000E+00  0.00000000000E+00  0.45593999997E+02  0.45594000000E+02  0.51100000000E-03 0. -1.
         11   -1    0    0    0    0 -0.00000000000E+00 -0.00000000000E+00 -0.45593999997E+02  0.45594000000E+02  0.51100000000E-03 0.  1.
    9900012    2    1    2    0    0  0.97737030484E+01 -0.24109867266E+02 -0.18436655848E+02  0.59301933298E+02  0.49999980432E+02 0.  0.
         12    1    1    2    0    0 -0.97737030484E+01  0.24109867266E+02  0.18436655848E+02  0.31886066702E+02  0.00000000000E+00 0. -1.
         11    1    3    3    0    0  0.73065167813E+00 -0.17165703859E+02 -0.25826342195E+01  0.17374269498E+02  0.51100000000E-03 0.  1.
        -11    1    3    3    0    0  0.14793917398E+02 -0.16068788183E+02  0.10598038005E+01  0.21867535983E+02  0.51100000000E-03 0. -1.
        -12    1    3    3    0    0 -0.57508660274E+01  0.91246247756E+01 -0.16913825429E+02  0.20060127816E+02  0.00000000000E+00 0.  1.
</event>
<event>
 7    1  0.6184948E-012  0.5930196E+02  0.7816164E-02  0.1266605E+00
        -11   -1    0    0    0    0  0.00000000000E+00  0.00000000000E+00  0.45593999997E+02  0.45594000000E+02  0.51100000000E-03 0. -1.
         11   -1    0    0    0    0 -0.00000000000E+00 -0.00000000000E+00 -0.45593999997E+02  0.45594000000E+02  0.51100000000E-03 0.  1.
    9900012    2    1    2    0    0  0.15864210441E+02 -0.13330775719E+02 -0.24235032753E+02  0.59301959689E+02  0.50000028563E+02 0.  0.
         12    1    1    2    0    0 -0.15864210441E+02  0.13330775719E+02  0.24235032753E+02  0.31886040311E+02  0.00000000000E+00 0. -1.
         11    1    3    3    0    0 -0.43206293071E+01 -0.51127747330E+01  0.27351606539E+01  0.72311414827E+01  0.51100000000E-03 0. -1.
        -11    1    3    3    0    0  0.16831214383E+02 -0.33751626893E+01 -0.36802376594E+02  0.40609068249E+02  0.51100000000E-03 0.  1.
         12    1    3    3    0    0  0.33536253651E+01 -0.48428382964E+01  0.98321831877E+01  0.11461749958E+02  0.00000000000E+00 0. -1.
</event>
<event>
 7    1  0.6184948E-012  0.5930187E+02  0.7816164E-02  0.1266605E+00
        -11   -1    0    0    0    0  0.00000000000E+00  0.00000000000E+00  0.45593999997E+02  0.45594000000E+02  0.51100000000E-03 0. -1.
         11   -1    0    0    0    0 -0.00000000000E+00 -0.00000000000E+00 -0.45593999997E+02  0.45594000000E+02  0.51100000000E-03 0.  1.
    9900012    2    1    2    0    0 -0.58292569575E+01 -0.24273939969E+02 -0.19837366040E+02  0.59301866812E+02  0.49999859177E+02 0.  0.
         12    1    1    2    0    0  0.58292569575E+01  0.24273939969E+02  0.19837366040E+02  0.31886133188E+02  0.00000000000E+00 0. -1.
         11    1    3    3    0    0 -0.40917623450E+01 -0.15468607729E+02 -0.19455909969E+02  0.25190331025E+02  0.51100000000E-03 0. -1.
        -11    1    3    3    0    0 -0.22936548735E+01 -0.19929073759E+02 -0.68908943228E+01  0.21211158817E+02  0.51100000000E-03 0.  1.
         12    1    3    3    0    0  0.55616026102E+00  0.11123741519E+02  0.65094382520E+01  0.12900376970E+02  0.00000000000E+00 0. -1.
</event>
<event>
 7    1  0.6184948E-012  0.5930194E+02  0.7816164E-02  0.1266605E+00
        -11   -1    0    0    0    0  0.00000000000E+00  0.00000000000E+00  0.45593999997E+02  0.45594000000E+02  0.51100000000E-03 0.  1.
         11   -1    0    0    0    0 -0.00000000000E+00 -0.00000000000E+00 -0.45593999997E+02  0.45594000000E+02  0.51100000000E-03 0. -1.
    9900012    2    1    2    0    0  0.27640984987E+02 -0.15797639886E+02 -0.17696303980E+01  0.59301936136E+02  0.49999985607E+02 0.  0.
         12    1    1    2    0    0 -0.27640984987E+02  0.15797639886E+02  0.17696303980E+01  0.31886063864E+02  0.00000000000E+00 0. -1.
         11    1    3    3    0    0  0.96195805987E+01  0.10759665053E+02  0.53065853557E+01  0.15377469602E+02  0.51100000000E-03 0. -1.
        -11    1    3    3    0    0 -0.11301302139E+01  0.47645732507E+01 -0.52307838914E+01  0.71651554722E+01  0.51100000000E-03 0.  1.
        -12    1    3    3    0    0  0.19151534602E+02 -0.31321878190E+02 -0.18454318623E+01  0.36759311062E+02  0.00000000000E+00 0.  1.
</event>
<event>
 7    1  0.6184948E-012  0.5930180E+02  0.7816164E-02  0.1266605E+00
        -11   -1    0    0    0    0  0.00000000000E+00  0.00000000000E+00  0.45593999997E+02  0.45594000000E+02  0.51100000000E-03 0.  1.
         11   -1    0    0    0    0 -0.00000000000E+00 -0.00000000000E+00 -0.45593999997E+02  0.45594000000E+02  0.51100000000E-03 0. -1.
    9900012    2    1    2    0    0 -0.27427941646E+02  0.15952401455E+02  0.31557656444E+01  0.59301796840E+02  0.49999731565E+02 0.  0.
         12    1    1    2    0    0  0.27427941646E+02 -0.15952401455E+02 -0.31557656444E+01  0.31886203160E+02  0.00000000000E+00 0. -1.
         11    1    3    3    0    0 -0.44736096329E+01 -0.49561678124E+01 -0.58609918305E+01  0.88841436295E+01  0.51100000000E-03 0. -1.
        -11    1    3    3    0    0 -0.30077609325E+02  0.29693436049E+01  0.68889779424E+01  0.30998993557E+02  0.51100000000E-03 0.  1.
         12    1    3    3    0    0  0.71232773118E+01  0.17939225662E+02  0.21277795325E+01  0.19418659654E+02  0.00000000000E+00 0. -1.
</event>
<event>
 7    1  0.6184948E-012  0.5930194E+02  0.7816164E-02  0.1266605E+00
        -11   -1    0    0    0    0  0.00000000000E+00  0.00000000000E+00  0.45593999997E+02  0.45594000000E+02  0.51100000000E-03 0.  1.
         11   -1    0    0    0    0 -0.00000000000E+00 -0.00000000000E+00 -0.45593999997E+02  0.45594000000E+02  0.51100000000E-03 0. -1.
    9900012    2    1    2    0    0  0.28729851661E+02  0.13499524515E+02 -0.30131797625E+01  0.59301940494E+02  0.49999993555E+02 0.  0.
         12    1    1    2    0    0 -0.28729851661E+02 -0.13499524515E+02  0.30131797625E+01  0.31886059506E+02  0.00000000000E+00 0. -1.
         11    1    3    3    0    0 -0.19995103145E+01 -0.86844487014E+01  0.13333345114E+02  0.16037324682E+02  0.51100000000E-03 0. -1.
        -11    1    3    3    0    0  0.21476324609E+02  0.10350890237E+02 -0.48016774617E+01  0.24319324705E+02  0.51100000000E-03 0.  1.
        -12    1    3    3    0    0  0.92530373660E+01  0.11833082978E+02 -0.11544847415E+02  0.18945291107E+02  0.00000000000E+00 0.  1.
</event>
<event>
 7    1  0.6184948E-012  0.5930195E+02  0.7816164E-02  0.1266605E+00
        -11   -1    0    0    0    0  0.00000000000E+00  0.00000000000E+00  0.45593999997E+02  0.45594000000E+02  0.51100000000E-03 0. -1.
         11   -1    0    0    0    0 -0.00000000000E+00 -0.00000000000E+00 -0.45593999997E+02  0.45594000000E+02  0.51100000000E-03 0.  1.
    9900012    2    1    2    0    0 -0.22169454017E+02  0.22904142929E+02 -0.79735000687E+00  0.59301949417E+02  0.50000009829E+02 0.  0.
         12    1    1    2    0    0  0.22169454017E+02 -0.22904142929E+02  0.79735000687E+00  0.31886050583E+02  0.00000000000E+00 0. -1.
         11    1    3    3    0    0  0.11613821467E+01  0.20957293600E+02 -0.35126723159E+01  0.21281349360E+02  0.51100000000E-03 0. -1.
        -11    1    3    3    0    0  0.54841320660E+01  0.65939492075E+00  0.69392385080E+01  0.88692467273E+01  0.51100000000E-03 0.  1.
        -12    1    3    3    0    0 -0.28814968230E+02  0.12874544090E+01 -0.42239161989E+01  0.29151353330E+02  0.00000000000E+00 0.  1.
</event>
<event>
 7    1  0.6184948E-012  0.5930195E+02  0.7816164E-02  0.1266605E+00
        -11   -1    0    0    0    0  0.00000000000E+00  0.00000000000E+00  0.45593999997E+02  0.45594000000E+02  0.51100000000E-03 0. -1.
         11   -1    0    0    0    0 -0.00000000000E+00 -0.00000000000E+00 -0.45593999997E+02  0.45594000000E+02  0.51100000000E-03 0.  1.
    9900012    2    1    2    0    0  0.29304617374E+02  0.76991757763E+01  0.99338979999E+01  0.59301949186E+02  0.50000009407E+02 0.  0.
         12    1    1    2    0    0 -0.29304617374E+02 -0.76991757763E+01 -0.99338979999E+01  0.31886050814E+02  0.00000000000E+00 0. -1.
         11    1    3    3    0    0 -0.11493334218E+01  0.73785070013E+01  0.93791871805E+01  0.11988848373E+02  0.51100000000E-03 0. -1.
        -11    1    3    3    0    0  0.48772328000E+01  0.16222745408E+02 -0.21443515146E+01  0.17075219238E+02  0.51100000000E-03 0.  1.
         12    1    3    3    0    0  0.25576717995E+02 -0.15902076633E+02  0.26990623340E+01  0.30237881575E+02  0.00000000000E+00 0. -1.
</event>
<event>
 7    1  0.6184948E-012  0.5930196E+02  0.7816164E-02  0.1266605E+00
        -11   -1    0    0    0    0  0.00000000000E+00  0.00000000000E+00  0.45593999997E+02  0.45594000000E+02  0.51100000000E-03 0.  1.
         11   -1    0    0    0    0 -0.00000000000E+00 -0.00000000000E+00 -0.45593999997E+02  0.45594000000E+02  0.51100000000E-03 0. -1.
    9900012    2    1    2    0    0  0.49884390649E+01  0.88489879750E+01  0.30224666610E+02  0.59301959415E+02  0.50000028063E+02 0.  0.
         12    1    1    2    0    0 -0.49884390649E+01 -0.88489879750E+01 -0.30224666610E+02  0.31886040585E+02  0.00000000000E+00 0. -1.
         11    1    3    3    0    0  0.87352079531E+01  0.38651890969E+01 -0.27750713006E+01  0.99470883038E+01  0.51100000000E-03 0. -1.
        -11    1    3    3    0    0  0.12701594725E+02 -0.78512543812E+01  0.85253461911E+01  0.17194598915E+02  0.51100000000E-03 0.  1.
         12    1    3    3    0    0 -0.16448363613E+02  0.12835053259E+02  0.24474391719E+02  0.32160272196E+02  0.00000000000E+00 0. -1.
</event>
<event>
 7    1  0.6184948E-012  0.5930197E+02  0.7816164E-02  0.1266605E+00
        -11   -1    0    0    0    0  0.00000000000E+00  0.00000000000E+00  0.45593999997E+02  0.45594000000E+02  0.51100000000E-03 0. -1.
         11   -1    0    0    0    0 -0.00000000000E+00 -0.00000000000E+00 -0.45593999997E+02  0.45594000000E+02  0.51100000000E-03 0.  1.
    9900012    2    1    2    0    0  0.10322979282E+02  0.28787786402E+02 -0.90232260250E+01  0.59301966144E+02  0.50000040335E+02 0.  0.
         12    1    1    2    0    0 -0.10322979282E+02 -0.28787786402E+02  0.90232260250E+01  0.31886033856E+02  0.00000000000E+00 0. -1.
         11    1    3    3    0    0  0.12186022124E+02  0.34007736690E+01 -0.26033602628E+00  0.12654334113E+02  0.51100000000E-03 0. -1.
        -11    1    3    3    0    0  0.64376532311E+01 -0.44695666303E+01  0.81808157057E+01  0.11328996022E+02  0.51100000000E-03 0.  1.
        -12    1    3    3    0    0 -0.83006960733E+01  0.29856579363E+02 -0.16943705704E+02  0.35318636009E+02  0.00000000000E+00 0.  1.
</event>
<event>
 7    1  0.6184948E-012  0.5930198E+02  0.7816164E-02  0.1266605E+00
        -11   -1    0    0    0    0  0.00000000000E+00  0.00000000000E+00  0.45593999997E+02  0.45594000000E+02  0.51100000000E-03 0.  1.
         11   -1    0    0    0    0 -0.00000000000E+00 -0.00000000000E+00 -0.45593999997E+02  0.45594000000E+02  0.51100000000E-03 0. -1.
    9900012    2    1    2    0    0  0.55685286602E+01  0.14181455799E+02  0.28010642024E+02  0.59301980075E+02  0.50000065742E+02 0.  0.
         12    1    1    2    0    0 -0.55685286602E+01 -0.14181455799E+02 -0.28010642024E+02  0.31886019925E+02  0.00000000000E+00 0. -1.
         11    1    3    3    0    0 -0.79397277417E+01 -0.28196304675E+01  0.18686306577E+02  0.20497991275E+02  0.51100000000E-03 0. -1.
        -11    1    3    3    0    0 -0.33706666680E+01 -0.72948656176E+01  0.27971559148E+01  0.85088506650E+01  0.51100000000E-03 0.  1.
        -12    1    3    3    0    0  0.16878923070E+02  0.24295951884E+02  0.65271795329E+01  0.30295138135E+02  0.00000000000E+00 0.  1.
</event>
<event>
 7    1  0.6184948E-012  0.5930194E+02  0.7816164E-02  0.1266605E+00
        -11   -1    0    0    0    0  0.00000000000E+00  0.00000000000E+00  0.45593999997E+02  0.45594000000E+02  0.51100000000E-03 0. -1.
         11   -1    0    0    0    0 -0.00000000000E+00 -0.00000000000E+00 -0.45593999997E+02  0.45594000000E+02  0.51100000000E-03 0.  1.
    9900012    2    1    2    0    0 -0.82159312575E+01 -0.67684251796E+01 -0.30056737864E+02  0.59301943535E+02  0.49999999101E+02 0.  0.
         12    1    1    2    0    0  0.82159312575E+01  0.67684251796E+01  0.30056737864E+02  0.31886056465E+02  0.00000000000E+00 0. -1.
         11    1    3    3    0    0 -0.17261931270E+02 -0.77212635376E+00 -0.30685931358E+02  0.35216428465E+02  0.51100000000E-03 0. -1.
        -11    1    3    3    0    0  0.12115336321E+01  0.73070630973E+01  0.37995322404E+01  0.83245078147E+01  0.51100000000E-03 0.  1.
        -12    1    3    3    0    0  0.78344663801E+01 -0.13303361923E+02 -0.31703387465E+01  0.15761007255E+02  0.00000000000E+00 0.  1.
</event>
<event>
 7    1  0.6184948E-012  0.5930193E+02  0.7816164E-02  0.1266605E+00
        -11   -1    0    0    0    0  0.00000000000E+00  0.00000000000E+00  0.45593999997E+02  0.45594000000E+02  0.51100000000E-03 0. -1.
         11   -1    0    0    0    0 -0.00000000000E+00 -0.00000000000E+00 -0.45593999997E+02  0.45594000000E+02  0.51100000000E-03 0.  1.
    9900012    2    1    2    0    0  0.25135862564E+02 -0.16884819167E+02  0.99906182887E+01  0.59301934722E+02  0.49999983028E+02 0.  0.
         12    1    1    2    0    0 -0.25135862564E+02  0.16884819167E+02 -0.99906182887E+01  0.31886065278E+02  0.00000000000E+00 0. -1.
         11    1    3    3    0    0  0.33719897798E+00  0.77299977819E+01  0.54876420821E+01  0.94858201933E+01  0.51100000000E-03 0. -1.
        -11    1    3    3    0    0  0.10680174506E+02 -0.98090086295E+01  0.19606627896E+02  0.24386525695E+02  0.51100000000E-03 0.  1.
        -12    1    3    3    0    0  0.14118489080E+02 -0.14805808320E+02 -0.15103651689E+02  0.25429588833E+02  0.00000000000E+00 0.  1.
</event>
<event>
 7    1  0.6184948E-012  0.5930196E+02  0.7816164E-02  0.1266605E+00
        -11   -1    0    0    0    0  0.00000000000E+00  0.00000000000E+00  0.45593999997E+02  0.45594000000E+02  0.51100000000E-03 0.  1.
         11   -1    0    0    0    0 -0.00000000000E+00 -0.00000000000E+00 -0.45593999997E+02  0.45594000000E+02  0.51100000000E-03 0. -1.
    9900012    2    1    2    0    0  0.36333743323E+01 -0.29814120852E+02  0.10706833008E+02  0.59301960982E+02  0.50000030920E+02 0.  0.
         12    1    1    2    0    0 -0.36333743323E+01  0.29814120852E+02 -0.10706833008E+02  0.31886039018E+02  0.00000000000E+00 0. -1.
         11    1    3    3    0    0 -0.12639500109E+02 -0.13493028406E+02 -0.57773603366E+01  0.19369994097E+02  0.51100000000E-03 0. -1.
        -11    1    3    3    0    0  0.88622778833E+01 -0.23957324267E+02  0.13441222130E+02  0.28864507755E+02  0.51100000000E-03 0.  1.
         12    1    3    3    0    0  0.74105965584E+01  0.76362318212E+01  0.30429712150E+01  0.11067459130E+02  0.00000000000E+00 0. -1.
</event>
<event>
 7    1  0.6184948E-012  0.5930194E+02  0.7816164E-02  0.1266605E+00
        -11   -1    0    0    0    0  0.00000000000E+00  0.00000000000E+00  0.45593999997E+02  0.45594000000E+02  0.51100000000E-03 0.  1.
         11   -1    0    0    0    0 -0.00000000000E+00 -0.00000000000E+00 -0.45593999997E+02  0.45594000000E+02  0.51100000000E-03 0. -1.
    9900012    2    1    2    0    0 -0.22417943145E+02  0.13488714258E+02  0.18226664623E+02  0.59301938932E+02  0.49999990706E+02 0.  0.
         12    1    1    2    0    0  0.22417943145E+02 -0.13488714258E+02 -0.18226664623E+02  0.31886061068E+02  0.00000000000E+00 0. -1.
         11    1    3    3    0    0 -0.85027475960E+01  0.39009551906E+00 -0.92170472203E-01  0.85121904850E+01  0.51100000000E-03 0. -1.
        -11    1    3    3    0    0 -0.19964859659E+02  0.15715895015E+02  0.28801327950E+02  0.38407049734E+02  0.51100000000E-03 0.  1.
        -12    1    3    3    0    0  0.60496641104E+01 -0.26172762764E+01 -0.10482492855E+02  0.12382698712E+02  0.00000000000E+00 0.  1.
</event>
<event>
 7    1  0.6184948E-012  0.5930195E+02  0.7816164E-02  0.1266605E+00
        -11   -1    0    0    0    0  0.00000000000E+00  0.00000000000E+00  0.45593999997E+02  0.45594000000E+02  0.51100000000E-03 0.  1.
         11   -1    0    0    0    0 -0.00000000000E+00 -0.00000000000E+00 -0.45593999997E+02  0.45594000000E+02  0.51100000000E-03 0. -1.
    9900012    2    1    2    0    0 -0.95007632688E+01  0.45756564253E+01  0.30091839935E+02  0.59301953443E+02  0.50000017170E+02 0.  0.
         12    1    1    2    0    0  0.95007632688E+01 -0.45756564253E+01 -0.30091839935E+02  0.31886046557E+02  0.00000000000E+00 0. -1.
         11    1    3    3    0    0 -0.31324368025E+01  0.18416347136E+01  0.20762355121E+01  0.41850367863E+01  0.51100000000E-03 0. -1.
        -11    1    3    3    0    0 -0.17746150688E+02  0.95888047891E+01  0.34783472483E+02  0.40208966658E+02  0.51100000000E-03 0.  1.
        -12    1    3    3    0    0  0.11377824222E+02 -0.68547830774E+01 -0.67678680601E+01  0.14907949998E+02  0.00000000000E+00 0.  1.
</event>
<event>
 7    1  0.6184948E-012  0.5930193E+02  0.7816164E-02  0.1266605E+00
        -11   -1    0    0    0    0  0.00000000000E+00  0.00000000000E+00  0.45593999997E+02  0.45594000000E+02  0.51100000000E-03 0. -1.
         11   -1    0    0    0    0 -0.00000000000E+00 -0.00000000000E+00 -0.45593999997E+02  0.45594000000E+02  0.51100000000E-03 0.  1.
    9900012    2    1    2    0    0 -0.12177404220E+02  0.17939431211E+02 -0.23379669418E+02  0.59301932387E+02  0.49999978770E+02 0.  0.
         12    1    1    2    0    0  0.12177404220E+02 -0.17939431211E+02  0.23379669418E+02  0.31886067613E+02  0.00000000000E+00 0. -1.
         11    1    3    3    0    0 -0.43959947566E+01  0.14977662373E+02  0.37344595898E+01  0.16049963512E+02  0.51100000000E-03 0. -1.
        -11    1    3    3    0    0  0.11072231514E+02 -0.46614122762E+01 -0.16210596845E+02  0.20176880964E+02  0.51100000000E-03 0.  1.
         12    1    3    3    0    0 -0.18853640978E+02  0.76231811147E+01 -0.10903532163E+02  0.23075087910E+02  0.00000000000E+00 0. -1.
</event>
<event>
 7    1  0.6184948E-012  0.5930194E+02  0.7816164E-02  0.1266605E+00
        -11   -1    0    0    0    0  0.00000000000E+00  0.00000000000E+00  0.45593999997E+02  0.45594000000E+02  0.51100000000E-03 0.  1.
         11   -1    0    0    0    0 -0.00000000000E+00 -0.00000000000E+00 -0.45593999997E+02  0.45594000000E+02  0.51100000000E-03 0. -1.
    9900012    2    1    2    0    0 -0.24395828058E+02 -0.95699417228E+01  0.18165373021E+02  0.59301937399E+02  0.49999987911E+02 0.  0.
         12    1    1    2    0    0  0.24395828058E+02  0.95699417228E+01 -0.18165373021E+02  0.31886062601E+02  0.00000000000E+00 0. -1.
         11    1    3    3    0    0 -0.20556694161E+02  0.58681831390E+01 -0.45120082042E+00  0.21382629180E+02  0.51100000000E-03 0. -1.
        -11    1    3    3    0    0 -0.82380026223E+01 -0.18622445794E+02  0.20273589668E+01  0.20463879378E+02  0.51100000000E-03 0.  1.
         12    1    3    3    0    0  0.43988687259E+01  0.31843209326E+01  0.16589214875E+02  0.17455428841E+02  0.00000000000E+00 0. -1.
</event>
<event>
 7    1  0.6184948E-012  0.5930199E+02  0.7816164E-02  0.1266605E+00
        -11   -1    0    0    0    0  0.00000000000E+00  0.00000000000E+00  0.45593999997E+02  0.45594000000E+02  0.51100000000E-03 0.  1.
         11   -1    0    0    0    0 -0.00000000000E+00 -0.00000000000E+00 -0.45593999997E+02  0.45594000000E+02  0.51100000000E-03 0. -1.
    9900012    2    1    2    0    0 -0.19975814183E+02 -0.15946260930E+02  0.19063094098E+02  0.59301985095E+02  0.50000074897E+02 0.  0.
         12    1    1    2    0    0  0.19975814183E+02  0.15946260930E+02 -0.19063094098E+02  0.31886014905E+02  0.00000000000E+00 0. -1.
         11    1    3    3    0    0  0.32691466093E+01 -0.56928572960E+01  0.83016072363E+01  0.10583601784E+02  0.51100000000E-03 0. -1.
        -11    1    3    3    0    0 -0.28326785308E+01 -0.68388920737E+00  0.22920058875E+02  0.23104563861E+02  0.51100000000E-03 0.  1.
         12    1    3    3    0    0 -0.20412282261E+02 -0.95695144266E+01 -0.12158572013E+02  0.25613819451E+02  0.00000000000E+00 0. -1.
</event>
<event>
 7    1  0.6184948E-012  0.5930192E+02  0.7816164E-02  0.1266605E+00
        -11   -1    0    0    0    0  0.00000000000E+00  0.00000000000E+00  0.45593999997E+02  0.45594000000E+02  0.51100000000E-03 0. -1.
         11   -1    0    0    0    0 -0.00000000000E+00 -0.00000000000E+00 -0.45593999997E+02  0.45594000000E+02  0.51100000000E-03 0.  1.
    9900012    2    1    2    0    0 -0.30108808383E+02  0.99342253730E+01 -0.33901086981E+01  0.59301921329E+02  0.49999958603E+02 0.  0.
         12    1    1    2    0    0  0.30108808383E+02 -0.99342253730E+01  0.33901086981E+01  0.31886078671E+02  0.00000000000E+00 0. -1.
         11    1    3    3    0    0  0.64519098082E+01  0.51544821594E+01 -0.26017186792E+01  0.86582196121E+01  0.51100000000E-03 0. -1.
        -11    1    3    3    0    0 -0.17441327533E+02  0.32253715854E+01 -0.17709560948E+02  0.25064546220E+02  0.51100000000E-03 0.  1.
         12    1    3    3    0    0 -0.19119390659E+02  0.15543716283E+01  0.16921170929E+02  0.25579155497E+02  0.00000000000E+00 0. -1.
</event>
<event>
 7    1  0.6184948E-012  0.5930195E+02  0.7816164E-02  0.1266605E+00
        -11   -1    0    0    0    0  0.00000000000E+00  0.00000000000E+00  0.45593999997E+02  0.45594000000E+02  0.51100000000E-03 0.  1.
         11   -1    0    0    0    0 -0.00000000000E+00 -0.00000000000E+00 -0.45593999997E+02  0.45594000000E+02  0.51100000000E-03 0. -1.
    9900012    2    1    2    0    0 -0.14580681981E+02  0.28091399050E+02  0.38726215948E+01  0.59301949984E+02  0.50000010862E+02 0.  0.
         12    1    1    2    0    0  0.14580681981E+02 -0.28091399050E+02 -0.38726215948E+01  0.31886050016E+02  0.00000000000E+00 0. -1.
         11    1    3    3    0    0 -0.81898262182E+01 -0.34106619115E+01  0.12489514137E+01  0.89591153611E+01  0.51100000000E-03 0. -1.
        -11    1    3    3    0    0 -0.41239888164E+01 -0.89075949781E-01 -0.13984480337E+02  0.14580154623E+02  0.51100000000E-03 0.  1.
        -12    1    3    3    0    0 -0.22668669466E+01  0.31591136912E+02  0.16608150518E+02  0.35762679999E+02  0.00000000000E+00 0.  1.
</event>
<event>
 7    1  0.6184948E-012  0.5930196E+02  0.7816164E-02  0.1266605E+00
        -11   -1    0    0    0    0  0.00000000000E+00  0.00000000000E+00  0.45593999997E+02  0.45594000000E+02  0.51100000000E-03 0.  1.
         11   -1    0    0    0    0 -0.00000000000E+00 -0.00000000000E+00 -0.45593999997E+02  0.45594000000E+02  0.51100000000E-03 0. -1.
    9900012    2    1    2    0    0 -0.46325614734E+01  0.25214834306E+02  0.18959718424E+02  0.59301962028E+02  0.50000032827E+02 0.  0.
         12    1    1    2    0    0  0.46325614734E+01 -0.25214834306E+02 -0.18959718424E+02  0.31886037972E+02  0.00000000000E+00 0. -1.
         11    1    3    3    0    0  0.23009492584E+01  0.30468586216E+02 -0.11259825929E+01  0.30576084618E+02  0.51100000000E-03 0. -1.
        -11    1    3    3    0    0  0.45396105563E+01 -0.28598548975E+01 -0.12044820191E+00  0.53666881843E+01  0.51100000000E-03 0.  1.
        -12    1    3    3    0    0 -0.11473121288E+02 -0.23938970133E+01  0.20206149219E+02  0.23359189225E+02  0.00000000000E+00 0.  1.
</event>
<event>
 7    1  0.6184948E-012  0.5930196E+02  0.7816164E-02  0.1266605E+00
        -11   -1    0    0    0    0  0.00000000000E+00  0.00000000000E+00  0.45593999997E+02  0.45594000000E+02  0.51100000000E-03 0.  1.
         11   -1    0    0    0    0 -0.00000000000E+00 -0.00000000000E+00 -0.45593999997E+02  0.45594000000E+02  0.51100000000E-03 0. -1.
    9900012    2    1    2    0    0  0.17827432814E+02 -0.14186400784E+02  0.22308035454E+02  0.59301956443E+02  0.50000022642E+02 0.  0.
         12    1    1    2    0    0 -0.17827432814E+02  0.14186400784E+02 -0.22308035454E+02  0.31886043557E+02  0.00000000000E+00 0. -1.
         11    1    3    3    0    0  0.18186354646E+02 -0.12159303332E+02  0.23098066434E+02  0.31813720721E+02  0.51100000000E-03 0. -1.
        -11    1    3    3    0    0 -0.12536551705E+01 -0.10980588169E+02  0.89548607334E+01  0.14224433164E+02  0.51100000000E-03 0.  1.
         12    1    3    3    0    0  0.89473333767E+00  0.89534907170E+01 -0.97448917143E+01  0.13263802558E+02  0.00000000000E+00 0. -1.
</event>
<event>
 7    1  0.6184948E-012  0.5930194E+02  0.7816164E-02  0.1266605E+00
        -11   -1    0    0    0    0  0.00000000000E+00  0.00000000000E+00  0.45593999997E+02  0.45594000000E+02  0.51100000000E-03 0.  1.
         11   -1    0    0    0    0 -0.00000000000E+00 -0.00000000000E+00 -0.45593999997E+02  0.45594000000E+02  0.51100000000E-03 0. -1.
    9900012    2    1    2    0    0  0.22604683348E+02 -0.22409850037E+02  0.18835617869E+01  0.59301938893E+02  0.49999990635E+02 0.  0.
         12    1    1    2    0    0 -0.22604683348E+02  0.22409850037E+02 -0.18835617869E+01  0.31886061107E+02  0.00000000000E+00 0. -1.
         11    1    3    3    0    0  0.94390010865E+01 -0.14980131886E+02 -0.46796222331E+01  0.18313873357E+02  0.51100000000E-03 0. -1.
        -11    1    3    3    0    0  0.53383963883E+01  0.36338884756E+01 -0.14539040256E+02  0.15908718153E+02  0.51100000000E-03 0.  1.
        -12    1    3    3    0    0  0.78272858728E+01 -0.11063606627E+02  0.21102224276E+02  0.25079347382E+02  0.00000000000E+00 0.  1.
</event>
<event>
 7    1  0.6184948E-012  0.5930195E+02  0.7816164E-02  0.1266605E+00
        -11   -1    0    0    0    0  0.00000000000E+00  0.00000000000E+00  0.45593999997E+02  0.45594000000E+02  0.51100000000E-03 0.  1.
         11   -1    0    0    0    0 -0.00000000000E+00 -0.00000000000E+00 -0.45593999997E+02  0.45594000000E+02  0.51100000000E-03 0. -1.
    9900012    2    1    2    0    0 -0.85069716111E+01  0.13552318748E+02  0.27580537652E+02  0.59301953419E+02  0.50000017127E+02 0.  0.
         12    1    1    2    0    0  0.85069716111E+01 -0.13552318748E+02 -0.27580537652E+02  0.31886046581E+02  0.00000000000E+00 0. -1.
         11    1    3    3    0    0  0.71110193412E+00  0.45854140673E+01  0.57588632678E+01  0.73956875629E+01  0.51100000000E-03 0. -1.
        -11    1    3    3    0    0  0.12969808236E+02  0.10738660215E+02  0.24242321763E+02  0.29516519334E+02  0.51100000000E-03 0.  1.
         12    1    3    3    0    0 -0.22187881781E+02 -0.17717555340E+01 -0.24206473790E+01  0.22389746522E+02  0.00000000000E+00 0. -1.
</event>
<event>
 7    1  0.6184948E-012  0.5930201E+02  0.7816164E-02  0.1266605E+00
        -11   -1    0    0    0    0  0.00000000000E+00  0.00000000000E+00  0.45593999997E+02  0.45594000000E+02  0.51100000000E-03 0.  1.
         11   -1    0    0    0    0 -0.00000000000E+00 -0.00000000000E+00 -0.45593999997E+02  0.45594000000E+02  0.51100000000E-03 0. -1.
    9900012    2    1    2    0    0 -0.14707981473E+02 -0.27867405064E+02 -0.48784780427E+01  0.59302007275E+02  0.50000115349E+02 0.  0.
         12    1    1    2    0    0  0.14707981473E+02  0.27867405064E+02  0.48784780427E+01  0.31885992725E+02  0.00000000000E+00 0. -1.
         11    1    3    3    0    0 -0.61711899504E+01 -0.53849788443E+01  0.14567205030E+01  0.83188711640E+01  0.51100000000E-03 0. -1.
        -11    1    3    3    0    0 -0.10824719419E+02 -0.84691608816E+01 -0.24400878071E+02  0.28005429607E+02  0.51100000000E-03 0.  1.
         12    1    3    3    0    0  0.22879278965E+01 -0.14013265338E+02  0.18065679526E+02  0.22977706505E+02  0.00000000000E+00 0. -1.
</event>
<event>
 7    1  0.6184948E-012  0.5930193E+02  0.7816164E-02  0.1266605E+00
        -11   -1    0    0    0    0  0.00000000000E+00  0.00000000000E+00  0.45593999997E+02  0.45594000000E+02  0.51100000000E-03 0. -1.
         11   -1    0    0    0    0 -0.00000000000E+00 -0.00000000000E+00 -0.45593999997E+02  0.45594000000E+02  0.51100000000E-03 0.  1.
    9900012    2    1    2    0    0 -0.26720463886E+02  0.10894710824E+02 -0.13566264293E+02  0.59301930297E+02  0.49999974958E+02 0.  0.
         12    1    1    2    0    0  0.26720463886E+02 -0.10894710824E+02  0.13566264293E+02  0.31886069703E+02  0.00000000000E+00 0. -1.
         11    1    3    3    0    0 -0.78524430948E+01  0.29038049749E+01 -0.14049525612E+02  0.16354880497E+02  0.51100000000E-03 0. -1.
        -11    1    3    3    0    0 -0.15499889766E+02  0.22792576676E+02  0.22968065802E+01  0.27659057378E+02  0.51100000000E-03 0.  1.
         12    1    3    3    0    0 -0.33681310261E+01 -0.14801670827E+02 -0.18135452613E+01  0.15287992422E+02  0.00000000000E+00 0. -1.
</event>
