<event>
 7    1  0.5541017E-010  0.4778727E+02  0.7816164E-02  0.1312668E+00
        -11   -1    0    0    0    0  0.00000000000E+00  0.00000000000E+00  0.45593999997E+02  0.45594000000E+02  0.51100000000E-03 0.  1.
         11   -1    0    0    0    0 -0.00000000000E+00 -0.00000000000E+00 -0.45593999997E+02  0.45594000000E+02  0.51100000000E-03 0. -1.
    9900012    2    1    2    0    0 -0.32904558967E+01  0.36062702565E+01 -0.43125292214E+02  0.47787272889E+02  0.20000008412E+02 0.  0.
        -12    1    1    2    0    0  0.32904558967E+01 -0.36062702565E+01  0.43125292214E+02  0.43400727111E+02  0.00000000000E+00 0.  1.
         11    1    3    3    0    0  0.14635923382E+01  0.61906778094E+01 -0.11593374342E+02  0.13223952630E+02  0.51100000000E-03 0. -1.
        -11    1    3    3    0    0  0.25149589799E+00 -0.15485454863E+01  0.84736091734E+00  0.17830491006E+01  0.51100000000E-03 0.  1.
         12    1    3    3    0    0 -0.50055441330E+01 -0.10358620666E+01 -0.32379278790E+02  0.32780271159E+02  0.00000000000E+00 0. -1.
</event>
<event>
 7    1  0.5541017E-010  0.4778727E+02  0.7816164E-02  0.1312668E+00
        -11   -1    0    0    0    0  0.00000000000E+00  0.00000000000E+00  0.45593999997E+02  0.45594000000E+02  0.51100000000E-03 0.  1.
         11   -1    0    0    0    0 -0.00000000000E+00 -0.00000000000E+00 -0.45593999997E+02  0.45594000000E+02  0.51100000000E-03 0. -1.
    9900012    2    1    2    0    0  0.18681793507E+02  0.28409722163E+02 -0.26972235862E+02  0.47787271557E+02  0.20000002336E+02 0.  0.
        -12    1    1    2    0    0 -0.18681793507E+02 -0.28409722163E+02  0.26972235862E+02  0.43400728443E+02  0.00000000000E+00 0.  1.
         11    1    3    3    0    0  0.33622007543E+01  0.40806704464E+01 -0.96227173873E+00  0.53742192330E+01  0.51100000000E-03 0. -1.
        -11    1    3    3    0    0  0.94693458544E+01  0.28660850053E+01 -0.28414766784E+01  0.10293538951E+02  0.51100000000E-03 0.  1.
         12    1    3    3    0    0  0.58502468983E+01  0.21462966711E+02 -0.23168487444E+02  0.32119513372E+02  0.00000000000E+00 0. -1.
</event>
<event>
 7    1  0.5541017E-010  0.4778728E+02  0.7816164E-02  0.1312668E+00
        -11   -1    0    0    0    0  0.00000000000E+00  0.00000000000E+00  0.45593999997E+02  0.45594000000E+02  0.51100000000E-03 0.  1.
         11   -1    0    0    0    0 -0.00000000000E+00 -0.00000000000E+00 -0.45593999997E+02  0.45594000000E+02  0.51100000000E-03 0. -1.
    9900012    2    1    2    0    0  0.12546825395E+02 -0.37845420893E+01 -0.41374833995E+02  0.47787280254E+02  0.20000041992E+02 0.  0.
        -12    1    1    2    0    0 -0.12546825395E+02  0.37845420893E+01  0.41374833995E+02  0.43400719746E+02  0.00000000000E+00 0.  1.
         11    1    3    3    0    0  0.13865295264E+02 -0.25705183520E+01 -0.38513730906E+02  0.41014161529E+02  0.51100000000E-03 0. -1.
        -11    1    3    3    0    0 -0.60680311982E+00  0.17837135844E+01 -0.31584765959E+01  0.36777464356E+01  0.51100000000E-03 0.  1.
         12    1    3    3    0    0 -0.71166674991E+00 -0.29977373216E+01  0.29737350630E+00  0.30953722901E+01  0.00000000000E+00 0. -1.
</event>
<event>
 7    1  0.5541017E-010  0.4778727E+02  0.7816164E-02  0.1312668E+00
        -11   -1    0    0    0    0  0.00000000000E+00  0.00000000000E+00  0.45593999997E+02  0.45594000000E+02  0.51100000000E-03 0.  1.
         11   -1    0    0    0    0 -0.00000000000E+00 -0.00000000000E+00 -0.45593999997E+02  0.45594000000E+02  0.51100000000E-03 0. -1.
    9900012    2    1    2    0    0 -0.13559393853E+02 -0.34145002444E+02 -0.23105947483E+02  0.47787272326E+02  0.20000005841E+02 0.  0.
        -12    1    1    2    0    0  0.13559393853E+02  0.34145002444E+02  0.23105947483E+02  0.43400727674E+02  0.00000000000E+00 0.  1.
         11    1    3    3    0    0 -0.12219668590E+02 -0.23676274735E+02 -0.73470238807E+01  0.27638108581E+02  0.51100000000E-03 0. -1.
        -11    1    3    3    0    0 -0.46957778119E+00  0.94453455385E+00 -0.86025563650E+00  0.13611351282E+01  0.51100000000E-03 0.  1.
         12    1    3    3    0    0 -0.87014748189E+00 -0.11413262263E+02 -0.14898667966E+02  0.18788028616E+02  0.00000000000E+00 0. -1.
</event>
<event>
 7    1  0.5541017E-010  0.4778727E+02  0.7816164E-02  0.1312668E+00
        -11   -1    0    0    0    0  0.00000000000E+00  0.00000000000E+00  0.45593999997E+02  0.45594000000E+02  0.51100000000E-03 0. -1.
         11   -1    0    0    0    0 -0.00000000000E+00 -0.00000000000E+00 -0.45593999997E+02  0.45594000000E+02  0.51100000000E-03 0.  1.
    9900012    2    1    2    0    0  0.28358288402E+01  0.40855676851E+02  0.14366454090E+02  0.47787271213E+02  0.20000000768E+02 0.  0.
        -12    1    1    2    0    0 -0.28358288402E+01 -0.40855676851E+02 -0.14366454090E+02  0.43400728787E+02  0.00000000000E+00 0.  1.
         11    1    3    3    0    0 -0.39473500289E+01  0.11381894968E+02  0.73247510915E+01  0.14098974577E+02  0.51100000000E-03 0. -1.
        -11    1    3    3    0    0 -0.11953605057E+01 -0.31483755647E+00 -0.12463450434E+01  0.17553876078E+01  0.51100000000E-03 0.  1.
         12    1    3    3    0    0  0.79785393748E+01  0.29788619439E+02  0.82880480417E+01  0.31932909028E+02  0.00000000000E+00 0. -1.
</event>
<event>
 7    1  0.5541017E-010  0.4778727E+02  0.7816164E-02  0.1312668E+00
        -11   -1    0    0    0    0  0.00000000000E+00  0.00000000000E+00  0.45593999997E+02  0.45594000000E+02  0.51100000000E-03 0. -1.
         11   -1    0    0    0    0 -0.00000000000E+00 -0.00000000000E+00 -0.45593999997E+02  0.45594000000E+02  0.51100000000E-03 0.  1.
    9900012    2    1    2    0    0  0.32030083541E+01  0.43179806781E+02 -0.29779564246E+01  0.47787271889E+02  0.20000003849E+02 0.  0.
        -12    1    1    2    0    0 -0.32030083541E+01 -0.43179806781E+02  0.29779564246E+01  0.43400728111E+02  0.00000000000E+00 0.  1.
         11    1    3    3    0    0  0.86880847837E+01  0.16651310596E+02 -0.16795439011E+01  0.18856559329E+02  0.51100000000E-03 0. -1.
        -11    1    3    3    0    0 -0.11582515874E+01  0.12623708291E+02  0.42156038180E+01  0.13359299142E+02  0.51100000000E-03 0.  1.
        -12    1    3    3    0    0 -0.43268248421E+01  0.13904787894E+02 -0.55140163415E+01  0.15571413417E+02  0.00000000000E+00 0.  1.
</event>
<event>
 7    1  0.5541017E-010  0.4778726E+02  0.7816164E-02  0.1312668E+00
        -11   -1    0    0    0    0  0.00000000000E+00  0.00000000000E+00  0.45593999997E+02  0.45594000000E+02  0.51100000000E-03 0. -1.
         11   -1    0    0    0    0 -0.00000000000E+00 -0.00000000000E+00 -0.45593999997E+02  0.45594000000E+02  0.51100000000E-03 0.  1.
    9900012    2    1    2    0    0  0.24865145786E+02  0.34817986836E+02  0.72839650417E+01  0.47787264649E+02  0.19999970841E+02 0.  0.
        -12    1    1    2    0    0 -0.24865145786E+02 -0.34817986836E+02 -0.72839650417E+01  0.43400735351E+02  0.00000000000E+00 0.  1.
         11    1    3    3    0    0  0.43797922214E+01  0.27562381400E+01 -0.95938242512E+00  0.52630640777E+01  0.51100000000E-03 0. -1.
        -11    1    3    3    0    0 -0.21695615347E-01 -0.19578288720E+01  0.12503540494E-01  0.19579890682E+01  0.51100000000E-03 0.  1.
         12    1    3    3    0    0  0.20507049180E+02  0.34019577568E+02  0.82308439263E+01  0.40566211503E+02  0.00000000000E+00 0. -1.
</event>
<event>
 7    1  0.5541017E-010  0.4778727E+02  0.7816164E-02  0.1312668E+00
        -11   -1    0    0    0    0  0.00000000000E+00  0.00000000000E+00  0.45593999997E+02  0.45594000000E+02  0.51100000000E-03 0.  1.
         11   -1    0    0    0    0 -0.00000000000E+00 -0.00000000000E+00 -0.45593999997E+02  0.45594000000E+02  0.51100000000E-03 0. -1.
    9900012    2    1    2    0    0 -0.93745508518E+01 -0.10320440479E+02 -0.41100237217E+02  0.47787271957E+02  0.20000004161E+02 0.  0.
        -12    1    1    2    0    0  0.93745508518E+01  0.10320440479E+02  0.41100237217E+02  0.43400728043E+02  0.00000000000E+00 0.  1.
         11    1    3    3    0    0 -0.19576851228E+01 -0.36259125065E+01 -0.16212961907E+01  0.44281343863E+01  0.51100000000E-03 0. -1.
        -11    1    3    3    0    0 -0.43422465755E+01  0.26863909004E+01 -0.38694607855E+01  0.64066003796E+01  0.51100000000E-03 0.  1.
         12    1    3    3    0    0 -0.30746191535E+01 -0.93809188729E+01 -0.35609480241E+02  0.36952537191E+02  0.00000000000E+00 0. -1.
</event>
<event>
 7    1  0.5541017E-010  0.4778727E+02  0.7816164E-02  0.1312668E+00
        -11   -1    0    0    0    0  0.00000000000E+00  0.00000000000E+00  0.45593999997E+02  0.45594000000E+02  0.51100000000E-03 0. -1.
         11   -1    0    0    0    0 -0.00000000000E+00 -0.00000000000E+00 -0.45593999997E+02  0.45594000000E+02  0.51100000000E-03 0.  1.
    9900012    2    1    2    0    0  0.78777197078E+01  0.13128744898E+02  0.40610353763E+02  0.47787271398E+02  0.20000001614E+02 0.  0.
        -12    1    1    2    0    0 -0.78777197078E+01 -0.13128744898E+02 -0.40610353763E+02  0.43400728602E+02  0.00000000000E+00 0.  1.
         11    1    3    3    0    0 -0.28549445228E+01  0.70991112245E+01  0.15762792373E+02  0.17521806758E+02  0.51100000000E-03 0. -1.
        -11    1    3    3    0    0 -0.16752429470E+01  0.25429291020E+01  0.10850198889E+01  0.32326762550E+01  0.51100000000E-03 0.  1.
        -12    1    3    3    0    0  0.12407907178E+02  0.34867045715E+01  0.23762541501E+02  0.27032788385E+02  0.00000000000E+00 0.  1.
</event>
<event>
 7    1  0.5541017E-010  0.4778727E+02  0.7816164E-02  0.1312668E+00
        -11   -1    0    0    0    0  0.00000000000E+00  0.00000000000E+00  0.45593999997E+02  0.45594000000E+02  0.51100000000E-03 0.  1.
         11   -1    0    0    0    0 -0.00000000000E+00 -0.00000000000E+00 -0.45593999997E+02  0.45594000000E+02  0.51100000000E-03 0. -1.
    9900012    2    1    2    0    0 -0.36054557560E+02 -0.23768439542E+02 -0.43304951608E+01  0.47787273884E+02  0.20000012945E+02 0.  0.
        -12    1    1    2    0    0  0.36054557560E+02  0.23768439542E+02  0.43304951608E+01  0.43400726116E+02  0.00000000000E+00 0.  1.
         11    1    3    3    0    0 -0.48872612051E+01 -0.11679384233E+01  0.23956603320E+01  0.55667397043E+01  0.51100000000E-03 0. -1.
        -11    1    3    3    0    0 -0.17729313894E+02 -0.55751571095E+01  0.23013610299E+01  0.18727178399E+02  0.51100000000E-03 0.  1.
        -12    1    3    3    0    0 -0.13437982461E+02 -0.17025344009E+02 -0.90275165227E+01  0.23493355780E+02  0.00000000000E+00 0.  1.
</event>
<event>
 7    1  0.5541017E-010  0.4778729E+02  0.7816164E-02  0.1312668E+00
        -11   -1    0    0    0    0  0.00000000000E+00  0.00000000000E+00  0.45593999997E+02  0.45594000000E+02  0.51100000000E-03 0.  1.
         11   -1    0    0    0    0 -0.00000000000E+00 -0.00000000000E+00 -0.45593999997E+02  0.45594000000E+02  0.51100000000E-03 0. -1.
    9900012    2    1    2    0    0  0.36523558136E+02 -0.23433308317E+02 -0.72873621105E+00  0.47787293853E+02  0.20000103991E+02 0.  0.
        -12    1    1    2    0    0 -0.36523558136E+02  0.23433308317E+02  0.72873621105E+00  0.43400706147E+02  0.00000000000E+00 0.  1.
         11    1    3    3    0    0  0.82764334644E+01 -0.30751906729E+01  0.51910787336E+00  0.88445249624E+01  0.51100000000E-03 0. -1.
        -11    1    3    3    0    0  0.12227058455E+02 -0.17094583396E+02  0.47159977347E+01  0.21539878710E+02  0.51100000000E-03 0.  1.
        -12    1    3    3    0    0  0.16020066217E+02 -0.32635342481E+01 -0.59638418191E+01  0.17402890180E+02  0.00000000000E+00 0.  1.
</event>
<event>
 7    1  0.5541017E-010  0.4778727E+02  0.7816164E-02  0.1312668E+00
        -11   -1    0    0    0    0  0.00000000000E+00  0.00000000000E+00  0.45593999997E+02  0.45594000000E+02  0.51100000000E-03 0. -1.
         11   -1    0    0    0    0 -0.00000000000E+00 -0.00000000000E+00 -0.45593999997E+02  0.45594000000E+02  0.51100000000E-03 0.  1.
    9900012    2    1    2    0    0  0.12659974438E+02 -0.34708112410E+02  0.22774880815E+02  0.47787271711E+02  0.20000003040E+02 0.  0.
        -12    1    1    2    0    0 -0.12659974438E+02  0.34708112410E+02 -0.22774880815E+02  0.43400728289E+02  0.00000000000E+00 0.  1.
         11    1    3    3    0    0  0.16181991273E+01 -0.19876595689E+02  0.70451392746E+01  0.21150215419E+02  0.51100000000E-03 0. -1.
        -11    1    3    3    0    0  0.46867885550E+01 -0.97941681397E+01  0.25353462020E+01  0.11149874310E+02  0.51100000000E-03 0.  1.
        -12    1    3    3    0    0  0.63549867557E+01 -0.50373485816E+01  0.13194395339E+02  0.15487181982E+02  0.00000000000E+00 0.  1.
</event>
<event>
 7    1  0.5541017E-010  0.4778727E+02  0.7816164E-02  0.1312668E+00
        -11   -1    0    0    0    0  0.00000000000E+00  0.00000000000E+00  0.45593999997E+02  0.45594000000E+02  0.51100000000E-03 0. -1.
         11   -1    0    0    0    0 -0.00000000000E+00 -0.00000000000E+00 -0.45593999997E+02  0.45594000000E+02  0.51100000000E-03 0.  1.
    9900012    2    1    2    0    0 -0.16081150036E+02  0.40150554494E+02 -0.35990002271E+01  0.47787271720E+02  0.20000003079E+02 0.  0.
        -12    1    1    2    0    0  0.16081150036E+02 -0.40150554494E+02  0.35990002271E+01  0.43400728280E+02  0.00000000000E+00 0.  1.
         11    1    3    3    0    0 -0.83781669264E+01  0.11297679647E+02  0.69320505272E+00  0.14082321540E+02  0.51100000000E-03 0. -1.
        -11    1    3    3    0    0 -0.11571957720E+02  0.23479878637E+02 -0.60247644396E+01  0.26860988312E+02  0.51100000000E-03 0.  1.
        -12    1    3    3    0    0  0.38689746103E+01  0.53729962097E+01  0.17325591598E+01  0.68439618677E+01  0.00000000000E+00 0.  1.
</event>
<event>
 7    1  0.5541017E-010  0.4778727E+02  0.7816164E-02  0.1312668E+00
        -11   -1    0    0    0    0  0.00000000000E+00  0.00000000000E+00  0.45593999997E+02  0.45594000000E+02  0.51100000000E-03 0. -1.
         11   -1    0    0    0    0 -0.00000000000E+00 -0.00000000000E+00 -0.45593999997E+02  0.45594000000E+02  0.51100000000E-03 0.  1.
    9900012    2    1    2    0    0  0.32351119749E+02  0.28293776907E+02  0.60407235624E+01  0.47787273026E+02  0.20000009036E+02 0.  0.
        -12    1    1    2    0    0 -0.32351119749E+02 -0.28293776907E+02 -0.60407235624E+01  0.43400726974E+02  0.00000000000E+00 0.  1.
         11    1    3    3    0    0  0.34128034476E+01  0.42083009621E+01  0.48329357102E+01  0.72604608806E+01  0.51100000000E-03 0. -1.
        -11    1    3    3    0    0 -0.55944656885E+00  0.24151497026E+01  0.29865470897E+01  0.38814162788E+01  0.51100000000E-03 0.  1.
         12    1    3    3    0    0  0.29497762870E+02  0.21670326243E+02 -0.17787592376E+01  0.36645395867E+02  0.00000000000E+00 0. -1.
</event>
<event>
 7    1  0.5541017E-010  0.4778727E+02  0.7816164E-02  0.1312668E+00
        -11   -1    0    0    0    0  0.00000000000E+00  0.00000000000E+00  0.45593999997E+02  0.45594000000E+02  0.51100000000E-03 0.  1.
         11   -1    0    0    0    0 -0.00000000000E+00 -0.00000000000E+00 -0.45593999997E+02  0.45594000000E+02  0.51100000000E-03 0. -1.
    9900012    2    1    2    0    0 -0.19020475112E+02 -0.24571966489E+02 -0.30299561826E+02  0.47787268930E+02  0.19999990358E+02 0.  0.
        -12    1    1    2    0    0  0.19020475112E+02  0.24571966489E+02  0.30299561826E+02  0.43400731070E+02  0.00000000000E+00 0.  1.
         11    1    3    3    0    0  0.60671007239E+00 -0.42116490290E+01 -0.13797843458E+02  0.14439063993E+02  0.51100000000E-03 0. -1.
        -11    1    3    3    0    0 -0.25480032832E+01 -0.20305564248E+01 -0.45334359205E+01  0.55827879803E+01  0.51100000000E-03 0.  1.
        -12    1    3    3    0    0 -0.17079181901E+02 -0.18329761035E+02 -0.11968282447E+02  0.27765416956E+02  0.00000000000E+00 0.  1.
</event>
<event>
 7    1  0.5541017E-010  0.4778725E+02  0.7816164E-02  0.1312668E+00
        -11   -1    0    0    0    0  0.00000000000E+00  0.00000000000E+00  0.45593999997E+02  0.45594000000E+02  0.51100000000E-03 0. -1.
         11   -1    0    0    0    0 -0.00000000000E+00 -0.00000000000E+00 -0.45593999997E+02  0.45594000000E+02  0.51100000000E-03 0.  1.
    9900012    2    1    2    0    0 -0.20111867000E+02 -0.36686981324E+02  0.11541375412E+02  0.47787249554E+02  0.19999902015E+02 0.  0.
        -12    1    1    2    0    0  0.20111867000E+02  0.36686981324E+02 -0.11541375412E+02  0.43400750446E+02  0.00000000000E+00 0.  1.
         11    1    3    3    0    0 -0.63150960952E+01 -0.17896063820E+02 -0.10139878041E+01  0.19004676016E+02  0.51100000000E-03 0. -1.
        -11    1    3    3    0    0 -0.10742561596E+02 -0.14500727620E+02  0.36127417521E+01  0.18404500384E+02  0.51100000000E-03 0.  1.
        -12    1    3    3    0    0 -0.30542093087E+01 -0.42901898841E+01  0.89426214639E+01  0.10378073154E+02  0.00000000000E+00 0.  1.
</event>
<event>
 7    1  0.5541017E-010  0.4778727E+02  0.7816164E-02  0.1312668E+00
        -11   -1    0    0    0    0  0.00000000000E+00  0.00000000000E+00  0.45593999997E+02  0.45594000000E+02  0.51100000000E-03 0.  1.
         11   -1    0    0    0    0 -0.00000000000E+00 -0.00000000000E+00 -0.45593999997E+02  0.45594000000E+02  0.51100000000E-03 0. -1.
    9900012    2    1    2    0    0 -0.33967487102E+02  0.51794788676E+01 -0.26514270499E+02  0.47787265888E+02  0.19999976488E+02 0.  0.
        -12    1    1    2    0    0  0.33967487102E+02 -0.51794788676E+01  0.26514270499E+02  0.43400734112E+02  0.00000000000E+00 0.  1.
         11    1    3    3    0    0 -0.10821669822E+01  0.21353067214E+01 -0.10992284746E+01  0.26341836824E+01  0.51100000000E-03 0. -1.
        -11    1    3    3    0    0 -0.13417232491E+02  0.98999388120E+01 -0.10921465677E+02  0.19932619722E+02  0.51100000000E-03 0.  1.
         12    1    3    3    0    0 -0.19468087629E+02 -0.68557666658E+01 -0.14493576348E+02  0.25220462483E+02  0.00000000000E+00 0. -1.
</event>
<event>
 7    1  0.5541017E-010  0.4778727E+02  0.7816164E-02  0.1312668E+00
        -11   -1    0    0    0    0  0.00000000000E+00  0.00000000000E+00  0.45593999997E+02  0.45594000000E+02  0.51100000000E-03 0. -1.
         11   -1    0    0    0    0 -0.00000000000E+00 -0.00000000000E+00 -0.45593999997E+02  0.45594000000E+02  0.51100000000E-03 0.  1.
    9900012    2    1    2    0    0 -0.35368285395E+02 -0.22283825972E+01  0.25054776808E+02  0.47787272567E+02  0.20000006942E+02 0.  0.
        -12    1    1    2    0    0  0.35368285395E+02  0.22283825972E+01 -0.25054776808E+02  0.43400727433E+02  0.00000000000E+00 0.  1.
         11    1    3    3    0    0 -0.88022039328E+01 -0.24188340424E+00  0.28745930754E+01  0.92628606416E+01  0.51100000000E-03 0. -1.
        -11    1    3    3    0    0 -0.26618292558E+01 -0.64918835691E+01  0.34206137763E+01  0.78057982378E+01  0.51100000000E-03 0.  1.
        -12    1    3    3    0    0 -0.23904252207E+02  0.45053843761E+01  0.18759569957E+02  0.30718613688E+02  0.00000000000E+00 0.  1.
</event>
<event>
 7    1  0.5541017E-010  0.4778728E+02  0.7816164E-02  0.1312668E+00
        -11   -1    0    0    0    0  0.00000000000E+00  0.00000000000E+00  0.45593999997E+02  0.45594000000E+02  0.51100000000E-03 0. -1.
         11   -1    0    0    0    0 -0.00000000000E+00 -0.00000000000E+00 -0.45593999997E+02  0.45594000000E+02  0.51100000000E-03 0.  1.
    9900012    2    1    2    0    0  0.20898706097E+01 -0.30984674978E+02  0.30318388531E+02  0.47787281967E+02  0.20000049800E+02 0.  0.
        -12    1    1    2    0    0 -0.20898706097E+01  0.30984674978E+02 -0.30318388531E+02  0.43400718033E+02  0.00000000000E+00 0.  1.
         11    1    3    3    0    0  0.14445120911E+01 -0.14972882777E+02  0.24186378571E+02  0.28482533990E+02  0.51100000000E-03 0. -1.
        -11    1    3    3    0    0 -0.23170420779E+01 -0.76566048618E+01  0.66816696124E+01  0.10422907035E+02  0.51100000000E-03 0.  1.
        -12    1    3    3    0    0  0.29624005965E+01 -0.83551873401E+01 -0.54965965275E+00  0.88818409418E+01  0.00000000000E+00 0.  1.
</event>
<event>
 7    1  0.5541017E-010  0.4778727E+02  0.7816164E-02  0.1312668E+00
        -11   -1    0    0    0    0  0.00000000000E+00  0.00000000000E+00  0.45593999997E+02  0.45594000000E+02  0.51100000000E-03 0.  1.
         11   -1    0    0    0    0 -0.00000000000E+00 -0.00000000000E+00 -0.45593999997E+02  0.45594000000E+02  0.51100000000E-03 0. -1.
    9900012    2    1    2    0    0  0.13456362095E+02 -0.20487713294E+02 -0.35816242738E+02  0.47787270505E+02  0.19999997539E+02 0.  0.
        -12    1    1    2    0    0 -0.13456362095E+02  0.20487713294E+02  0.35816242738E+02  0.43400729495E+02  0.00000000000E+00 0.  1.
         11    1    3    3    0    0  0.39639569040E+01 -0.70220267786E+01 -0.44509146278E+01  0.92104536100E+01  0.51100000000E-03 0. -1.
        -11    1    3    3    0    0 -0.37280198841E+01 -0.16610874716E+01 -0.27641146667E+01  0.49292670851E+01  0.51100000000E-03 0.  1.
         12    1    3    3    0    0  0.13220425075E+02 -0.11804599044E+02 -0.28601213443E+02  0.33647549810E+02  0.00000000000E+00 0. -1.
</event>
<event>
 7    1  0.5541017E-010  0.4778727E+02  0.7816164E-02  0.1312668E+00
        -11   -1    0    0    0    0  0.00000000000E+00  0.00000000000E+00  0.45593999997E+02  0.45594000000E+02  0.51100000000E-03 0. -1.
         11   -1    0    0    0    0 -0.00000000000E+00 -0.00000000000E+00 -0.45593999997E+02  0.45594000000E+02  0.51100000000E-03 0.  1.
    9900012    2    1    2    0    0 -0.79588822735E+01 -0.42223810582E+02  0.61179493107E+01  0.47787270848E+02  0.19999999107E+02 0.  0.
        -12    1    1    2    0    0  0.79588822735E+01  0.42223810582E+02 -0.61179493107E+01  0.43400729152E+02  0.00000000000E+00 0.  1.
         11    1    3    3    0    0  0.22212065054E+01 -0.18959277071E+02  0.54758611997E+01  0.19858826791E+02  0.51100000000E-03 0. -1.
        -11    1    3    3    0    0  0.95818811344E+00 -0.10192911568E+02  0.28156021715E+01  0.10617965273E+02  0.51100000000E-03 0.  1.
        -12    1    3    3    0    0 -0.11138276892E+02 -0.13071621943E+02 -0.21735140605E+01  0.17310478784E+02  0.00000000000E+00 0.  1.
</event>
<event>
 7    1  0.5541017E-010  0.4778727E+02  0.7816164E-02  0.1312668E+00
        -11   -1    0    0    0    0  0.00000000000E+00  0.00000000000E+00  0.45593999997E+02  0.45594000000E+02  0.51100000000E-03 0. -1.
         11   -1    0    0    0    0 -0.00000000000E+00 -0.00000000000E+00 -0.45593999997E+02  0.45594000000E+02  0.51100000000E-03 0.  1.
    9900012    2    1    2    0    0 -0.35870662046E+02  0.89941857596E+01  0.22716152988E+02  0.47787269826E+02  0.19999994444E+02 0.  0.
        -12    1    1    2    0    0  0.35870662046E+02 -0.89941857596E+01 -0.22716152988E+02  0.43400730174E+02  0.00000000000E+00 0.  1.
         11    1    3    3    0    0 -0.17103638216E+01  0.47130797662E+01  0.12502997276E+01  0.51673702166E+01  0.51100000000E-03 0. -1.
        -11    1    3    3    0    0 -0.11128795023E+02 -0.24136617855E+01  0.16464589900E+01  0.11505940611E+02  0.51100000000E-03 0.  1.
         12    1    3    3    0    0 -0.23031503201E+02  0.66947677789E+01  0.19819394270E+02  0.31113958998E+02  0.00000000000E+00 0. -1.
</event>
<event>
 7    1  0.5541017E-010  0.4778727E+02  0.7816164E-02  0.1312668E+00
        -11   -1    0    0    0    0  0.00000000000E+00  0.00000000000E+00  0.45593999997E+02  0.45594000000E+02  0.51100000000E-03 0. -1.
         11   -1    0    0    0    0 -0.00000000000E+00 -0.00000000000E+00 -0.45593999997E+02  0.45594000000E+02  0.51100000000E-03 0.  1.
    9900012    2    1    2    0    0 -0.21662903949E+02 -0.37523885162E+02  0.25099554058E+01  0.47787271420E+02  0.20000001712E+02 0.  0.
        -12    1    1    2    0    0  0.21662903949E+02  0.37523885162E+02 -0.25099554058E+01  0.43400728580E+02  0.00000000000E+00 0.  1.
         11    1    3    3    0    0 -0.53426262568E+01 -0.73453192268E+01 -0.45338889865E+01  0.10151527938E+02  0.51100000000E-03 0.  1.
        -11    1    3    3    0    0 -0.10952969927E+02 -0.10886257056E+02 -0.21668344435E+01  0.15594015348E+02  0.51100000000E-03 0. -1.
         12    1    3    3    0    0 -0.53673077655E+01 -0.19292308879E+02  0.92106788358E+01  0.22041728134E+02  0.00000000000E+00 0. -1.
</event>
<event>
 7    1  0.5541017E-010  0.4778727E+02  0.7816164E-02  0.1312668E+00
        -11   -1    0    0    0    0  0.00000000000E+00  0.00000000000E+00  0.45593999997E+02  0.45594000000E+02  0.51100000000E-03 0.  1.
         11   -1    0    0    0    0 -0.00000000000E+00 -0.00000000000E+00 -0.45593999997E+02  0.45594000000E+02  0.51100000000E-03 0. -1.
    9900012    2    1    2    0    0  0.41110564023E+02 -0.11860595402E+02 -0.72712727478E+01  0.47787267230E+02  0.19999982607E+02 0.  0.
        -12    1    1    2    0    0 -0.41110564023E+02  0.11860595402E+02  0.72712727478E+01  0.43400732770E+02  0.00000000000E+00 0.  1.
         11    1    3    3    0    0  0.38854649506E+01 -0.13201854129E+01  0.41745549546E+01  0.58537711552E+01  0.51100000000E-03 0. -1.
        -11    1    3    3    0    0  0.11838456932E+01 -0.10630308870E+01  0.17820418658E+01  0.23889744169E+01  0.51100000000E-03 0.  1.
         12    1    3    3    0    0  0.36041253380E+02 -0.94773791025E+01 -0.13227869568E+02  0.39544521658E+02  0.00000000000E+00 0. -1.
</event>
<event>
 7    1  0.5541017E-010  0.4778727E+02  0.7816164E-02  0.1312668E+00
        -11   -1    0    0    0    0  0.00000000000E+00  0.00000000000E+00  0.45593999997E+02  0.45594000000E+02  0.51100000000E-03 0.  1.
         11   -1    0    0    0    0 -0.00000000000E+00 -0.00000000000E+00 -0.45593999997E+02  0.45594000000E+02  0.51100000000E-03 0. -1.
    9900012    2    1    2    0    0 -0.28193763595E+02 -0.85098418246E+01 -0.31879740821E+02  0.47787267422E+02  0.19999983482E+02 0.  0.
        -12    1    1    2    0    0  0.28193763595E+02  0.85098418246E+01  0.31879740821E+02  0.43400732578E+02  0.00000000000E+00 0.  1.
         11    1    3    3    0    0  0.34165737979E+00  0.11638380900E+01 -0.27967007808E+01  0.30484068599E+01  0.51100000000E-03 0. -1.
        -11    1    3    3    0    0 -0.11332212622E+02 -0.21401321406E+01 -0.18831199255E+01  0.11685262059E+02  0.51100000000E-03 0.  1.
         12    1    3    3    0    0 -0.17203208353E+02 -0.75335477740E+01 -0.27199920115E+02  0.33053598502E+02  0.00000000000E+00 0. -1.
</event>
<event>
 7    1  0.5541017E-010  0.4778733E+02  0.7816164E-02  0.1312668E+00
        -11   -1    0    0    0    0  0.00000000000E+00  0.00000000000E+00  0.45593999997E+02  0.45594000000E+02  0.51100000000E-03 0.  1.
         11   -1    0    0    0    0 -0.00000000000E+00 -0.00000000000E+00 -0.45593999997E+02  0.45594000000E+02  0.51100000000E-03 0. -1.
    9900012    2    1    2    0    0 -0.36027160773E+02 -0.20442606095E+02 -0.12952291158E+02  0.47787328305E+02  0.20000261071E+02 0.  0.
        -12    1    1    2    0    0  0.36027160773E+02  0.20442606095E+02  0.12952291158E+02  0.43400671695E+02  0.00000000000E+00 0.  1.
         11    1    3    3    0    0 -0.61099589515E+01 -0.75099030825E+01 -0.37269842234E+01  0.10374037515E+02  0.51100000000E-03 0. -1.
        -11    1    3    3    0    0  0.78396109299E+00 -0.26085172185E+01  0.17223292307E+01  0.32226348404E+01  0.51100000000E-03 0.  1.
         12    1    3    3    0    0 -0.30701162915E+02 -0.10324185794E+02 -0.10947636165E+02  0.34190655949E+02  0.00000000000E+00 0. -1.
</event>
<event>
 7    1  0.5541017E-010  0.4778727E+02  0.7816164E-02  0.1312668E+00
        -11   -1    0    0    0    0  0.00000000000E+00  0.00000000000E+00  0.45593999997E+02  0.45594000000E+02  0.51100000000E-03 0.  1.
         11   -1    0    0    0    0 -0.00000000000E+00 -0.00000000000E+00 -0.45593999997E+02  0.45594000000E+02  0.51100000000E-03 0. -1.
    9900012    2    1    2    0    0  0.99827746245E+01  0.22205077393E+02  0.35929124732E+02  0.47787271259E+02  0.20000000978E+02 0.  0.
        -12    1    1    2    0    0 -0.99827746245E+01 -0.22205077393E+02 -0.35929124732E+02  0.43400728741E+02  0.00000000000E+00 0.  1.
         11    1    3    3    0    0 -0.11923155638E+00  0.35161175600E+01  0.74194310459E+00  0.35955220332E+01  0.51100000000E-03 0. -1.
        -11    1    3    3    0    0  0.25080627099E+01 -0.19146648654E+01  0.11357053471E+02  0.11787238180E+02  0.51100000000E-03 0.  1.
         12    1    3    3    0    0  0.75939434710E+01  0.20603624699E+02  0.23830128157E+02  0.32404511046E+02  0.00000000000E+00 0. -1.
</event>
<event>
 7    1  0.5541017E-010  0.4778727E+02  0.7816164E-02  0.1312668E+00
        -11   -1    0    0    0    0  0.00000000000E+00  0.00000000000E+00  0.45593999997E+02  0.45594000000E+02  0.51100000000E-03 0. -1.
         11   -1    0    0    0    0 -0.00000000000E+00 -0.00000000000E+00 -0.45593999997E+02  0.45594000000E+02  0.51100000000E-03 0.  1.
    9900012    2    1    2    0    0  0.30529559692E+02  0.27850870814E+01 -0.30721534465E+02  0.47787269535E+02  0.19999993116E+02 0.  0.
        -12    1    1    2    0    0 -0.30529559692E+02 -0.27850870814E+01  0.30721534465E+02  0.43400730465E+02  0.00000000000E+00 0.  1.
         11    1    3    3    0    0  0.69502233661E+01  0.34976613015E+01 -0.10678313327E+02  0.13212328152E+02  0.51100000000E-03 0. -1.
        -11    1    3    3    0    0  0.52472810206E+01  0.65737109236E+01 -0.67839965522E+01  0.10806028081E+02  0.51100000000E-03 0.  1.
        -12    1    3    3    0    0  0.18332055305E+02 -0.72862851437E+01 -0.13259224586E+02  0.23768913301E+02  0.00000000000E+00 0.  1.
</event>
<event>
 7    1  0.5541017E-010  0.4778727E+02  0.7816164E-02  0.1312668E+00
        -11   -1    0    0    0    0  0.00000000000E+00  0.00000000000E+00  0.45593999997E+02  0.45594000000E+02  0.51100000000E-03 0.  1.
         11   -1    0    0    0    0 -0.00000000000E+00 -0.00000000000E+00 -0.45593999997E+02  0.45594000000E+02  0.51100000000E-03 0. -1.
    9900012    2    1    2    0    0 -0.30036609143E+02 -0.46512493908E+01 -0.30980501313E+02  0.47787268770E+02  0.19999989630E+02 0.  0.
        -12    1    1    2    0    0  0.30036609143E+02  0.46512493908E+01  0.30980501313E+02  0.43400731230E+02  0.00000000000E+00 0.  1.
         11    1    3    3    0    0 -0.22900804038E+01  0.37183507917E+00 -0.10004816514E+02  0.10270301034E+02  0.51100000000E-03 0. -1.
        -11    1    3    3    0    0 -0.31778131816E+01  0.21262894087E+01  0.81318889712E+00  0.39090765802E+01  0.51100000000E-03 0.  1.
         12    1    3    3    0    0 -0.24568715558E+02 -0.71493738787E+01 -0.21788873696E+02  0.33607891156E+02  0.00000000000E+00 0. -1.
</event>
<event>
 7    1  0.5541017E-010  0.4778727E+02  0.7816164E-02  0.1312668E+00
        -11   -1    0    0    0    0  0.00000000000E+00  0.00000000000E+00  0.45593999997E+02  0.45594000000E+02  0.51100000000E-03 0.  1.
         11   -1    0    0    0    0 -0.00000000000E+00 -0.00000000000E+00 -0.45593999997E+02  0.45594000000E+02  0.51100000000E-03 0. -1.
    9900012    2    1    2    0    0 -0.22776714020E+02  0.39611857515E+01 -0.36730829456E+02  0.47787268133E+02  0.19999986724E+02 0.  0.
        -12    1    1    2    0    0  0.22776714020E+02 -0.39611857515E+01  0.36730829456E+02  0.43400731867E+02  0.00000000000E+00 0.  1.
         11    1    3    3    0    0 -0.61736266486E+01 -0.12537196415E+01 -0.67242345146E+01  0.92141634999E+01  0.51100000000E-03 0. -1.
        -11    1    3    3    0    0 -0.13534183851E+02 -0.51677812515E+00 -0.82340895304E+01  0.15850596923E+02  0.51100000000E-03 0.  1.
        -12    1    3    3    0    0 -0.30689035205E+01  0.57316835181E+01 -0.21772505411E+02  0.22722507710E+02  0.00000000000E+00 0.  1.
</event>
<event>
 7    1  0.5541017E-010  0.4778728E+02  0.7816164E-02  0.1312668E+00
        -11   -1    0    0    0    0  0.00000000000E+00  0.00000000000E+00  0.45593999997E+02  0.45594000000E+02  0.51100000000E-03 0.  1.
         11   -1    0    0    0    0 -0.00000000000E+00 -0.00000000000E+00 -0.45593999997E+02  0.45594000000E+02  0.51100000000E-03 0. -1.
    9900012    2    1    2    0    0  0.14387445953E+02 -0.22092198433E+02 -0.34475481286E+02  0.47787278318E+02  0.20000033161E+02 0.  0.
        -12    1    1    2    0    0 -0.14387445953E+02  0.22092198433E+02  0.34475481286E+02  0.43400721682E+02  0.00000000000E+00 0.  1.
         11    1    3    3    0    0  0.93963321396E+01 -0.33245262096E+01 -0.15415269199E+02  0.18356853133E+02  0.51100000000E-03 0.  1.
        -11    1    3    3    0    0  0.83448259900E+01 -0.11484330667E+02 -0.10198885362E+02  0.17479795038E+02  0.51100000000E-03 0. -1.
        -12    1    3    3    0    0 -0.33537121763E+01 -0.72833415562E+01 -0.88613267251E+01  0.11950630147E+02  0.00000000000E+00 0.  1.
</event>
<event>
 7    1  0.5541017E-010  0.4778727E+02  0.7816164E-02  0.1312668E+00
        -11   -1    0    0    0    0  0.00000000000E+00  0.00000000000E+00  0.45593999997E+02  0.45594000000E+02  0.51100000000E-03 0. -1.
         11   -1    0    0    0    0 -0.00000000000E+00 -0.00000000000E+00 -0.45593999997E+02  0.45594000000E+02  0.51100000000E-03 0.  1.
    9900012    2    1    2    0    0 -0.53435193560E+01 -0.36046478343E+02 -0.23573744081E+02  0.47787271780E+02  0.20000003354E+02 0.  0.
        -12    1    1    2    0    0  0.53435193560E+01  0.36046478343E+02  0.23573744081E+02  0.43400728220E+02  0.00000000000E+00 0.  1.
         11    1    3    3    0    0  0.52725097710E+00 -0.24324476286E-02 -0.24300935849E+01  0.24866351968E+01  0.51100000000E-03 0. -1.
        -11    1    3    3    0    0  0.53695178297E+01 -0.15847624903E+02 -0.11223654862E+02  0.20148185167E+02  0.51100000000E-03 0.  1.
         12    1    3    3    0    0 -0.11240288163E+02 -0.20196420992E+02 -0.99199956342E+01  0.25152451416E+02  0.00000000000E+00 0. -1.
</event>
<event>
 7    1  0.5541017E-010  0.4778727E+02  0.7816164E-02  0.1312668E+00
        -11   -1    0    0    0    0  0.00000000000E+00  0.00000000000E+00  0.45593999997E+02  0.45594000000E+02  0.51100000000E-03 0.  1.
         11   -1    0    0    0    0 -0.00000000000E+00 -0.00000000000E+00 -0.45593999997E+02  0.45594000000E+02  0.51100000000E-03 0. -1.
    9900012    2    1    2    0    0 -0.42028109292E+02 -0.15723696180E+01 -0.10713959670E+02  0.47787271335E+02  0.20000001324E+02 0.  0.
        -12    1    1    2    0    0  0.42028109292E+02  0.15723696180E+01  0.10713959670E+02  0.43400728665E+02  0.00000000000E+00 0.  1.
         11    1    3    3    0    0 -0.48028259247E+01  0.30860984416E+01 -0.23373979057E+01  0.61688386010E+01  0.51100000000E-03 0. -1.
        -11    1    3    3    0    0 -0.15940259073E+02 -0.62203206975E+01 -0.10651365209E+02  0.20155292852E+02  0.51100000000E-03 0.  1.
         12    1    3    3    0    0 -0.21285024294E+02  0.15618526379E+01  0.22748034440E+01  0.21463139882E+02  0.00000000000E+00 0. -1.
</event>
<event>
 7    1  0.5541017E-010  0.4778729E+02  0.7816164E-02  0.1312668E+00
        -11   -1    0    0    0    0  0.00000000000E+00  0.00000000000E+00  0.45593999997E+02  0.45594000000E+02  0.51100000000E-03 0.  1.
         11   -1    0    0    0    0 -0.00000000000E+00 -0.00000000000E+00 -0.45593999997E+02  0.45594000000E+02  0.51100000000E-03 0. -1.
    9900012    2    1    2    0    0 -0.27284010298E+02  0.31985042945E+02 -0.10777833888E+02  0.47787286948E+02  0.20000072512E+02 0.  0.
        -12    1    1    2    0    0  0.27284010298E+02 -0.31985042945E+02  0.10777833888E+02  0.43400713052E+02  0.00000000000E+00 0.  1.
         11    1    3    3    0    0 -0.44942250710E+01  0.27991491410E+01  0.37416371957E+01  0.64832973145E+01  0.51100000000E-03 0. -1.
        -11    1    3    3    0    0  0.13935258169E+00 -0.24539157069E+00  0.89338719339E+00  0.93689759495E+00  0.51100000000E-03 0.  1.
         12    1    3    3    0    0 -0.22929137808E+02  0.29431285374E+02 -0.15412858277E+02  0.40367092039E+02  0.00000000000E+00 0. -1.
</event>
<event>
 7    1  0.5541017E-010  0.4778727E+02  0.7816164E-02  0.1312668E+00
        -11   -1    0    0    0    0  0.00000000000E+00  0.00000000000E+00  0.45593999997E+02  0.45594000000E+02  0.51100000000E-03 0.  1.
         11   -1    0    0    0    0 -0.00000000000E+00 -0.00000000000E+00 -0.45593999997E+02  0.45594000000E+02  0.51100000000E-03 0. -1.
    9900012    2    1    2    0    0  0.23041132872E+02  0.21573231613E+01 -0.36716148373E+02  0.47787269608E+02  0.19999993449E+02 0.  0.
        -12    1    1    2    0    0 -0.23041132872E+02 -0.21573231613E+01  0.36716148373E+02  0.43400730392E+02  0.00000000000E+00 0.  1.
         11    1    3    3    0    0  0.17538616633E+02  0.12043069316E+01 -0.13709840446E+02  0.22293791824E+02  0.51100000000E-03 0. -1.
        -11    1    3    3    0    0 -0.10688020277E+01 -0.12656028233E+01 -0.21526060352E+00  0.16704567248E+01  0.51100000000E-03 0.  1.
        -12    1    3    3    0    0  0.65713182669E+01  0.22186190530E+01 -0.22791047323E+02  0.23823021058E+02  0.00000000000E+00 0.  1.
</event>
<event>
 7    1  0.5541017E-010  0.4778729E+02  0.7816164E-02  0.1312668E+00
        -11   -1    0    0    0    0  0.00000000000E+00  0.00000000000E+00  0.45593999997E+02  0.45594000000E+02  0.51100000000E-03 0. -1.
         11   -1    0    0    0    0 -0.00000000000E+00 -0.00000000000E+00 -0.45593999997E+02  0.45594000000E+02  0.51100000000E-03 0.  1.
    9900012    2    1    2    0    0  0.39196191832E+02  0.58757928479E+01  0.17684898227E+02  0.47787285479E+02  0.20000065811E+02 0.  0.
        -12    1    1    2    0    0 -0.39196191832E+02 -0.58757928479E+01 -0.17684898227E+02  0.43400714521E+02  0.00000000000E+00 0.  1.
         11    1    3    3    0    0  0.12333985505E+02  0.39154539645E+01  0.14667870041E+02  0.19560275816E+02  0.51100000000E-03 0.  1.
        -11    1    3    3    0    0  0.62484205500E+01  0.21826458498E+01  0.37344840371E+01  0.75995442995E+01  0.51100000000E-03 0. -1.
        -12    1    3    3    0    0  0.20613785776E+02 -0.22230696638E+00 -0.71745585130E+00  0.20627465363E+02  0.00000000000E+00 0.  1.
</event>
<event>
 7    1  0.5541017E-010  0.4778727E+02  0.7816164E-02  0.1312668E+00
        -11   -1    0    0    0    0  0.00000000000E+00  0.00000000000E+00  0.45593999997E+02  0.45594000000E+02  0.51100000000E-03 0.  1.
         11   -1    0    0    0    0 -0.00000000000E+00 -0.00000000000E+00 -0.45593999997E+02  0.45594000000E+02  0.51100000000E-03 0. -1.
    9900012    2    1    2    0    0  0.18537488814E+02  0.25880024109E+02 -0.29499308408E+02  0.47787270329E+02  0.19999996739E+02 0.  0.
        -12    1    1    2    0    0 -0.18537488814E+02 -0.25880024109E+02  0.29499308408E+02  0.43400729671E+02  0.00000000000E+00 0.  1.
         11    1    3    3    0    0  0.67392640730E+01  0.13730343656E+02 -0.22025817934E+01  0.15452876236E+02  0.51100000000E-03 0. -1.
        -11    1    3    3    0    0  0.11962721468E+01  0.16950283823E-01 -0.23468775542E+01  0.26342340209E+01  0.51100000000E-03 0.  1.
         12    1    3    3    0    0  0.10601952595E+02  0.12132730169E+02 -0.24949849060E+02  0.29700160072E+02  0.00000000000E+00 0. -1.
</event>
<event>
 7    1  0.5541017E-010  0.4778731E+02  0.7816164E-02  0.1312668E+00
        -11   -1    0    0    0    0  0.00000000000E+00  0.00000000000E+00  0.45593999997E+02  0.45594000000E+02  0.51100000000E-03 0.  1.
         11   -1    0    0    0    0 -0.00000000000E+00 -0.00000000000E+00 -0.45593999997E+02  0.45594000000E+02  0.51100000000E-03 0. -1.
    9900012    2    1    2    0    0  0.25202175964E+02  0.32496036297E+02 -0.13873648303E+02  0.47787306854E+02  0.20000163270E+02 0.  0.
        -12    1    1    2    0    0 -0.25202175964E+02 -0.32496036297E+02  0.13873648303E+02  0.43400693146E+02  0.00000000000E+00 0.  1.
         11    1    3    3    0    0  0.41728428211E+01  0.34869440395E+01  0.34473858669E+01  0.64386229522E+01  0.51100000000E-03 0. -1.
        -11    1    3    3    0    0  0.16304603697E+01 -0.88626137790E+00 -0.13556256401E+01  0.22981691374E+01  0.51100000000E-03 0.  1.
         12    1    3    3    0    0  0.19398872773E+02  0.29895353635E+02 -0.15965408530E+02  0.39050514764E+02  0.00000000000E+00 0. -1.
</event>
<event>
 7    1  0.5541017E-010  0.4778727E+02  0.7816164E-02  0.1312668E+00
        -11   -1    0    0    0    0  0.00000000000E+00  0.00000000000E+00  0.45593999997E+02  0.45594000000E+02  0.51100000000E-03 0.  1.
         11   -1    0    0    0    0 -0.00000000000E+00 -0.00000000000E+00 -0.45593999997E+02  0.45594000000E+02  0.51100000000E-03 0. -1.
    9900012    2    1    2    0    0 -0.15569652811E+02 -0.31699436198E+02 -0.25226086417E+02  0.47787265216E+02  0.19999973424E+02 0.  0.
        -12    1    1    2    0    0  0.15569652811E+02  0.31699436198E+02  0.25226086417E+02  0.43400734784E+02  0.00000000000E+00 0.  1.
         11    1    3    3    0    0 -0.94718737861E+01 -0.62136757674E+01 -0.51693334511E+01  0.12451833927E+02  0.51100000000E-03 0.  1.
        -11    1    3    3    0    0 -0.95868659274E+01 -0.14944591274E+02 -0.14474165388E+02  0.22907428284E+02  0.51100000000E-03 0. -1.
         12    1    3    3    0    0  0.34890869029E+01 -0.10541169157E+02 -0.55825875779E+01  0.12428003004E+02  0.00000000000E+00 0. -1.
</event>
<event>
 7    1  0.5541017E-010  0.4778727E+02  0.7816164E-02  0.1312668E+00
        -11   -1    0    0    0    0  0.00000000000E+00  0.00000000000E+00  0.45593999997E+02  0.45594000000E+02  0.51100000000E-03 0.  1.
         11   -1    0    0    0    0 -0.00000000000E+00 -0.00000000000E+00 -0.45593999997E+02  0.45594000000E+02  0.51100000000E-03 0. -1.
    9900012    2    1    2    0    0 -0.31151471193E+02 -0.11815177175E+02 -0.27813853763E+02  0.47787273851E+02  0.20000012795E+02 0.  0.
        -12    1    1    2    0    0  0.31151471193E+02  0.11815177175E+02  0.27813853763E+02  0.43400726149E+02  0.00000000000E+00 0.  1.
         11    1    3    3    0    0 -0.14969199288E+02 -0.85083598722E+01 -0.59693835478E+01  0.18223683910E+02  0.51100000000E-03 0. -1.
        -11    1    3    3    0    0 -0.11306855966E+02 -0.73659494833E+01 -0.13576530628E+02  0.19142214808E+02  0.51100000000E-03 0.  1.
        -12    1    3    3    0    0 -0.48754159390E+01  0.40591321805E+01 -0.82679395877E+01  0.10421375133E+02  0.00000000000E+00 0.  1.
</event>
<event>
 7    1  0.5541017E-010  0.4778727E+02  0.7816164E-02  0.1312668E+00
        -11   -1    0    0    0    0  0.00000000000E+00  0.00000000000E+00  0.45593999997E+02  0.45594000000E+02  0.51100000000E-03 0.  1.
         11   -1    0    0    0    0 -0.00000000000E+00 -0.00000000000E+00 -0.45593999997E+02  0.45594000000E+02  0.51100000000E-03 0. -1.
    9900012    2    1    2    0    0  0.25072114227E+02  0.35142076687E+02  0.44773937888E+01  0.47787268200E+02  0.19999987030E+02 0.  0.
        -12    1    1    2    0    0 -0.25072114227E+02 -0.35142076687E+02 -0.44773937888E+01  0.43400731800E+02  0.00000000000E+00 0.  1.
         11    1    3    3    0    0  0.10808636243E+02  0.52427984312E+01 -0.23435636595E+01  0.12239519750E+02  0.51100000000E-03 0. -1.
        -11    1    3    3    0    0 -0.98026806150E+00  0.17034850372E-01 -0.65490285483E+00  0.11790308176E+01  0.51100000000E-03 0.  1.
         12    1    3    3    0    0  0.15243746045E+02  0.29882243405E+02  0.74758603031E+01  0.34368717632E+02  0.00000000000E+00 0. -1.
</event>
<event>
 7    1  0.5541017E-010  0.4778727E+02  0.7816164E-02  0.1312668E+00
        -11   -1    0    0    0    0  0.00000000000E+00  0.00000000000E+00  0.45593999997E+02  0.45594000000E+02  0.51100000000E-03 0. -1.
         11   -1    0    0    0    0 -0.00000000000E+00 -0.00000000000E+00 -0.45593999997E+02  0.45594000000E+02  0.51100000000E-03 0.  1.
    9900012    2    1    2    0    0 -0.32706468661E+00 -0.22465304988E+02  0.37132555710E+02  0.47787267367E+02  0.19999983232E+02 0.  0.
        -12    1    1    2    0    0  0.32706468661E+00  0.22465304988E+02 -0.37132555710E+02  0.43400732633E+02  0.00000000000E+00 0.  1.
         11    1    3    3    0    0  0.98793311613E+00 -0.98338030285E+01  0.23700041066E+02  0.25678232818E+02  0.51100000000E-03 0. -1.
        -11    1    3    3    0    0 -0.52562629777E+01 -0.81796896845E+01  0.12879719313E+02  0.16137620446E+02  0.51100000000E-03 0.  1.
        -12    1    3    3    0    0  0.39412651750E+01 -0.44518122749E+01  0.55279533159E+00  0.59714141030E+01  0.00000000000E+00 0.  1.
</event>
<event>
 7    1  0.5541017E-010  0.4778727E+02  0.7816164E-02  0.1312668E+00
        -11   -1    0    0    0    0  0.00000000000E+00  0.00000000000E+00  0.45593999997E+02  0.45594000000E+02  0.51100000000E-03 0.  1.
         11   -1    0    0    0    0 -0.00000000000E+00 -0.00000000000E+00 -0.45593999997E+02  0.45594000000E+02  0.51100000000E-03 0. -1.
    9900012    2    1    2    0    0 -0.79723661844E+01  0.96056781536E+01 -0.41566759535E+02  0.47787272200E+02  0.20000005267E+02 0.  0.
        -12    1    1    2    0    0  0.79723661844E+01 -0.96056781536E+01  0.41566759535E+02  0.43400727800E+02  0.00000000000E+00 0.  1.
         11    1    3    3    0    0 -0.86238657386E+01  0.11232703863E+02 -0.36087972647E+02  0.38767079673E+02  0.51100000000E-03 0. -1.
        -11    1    3    3    0    0 -0.71034838715E+00  0.23591872468E+01 -0.52787047947E+00  0.25197235564E+01  0.51100000000E-03 0.  1.
        -12    1    3    3    0    0  0.13618479414E+01 -0.39862129561E+01 -0.49509164086E+01  0.65004689702E+01  0.00000000000E+00 0.  1.
</event>
<event>
 7    1  0.5541017E-010  0.4778727E+02  0.7816164E-02  0.1312668E+00
        -11   -1    0    0    0    0  0.00000000000E+00  0.00000000000E+00  0.45593999997E+02  0.45594000000E+02  0.51100000000E-03 0.  1.
         11   -1    0    0    0    0 -0.00000000000E+00 -0.00000000000E+00 -0.45593999997E+02  0.45594000000E+02  0.51100000000E-03 0. -1.
    9900012    2    1    2    0    0  0.30120698731E+02 -0.10337237560E+02 -0.29487433992E+02  0.47787265722E+02  0.19999975733E+02 0.  0.
        -12    1    1    2    0    0 -0.30120698731E+02  0.10337237560E+02  0.29487433992E+02  0.43400734278E+02  0.00000000000E+00 0.  1.
         11    1    3    3    0    0  0.46598696857E+01  0.13580776723E+01 -0.94469404495E+01  0.10620896599E+02  0.51100000000E-03 0. -1.
        -11    1    3    3    0    0 -0.89563639723E+00  0.11759907673E+01 -0.27388060929E+01  0.31122625077E+01  0.51100000000E-03 0.  1.
         12    1    3    3    0    0  0.26356465443E+02 -0.12871305999E+02 -0.17301687450E+02  0.34054106615E+02  0.00000000000E+00 0. -1.
</event>
<event>
 7    1  0.5541017E-010  0.4778728E+02  0.7816164E-02  0.1312668E+00
        -11   -1    0    0    0    0  0.00000000000E+00  0.00000000000E+00  0.45593999997E+02  0.45594000000E+02  0.51100000000E-03 0.  1.
         11   -1    0    0    0    0 -0.00000000000E+00 -0.00000000000E+00 -0.45593999997E+02  0.45594000000E+02  0.51100000000E-03 0. -1.
    9900012    2    1    2    0    0 -0.12546160796E+02  0.34621583836E+02 -0.22968732104E+02  0.47787275669E+02  0.20000021085E+02 0.  0.
        -12    1    1    2    0    0  0.12546160796E+02 -0.34621583836E+02  0.22968732104E+02  0.43400724331E+02  0.00000000000E+00 0.  1.
         11    1    3    3    0    0  0.68333400599E+00  0.14280729322E+02 -0.13943090619E+02  0.19970376852E+02  0.51100000000E-03 0. -1.
        -11    1    3    3    0    0 -0.12274513685E+02  0.21085861962E+02 -0.68746435084E+01  0.25348332973E+02  0.51100000000E-03 0.  1.
        -12    1    3    3    0    0 -0.95498111688E+00 -0.74500744878E+00 -0.21509979759E+01  0.24685658437E+01  0.00000000000E+00 0.  1.
</event>
<event>
 7    1  0.5541017E-010  0.4778728E+02  0.7816164E-02  0.1312668E+00
        -11   -1    0    0    0    0  0.00000000000E+00  0.00000000000E+00  0.45593999997E+02  0.45594000000E+02  0.51100000000E-03 0. -1.
         11   -1    0    0    0    0 -0.00000000000E+00 -0.00000000000E+00 -0.45593999997E+02  0.45594000000E+02  0.51100000000E-03 0.  1.
    9900012    2    1    2    0    0 -0.15006581882E+02 -0.15902608506E+02  0.37490426594E+02  0.47787279462E+02  0.20000038378E+02 0.  0.
        -12    1    1    2    0    0  0.15006581882E+02  0.15902608506E+02 -0.37490426594E+02  0.43400720538E+02  0.00000000000E+00 0.  1.
         11    1    3    3    0    0  0.23534328266E+01 -0.80269790871E-01  0.14475257244E+01  0.27641310195E+01  0.51100000000E-03 0. -1.
        -11    1    3    3    0    0 -0.12722503723E+01 -0.49611172383E+01  0.17292456317E+02  0.18034975770E+02  0.51100000000E-03 0.  1.
        -12    1    3    3    0    0 -0.16087764336E+02 -0.10861221477E+02  0.18750444552E+02  0.26988172672E+02  0.00000000000E+00 0.  1.
</event>
<event>
 7    1  0.5541017E-010  0.4778727E+02  0.7816164E-02  0.1312668E+00
        -11   -1    0    0    0    0  0.00000000000E+00  0.00000000000E+00  0.45593999997E+02  0.45594000000E+02  0.51100000000E-03 0.  1.
         11   -1    0    0    0    0 -0.00000000000E+00 -0.00000000000E+00 -0.45593999997E+02  0.45594000000E+02  0.51100000000E-03 0. -1.
    9900012    2    1    2    0    0 -0.41945704034E+02  0.11064131325E+02  0.13288956079E+01  0.47787273596E+02  0.20000011632E+02 0.  0.
        -12    1    1    2    0    0  0.41945704034E+02 -0.11064131325E+02 -0.13288956079E+01  0.43400726404E+02  0.00000000000E+00 0.  1.
         11    1    3    3    0    0 -0.12255306007E+02  0.69374450492E+01 -0.14014569446E+01  0.14152199510E+02  0.51100000000E-03 0. -1.
        -11    1    3    3    0    0 -0.26648566337E+02  0.71791540653E+00 -0.23991733740E+01  0.26765976976E+02  0.51100000000E-03 0.  1.
        -12    1    3    3    0    0 -0.30418316897E+01  0.34087708691E+01  0.51295259265E+01  0.68690971093E+01  0.00000000000E+00 0.  1.
</event>
<event>
 7    1  0.5541017E-010  0.4778727E+02  0.7816164E-02  0.1312668E+00
        -11   -1    0    0    0    0  0.00000000000E+00  0.00000000000E+00  0.45593999997E+02  0.45594000000E+02  0.51100000000E-03 0.  1.
         11   -1    0    0    0    0 -0.00000000000E+00 -0.00000000000E+00 -0.45593999997E+02  0.45594000000E+02  0.51100000000E-03 0. -1.
    9900012    2    1    2    0    0 -0.22637681259E+02  0.32793291080E+02 -0.17197643945E+02  0.47787268325E+02  0.19999987603E+02 0.  0.
        -12    1    1    2    0    0  0.22637681259E+02 -0.32793291080E+02  0.17197643945E+02  0.43400731675E+02  0.00000000000E+00 0.  1.
         11    1    3    3    0    0 -0.17294822519E+02  0.25712909862E+02 -0.38886956731E+01  0.31231179514E+02  0.51100000000E-03 0. -1.
        -11    1    3    3    0    0 -0.12739365407E+01  0.42410000651E+00 -0.49213447416E+01  0.51012164679E+01  0.51100000000E-03 0.  1.
        -12    1    3    3    0    0 -0.40689221991E+01  0.66562812114E+01 -0.83876035298E+01  0.11454872343E+02  0.00000000000E+00 0.  1.
</event>
<event>
 7    1  0.5541017E-010  0.4778727E+02  0.7816164E-02  0.1312668E+00
        -11   -1    0    0    0    0  0.00000000000E+00  0.00000000000E+00  0.45593999997E+02  0.45594000000E+02  0.51100000000E-03 0.  1.
         11   -1    0    0    0    0 -0.00000000000E+00 -0.00000000000E+00 -0.45593999997E+02  0.45594000000E+02  0.51100000000E-03 0. -1.
    9900012    2    1    2    0    0 -0.34775379920E+02  0.14923248686E+02 -0.21250710061E+02  0.47787273301E+02  0.20000010288E+02 0.  0.
        -12    1    1    2    0    0  0.34775379920E+02 -0.14923248686E+02  0.21250710061E+02  0.43400726699E+02  0.00000000000E+00 0.  1.
         11    1    3    3    0    0 -0.44246690410E+01  0.19984864189E+01 -0.77530851042E+01  0.91477851408E+01  0.51100000000E-03 0. -1.
        -11    1    3    3    0    0 -0.19661006974E+02  0.46143370888E+01 -0.14798878475E+02  0.25037054666E+02  0.51100000000E-03 0.  1.
        -12    1    3    3    0    0 -0.10689703905E+02  0.83104251784E+01  0.13012535187E+01  0.13602433494E+02  0.00000000000E+00 0.  1.
</event>
<event>
 7    1  0.5541017E-010  0.4778727E+02  0.7816164E-02  0.1312668E+00
        -11   -1    0    0    0    0  0.00000000000E+00  0.00000000000E+00  0.45593999997E+02  0.45594000000E+02  0.51100000000E-03 0.  1.
         11   -1    0    0    0    0 -0.00000000000E+00 -0.00000000000E+00 -0.45593999997E+02  0.45594000000E+02  0.51100000000E-03 0. -1.
    9900012    2    1    2    0    0 -0.29777883092E+02 -0.12285081629E+02 -0.29085696062E+02  0.47787271119E+02  0.20000000338E+02 0.  0.
        -12    1    1    2    0    0  0.29777883092E+02  0.12285081629E+02  0.29085696062E+02  0.43400728881E+02  0.00000000000E+00 0.  1.
         11    1    3    3    0    0 -0.10337766061E+02 -0.59601220441E+01 -0.14408326973E+02  0.18708082433E+02  0.51100000000E-03 0. -1.
        -11    1    3    3    0    0 -0.70690747103E+01 -0.25035924207E+01 -0.14275168774E+02  0.16125142977E+02  0.51100000000E-03 0.  1.
        -12    1    3    3    0    0 -0.12371042321E+02 -0.38213671643E+01 -0.40220031494E+00  0.12954045708E+02  0.00000000000E+00 0.  1.
</event>
<event>
 7    1  0.5541017E-010  0.4778723E+02  0.7816164E-02  0.1312668E+00
        -11   -1    0    0    0    0  0.00000000000E+00  0.00000000000E+00  0.45593999997E+02  0.45594000000E+02  0.51100000000E-03 0.  1.
         11   -1    0    0    0    0 -0.00000000000E+00 -0.00000000000E+00 -0.45593999997E+02  0.45594000000E+02  0.51100000000E-03 0. -1.
    9900012    2    1    2    0    0 -0.39120430645E+02  0.17498398755E+02 -0.68574874540E+01  0.47787225963E+02  0.19999794455E+02 0.  0.
        -12    1    1    2    0    0  0.39120430645E+02 -0.17498398755E+02  0.68574874540E+01  0.43400774037E+02  0.00000000000E+00 0.  1.
         11    1    3    3    0    0 -0.20843938681E+02  0.52169855182E+01 -0.46394376902E+01  0.21982063142E+02  0.51100000000E-03 0. -1.
        -11    1    3    3    0    0 -0.24205785017E+01 -0.10062528825E+01 -0.42760008847E+01  0.50155686590E+01  0.51100000000E-03 0.  1.
         12    1    3    3    0    0 -0.15855913462E+02  0.13287666119E+02  0.20579511209E+01  0.20789594162E+02  0.00000000000E+00 0. -1.
</event>
<event>
 7    1  0.1035749E-009  0.4778727E+02  0.7816164E-02  0.1312668E+00
        -11   -1    0    0    0    0  0.00000000000E+00  0.00000000000E+00  0.45593999997E+02  0.45594000000E+02  0.51100000000E-03 0. -1.
         11   -1    0    0    0    0 -0.00000000000E+00 -0.00000000000E+00 -0.45593999997E+02  0.45594000000E+02  0.51100000000E-03 0.  1.
    9900012    2    1    2    0    0  0.31288725151E+02  0.25675146765E+02  0.15666070569E+02  0.47787271319E+02  0.20000001252E+02 0.  0.
        -12    1    1    2    0    0 -0.31288725151E+02 -0.25675146765E+02 -0.15666070569E+02  0.43400728681E+02  0.00000000000E+00 0.  1.
         11    1    3    3    0    0  0.21967435095E+02  0.16319256138E+02  0.11581620527E+02  0.29715656813E+02  0.51100000000E-03 0. -1.
        -11    1    3    3    0    0  0.10777574468E+02  0.78950069880E+01 -0.15078062168E+00  0.13360762770E+02  0.51100000000E-03 0.  1.
        -12    1    3    3    0    0 -0.14562844123E+01  0.14608836392E+01  0.42352306635E+01  0.47108517351E+01  0.00000000000E+00 0.  1.
</event>
<event>
 7    1  0.5541017E-010  0.4778727E+02  0.7816164E-02  0.1312668E+00
        -11   -1    0    0    0    0  0.00000000000E+00  0.00000000000E+00  0.45593999997E+02  0.45594000000E+02  0.51100000000E-03 0.  1.
         11   -1    0    0    0    0 -0.00000000000E+00 -0.00000000000E+00 -0.45593999997E+02  0.45594000000E+02  0.51100000000E-03 0. -1.
    9900012    2    1    2    0    0  0.30483082470E+02  0.15510166957E+02 -0.26717781155E+02  0.47787269295E+02  0.19999992022E+02 0.  0.
        -12    1    1    2    0    0 -0.30483082470E+02 -0.15510166957E+02  0.26717781155E+02  0.43400730705E+02  0.00000000000E+00 0.  1.
         11    1    3    3    0    0  0.14924685498E+02  0.82541841324E+01 -0.50812186194E+01  0.17795970775E+02  0.51100000000E-03 0. -1.
        -11    1    3    3    0    0  0.13658696705E+02  0.17888404853E+01 -0.10090030801E+02  0.17075381922E+02  0.51100000000E-03 0.  1.
         12    1    3    3    0    0  0.18997002672E+01  0.54671423392E+01 -0.11546531734E+02  0.12915916597E+02  0.00000000000E+00 0. -1.
</event>
<event>
 7    1  0.5541017E-010  0.4778727E+02  0.7816164E-02  0.1312668E+00
        -11   -1    0    0    0    0  0.00000000000E+00  0.00000000000E+00  0.45593999997E+02  0.45594000000E+02  0.51100000000E-03 0.  1.
         11   -1    0    0    0    0 -0.00000000000E+00 -0.00000000000E+00 -0.45593999997E+02  0.45594000000E+02  0.51100000000E-03 0. -1.
    9900012    2    1    2    0    0 -0.25958996848E+02  0.13138020641E+01 -0.34756691081E+02  0.47787272262E+02  0.20000005552E+02 0.  0.
        -12    1    1    2    0    0  0.25958996848E+02 -0.13138020641E+01  0.34756691081E+02  0.43400727738E+02  0.00000000000E+00 0.  1.
         11    1    3    3    0    0 -0.36072490084E+01  0.39184213133E+01 -0.15422327672E+01  0.55447951419E+01  0.51100000000E-03 0. -1.
        -11    1    3    3    0    0 -0.85510157395E+01  0.33012148904E+01 -0.20916753655E+02  0.22836997913E+02  0.51100000000E-03 0.  1.
         12    1    3    3    0    0 -0.13800732101E+02 -0.59058341396E+01 -0.12297704659E+02  0.19405479207E+02  0.00000000000E+00 0. -1.
</event>
<event>
 7    1  0.5541017E-010  0.4778727E+02  0.7816164E-02  0.1312668E+00
        -11   -1    0    0    0    0  0.00000000000E+00  0.00000000000E+00  0.45593999997E+02  0.45594000000E+02  0.51100000000E-03 0. -1.
         11   -1    0    0    0    0 -0.00000000000E+00 -0.00000000000E+00 -0.45593999997E+02  0.45594000000E+02  0.51100000000E-03 0.  1.
    9900012    2    1    2    0    0 -0.13994497108E+01  0.35851450183E+02  0.24420042256E+02  0.47787269551E+02  0.19999993191E+02 0.  0.
        -12    1    1    2    0    0  0.13994497108E+01 -0.35851450183E+02 -0.24420042256E+02  0.43400730449E+02  0.00000000000E+00 0.  1.
         11    1    3    3    0    0  0.19476219810E+01  0.39428483776E+00  0.19613311208E+01  0.27920444016E+01  0.51100000000E-03 0. -1.
        -11    1    3    3    0    0 -0.48229013465E+01  0.16181002704E+01  0.23398018462E+01  0.55994016487E+01  0.51100000000E-03 0.  1.
         12    1    3    3    0    0  0.14758296547E+01  0.33839065075E+02  0.20118909289E+02  0.39395823501E+02  0.00000000000E+00 0. -1.
</event>
<event>
 7    1  0.5541017E-010  0.4778727E+02  0.7816164E-02  0.1312668E+00
        -11   -1    0    0    0    0  0.00000000000E+00  0.00000000000E+00  0.45593999997E+02  0.45594000000E+02  0.51100000000E-03 0. -1.
         11   -1    0    0    0    0 -0.00000000000E+00 -0.00000000000E+00 -0.45593999997E+02  0.45594000000E+02  0.51100000000E-03 0.  1.
    9900012    2    1    2    0    0  0.48363839601E+01  0.31160671141E+02  0.29820210384E+02  0.47787274395E+02  0.20000015275E+02 0.  0.
        -12    1    1    2    0    0 -0.48363839601E+01 -0.31160671141E+02 -0.29820210384E+02  0.43400725605E+02  0.00000000000E+00 0.  1.
         11    1    3    3    0    0  0.45120927454E+00  0.10173058390E+01  0.27595232822E+01  0.29754781105E+01  0.51100000000E-03 0. -1.
        -11    1    3    3    0    0 -0.71553225500E+01  0.15153772090E+02  0.11616959781E+02  0.20390909841E+02  0.51100000000E-03 0.  1.
         12    1    3    3    0    0  0.11540497236E+02  0.14989593212E+02  0.15443727321E+02  0.24420886443E+02  0.00000000000E+00 0. -1.
</event>
<event>
 7    1  0.5541017E-010  0.4778727E+02  0.7816164E-02  0.1312668E+00
        -11   -1    0    0    0    0  0.00000000000E+00  0.00000000000E+00  0.45593999997E+02  0.45594000000E+02  0.51100000000E-03 0.  1.
         11   -1    0    0    0    0 -0.00000000000E+00 -0.00000000000E+00 -0.45593999997E+02  0.45594000000E+02  0.51100000000E-03 0. -1.
    9900012    2    1    2    0    0  0.27403963460E+02  0.30814451644E+02 -0.13532020898E+02  0.47787271516E+02  0.20000002148E+02 0.  0.
        -12    1    1    2    0    0 -0.27403963460E+02 -0.30814451644E+02  0.13532020898E+02  0.43400728484E+02  0.00000000000E+00 0.  1.
         11    1    3    3    0    0  0.16192339939E+02  0.15345417801E+02 -0.11450042203E+02  0.25075429945E+02  0.51100000000E-03 0. -1.
        -11    1    3    3    0    0  0.78421769040E+01  0.11744118160E+01 -0.77770016351E+00  0.79676721514E+01  0.51100000000E-03 0.  1.
         12    1    3    3    0    0  0.33694466163E+01  0.14294622026E+02 -0.13042785321E+01  0.14744169419E+02  0.00000000000E+00 0. -1.
</event>
<event>
 7    1  0.5541017E-010  0.4778727E+02  0.7816164E-02  0.1312668E+00
        -11   -1    0    0    0    0  0.00000000000E+00  0.00000000000E+00  0.45593999997E+02  0.45594000000E+02  0.51100000000E-03 0.  1.
         11   -1    0    0    0    0 -0.00000000000E+00 -0.00000000000E+00 -0.45593999997E+02  0.45594000000E+02  0.51100000000E-03 0. -1.
    9900012    2    1    2    0    0 -0.19587027066E+02 -0.25354116313E+02 -0.29276962536E+02  0.47787269838E+02  0.19999994497E+02 0.  0.
        -12    1    1    2    0    0  0.19587027066E+02  0.25354116313E+02  0.29276962536E+02  0.43400730162E+02  0.00000000000E+00 0.  1.
         11    1    3    3    0    0 -0.17658236476E+01  0.10986600470E+01 -0.51483405455E+00  0.21424848700E+01  0.51100000000E-03 0. -1.
        -11    1    3    3    0    0  0.26459975518E+01 -0.50586781721E+01 -0.32978085549E+01  0.65929560456E+01  0.51100000000E-03 0.  1.
         12    1    3    3    0    0 -0.20467200970E+02 -0.21394098188E+02 -0.25464319926E+02  0.39051828922E+02  0.00000000000E+00 0. -1.
</event>
<event>
 7    1  0.5541017E-010  0.4778727E+02  0.7816164E-02  0.1312668E+00
        -11   -1    0    0    0    0  0.00000000000E+00  0.00000000000E+00  0.45593999997E+02  0.45594000000E+02  0.51100000000E-03 0. -1.
         11   -1    0    0    0    0 -0.00000000000E+00 -0.00000000000E+00 -0.45593999997E+02  0.45594000000E+02  0.51100000000E-03 0.  1.
    9900012    2    1    2    0    0  0.26594035293E+02  0.34298344432E+02  0.66047879761E-01  0.47787268367E+02  0.19999987794E+02 0.  0.
        -12    1    1    2    0    0 -0.26594035293E+02 -0.34298344432E+02 -0.66047879761E-01  0.43400731633E+02  0.00000000000E+00 0.  1.
         11    1    3    3    0    0  0.13450326590E+02  0.12945109360E+02  0.67407382418E+01  0.19847536221E+02  0.51100000000E-03 0. -1.
        -11    1    3    3    0    0 -0.80315455572E+00  0.11377225908E+00  0.11008207122E+01  0.13674091812E+01  0.51100000000E-03 0.  1.
        -12    1    3    3    0    0  0.13946863259E+02  0.21239462813E+02 -0.77755110742E+01  0.26572322966E+02  0.00000000000E+00 0.  1.
</event>
<event>
 7    1  0.5541017E-010  0.4778727E+02  0.7816164E-02  0.1312668E+00
        -11   -1    0    0    0    0  0.00000000000E+00  0.00000000000E+00  0.45593999997E+02  0.45594000000E+02  0.51100000000E-03 0.  1.
         11   -1    0    0    0    0 -0.00000000000E+00 -0.00000000000E+00 -0.45593999997E+02  0.45594000000E+02  0.51100000000E-03 0. -1.
    9900012    2    1    2    0    0 -0.15421312773E+02  0.18184266925E+02 -0.36264843850E+02  0.47787270159E+02  0.19999995964E+02 0.  0.
        -12    1    1    2    0    0  0.15421312773E+02 -0.18184266925E+02  0.36264843850E+02  0.43400729841E+02  0.00000000000E+00 0.  1.
         11    1    3    3    0    0 -0.46042214215E+01  0.77625886632E+00 -0.10433576511E+02  0.11430702156E+02  0.51100000000E-03 0. -1.
        -11    1    3    3    0    0  0.88469120665E+00 -0.18402208057E+01  0.53604105715E-01  0.20425388139E+01  0.51100000000E-03 0.  1.
         12    1    3    3    0    0 -0.11701782558E+02  0.19248228865E+02 -0.25884871445E+02  0.34314029189E+02  0.00000000000E+00 0. -1.
</event>
<event>
 7    1  0.5541017E-010  0.4778728E+02  0.7816164E-02  0.1312668E+00
        -11   -1    0    0    0    0  0.00000000000E+00  0.00000000000E+00  0.45593999997E+02  0.45594000000E+02  0.51100000000E-03 0.  1.
         11   -1    0    0    0    0 -0.00000000000E+00 -0.00000000000E+00 -0.45593999997E+02  0.45594000000E+02  0.51100000000E-03 0. -1.
    9900012    2    1    2    0    0  0.37743008665E+02  0.75030413204E+01 -0.20069691161E+02  0.47787276095E+02  0.20000023029E+02 0.  0.
        -12    1    1    2    0    0 -0.37743008665E+02 -0.75030413204E+01  0.20069691161E+02  0.43400723905E+02  0.00000000000E+00 0.  1.
         11    1    3    3    0    0  0.60892197556E+01  0.85125492134E+00 -0.78016920928E+01  0.99332588784E+01  0.51100000000E-03 0. -1.
        -11    1    3    3    0    0  0.14554778664E+02 -0.46147734718E+01 -0.63711181401E+01  0.16544753331E+02  0.51100000000E-03 0.  1.
         12    1    3    3    0    0  0.17099010246E+02  0.11266559871E+02 -0.58968809277E+01  0.21309263886E+02  0.00000000000E+00 0. -1.
</event>
<event>
 7    1  0.5541017E-010  0.4778727E+02  0.7816164E-02  0.1312668E+00
        -11   -1    0    0    0    0  0.00000000000E+00  0.00000000000E+00  0.45593999997E+02  0.45594000000E+02  0.51100000000E-03 0.  1.
         11   -1    0    0    0    0 -0.00000000000E+00 -0.00000000000E+00 -0.45593999997E+02  0.45594000000E+02  0.51100000000E-03 0. -1.
    9900012    2    1    2    0    0  0.19358452742E+01 -0.36702665793E+02  0.23082253428E+02  0.47787267327E+02  0.19999983050E+02 0.  0.
        -12    1    1    2    0    0 -0.19358452742E+01  0.36702665793E+02 -0.23082253428E+02  0.43400732673E+02  0.00000000000E+00 0.  1.
         11    1    3    3    0    0  0.44961967505E+01 -0.40605274264E+01  0.56367228858E+01  0.82750415921E+01  0.51100000000E-03 0. -1.
        -11    1    3    3    0    0 -0.11767430358E+01 -0.30215508264E+01  0.76078353684E+01  0.82700455152E+01  0.51100000000E-03 0.  1.
        -12    1    3    3    0    0 -0.13836084405E+01 -0.29620587540E+02  0.98376951741E+01  0.31242180220E+02  0.00000000000E+00 0.  1.
</event>
<event>
 7    1  0.5541017E-010  0.4778727E+02  0.7816164E-02  0.1312668E+00
        -11   -1    0    0    0    0  0.00000000000E+00  0.00000000000E+00  0.45593999997E+02  0.45594000000E+02  0.51100000000E-03 0.  1.
         11   -1    0    0    0    0 -0.00000000000E+00 -0.00000000000E+00 -0.45593999997E+02  0.45594000000E+02  0.51100000000E-03 0. -1.
    9900012    2    1    2    0    0 -0.77340938655E+01 -0.17930268660E+02 -0.38759677696E+02  0.47787270084E+02  0.19999995621E+02 0.  0.
        -12    1    1    2    0    0  0.77340938655E+01  0.17930268660E+02  0.38759677696E+02  0.43400729916E+02  0.00000000000E+00 0.  1.
         11    1    3    3    0    0  0.13886518574E+01  0.10832981370E+01  0.50442906409E+00  0.18320310523E+01  0.51100000000E-03 0. -1.
        -11    1    3    3    0    0 -0.41744762691E+01 -0.43012649423E+00 -0.40499458641E+01  0.58320941938E+01  0.51100000000E-03 0.  1.
         12    1    3    3    0    0 -0.49482694538E+01 -0.18583440303E+02 -0.35214160896E+02  0.40123144838E+02  0.00000000000E+00 0. -1.
</event>
<event>
 7    1  0.5541017E-010  0.4778727E+02  0.7816164E-02  0.1312668E+00
        -11   -1    0    0    0    0  0.00000000000E+00  0.00000000000E+00  0.45593999997E+02  0.45594000000E+02  0.51100000000E-03 0. -1.
         11   -1    0    0    0    0 -0.00000000000E+00 -0.00000000000E+00 -0.45593999997E+02  0.45594000000E+02  0.51100000000E-03 0.  1.
    9900012    2    1    2    0    0  0.24291431876E+02 -0.25359821451E+02  0.25503509396E+02  0.47787271917E+02  0.20000003980E+02 0.  0.
        -12    1    1    2    0    0 -0.24291431876E+02  0.25359821451E+02 -0.25503509396E+02  0.43400728083E+02  0.00000000000E+00 0.  1.
         11    1    3    3    0    0  0.49199344729E+01 -0.14376815492E+02  0.93448037351E+01  0.17838832249E+02  0.51100000000E-03 0. -1.
        -11    1    3    3    0    0 -0.25873392635E+00 -0.37650359339E+01  0.47000752599E+00  0.38030706231E+01  0.51100000000E-03 0.  1.
         12    1    3    3    0    0  0.19630231330E+02 -0.72179700247E+01  0.15688698134E+02  0.26145369045E+02  0.00000000000E+00 0. -1.
</event>
<event>
 7    1  0.5541017E-010  0.4778727E+02  0.7816164E-02  0.1312668E+00
        -11   -1    0    0    0    0  0.00000000000E+00  0.00000000000E+00  0.45593999997E+02  0.45594000000E+02  0.51100000000E-03 0.  1.
         11   -1    0    0    0    0 -0.00000000000E+00 -0.00000000000E+00 -0.45593999997E+02  0.45594000000E+02  0.51100000000E-03 0. -1.
    9900012    2    1    2    0    0  0.17479642234E+02 -0.25250557876E+02 -0.30667483973E+02  0.47787272599E+02  0.20000007090E+02 0.  0.
        -12    1    1    2    0    0 -0.17479642234E+02  0.25250557876E+02  0.30667483973E+02  0.43400727401E+02  0.00000000000E+00 0.  1.
         11    1    3    3    0    0  0.30731382486E+01 -0.91555806656E+01 -0.69698292026E+01  0.11909968740E+02  0.51100000000E-03 0. -1.
        -11    1    3    3    0    0  0.15361365033E+02 -0.18520788331E+02 -0.19666951528E+02  0.31077003052E+02  0.51100000000E-03 0.  1.
        -12    1    3    3    0    0 -0.95486104735E+00  0.24258111200E+01 -0.40307032421E+01  0.48003008068E+01  0.00000000000E+00 0.  1.
</event>
<event>
 7    1  0.5541017E-010  0.4778727E+02  0.7816164E-02  0.1312668E+00
        -11   -1    0    0    0    0  0.00000000000E+00  0.00000000000E+00  0.45593999997E+02  0.45594000000E+02  0.51100000000E-03 0. -1.
         11   -1    0    0    0    0 -0.00000000000E+00 -0.00000000000E+00 -0.45593999997E+02  0.45594000000E+02  0.51100000000E-03 0.  1.
    9900012    2    1    2    0    0 -0.33896855572E+02  0.15282556030E+02  0.22384587272E+02  0.47787273234E+02  0.20000009985E+02 0.  0.
        -12    1    1    2    0    0  0.33896855572E+02 -0.15282556030E+02 -0.22384587272E+02  0.43400726766E+02  0.00000000000E+00 0.  1.
         11    1    3    3    0    0 -0.10078163639E+02  0.10814419747E+00  0.12173768841E+02  0.15804484350E+02  0.51100000000E-03 0. -1.
        -11    1    3    3    0    0 -0.21348000754E+00 -0.11473627922E+01  0.16754811702E+01  0.20418747521E+01  0.51100000000E-03 0.  1.
        -12    1    3    3    0    0 -0.23605211925E+02  0.16321774625E+02  0.85353372602E+01  0.29940914132E+02  0.00000000000E+00 0.  1.
</event>
<event>
 7    1  0.5541017E-010  0.4778727E+02  0.7816164E-02  0.1312668E+00
        -11   -1    0    0    0    0  0.00000000000E+00  0.00000000000E+00  0.45593999997E+02  0.45594000000E+02  0.51100000000E-03 0.  1.
         11   -1    0    0    0    0 -0.00000000000E+00 -0.00000000000E+00 -0.45593999997E+02  0.45594000000E+02  0.51100000000E-03 0. -1.
    9900012    2    1    2    0    0 -0.85355265231E+01 -0.14285233831E+01 -0.42529140745E+02  0.47787266082E+02  0.19999977374E+02 0.  0.
        -12    1    1    2    0    0  0.85355265231E+01  0.14285233831E+01  0.42529140745E+02  0.43400733918E+02  0.00000000000E+00 0.  1.
         11    1    3    3    0    0  0.35068732075E+01 -0.64986893954E+01 -0.19162331454E+02  0.20535970164E+02  0.51100000000E-03 0. -1.
        -11    1    3    3    0    0 -0.77697309873E+01  0.12552295911E+01 -0.16700480466E+02  0.18462133382E+02  0.51100000000E-03 0.  1.
        -12    1    3    3    0    0 -0.42726687433E+01  0.38149364213E+01 -0.66663288247E+01  0.87891625362E+01  0.00000000000E+00 0.  1.
</event>
<event>
 7    1  0.1176450E-009  0.4778727E+02  0.7816164E-02  0.1312668E+00
        -11   -1    0    0    0    0  0.00000000000E+00  0.00000000000E+00  0.45593999997E+02  0.45594000000E+02  0.51100000000E-03 0.  1.
         11   -1    0    0    0    0 -0.00000000000E+00 -0.00000000000E+00 -0.45593999997E+02  0.45594000000E+02  0.51100000000E-03 0. -1.
    9900012    2    1    2    0    0  0.24636462355E+02 -0.35600907702E+02  0.30402899456E+01  0.47787271095E+02  0.20000000229E+02 0.  0.
        -12    1    1    2    0    0 -0.24636462355E+02  0.35600907702E+02 -0.30402899456E+01  0.43400728905E+02  0.00000000000E+00 0.  1.
         11    1    3    3    0    0  0.13731522455E+02 -0.15596688279E+02  0.79575711629E+01  0.22251614172E+02  0.51100000000E-03 0. -1.
        -11    1    3    3    0    0  0.98411426265E+01 -0.18660060773E+02 -0.84015945138E+00  0.21112835537E+02  0.51100000000E-03 0.  1.
        -12    1    3    3    0    0  0.10637972736E+01 -0.13441586506E+01 -0.40771217659E+01  0.44228213858E+01  0.00000000000E+00 0.  1.
</event>
<event>
 7    1  0.5541017E-010  0.4778727E+02  0.7816164E-02  0.1312668E+00
        -11   -1    0    0    0    0  0.00000000000E+00  0.00000000000E+00  0.45593999997E+02  0.45594000000E+02  0.51100000000E-03 0.  1.
         11   -1    0    0    0    0 -0.00000000000E+00 -0.00000000000E+00 -0.45593999997E+02  0.45594000000E+02  0.51100000000E-03 0. -1.
    9900012    2    1    2    0    0  0.26262685134E+02  0.21021125511E+02 -0.27422742889E+02  0.47787272175E+02  0.20000005154E+02 0.  0.
        -12    1    1    2    0    0 -0.26262685134E+02 -0.21021125511E+02  0.27422742889E+02  0.43400727825E+02  0.00000000000E+00 0.  1.
         11    1    3    3    0    0  0.86216329622E+01  0.85450101136E+01 -0.15104771372E+02  0.19377922263E+02  0.51100000000E-03 0. -1.
        -11    1    3    3    0    0  0.17161827704E+02  0.13299720029E+02 -0.14445343943E+02  0.26078321358E+02  0.51100000000E-03 0.  1.
        -12    1    3    3    0    0  0.47922446817E+00 -0.82360463136E+00  0.21273724258E+01  0.23310285536E+01  0.00000000000E+00 0.  1.
</event>
<event>
 7    1  0.5541017E-010  0.4778731E+02  0.7816164E-02  0.1312668E+00
        -11   -1    0    0    0    0  0.00000000000E+00  0.00000000000E+00  0.45593999997E+02  0.45594000000E+02  0.51100000000E-03 0. -1.
         11   -1    0    0    0    0 -0.00000000000E+00 -0.00000000000E+00 -0.45593999997E+02  0.45594000000E+02  0.51100000000E-03 0.  1.
    9900012    2    1    2    0    0  0.48369360666E+01 -0.37671305731E+02  0.21002311377E+02  0.47787305200E+02  0.20000155726E+02 0.  0.
        -12    1    1    2    0    0 -0.48369360666E+01  0.37671305731E+02 -0.21002311377E+02  0.43400694800E+02  0.00000000000E+00 0.  1.
         11    1    3    3    0    0  0.42805815825E+01 -0.23762607784E+02  0.10243530901E+02  0.26228130566E+02  0.51100000000E-03 0. -1.
        -11    1    3    3    0    0  0.42140015064E+01 -0.55347219017E+01 -0.59860324735E+00  0.69820685570E+01  0.51100000000E-03 0.  1.
        -12    1    3    3    0    0 -0.36576470223E+01 -0.83739760450E+01  0.11357383723E+02  0.14577106077E+02  0.00000000000E+00 0.  1.
</event>
<event>
 7    1  0.5541017E-010  0.4778727E+02  0.7816164E-02  0.1312668E+00
        -11   -1    0    0    0    0  0.00000000000E+00  0.00000000000E+00  0.45593999997E+02  0.45594000000E+02  0.51100000000E-03 0.  1.
         11   -1    0    0    0    0 -0.00000000000E+00 -0.00000000000E+00 -0.45593999997E+02  0.45594000000E+02  0.51100000000E-03 0. -1.
    9900012    2    1    2    0    0  0.22938813733E+02 -0.20402698574E+02 -0.30678397320E+02  0.47787270206E+02  0.19999996176E+02 0.  0.
        -12    1    1    2    0    0 -0.22938813733E+02  0.20402698574E+02  0.30678397320E+02  0.43400729794E+02  0.00000000000E+00 0.  1.
         11    1    3    3    0    0 -0.17245380196E+01 -0.19545173960E+01  0.71269416184E+00  0.27022403413E+01  0.51100000000E-03 0. -1.
        -11    1    3    3    0    0  0.11768931337E+01 -0.23997754175E+01 -0.74170857154E+01  0.78839812451E+01  0.51100000000E-03 0.  1.
         12    1    3    3    0    0  0.23486458619E+02 -0.16048405761E+02 -0.23974005766E+02  0.37201048619E+02  0.00000000000E+00 0. -1.
</event>
<event>
 7    1  0.5541017E-010  0.4778727E+02  0.7816164E-02  0.1312668E+00
        -11   -1    0    0    0    0  0.00000000000E+00  0.00000000000E+00  0.45593999997E+02  0.45594000000E+02  0.51100000000E-03 0.  1.
         11   -1    0    0    0    0 -0.00000000000E+00 -0.00000000000E+00 -0.45593999997E+02  0.45594000000E+02  0.51100000000E-03 0. -1.
    9900012    2    1    2    0    0  0.36871301995E+02 -0.46373483761E+01 -0.22419305596E+02  0.47787272193E+02  0.20000005238E+02 0.  0.
        -12    1    1    2    0    0 -0.36871301995E+02  0.46373483761E+01  0.22419305596E+02  0.43400727807E+02  0.00000000000E+00 0.  1.
         11    1    3    3    0    0  0.55722920222E+01 -0.35918675950E+01 -0.80567147300E+01  0.10433724345E+02  0.51100000000E-03 0. -1.
        -11    1    3    3    0    0  0.16402209018E+02 -0.76153938491E+01 -0.90894301124E+01  0.20239674507E+02  0.51100000000E-03 0.  1.
         12    1    3    3    0    0  0.14896800955E+02  0.65699130680E+01 -0.52731607536E+01  0.17113873341E+02  0.00000000000E+00 0. -1.
</event>
<event>
 7    1  0.5541017E-010  0.4778727E+02  0.7816164E-02  0.1312668E+00
        -11   -1    0    0    0    0  0.00000000000E+00  0.00000000000E+00  0.45593999997E+02  0.45594000000E+02  0.51100000000E-03 0.  1.
         11   -1    0    0    0    0 -0.00000000000E+00 -0.00000000000E+00 -0.45593999997E+02  0.45594000000E+02  0.51100000000E-03 0. -1.
    9900012    2    1    2    0    0  0.40603604451E+02  0.92687475390E+01  0.12209047926E+02  0.47787271588E+02  0.20000002480E+02 0.  0.
        -12    1    1    2    0    0 -0.40603604451E+02 -0.92687475390E+01 -0.12209047926E+02  0.43400728412E+02  0.00000000000E+00 0.  1.
         11    1    3    3    0    0  0.46660604359E+01  0.43586295921E+00 -0.45600447602E+01  0.65388152587E+01  0.51100000000E-03 0.  1.
        -11    1    3    3    0    0  0.18832839263E+02  0.82289869743E+01  0.85065065935E+01  0.22243037473E+02  0.51100000000E-03 0. -1.
        -12    1    3    3    0    0  0.17104704752E+02  0.60389760547E+00  0.82625860928E+01  0.19005418857E+02  0.00000000000E+00 0.  1.
</event>
<event>
 7    1  0.5541017E-010  0.4778727E+02  0.7816164E-02  0.1312668E+00
        -11   -1    0    0    0    0  0.00000000000E+00  0.00000000000E+00  0.45593999997E+02  0.45594000000E+02  0.51100000000E-03 0.  1.
         11   -1    0    0    0    0 -0.00000000000E+00 -0.00000000000E+00 -0.45593999997E+02  0.45594000000E+02  0.51100000000E-03 0. -1.
    9900012    2    1    2    0    0  0.35281065070E+01  0.32790969342E+02 -0.28212200813E+02  0.47787268663E+02  0.19999989141E+02 0.  0.
        -12    1    1    2    0    0 -0.35281065070E+01 -0.32790969342E+02  0.28212200813E+02  0.43400731337E+02  0.00000000000E+00 0.  1.
         11    1    3    3    0    0 -0.34844778806E+01  0.32585972913E+01 -0.90698223001E+01  0.10248010501E+02  0.51100000000E-03 0. -1.
        -11    1    3    3    0    0 -0.23227903932E+01  0.13825093191E+02 -0.84541414977E+01  0.16370738092E+02  0.51100000000E-03 0.  1.
         12    1    3    3    0    0  0.93353747808E+01  0.15707278859E+02 -0.10688237015E+02  0.21168520070E+02  0.00000000000E+00 0. -1.
</event>
<event>
 7    1  0.5541017E-010  0.4778727E+02  0.7816164E-02  0.1312668E+00
        -11   -1    0    0    0    0  0.00000000000E+00  0.00000000000E+00  0.45593999997E+02  0.45594000000E+02  0.51100000000E-03 0. -1.
         11   -1    0    0    0    0 -0.00000000000E+00 -0.00000000000E+00 -0.45593999997E+02  0.45594000000E+02  0.51100000000E-03 0.  1.
    9900012    2    1    2    0    0 -0.31357447122E+02 -0.13574717010E+02  0.26759311163E+02  0.47787272289E+02  0.20000005673E+02 0.  0.
        -12    1    1    2    0    0  0.31357447122E+02  0.13574717010E+02 -0.26759311163E+02  0.43400727711E+02  0.00000000000E+00 0.  1.
         11    1    3    3    0    0 -0.11988750950E+02 -0.74376212734E+01  0.49182922433E+01  0.14941149835E+02  0.51100000000E-03 0. -1.
        -11    1    3    3    0    0 -0.33392416847E+01 -0.77221522642E+01  0.70188502018E+01  0.10956570131E+02  0.51100000000E-03 0.  1.
        -12    1    3    3    0    0 -0.16029454488E+02  0.15850565276E+01  0.14822168718E+02  0.21889552323E+02  0.00000000000E+00 0.  1.
</event>
<event>
 7    1  0.5541017E-010  0.4778727E+02  0.7816164E-02  0.1312668E+00
        -11   -1    0    0    0    0  0.00000000000E+00  0.00000000000E+00  0.45593999997E+02  0.45594000000E+02  0.51100000000E-03 0.  1.
         11   -1    0    0    0    0 -0.00000000000E+00 -0.00000000000E+00 -0.45593999997E+02  0.45594000000E+02  0.51100000000E-03 0. -1.
    9900012    2    1    2    0    0 -0.28063081561E+01  0.10916874903E+02 -0.41911447282E+02  0.47787274932E+02  0.20000017726E+02 0.  0.
        -12    1    1    2    0    0  0.28063081561E+01 -0.10916874903E+02  0.41911447282E+02  0.43400725068E+02  0.00000000000E+00 0.  1.
         11    1    3    3    0    0 -0.31501129538E+01 -0.14572692508E+01 -0.68444420319E+01  0.76741926143E+01  0.51100000000E-03 0. -1.
        -11    1    3    3    0    0  0.41711904263E+01  0.11743585023E+01 -0.22246456581E+02  0.22664570990E+02  0.51100000000E-03 0.  1.
        -12    1    3    3    0    0 -0.38273856285E+01  0.11199785652E+02 -0.12820548669E+02  0.17448511328E+02  0.00000000000E+00 0.  1.
</event>
<event>
 7    1  0.5541017E-010  0.4778727E+02  0.7816164E-02  0.1312668E+00
        -11   -1    0    0    0    0  0.00000000000E+00  0.00000000000E+00  0.45593999997E+02  0.45594000000E+02  0.51100000000E-03 0.  1.
         11   -1    0    0    0    0 -0.00000000000E+00 -0.00000000000E+00 -0.45593999997E+02  0.45594000000E+02  0.51100000000E-03 0. -1.
    9900012    2    1    2    0    0  0.27772301045E+02  0.32579775252E+02  0.71330769793E+01  0.47787271343E+02  0.20000001359E+02 0.  0.
        -12    1    1    2    0    0 -0.27772301045E+02 -0.32579775252E+02 -0.71330769793E+01  0.43400728657E+02  0.00000000000E+00 0.  1.
         11    1    3    3    0    0  0.20319299235E+02  0.32852831236E+02  0.49354015297E+01  0.38942786625E+02  0.51100000000E-03 0. -1.
        -11    1    3    3    0    0 -0.45150015948E+00 -0.13807515760E+00  0.62604794153E+00  0.78412590148E+00  0.51100000000E-03 0.  1.
         12    1    3    3    0    0  0.79045019696E+01 -0.13498082669E+00  0.15716275080E+01  0.80603588155E+01  0.00000000000E+00 0. -1.
</event>
<event>
 7    1  0.5541017E-010  0.4778727E+02  0.7816164E-02  0.1312668E+00
        -11   -1    0    0    0    0  0.00000000000E+00  0.00000000000E+00  0.45593999997E+02  0.45594000000E+02  0.51100000000E-03 0. -1.
         11   -1    0    0    0    0 -0.00000000000E+00 -0.00000000000E+00 -0.45593999997E+02  0.45594000000E+02  0.51100000000E-03 0.  1.
    9900012    2    1    2    0    0 -0.17863608448E+02  0.39441980277E+02  0.29740381263E+01  0.47787271691E+02  0.20000002949E+02 0.  0.
        -12    1    1    2    0    0  0.17863608448E+02 -0.39441980277E+02 -0.29740381263E+01  0.43400728309E+02  0.00000000000E+00 0.  1.
         11    1    3    3    0    0 -0.12027352819E+02  0.26400599485E+02 -0.65302342431E+01  0.29737061531E+02  0.51100000000E-03 0. -1.
        -11    1    3    3    0    0  0.19831004600E+00  0.50636257529E+01  0.16411252989E+01  0.53266241793E+01  0.51100000000E-03 0.  1.
        -12    1    3    3    0    0 -0.60345656751E+01  0.79777550394E+01  0.78631470706E+01  0.12723585981E+02  0.00000000000E+00 0.  1.
</event>
<event>
 7    1  0.5541017E-010  0.4778726E+02  0.7816164E-02  0.1312668E+00
        -11   -1    0    0    0    0  0.00000000000E+00  0.00000000000E+00  0.45593999997E+02  0.45594000000E+02  0.51100000000E-03 0.  1.
         11   -1    0    0    0    0 -0.00000000000E+00 -0.00000000000E+00 -0.45593999997E+02  0.45594000000E+02  0.51100000000E-03 0. -1.
    9900012    2    1    2    0    0 -0.16198364769E+01 -0.12245351805E+01 -0.43353210079E+02  0.47787260597E+02  0.19999952365E+02 0.  0.
        -12    1    1    2    0    0  0.16198364769E+01  0.12245351805E+01  0.43353210079E+02  0.43400739403E+02  0.00000000000E+00 0.  1.
         11    1    3    3    0    0  0.61069299939E+01  0.27387370918E+01 -0.13131197471E+02  0.14738508136E+02  0.51100000000E-03 0. -1.
        -11    1    3    3    0    0 -0.34491006072E+01  0.29917606530E+01 -0.63661151744E+01  0.78341782899E+01  0.51100000000E-03 0.  1.
         12    1    3    3    0    0 -0.42776658636E+01 -0.69550329253E+01 -0.23855897434E+02  0.25214574170E+02  0.00000000000E+00 0. -1.
</event>
<event>
 7    1  0.7788291E-010  0.4778727E+02  0.7816164E-02  0.1312668E+00
        -11   -1    0    0    0    0  0.00000000000E+00  0.00000000000E+00  0.45593999997E+02  0.45594000000E+02  0.51100000000E-03 0. -1.
         11   -1    0    0    0    0 -0.00000000000E+00 -0.00000000000E+00 -0.45593999997E+02  0.45594000000E+02  0.51100000000E-03 0.  1.
    9900012    2    1    2    0    0  0.15868340329E+02 -0.23756105382E+02  0.32672106193E+02  0.47787270849E+02  0.19999999110E+02 0.  0.
        -12    1    1    2    0    0 -0.15868340329E+02  0.23756105382E+02 -0.32672106193E+02  0.43400729151E+02  0.00000000000E+00 0.  1.
         11    1    3    3    0    0  0.97205312576E+01 -0.59226834362E+01  0.13315262605E+02  0.17517509113E+02  0.51100000000E-03 0. -1.
        -11    1    3    3    0    0  0.35601268624E+01 -0.13503832641E+01 -0.10118041667E+01  0.39397698117E+01  0.51100000000E-03 0.  1.
         12    1    3    3    0    0  0.25876822090E+01 -0.16483038682E+02  0.20368647755E+02  0.26329991925E+02  0.00000000000E+00 0. -1.
</event>
<event>
 7    1  0.5541017E-010  0.4778728E+02  0.7816164E-02  0.1312668E+00
        -11   -1    0    0    0    0  0.00000000000E+00  0.00000000000E+00  0.45593999997E+02  0.45594000000E+02  0.51100000000E-03 0. -1.
         11   -1    0    0    0    0 -0.00000000000E+00 -0.00000000000E+00 -0.45593999997E+02  0.45594000000E+02  0.51100000000E-03 0.  1.
    9900012    2    1    2    0    0  0.66062999693E+01  0.14181568002E+01  0.42871530505E+02  0.47787280008E+02  0.20000040867E+02 0.  0.
        -12    1    1    2    0    0 -0.66062999693E+01 -0.14181568002E+01 -0.42871530505E+02  0.43400719992E+02  0.00000000000E+00 0.  1.
         11    1    3    3    0    0  0.29903727560E+01  0.39347042908E+01  0.11162377707E+02  0.12207493740E+02  0.51100000000E-03 0.  1.
        -11    1    3    3    0    0 -0.49024059539E+00  0.37501139667E+01  0.25696553513E+02  0.25973381631E+02  0.51100000000E-03 0. -1.
        -12    1    3    3    0    0  0.41061678087E+01 -0.62666614573E+01  0.60125992843E+01  0.96064046368E+01  0.00000000000E+00 0.  1.
</event>
<event>
 7    1  0.5541017E-010  0.4778727E+02  0.7816164E-02  0.1312668E+00
        -11   -1    0    0    0    0  0.00000000000E+00  0.00000000000E+00  0.45593999997E+02  0.45594000000E+02  0.51100000000E-03 0.  1.
         11   -1    0    0    0    0 -0.00000000000E+00 -0.00000000000E+00 -0.45593999997E+02  0.45594000000E+02  0.51100000000E-03 0. -1.
    9900012    2    1    2    0    0  0.13173962536E+02 -0.37640679922E+02 -0.17124534640E+02  0.47787265439E+02  0.19999974440E+02 0.  0.
        -12    1    1    2    0    0 -0.13173962536E+02  0.37640679922E+02  0.17124534640E+02  0.43400734561E+02  0.00000000000E+00 0.  1.
         11    1    3    3    0    0  0.50744291331E+01 -0.13938749988E+02 -0.20758797583E+01  0.14978246202E+02  0.51100000000E-03 0. -1.
        -11    1    3    3    0    0 -0.15877454092E+01 -0.17609290969E+02 -0.98540173913E+01  0.20241287580E+02  0.51100000000E-03 0.  1.
        -12    1    3    3    0    0  0.96872788117E+01 -0.60926389654E+01 -0.51946374900E+01  0.12567731657E+02  0.00000000000E+00 0.  1.
</event>
<event>
 7    1  0.5541017E-010  0.4778727E+02  0.7816164E-02  0.1312668E+00
        -11   -1    0    0    0    0  0.00000000000E+00  0.00000000000E+00  0.45593999997E+02  0.45594000000E+02  0.51100000000E-03 0. -1.
         11   -1    0    0    0    0 -0.00000000000E+00 -0.00000000000E+00 -0.45593999997E+02  0.45594000000E+02  0.51100000000E-03 0.  1.
    9900012    2    1    2    0    0  0.35926652843E+02 -0.53899775414E+01  0.23745469642E+02  0.47787267622E+02  0.19999984396E+02 0.  0.
        -12    1    1    2    0    0 -0.35926652843E+02  0.53899775414E+01 -0.23745469642E+02  0.43400732378E+02  0.00000000000E+00 0.  1.
         11    1    3    3    0    0  0.18340614801E+01  0.73638540245E+00 -0.39971619220E+00  0.20163874303E+01  0.51100000000E-03 0. -1.
        -11    1    3    3    0    0  0.24220157750E+02 -0.45013697908E+01  0.64862597519E+01  0.25474495819E+02  0.51100000000E-03 0.  1.
         12    1    3    3    0    0  0.98724336133E+01 -0.16249931531E+01  0.17658926083E+02  0.20296384372E+02  0.00000000000E+00 0. -1.
</event>
<event>
 7    1  0.5541017E-010  0.4778727E+02  0.7816164E-02  0.1312668E+00
        -11   -1    0    0    0    0  0.00000000000E+00  0.00000000000E+00  0.45593999997E+02  0.45594000000E+02  0.51100000000E-03 0.  1.
         11   -1    0    0    0    0 -0.00000000000E+00 -0.00000000000E+00 -0.45593999997E+02  0.45594000000E+02  0.51100000000E-03 0. -1.
    9900012    2    1    2    0    0 -0.87647294273E+01 -0.26245787337E+02 -0.33435926952E+02  0.47787273670E+02  0.20000011969E+02 0.  0.
        -12    1    1    2    0    0  0.87647294273E+01  0.26245787337E+02  0.33435926952E+02  0.43400726330E+02  0.00000000000E+00 0.  1.
         11    1    3    3    0    0 -0.23233243974E+01 -0.72698880062E+01 -0.68972099895E+01  0.10286914687E+02  0.51100000000E-03 0. -1.
        -11    1    3    3    0    0 -0.56178628426E+01 -0.31299579087E+01  0.17075208430E+00  0.64332088388E+01  0.51100000000E-03 0.  1.
        -12    1    3    3    0    0 -0.82354218731E+00 -0.15845941422E+02 -0.26709469047E+02  0.31067150144E+02  0.00000000000E+00 0.  1.
</event>
<event>
 7    1  0.1167681E-009  0.4778728E+02  0.7816164E-02  0.1312668E+00
        -11   -1    0    0    0    0  0.00000000000E+00  0.00000000000E+00  0.45593999997E+02  0.45594000000E+02  0.51100000000E-03 0. -1.
         11   -1    0    0    0    0 -0.00000000000E+00 -0.00000000000E+00 -0.45593999997E+02  0.45594000000E+02  0.51100000000E-03 0.  1.
    9900012    2    1    2    0    0 -0.25600066516E+02  0.13439307419E+02  0.32367328551E+02  0.47787281722E+02  0.20000048684E+02 0.  0.
        -12    1    1    2    0    0  0.25600066516E+02 -0.13439307419E+02 -0.32367328551E+02  0.43400718278E+02  0.00000000000E+00 0.  1.
         11    1    3    3    0    0 -0.13821874905E+02  0.12231632872E+02  0.17179083590E+02  0.25214638245E+02  0.51100000000E-03 0. -1.
        -11    1    3    3    0    0 -0.10498219976E+02  0.13942490831E+01  0.17189364243E+02  0.20189868660E+02  0.51100000000E-03 0.  1.
        -12    1    3    3    0    0 -0.12799716353E+01 -0.18657453553E+00 -0.20011192824E+01  0.23827748167E+01  0.00000000000E+00 0.  1.
</event>
<event>
 7    1  0.5541017E-010  0.4778728E+02  0.7816164E-02  0.1312668E+00
        -11   -1    0    0    0    0  0.00000000000E+00  0.00000000000E+00  0.45593999997E+02  0.45594000000E+02  0.51100000000E-03 0.  1.
         11   -1    0    0    0    0 -0.00000000000E+00 -0.00000000000E+00 -0.45593999997E+02  0.45594000000E+02  0.51100000000E-03 0. -1.
    9900012    2    1    2    0    0 -0.31664974996E+02  0.27667450598E+02 -0.10745431822E+02  0.47787276859E+02  0.20000026512E+02 0.  0.
        -12    1    1    2    0    0  0.31664974996E+02 -0.27667450598E+02  0.10745431822E+02  0.43400723141E+02  0.00000000000E+00 0.  1.
         11    1    3    3    0    0 -0.81836828529E+01  0.54820497913E+01  0.13768433921E+01  0.99459153896E+01  0.51100000000E-03 0. -1.
        -11    1    3    3    0    0 -0.15407516360E+02  0.70324977766E+01 -0.19898340472E+00  0.16937744242E+02  0.51100000000E-03 0.  1.
        -12    1    3    3    0    0 -0.80737757839E+01  0.15152903030E+02 -0.11923291809E+02  0.20903617228E+02  0.00000000000E+00 0.  1.
</event>
<event>
 7    1  0.5541017E-010  0.4778727E+02  0.7816164E-02  0.1312668E+00
        -11   -1    0    0    0    0  0.00000000000E+00  0.00000000000E+00  0.45593999997E+02  0.45594000000E+02  0.51100000000E-03 0.  1.
         11   -1    0    0    0    0 -0.00000000000E+00 -0.00000000000E+00 -0.45593999997E+02  0.45594000000E+02  0.51100000000E-03 0. -1.
    9900012    2    1    2    0    0 -0.27725125255E+02  0.11493022442E+02 -0.31350457866E+02  0.47787270241E+02  0.19999996336E+02 0.  0.
        -12    1    1    2    0    0  0.27725125255E+02 -0.11493022442E+02  0.31350457866E+02  0.43400729759E+02  0.00000000000E+00 0.  1.
         11    1    3    3    0    0 -0.15422893016E+00  0.25197626485E+01 -0.17194673990E+01  0.30544326421E+01  0.51100000000E-03 0. -1.
        -11    1    3    3    0    0  0.59664563762E+00 -0.25764929576E+00 -0.80282851794E+01  0.80545473094E+01  0.51100000000E-03 0.  1.
         12    1    3    3    0    0 -0.28167541962E+02  0.92309090895E+01 -0.21602705287E+02  0.36678290289E+02  0.00000000000E+00 0. -1.
</event>
<event>
 7    1  0.5541017E-010  0.4778727E+02  0.7816164E-02  0.1312668E+00
        -11   -1    0    0    0    0  0.00000000000E+00  0.00000000000E+00  0.45593999997E+02  0.45594000000E+02  0.51100000000E-03 0.  1.
         11   -1    0    0    0    0 -0.00000000000E+00 -0.00000000000E+00 -0.45593999997E+02  0.45594000000E+02  0.51100000000E-03 0. -1.
    9900012    2    1    2    0    0 -0.25174485679E+02  0.16367601616E+02 -0.31336402899E+02  0.47787271222E+02  0.20000000808E+02 0.  0.
        -12    1    1    2    0    0  0.25174485679E+02 -0.16367601616E+02  0.31336402899E+02  0.43400728778E+02  0.00000000000E+00 0.  1.
         11    1    3    3    0    0 -0.43138355153E+01  0.12880130290E+01 -0.56766310191E+01  0.72451566170E+01  0.51100000000E-03 0. -1.
        -11    1    3    3    0    0 -0.23076966552E+02  0.87793614002E+01 -0.19605959099E+02  0.31528038384E+02  0.51100000000E-03 0.  1.
         12    1    3    3    0    0  0.22163163887E+01  0.63002271864E+01 -0.60538127806E+01  0.90140762210E+01  0.00000000000E+00 0. -1.
</event>
<event>
 7    1  0.5541017E-010  0.4778728E+02  0.7816164E-02  0.1312668E+00
        -11   -1    0    0    0    0  0.00000000000E+00  0.00000000000E+00  0.45593999997E+02  0.45594000000E+02  0.51100000000E-03 0.  1.
         11   -1    0    0    0    0 -0.00000000000E+00 -0.00000000000E+00 -0.45593999997E+02  0.45594000000E+02  0.51100000000E-03 0. -1.
    9900012    2    1    2    0    0  0.42255457977E+02  0.23785596509E+01 -0.96146331852E+01  0.47787280580E+02  0.20000043477E+02 0.  0.
        -12    1    1    2    0    0 -0.42255457977E+02 -0.23785596509E+01  0.96146331852E+01  0.43400719420E+02  0.00000000000E+00 0.  1.
         11    1    3    3    0    0  0.28130818773E+02 -0.14768124582E-01 -0.10647557158E+02  0.30078458349E+02  0.51100000000E-03 0. -1.
        -11    1    3    3    0    0  0.13076669888E+01 -0.27450599634E+01 -0.19091152440E+01  0.35902741444E+01  0.51100000000E-03 0.  1.
         12    1    3    3    0    0  0.12816972215E+02  0.51383877388E+01  0.29420392169E+01  0.14118548087E+02  0.00000000000E+00 0. -1.
</event>
<event>
 7    1  0.5541017E-010  0.4778728E+02  0.7816164E-02  0.1312668E+00
        -11   -1    0    0    0    0  0.00000000000E+00  0.00000000000E+00  0.45593999997E+02  0.45594000000E+02  0.51100000000E-03 0. -1.
         11   -1    0    0    0    0 -0.00000000000E+00 -0.00000000000E+00 -0.45593999997E+02  0.45594000000E+02  0.51100000000E-03 0.  1.
    9900012    2    1    2    0    0  0.50902906153E+01 -0.42269505533E+02  0.84261881281E+01  0.47787276470E+02  0.20000024738E+02 0.  0.
        -12    1    1    2    0    0 -0.50902906153E+01  0.42269505533E+02 -0.84261881281E+01  0.43400723530E+02  0.00000000000E+00 0.  1.
         11    1    3    3    0    0 -0.14457304708E+01 -0.30208426455E+02  0.94031127076E+01  0.31671086093E+02  0.51100000000E-03 0. -1.
        -11    1    3    3    0    0  0.43928264516E+00 -0.85466801311E+01 -0.25009720018E+01  0.89159167628E+01  0.51100000000E-03 0.  1.
         12    1    3    3    0    0  0.60967384409E+01 -0.35143989470E+01  0.15240474223E+01  0.72002736143E+01  0.00000000000E+00 0. -1.
</event>
<event>
 7    1  0.5541017E-010  0.4778730E+02  0.7816164E-02  0.1312668E+00
        -11   -1    0    0    0    0  0.00000000000E+00  0.00000000000E+00  0.45593999997E+02  0.45594000000E+02  0.51100000000E-03 0.  1.
         11   -1    0    0    0    0 -0.00000000000E+00 -0.00000000000E+00 -0.45593999997E+02  0.45594000000E+02  0.51100000000E-03 0. -1.
    9900012    2    1    2    0    0 -0.13575403493E+02 -0.23334873938E+02 -0.33982532436E+02  0.47787303780E+02  0.20000149252E+02 0.  0.
        -12    1    1    2    0    0  0.13575403493E+02  0.23334873938E+02  0.33982532436E+02  0.43400696220E+02  0.00000000000E+00 0.  1.
         11    1    3    3    0    0 -0.53057250166E+01 -0.10646396052E+02 -0.34239269841E+01  0.12378196278E+02  0.51100000000E-03 0.  1.
        -11    1    3    3    0    0 -0.40612045977E+01 -0.49507565583E+01 -0.43015884760E+01  0.77140804353E+01  0.51100000000E-03 0. -1.
        -12    1    3    3    0    0 -0.42084738784E+01 -0.77377213274E+01 -0.26257016976E+02  0.27695027066E+02  0.00000000000E+00 0.  1.
</event>
<event>
 7    1  0.5541017E-010  0.4778728E+02  0.7816164E-02  0.1312668E+00
        -11   -1    0    0    0    0  0.00000000000E+00  0.00000000000E+00  0.45593999997E+02  0.45594000000E+02  0.51100000000E-03 0. -1.
         11   -1    0    0    0    0 -0.00000000000E+00 -0.00000000000E+00 -0.45593999997E+02  0.45594000000E+02  0.51100000000E-03 0.  1.
    9900012    2    1    2    0    0  0.56037358890E+01 -0.32261070116E+02  0.28485854940E+02  0.47787280737E+02  0.20000044190E+02 0.  0.
        -12    1    1    2    0    0 -0.56037358890E+01  0.32261070116E+02 -0.28485854940E+02  0.43400719263E+02  0.00000000000E+00 0.  1.
         11    1    3    3    0    0  0.13031912580E+01 -0.21830681051E+02  0.13822820850E+02  0.25871747507E+02  0.51100000000E-03 0. -1.
        -11    1    3    3    0    0 -0.36205745228E+01 -0.61453812281E+01  0.79656470195E+01  0.10692324491E+02  0.51100000000E-03 0.  1.
         12    1    3    3    0    0  0.79211191538E+01 -0.42850078373E+01  0.66973870705E+01  0.11223208738E+02  0.00000000000E+00 0. -1.
</event>
<event>
 7    1  0.5541017E-010  0.4778727E+02  0.7816164E-02  0.1312668E+00
        -11   -1    0    0    0    0  0.00000000000E+00  0.00000000000E+00  0.45593999997E+02  0.45594000000E+02  0.51100000000E-03 0.  1.
         11   -1    0    0    0    0 -0.00000000000E+00 -0.00000000000E+00 -0.45593999997E+02  0.45594000000E+02  0.51100000000E-03 0. -1.
    9900012    2    1    2    0    0  0.19041634822E+02 -0.24689249284E+02 -0.30190739703E+02  0.47787266703E+02  0.19999980205E+02 0.  0.
        -12    1    1    2    0    0 -0.19041634822E+02  0.24689249284E+02  0.30190739703E+02  0.43400733297E+02  0.00000000000E+00 0.  1.
         11    1    3    3    0    0 -0.98270541581E+00 -0.56494657089E+00 -0.66920918271E+01  0.67874124558E+01  0.51100000000E-03 0. -1.
        -11    1    3    3    0    0  0.10358699469E+02 -0.10763500105E+02 -0.40033586622E+01  0.15465525211E+02  0.51100000000E-03 0.  1.
         12    1    3    3    0    0  0.96656407691E+01 -0.13360802608E+02 -0.19495289214E+02  0.25534329036E+02  0.00000000000E+00 0. -1.
</event>
<event>
 7    1  0.5541017E-010  0.4778728E+02  0.7816164E-02  0.1312668E+00
        -11   -1    0    0    0    0  0.00000000000E+00  0.00000000000E+00  0.45593999997E+02  0.45594000000E+02  0.51100000000E-03 0.  1.
         11   -1    0    0    0    0 -0.00000000000E+00 -0.00000000000E+00 -0.45593999997E+02  0.45594000000E+02  0.51100000000E-03 0. -1.
    9900012    2    1    2    0    0  0.34803682044E+00  0.42850280915E+02  0.68814995978E+01  0.47787277185E+02  0.20000027998E+02 0.  0.
        -12    1    1    2    0    0 -0.34803682044E+00 -0.42850280915E+02 -0.68814995978E+01  0.43400722815E+02  0.00000000000E+00 0.  1.
         11    1    3    3    0    0  0.23114845139E+01  0.44559137262E+01  0.21803180767E+01  0.54728342721E+01  0.51100000000E-03 0.  1.
        -11    1    3    3    0    0  0.76989814500E+00 -0.12900519249E+01  0.19213808064E+01  0.24389919202E+01  0.51100000000E-03 0. -1.
         12    1    3    3    0    0 -0.27333458384E+01  0.39684419114E+02  0.27798007148E+01  0.39875450993E+02  0.00000000000E+00 0. -1.
</event>
<event>
 7    1  0.5541017E-010  0.4778727E+02  0.7816164E-02  0.1312668E+00
        -11   -1    0    0    0    0  0.00000000000E+00  0.00000000000E+00  0.45593999997E+02  0.45594000000E+02  0.51100000000E-03 0. -1.
         11   -1    0    0    0    0 -0.00000000000E+00 -0.00000000000E+00 -0.45593999997E+02  0.45594000000E+02  0.51100000000E-03 0.  1.
    9900012    2    1    2    0    0  0.93349646264E+01 -0.41701562954E+02  0.75803359276E+01  0.47787269474E+02  0.19999992841E+02 0.  0.
        -12    1    1    2    0    0 -0.93349646264E+01  0.41701562954E+02 -0.75803359276E+01  0.43400730526E+02  0.00000000000E+00 0.  1.
         11    1    3    3    0    0  0.85984485243E+01 -0.31548618426E+02  0.17768791794E+01  0.32747609707E+02  0.51100000000E-03 0. -1.
        -11    1    3    3    0    0 -0.23883866999E+01 -0.91676144232E+01  0.14392090760E+01  0.95823206097E+01  0.51100000000E-03 0.  1.
        -12    1    3    3    0    0  0.31249028020E+01 -0.98533010466E+00  0.43642476722E+01  0.54573391576E+01  0.00000000000E+00 0.  1.
</event>
<event>
 7    1  0.5541017E-010  0.4778731E+02  0.7816164E-02  0.1312668E+00
        -11   -1    0    0    0    0  0.00000000000E+00  0.00000000000E+00  0.45593999997E+02  0.45594000000E+02  0.51100000000E-03 0.  1.
         11   -1    0    0    0    0 -0.00000000000E+00 -0.00000000000E+00 -0.45593999997E+02  0.45594000000E+02  0.51100000000E-03 0. -1.
    9900012    2    1    2    0    0  0.37213732078E+01 -0.17865497937E+02 -0.39377599179E+02  0.47787309313E+02  0.20000174479E+02 0.  0.
        -12    1    1    2    0    0 -0.37213732078E+01  0.17865497937E+02  0.39377599179E+02  0.43400690687E+02  0.00000000000E+00 0.  1.
         11    1    3    3    0    0  0.88091393002E+01 -0.14967504100E+01 -0.14600477849E+02  0.17117685319E+02  0.51100000000E-03 0. -1.
        -11    1    3    3    0    0  0.34561784462E+00 -0.41763265726E+01 -0.31010785394E+01  0.52132373536E+01  0.51100000000E-03 0.  1.
        -12    1    3    3    0    0 -0.54333839371E+01 -0.12192420954E+02 -0.21676042790E+02  0.25456386640E+02  0.00000000000E+00 0.  1.
</event>
<event>
 7    1  0.5541017E-010  0.4778727E+02  0.7816164E-02  0.1312668E+00
        -11   -1    0    0    0    0  0.00000000000E+00  0.00000000000E+00  0.45593999997E+02  0.45594000000E+02  0.51100000000E-03 0.  1.
         11   -1    0    0    0    0 -0.00000000000E+00 -0.00000000000E+00 -0.45593999997E+02  0.45594000000E+02  0.51100000000E-03 0. -1.
    9900012    2    1    2    0    0 -0.10263441802E+02  0.18934433028E+02 -0.37679870723E+02  0.47787266718E+02  0.19999980272E+02 0.  0.
        -12    1    1    2    0    0  0.10263441802E+02 -0.18934433028E+02  0.37679870723E+02  0.43400733282E+02  0.00000000000E+00 0.  1.
         11    1    3    3    0    0 -0.97638300022E+00 -0.29207929965E+01 -0.67805107283E+01  0.74471257200E+01  0.51100000000E-03 0. -1.
        -11    1    3    3    0    0 -0.26946043314E+01  0.11107311919E+01 -0.90131510134E+01  0.94726716260E+01  0.51100000000E-03 0.  1.
        -12    1    3    3    0    0 -0.65924544702E+01  0.20744494833E+02 -0.21886208982E+02  0.30867469372E+02  0.00000000000E+00 0.  1.
</event>
<event>
 7    1  0.5541017E-010  0.4778727E+02  0.7816164E-02  0.1312668E+00
        -11   -1    0    0    0    0  0.00000000000E+00  0.00000000000E+00  0.45593999997E+02  0.45594000000E+02  0.51100000000E-03 0. -1.
         11   -1    0    0    0    0 -0.00000000000E+00 -0.00000000000E+00 -0.45593999997E+02  0.45594000000E+02  0.51100000000E-03 0.  1.
    9900012    2    1    2    0    0  0.36666647517E+02  0.23122956274E+02 -0.21234175341E+01  0.47787273635E+02  0.20000011810E+02 0.  0.
        -12    1    1    2    0    0 -0.36666647517E+02 -0.23122956274E+02  0.21234175341E+01  0.43400726365E+02  0.00000000000E+00 0.  1.
         11    1    3    3    0    0  0.65066792850E+01  0.79752427921E+01 -0.20108015616E+01  0.10487358871E+02  0.51100000000E-03 0. -1.
        -11    1    3    3    0    0  0.15718363486E+02  0.31621941494E+01 -0.67461363059E+01  0.17394734198E+02  0.51100000000E-03 0.  1.
         12    1    3    3    0    0  0.14441604747E+02  0.11985519332E+02  0.66335203335E+01  0.19905180565E+02  0.00000000000E+00 0. -1.
</event>
<event>
 7    1  0.5541017E-010  0.4778727E+02  0.7816164E-02  0.1312668E+00
        -11   -1    0    0    0    0  0.00000000000E+00  0.00000000000E+00  0.45593999997E+02  0.45594000000E+02  0.51100000000E-03 0. -1.
         11   -1    0    0    0    0 -0.00000000000E+00 -0.00000000000E+00 -0.45593999997E+02  0.45594000000E+02  0.51100000000E-03 0.  1.
    9900012    2    1    2    0    0  0.13343076805E+02  0.35856104575E+02  0.20492083628E+02  0.47787269299E+02  0.19999992041E+02 0.  0.
        -12    1    1    2    0    0 -0.13343076805E+02 -0.35856104575E+02 -0.20492083628E+02  0.43400730701E+02  0.00000000000E+00 0.  1.
         11    1    3    3    0    0  0.11850586523E+02  0.18297066955E+02  0.13770991387E+02  0.25784865021E+02  0.51100000000E-03 0. -1.
        -11    1    3    3    0    0  0.36980083803E+01  0.87981965702E+01  0.85169103197E+01  0.12791453808E+02  0.51100000000E-03 0.  1.
        -12    1    3    3    0    0 -0.22055180984E+01  0.87608410505E+01 -0.17958180781E+01  0.92109504702E+01  0.00000000000E+00 0.  1.
</event>
<event>
 7    1  0.5541017E-010  0.4778726E+02  0.7816164E-02  0.1312668E+00
        -11   -1    0    0    0    0  0.00000000000E+00  0.00000000000E+00  0.45593999997E+02  0.45594000000E+02  0.51100000000E-03 0. -1.
         11   -1    0    0    0    0 -0.00000000000E+00 -0.00000000000E+00 -0.45593999997E+02  0.45594000000E+02  0.51100000000E-03 0.  1.
    9900012    2    1    2    0    0 -0.30076275312E+02 -0.74071195793E+01  0.30400269179E+02  0.47787261259E+02  0.19999955386E+02 0.  0.
        -12    1    1    2    0    0  0.30076275312E+02  0.74071195793E+01 -0.30400269179E+02  0.43400738741E+02  0.00000000000E+00 0.  1.
         11    1    3    3    0    0 -0.80535890464E+01 -0.35780088079E+01  0.15248751253E+02  0.17612122489E+02  0.51100000000E-03 0. -1.
        -11    1    3    3    0    0 -0.48010799416E+01 -0.69455285256E+01  0.34427854705E+01  0.91183061564E+01  0.51100000000E-03 0.  1.
         12    1    3    3    0    0 -0.17221606324E+02  0.31164177542E+01  0.11708732456E+02  0.21056832613E+02  0.00000000000E+00 0. -1.
</event>
<event>
 7    1  0.5541017E-010  0.4778728E+02  0.7816164E-02  0.1312668E+00
        -11   -1    0    0    0    0  0.00000000000E+00  0.00000000000E+00  0.45593999997E+02  0.45594000000E+02  0.51100000000E-03 0.  1.
         11   -1    0    0    0    0 -0.00000000000E+00 -0.00000000000E+00 -0.45593999997E+02  0.45594000000E+02  0.51100000000E-03 0. -1.
    9900012    2    1    2    0    0 -0.16587395232E+02  0.21807737877E+02 -0.33658632463E+02  0.47787278219E+02  0.20000032710E+02 0.  0.
        -12    1    1    2    0    0  0.16587395232E+02 -0.21807737877E+02  0.33658632463E+02  0.43400721781E+02  0.00000000000E+00 0.  1.
         11    1    3    3    0    0 -0.18529980807E+01  0.77379638563E-01 -0.16540383755E+00  0.18619742710E+01  0.51100000000E-03 0. -1.
        -11    1    3    3    0    0 -0.11135177322E+01 -0.28146555195E+01 -0.15505299537E+01  0.34009338176E+01  0.51100000000E-03 0.  1.
         12    1    3    3    0    0 -0.13620879419E+02  0.24545013758E+02 -0.31942698671E+02  0.42524370130E+02  0.00000000000E+00 0. -1.
</event>
<event>
 7    1  0.5541017E-010  0.4778728E+02  0.7816164E-02  0.1312668E+00
        -11   -1    0    0    0    0  0.00000000000E+00  0.00000000000E+00  0.45593999997E+02  0.45594000000E+02  0.51100000000E-03 0.  1.
         11   -1    0    0    0    0 -0.00000000000E+00 -0.00000000000E+00 -0.45593999997E+02  0.45594000000E+02  0.51100000000E-03 0. -1.
    9900012    2    1    2    0    0 -0.35212035519E+01 -0.34218794695E+02 -0.26463140213E+02  0.47787279098E+02  0.20000036720E+02 0.  0.
        -12    1    1    2    0    0  0.35212035519E+01  0.34218794695E+02  0.26463140213E+02  0.43400720902E+02  0.00000000000E+00 0.  1.
         11    1    3    3    0    0 -0.24640904669E+01 -0.12895239356E+02 -0.12443181556E+02  0.18088441265E+02  0.51100000000E-03 0. -1.
        -11    1    3    3    0    0 -0.50071107305E+01 -0.56795989764E+00 -0.30874336181E+01  0.59098208873E+01  0.51100000000E-03 0.  1.
         12    1    3    3    0    0  0.39499976454E+01 -0.20755595442E+02 -0.10932525039E+02  0.23789016946E+02  0.00000000000E+00 0. -1.
</event>
<event>
 7    1  0.5541017E-010  0.4778727E+02  0.7816164E-02  0.1312668E+00
        -11   -1    0    0    0    0  0.00000000000E+00  0.00000000000E+00  0.45593999997E+02  0.45594000000E+02  0.51100000000E-03 0.  1.
         11   -1    0    0    0    0 -0.00000000000E+00 -0.00000000000E+00 -0.45593999997E+02  0.45594000000E+02  0.51100000000E-03 0. -1.
    9900012    2    1    2    0    0 -0.37242652360E+02  0.11696334957E+01  0.22253992864E+02  0.47787269641E+02  0.19999993600E+02 0.  0.
        -12    1    1    2    0    0  0.37242652360E+02 -0.11696334957E+01 -0.22253992864E+02  0.43400730359E+02  0.00000000000E+00 0.  1.
         11    1    3    3    0    0 -0.44550528558E+01  0.18109819082E+01 -0.23897995871E+00  0.48150039565E+01  0.51100000000E-03 0. -1.
        -11    1    3    3    0    0 -0.60628174279E+01  0.34376346559E+01 -0.11427725908E+01  0.70626494070E+01  0.51100000000E-03 0.  1.
        -12    1    3    3    0    0 -0.26724782076E+02 -0.40789830684E+01  0.23635745414E+02  0.35909616277E+02  0.00000000000E+00 0.  1.
</event>
<event>
 7    1  0.5541017E-010  0.4778726E+02  0.7816164E-02  0.1312668E+00
        -11   -1    0    0    0    0  0.00000000000E+00  0.00000000000E+00  0.45593999997E+02  0.45594000000E+02  0.51100000000E-03 0. -1.
         11   -1    0    0    0    0 -0.00000000000E+00 -0.00000000000E+00 -0.45593999997E+02  0.45594000000E+02  0.51100000000E-03 0.  1.
    9900012    2    1    2    0    0  0.27545291884E+01 -0.42747681768E+02  0.69765951176E+01  0.47787255686E+02  0.19999929973E+02 0.  0.
        -12    1    1    2    0    0 -0.27545291884E+01  0.42747681768E+02 -0.69765951176E+01  0.43400744314E+02  0.00000000000E+00 0.  1.
         11    1    3    3    0    0  0.27768784226E+01 -0.24175024533E+02  0.87406434552E+01  0.25856173600E+02  0.51100000000E-03 0. -1.
        -11    1    3    3    0    0 -0.41508126493E+01 -0.36888264071E+01  0.22189523351E+01  0.59800029797E+01  0.51100000000E-03 0.  1.
        -12    1    3    3    0    0  0.41284634151E+01 -0.14883830828E+02 -0.39830006727E+01  0.15951079106E+02  0.00000000000E+00 0.  1.
</event>
<event>
 7    1  0.5541017E-010  0.4778728E+02  0.7816164E-02  0.1312668E+00
        -11   -1    0    0    0    0  0.00000000000E+00  0.00000000000E+00  0.45593999997E+02  0.45594000000E+02  0.51100000000E-03 0.  1.
         11   -1    0    0    0    0 -0.00000000000E+00 -0.00000000000E+00 -0.45593999997E+02  0.45594000000E+02  0.51100000000E-03 0. -1.
    9900012    2    1    2    0    0 -0.19508024529E+02  0.90687699061E+01 -0.37693725258E+02  0.47787279586E+02  0.20000038944E+02 0.  0.
        -12    1    1    2    0    0  0.19508024529E+02 -0.90687699061E+01  0.37693725258E+02  0.43400720414E+02  0.00000000000E+00 0.  1.
         11    1    3    3    0    0  0.21147786910E+01  0.25508894355E+01 -0.13840189191E+02  0.14231309248E+02  0.51100000000E-03 0. -1.
        -11    1    3    3    0    0 -0.38251247763E+01 -0.73475163362E-01 -0.12144906491E+01  0.40139713442E+01  0.51100000000E-03 0.  1.
         12    1    3    3    0    0 -0.17797678444E+02  0.65913556339E+01 -0.22639045418E+02  0.29541998993E+02  0.00000000000E+00 0. -1.
</event>
<event>
 7    1  0.5541017E-010  0.4778727E+02  0.7816164E-02  0.1312668E+00
        -11   -1    0    0    0    0  0.00000000000E+00  0.00000000000E+00  0.45593999997E+02  0.45594000000E+02  0.51100000000E-03 0.  1.
         11   -1    0    0    0    0 -0.00000000000E+00 -0.00000000000E+00 -0.45593999997E+02  0.45594000000E+02  0.51100000000E-03 0. -1.
    9900012    2    1    2    0    0  0.97948293753E+01  0.23444911542E+02 -0.35185518499E+02  0.47787271069E+02  0.20000000113E+02 0.  0.
        -12    1    1    2    0    0 -0.97948293753E+01 -0.23444911542E+02  0.35185518499E+02  0.43400728931E+02  0.00000000000E+00 0.  1.
         11    1    3    3    0    0 -0.33973280501E+01  0.24246882678E+01 -0.26508461166E+01  0.49444854607E+01  0.51100000000E-03 0. -1.
        -11    1    3    3    0    0  0.48845802505E+01 -0.24614738016E+00 -0.75672510151E+01  0.90101609832E+01  0.51100000000E-03 0.  1.
        -12    1    3    3    0    0  0.83075771749E+01  0.21266370654E+02 -0.24967421367E+02  0.33832624625E+02  0.00000000000E+00 0.  1.
</event>
<event>
 7    1  0.5541017E-010  0.4778727E+02  0.7816164E-02  0.1312668E+00
        -11   -1    0    0    0    0  0.00000000000E+00  0.00000000000E+00  0.45593999997E+02  0.45594000000E+02  0.51100000000E-03 0.  1.
         11   -1    0    0    0    0 -0.00000000000E+00 -0.00000000000E+00 -0.45593999997E+02  0.45594000000E+02  0.51100000000E-03 0. -1.
    9900012    2    1    2    0    0 -0.33652790809E+01  0.25550697421E+02 -0.34920770546E+02  0.47787268929E+02  0.19999990353E+02 0.  0.
        -12    1    1    2    0    0  0.33652790809E+01 -0.25550697421E+02  0.34920770546E+02  0.43400731071E+02  0.00000000000E+00 0.  1.
         11    1    3    3    0    0 -0.39666196996E+01  0.48141402457E+01 -0.96420469856E+00  0.63118704920E+01  0.51100000000E-03 0. -1.
        -11    1    3    3    0    0  0.35478039511E+01  0.29528537191E+01 -0.25763907101E+01  0.52862129463E+01  0.51100000000E-03 0.  1.
         12    1    3    3    0    0 -0.29464633324E+01  0.17783703456E+02 -0.31380175138E+02  0.36189185490E+02  0.00000000000E+00 0. -1.
</event>
<event>
 7    1  0.5541017E-010  0.4778728E+02  0.7816164E-02  0.1312668E+00
        -11   -1    0    0    0    0  0.00000000000E+00  0.00000000000E+00  0.45593999997E+02  0.45594000000E+02  0.51100000000E-03 0.  1.
         11   -1    0    0    0    0 -0.00000000000E+00 -0.00000000000E+00 -0.45593999997E+02  0.45594000000E+02  0.51100000000E-03 0. -1.
    9900012    2    1    2    0    0  0.12234957902E+02 -0.12112131358E+02 -0.39839991810E+02  0.47787275717E+02  0.20000021303E+02 0.  0.
        -12    1    1    2    0    0 -0.12234957902E+02  0.12112131358E+02  0.39839991810E+02  0.43400724283E+02  0.00000000000E+00 0.  1.
         11    1    3    3    0    0  0.42734738676E+01  0.25840389826E+01 -0.13603806119E+02  0.14491493282E+02  0.51100000000E-03 0. -1.
        -11    1    3    3    0    0  0.62042066905E+01 -0.95433074454E+01 -0.71355264155E+01  0.13434382574E+02  0.51100000000E-03 0.  1.
         12    1    3    3    0    0  0.17572773442E+01 -0.51528628956E+01 -0.19100659275E+02  0.19861399861E+02  0.00000000000E+00 0. -1.
</event>
<event>
 7    1  0.5541017E-010  0.4778727E+02  0.7816164E-02  0.1312668E+00
        -11   -1    0    0    0    0  0.00000000000E+00  0.00000000000E+00  0.45593999997E+02  0.45594000000E+02  0.51100000000E-03 0.  1.
         11   -1    0    0    0    0 -0.00000000000E+00 -0.00000000000E+00 -0.45593999997E+02  0.45594000000E+02  0.51100000000E-03 0. -1.
    9900012    2    1    2    0    0  0.30300362791E+02  0.30597087729E+02 -0.54156792702E+01  0.47787270228E+02  0.19999996278E+02 0.  0.
        -12    1    1    2    0    0 -0.30300362791E+02 -0.30597087729E+02  0.54156792702E+01  0.43400729772E+02  0.00000000000E+00 0.  1.
         11    1    3    3    0    0  0.17012760992E+02  0.21225432596E+02 -0.72601386812E+01  0.28154265030E+02  0.51100000000E-03 0. -1.
        -11    1    3    3    0    0  0.90100989699E+01  0.11204288198E+02  0.33106724651E+01  0.14753932015E+02  0.51100000000E-03 0.  1.
         12    1    3    3    0    0  0.42775028290E+01 -0.18326330649E+01 -0.14662130541E+01  0.48790731828E+01  0.00000000000E+00 0. -1.
</event>
<event>
 7    1  0.5541017E-010  0.4778728E+02  0.7816164E-02  0.1312668E+00
        -11   -1    0    0    0    0  0.00000000000E+00  0.00000000000E+00  0.45593999997E+02  0.45594000000E+02  0.51100000000E-03 0. -1.
         11   -1    0    0    0    0 -0.00000000000E+00 -0.00000000000E+00 -0.45593999997E+02  0.45594000000E+02  0.51100000000E-03 0.  1.
    9900012    2    1    2    0    0  0.67515007180E+01 -0.27539177061E+02  0.32857771807E+02  0.47787283378E+02  0.20000056235E+02 0.  0.
        -12    1    1    2    0    0 -0.67515007180E+01  0.27539177061E+02 -0.32857771807E+02  0.43400716622E+02  0.00000000000E+00 0.  1.
         11    1    3    3    0    0 -0.69554060857E+01 -0.95733181668E+01  0.11384302314E+02  0.16420366439E+02  0.51100000000E-03 0. -1.
        -11    1    3    3    0    0  0.26740453066E+01 -0.45352305789E+01  0.32683401246E+01  0.61968445306E+01  0.51100000000E-03 0.  1.
         12    1    3    3    0    0  0.11032861497E+02 -0.13430628315E+02  0.18205129369E+02  0.25170072409E+02  0.00000000000E+00 0. -1.
</event>
<event>
 7    1  0.5541017E-010  0.4778727E+02  0.7816164E-02  0.1312668E+00
        -11   -1    0    0    0    0  0.00000000000E+00  0.00000000000E+00  0.45593999997E+02  0.45594000000E+02  0.51100000000E-03 0. -1.
         11   -1    0    0    0    0 -0.00000000000E+00 -0.00000000000E+00 -0.45593999997E+02  0.45594000000E+02  0.51100000000E-03 0.  1.
    9900012    2    1    2    0    0  0.73298140465E+00 -0.43231529967E+02 -0.37577668214E+01  0.47787271244E+02  0.20000000910E+02 0.  0.
        -12    1    1    2    0    0 -0.73298140465E+00  0.43231529967E+02  0.37577668214E+01  0.43400728756E+02  0.00000000000E+00 0.  1.
         11    1    3    3    0    0  0.37973506705E+00 -0.62380470333E+01 -0.26516110024E+01  0.67888489952E+01  0.51100000000E-03 0. -1.
        -11    1    3    3    0    0  0.21396566353E+01 -0.24757770649E+02  0.74717379745E+01  0.25949030939E+02  0.51100000000E-03 0.  1.
         12    1    3    3    0    0 -0.17864102977E+01 -0.12235712285E+02 -0.85778937936E+01  0.15049391310E+02  0.00000000000E+00 0. -1.
</event>
<event>
 7    1  0.5541017E-010  0.4778727E+02  0.7816164E-02  0.1312668E+00
        -11   -1    0    0    0    0  0.00000000000E+00  0.00000000000E+00  0.45593999997E+02  0.45594000000E+02  0.51100000000E-03 0.  1.
         11   -1    0    0    0    0 -0.00000000000E+00 -0.00000000000E+00 -0.45593999997E+02  0.45594000000E+02  0.51100000000E-03 0. -1.
    9900012    2    1    2    0    0 -0.32665978458E+02 -0.28088627223E+02  0.52522668624E+01  0.47787269187E+02  0.19999991531E+02 0.  0.
        -12    1    1    2    0    0  0.32665978458E+02  0.28088627223E+02 -0.52522668624E+01  0.43400730813E+02  0.00000000000E+00 0.  1.
         11    1    3    3    0    0 -0.13728236104E+02 -0.18443694296E+02  0.30860632304E+01  0.23198235113E+02  0.51100000000E-03 0. -1.
        -11    1    3    3    0    0 -0.19605453985E+02 -0.11264664560E+02  0.13368576172E+01  0.22650688337E+02  0.51100000000E-03 0.  1.
        -12    1    3    3    0    0  0.66771163115E+00  0.16197316326E+01  0.82934601474E+00  0.19383457370E+01  0.00000000000E+00 0.  1.
</event>
<event>
 7    1  0.5541017E-010  0.4778727E+02  0.7816164E-02  0.1312668E+00
        -11   -1    0    0    0    0  0.00000000000E+00  0.00000000000E+00  0.45593999997E+02  0.45594000000E+02  0.51100000000E-03 0.  1.
         11   -1    0    0    0    0 -0.00000000000E+00 -0.00000000000E+00 -0.45593999997E+02  0.45594000000E+02  0.51100000000E-03 0. -1.
    9900012    2    1    2    0    0  0.35149901843E+02 -0.25444523937E+02 -0.82710026642E+00  0.47787268522E+02  0.19999988500E+02 0.  0.
        -12    1    1    2    0    0 -0.35149901843E+02  0.25444523937E+02  0.82710026642E+00  0.43400731478E+02  0.00000000000E+00 0.  1.
         11    1    3    3    0    0  0.21350151392E+02 -0.18711702495E+02 -0.23131158742E+01  0.28483456251E+02  0.51100000000E-03 0. -1.
        -11    1    3    3    0    0  0.10794597404E+02 -0.88877679867E+01 -0.21155574564E+01  0.14141829320E+02  0.51100000000E-03 0.  1.
        -12    1    3    3    0    0  0.30051530475E+01  0.21549465447E+01  0.36015730642E+01  0.51619829510E+01  0.00000000000E+00 0.  1.
</event>
<event>
 7    1  0.5541017E-010  0.4778727E+02  0.7816164E-02  0.1312668E+00
        -11   -1    0    0    0    0  0.00000000000E+00  0.00000000000E+00  0.45593999997E+02  0.45594000000E+02  0.51100000000E-03 0. -1.
         11   -1    0    0    0    0 -0.00000000000E+00 -0.00000000000E+00 -0.45593999997E+02  0.45594000000E+02  0.51100000000E-03 0.  1.
    9900012    2    1    2    0    0  0.33633563775E+02 -0.27373776256E+02  0.17558683069E+01  0.47787270603E+02  0.19999997988E+02 0.  0.
        -12    1    1    2    0    0 -0.33633563775E+02  0.27373776256E+02 -0.17558683069E+01  0.43400729397E+02  0.00000000000E+00 0.  1.
         11    1    3    3    0    0  0.89889794524E+01 -0.66719202441E+00  0.33939625821E+01  0.96315045067E+01  0.51100000000E-03 0.  1.
        -11    1    3    3    0    0  0.19014208029E+02 -0.13421887643E+02  0.17329662179E+01  0.23338602080E+02  0.51100000000E-03 0. -1.
         12    1    3    3    0    0  0.56303762932E+01 -0.13284696588E+02 -0.33710604932E+01  0.14817164016E+02  0.00000000000E+00 0. -1.
</event>
<event>
 7    1  0.5541017E-010  0.4778727E+02  0.7816164E-02  0.1312668E+00
        -11   -1    0    0    0    0  0.00000000000E+00  0.00000000000E+00  0.45593999997E+02  0.45594000000E+02  0.51100000000E-03 0.  1.
         11   -1    0    0    0    0 -0.00000000000E+00 -0.00000000000E+00 -0.45593999997E+02  0.45594000000E+02  0.51100000000E-03 0. -1.
    9900012    2    1    2    0    0 -0.23129613381E+02 -0.32797362657E+00 -0.36722425747E+02  0.47787272649E+02  0.20000007317E+02 0.  0.
        -12    1    1    2    0    0  0.23129613381E+02  0.32797362657E+00  0.36722425747E+02  0.43400727351E+02  0.00000000000E+00 0.  1.
         11    1    3    3    0    0 -0.63029926071E+01 -0.12589584870E+01 -0.17779706895E+02  0.18905836924E+02  0.51100000000E-03 0. -1.
        -11    1    3    3    0    0 -0.11448870409E+02 -0.33221031581E+00 -0.20195222920E+02  0.23217106331E+02  0.51100000000E-03 0.  1.
        -12    1    3    3    0    0 -0.53777503652E+01  0.12631951762E+01  0.12525040684E+01  0.56643293941E+01  0.00000000000E+00 0.  1.
</event>
<event>
 7    1  0.5541017E-010  0.4778728E+02  0.7816164E-02  0.1312668E+00
        -11   -1    0    0    0    0  0.00000000000E+00  0.00000000000E+00  0.45593999997E+02  0.45594000000E+02  0.51100000000E-03 0. -1.
         11   -1    0    0    0    0 -0.00000000000E+00 -0.00000000000E+00 -0.45593999997E+02  0.45594000000E+02  0.51100000000E-03 0.  1.
    9900012    2    1    2    0    0  0.51102421818E+01 -0.37879770444E+02  0.20557999040E+02  0.47787275253E+02  0.20000019188E+02 0.  0.
        -12    1    1    2    0    0 -0.51102421818E+01  0.37879770444E+02 -0.20557999040E+02  0.43400724747E+02  0.00000000000E+00 0.  1.
         11    1    3    3    0    0 -0.16571698535E+00 -0.20280724049E+02  0.41135250640E+01  0.20694354756E+02  0.51100000000E-03 0. -1.
        -11    1    3    3    0    0  0.53675323988E+01 -0.89570353146E+01  0.15081397292E+02  0.18343593710E+02  0.51100000000E-03 0.  1.
        -12    1    3    3    0    0 -0.91573231679E-01 -0.86420110802E+01  0.13630766848E+01  0.87493267864E+01  0.00000000000E+00 0.  1.
</event>
<event>
 7    1  0.5541017E-010  0.4778727E+02  0.7816164E-02  0.1312668E+00
        -11   -1    0    0    0    0  0.00000000000E+00  0.00000000000E+00  0.45593999997E+02  0.45594000000E+02  0.51100000000E-03 0.  1.
         11   -1    0    0    0    0 -0.00000000000E+00 -0.00000000000E+00 -0.45593999997E+02  0.45594000000E+02  0.51100000000E-03 0. -1.
    9900012    2    1    2    0    0 -0.97939408770E+01  0.42058809420E+02  0.43310897707E+01  0.47787273435E+02  0.20000010901E+02 0.  0.
        -12    1    1    2    0    0  0.97939408770E+01 -0.42058809420E+02 -0.43310897707E+01  0.43400726565E+02  0.00000000000E+00 0.  1.
         11    1    3    3    0    0 -0.22735317574E+01  0.29505720197E+02  0.49338302749E+01  0.30001652495E+02  0.51100000000E-03 0. -1.
        -11    1    3    3    0    0 -0.31303325797E+01  0.12829450112E+02  0.61905237922E+00  0.13220325198E+02  0.51100000000E-03 0.  1.
        -12    1    3    3    0    0 -0.43900765398E+01 -0.27636088844E+00 -0.12217928834E+01  0.45652957425E+01  0.00000000000E+00 0.  1.
</event>
<event>
 7    1  0.5541017E-010  0.4778727E+02  0.7816164E-02  0.1312668E+00
        -11   -1    0    0    0    0  0.00000000000E+00  0.00000000000E+00  0.45593999997E+02  0.45594000000E+02  0.51100000000E-03 0.  1.
         11   -1    0    0    0    0 -0.00000000000E+00 -0.00000000000E+00 -0.45593999997E+02  0.45594000000E+02  0.51100000000E-03 0. -1.
    9900012    2    1    2    0    0 -0.13055986293E+02 -0.17545552715E+02 -0.37487570798E+02  0.47787272328E+02  0.20000005851E+02 0.  0.
        -12    1    1    2    0    0  0.13055986293E+02  0.17545552715E+02  0.37487570798E+02  0.43400727672E+02  0.00000000000E+00 0.  1.
         11    1    3    3    0    0  0.16304147465E+01 -0.15111036105E+00 -0.19253069356E+00  0.16486827820E+01  0.51100000000E-03 0. -1.
        -11    1    3    3    0    0 -0.14482347124E+01 -0.15184129226E+01  0.12198246405E+01  0.24271246363E+01  0.51100000000E-03 0.  1.
         12    1    3    3    0    0 -0.13238166327E+02 -0.15876029431E+02 -0.38514864745E+02  0.43711464909E+02  0.00000000000E+00 0. -1.
</event>
<event>
 7    1  0.5541017E-010  0.4778728E+02  0.7816164E-02  0.1312668E+00
        -11   -1    0    0    0    0  0.00000000000E+00  0.00000000000E+00  0.45593999997E+02  0.45594000000E+02  0.51100000000E-03 0.  1.
         11   -1    0    0    0    0 -0.00000000000E+00 -0.00000000000E+00 -0.45593999997E+02  0.45594000000E+02  0.51100000000E-03 0. -1.
    9900012    2    1    2    0    0  0.22944042888E+02  0.25680807588E+02 -0.26413820096E+02  0.47787275646E+02  0.20000020981E+02 0.  0.
        -12    1    1    2    0    0 -0.22944042888E+02 -0.25680807588E+02  0.26413820096E+02  0.43400724354E+02  0.00000000000E+00 0.  1.
         11    1    3    3    0    0  0.73477869280E+01  0.15953896665E+02 -0.12080028043E+02  0.21317689118E+02  0.51100000000E-03 0. -1.
        -11    1    3    3    0    0 -0.14785759910E+01  0.30683943805E+01 -0.36437857909E+00  0.34254931099E+01  0.51100000000E-03 0.  1.
        -12    1    3    3    0    0  0.17074831951E+02  0.66585165418E+01 -0.13969413473E+02  0.23044093418E+02  0.00000000000E+00 0.  1.
</event>
<event>
 7    1  0.5541017E-010  0.4778727E+02  0.7816164E-02  0.1312668E+00
        -11   -1    0    0    0    0  0.00000000000E+00  0.00000000000E+00  0.45593999997E+02  0.45594000000E+02  0.51100000000E-03 0.  1.
         11   -1    0    0    0    0 -0.00000000000E+00 -0.00000000000E+00 -0.45593999997E+02  0.45594000000E+02  0.51100000000E-03 0. -1.
    9900012    2    1    2    0    0  0.41583012202E+02 -0.61871218608E+00 -0.12413459167E+02  0.47787266400E+02  0.19999978822E+02 0.  0.
        -12    1    1    2    0    0 -0.41583012202E+02  0.61871218608E+00  0.12413459167E+02  0.43400733600E+02  0.00000000000E+00 0.  1.
         11    1    3    3    0    0  0.16088015902E+02  0.72529926196E+01 -0.60181794936E+01  0.18645338352E+02  0.51100000000E-03 0. -1.
        -11    1    3    3    0    0  0.16128393541E+02 -0.27922912672E+00 -0.17689168876E+01  0.16227511033E+02  0.51100000000E-03 0.  1.
        -12    1    3    3    0    0  0.93666027599E+01 -0.75924756790E+01 -0.46263627853E+01  0.12914417014E+02  0.00000000000E+00 0.  1.
</event>
<event>
 7    1  0.5541017E-010  0.4778727E+02  0.7816164E-02  0.1312668E+00
        -11   -1    0    0    0    0  0.00000000000E+00  0.00000000000E+00  0.45593999997E+02  0.45594000000E+02  0.51100000000E-03 0.  1.
         11   -1    0    0    0    0 -0.00000000000E+00 -0.00000000000E+00 -0.45593999997E+02  0.45594000000E+02  0.51100000000E-03 0. -1.
    9900012    2    1    2    0    0 -0.54598736982E+01  0.16279884652E+02 -0.39859485195E+02  0.47787269302E+02  0.19999992057E+02 0.  0.
        -12    1    1    2    0    0  0.54598736982E+01 -0.16279884652E+02  0.39859485195E+02  0.43400730698E+02  0.00000000000E+00 0.  1.
         11    1    3    3    0    0 -0.33846016871E+01 -0.12911587424E+01 -0.85878005512E+01  0.93205653287E+01  0.51100000000E-03 0. -1.
        -11    1    3    3    0    0 -0.31013134388E+01 -0.13957342252E+01 -0.44683233913E+01  0.56153480091E+01  0.51100000000E-03 0.  1.
         12    1    3    3    0    0  0.10260414277E+01  0.18966777620E+02 -0.26803361253E+02  0.32851355965E+02  0.00000000000E+00 0. -1.
</event>
<event>
 7    1  0.5541017E-010  0.4778727E+02  0.7816164E-02  0.1312668E+00
        -11   -1    0    0    0    0  0.00000000000E+00  0.00000000000E+00  0.45593999997E+02  0.45594000000E+02  0.51100000000E-03 0.  1.
         11   -1    0    0    0    0 -0.00000000000E+00 -0.00000000000E+00 -0.45593999997E+02  0.45594000000E+02  0.51100000000E-03 0. -1.
    9900012    2    1    2    0    0  0.41339118620E+02 -0.24231325276E+00 -0.13215212940E+02  0.47787270777E+02  0.19999998782E+02 0.  0.
        -12    1    1    2    0    0 -0.41339118620E+02  0.24231325276E+00  0.13215212940E+02  0.43400729223E+02  0.00000000000E+00 0.  1.
         11    1    3    3    0    0  0.42699068477E+01 -0.62036036998E+01 -0.28122081766E+01  0.80389874015E+01  0.51100000000E-03 0. -1.
        -11    1    3    3    0    0  0.57633265423E+01  0.34445372282E+01 -0.16998923115E+00  0.67163729907E+01  0.51100000000E-03 0.  1.
         12    1    3    3    0    0  0.31305885230E+02  0.25167532188E+01 -0.10233015533E+02  0.33031910385E+02  0.00000000000E+00 0. -1.
</event>
<event>
 7    1  0.5541017E-010  0.4778728E+02  0.7816164E-02  0.1312668E+00
        -11   -1    0    0    0    0  0.00000000000E+00  0.00000000000E+00  0.45593999997E+02  0.45594000000E+02  0.51100000000E-03 0.  1.
         11   -1    0    0    0    0 -0.00000000000E+00 -0.00000000000E+00 -0.45593999997E+02  0.45594000000E+02  0.51100000000E-03 0. -1.
    9900012    2    1    2    0    0 -0.15486151949E+02  0.27632834276E+02 -0.29668643356E+02  0.47787276148E+02  0.20000023268E+02 0.  0.
        -12    1    1    2    0    0  0.15486151949E+02 -0.27632834276E+02  0.29668643356E+02  0.43400723852E+02  0.00000000000E+00 0.  1.
         11    1    3    3    0    0 -0.41252291760E+01  0.16667940826E+00 -0.11890015124E+02  0.12586411629E+02  0.51100000000E-03 0. -1.
        -11    1    3    3    0    0  0.23144556078E-01  0.52901564969E+01 -0.45669744861E+01  0.69888158976E+01  0.51100000000E-03 0.  1.
        -12    1    3    3    0    0 -0.11384067329E+02  0.22175998371E+02 -0.13211653745E+02  0.28212048621E+02  0.00000000000E+00 0.  1.
</event>
<event>
 7    1  0.5541017E-010  0.4778727E+02  0.7816164E-02  0.1312668E+00
        -11   -1    0    0    0    0  0.00000000000E+00  0.00000000000E+00  0.45593999997E+02  0.45594000000E+02  0.51100000000E-03 0.  1.
         11   -1    0    0    0    0 -0.00000000000E+00 -0.00000000000E+00 -0.45593999997E+02  0.45594000000E+02  0.51100000000E-03 0. -1.
    9900012    2    1    2    0    0 -0.17382562407E+02  0.11976674870E+02 -0.37921358100E+02  0.47787267092E+02  0.19999981980E+02 0.  0.
        -12    1    1    2    0    0  0.17382562407E+02 -0.11976674870E+02  0.37921358100E+02  0.43400732908E+02  0.00000000000E+00 0.  1.
         11    1    3    3    0    0 -0.69442448331E+01  0.10543293132E+02 -0.17158873282E+02  0.21302828426E+02  0.51100000000E-03 0. -1.
        -11    1    3    3    0    0  0.14782261776E+01  0.14550481326E+01 -0.10665809333E+02  0.10865625002E+02  0.51100000000E-03 0.  1.
        -12    1    3    3    0    0 -0.11916543752E+02 -0.21666394505E-01 -0.10096675485E+02  0.15618813664E+02  0.00000000000E+00 0.  1.
</event>
<event>
 7    1  0.5541017E-010  0.4778727E+02  0.7816164E-02  0.1312668E+00
        -11   -1    0    0    0    0  0.00000000000E+00  0.00000000000E+00  0.45593999997E+02  0.45594000000E+02  0.51100000000E-03 0.  1.
         11   -1    0    0    0    0 -0.00000000000E+00 -0.00000000000E+00 -0.45593999997E+02  0.45594000000E+02  0.51100000000E-03 0. -1.
    9900012    2    1    2    0    0  0.25672404685E+02 -0.34050135669E+02 -0.80708791662E+01  0.47787271989E+02  0.20000004306E+02 0.  0.
        -12    1    1    2    0    0 -0.25672404685E+02  0.34050135669E+02  0.80708791662E+01  0.43400728011E+02  0.00000000000E+00 0.  1.
         11    1    3    3    0    0  0.78372661963E+01 -0.19553329273E+02 -0.44604562546E+01  0.21532559006E+02  0.51100000000E-03 0. -1.
        -11    1    3    3    0    0  0.60028202329E+01 -0.83374762310E+01  0.38493406303E+01  0.10971088560E+02  0.51100000000E-03 0.  1.
        -12    1    3    3    0    0  0.11832318256E+02 -0.61593301650E+01 -0.74597635418E+01  0.15283624423E+02  0.00000000000E+00 0.  1.
</event>
<event>
 7    1  0.5541017E-010  0.4778728E+02  0.7816164E-02  0.1312668E+00
        -11   -1    0    0    0    0  0.00000000000E+00  0.00000000000E+00  0.45593999997E+02  0.45594000000E+02  0.51100000000E-03 0. -1.
         11   -1    0    0    0    0 -0.00000000000E+00 -0.00000000000E+00 -0.45593999997E+02  0.45594000000E+02  0.51100000000E-03 0.  1.
    9900012    2    1    2    0    0  0.22581480416E+02 -0.74345985224E+01  0.36310140725E+02  0.47787276131E+02  0.20000023189E+02 0.  0.
        -12    1    1    2    0    0 -0.22581480416E+02  0.74345985224E+01 -0.36310140725E+02  0.43400723869E+02  0.00000000000E+00 0.  1.
         11    1    3    3    0    0  0.24788149923E+01 -0.33790352703E+01  0.90197208418E+01  0.99457411715E+01  0.51100000000E-03 0. -1.
        -11    1    3    3    0    0  0.10593972941E+02  0.59441326727E+01  0.15489055652E+02  0.19684405533E+02  0.51100000000E-03 0.  1.
        -12    1    3    3    0    0  0.95086924819E+01 -0.99996959248E+01  0.11801364230E+02  0.18157129426E+02  0.00000000000E+00 0.  1.
</event>
<event>
 7    1  0.5541017E-010  0.4778727E+02  0.7816164E-02  0.1312668E+00
        -11   -1    0    0    0    0  0.00000000000E+00  0.00000000000E+00  0.45593999997E+02  0.45594000000E+02  0.51100000000E-03 0.  1.
         11   -1    0    0    0    0 -0.00000000000E+00 -0.00000000000E+00 -0.45593999997E+02  0.45594000000E+02  0.51100000000E-03 0. -1.
    9900012    2    1    2    0    0 -0.15393767742E+02  0.34040144049E+02 -0.22088998572E+02  0.47787270167E+02  0.19999995998E+02 0.  0.
        -12    1    1    2    0    0  0.15393767742E+02 -0.34040144049E+02  0.22088998572E+02  0.43400729833E+02  0.00000000000E+00 0.  1.
         11    1    3    3    0    0  0.21175626113E+01  0.63861797004E+01 -0.41772063366E+01  0.79193696478E+01  0.51100000000E-03 0. -1.
        -11    1    3    3    0    0 -0.16661832462E+02  0.29267833617E+02 -0.17657579749E+02  0.38026475888E+02  0.51100000000E-03 0.  1.
        -12    1    3    3    0    0 -0.84949789133E+00 -0.16138692684E+01 -0.25421248602E+00  0.18414246308E+01  0.00000000000E+00 0.  1.
</event>
<event>
 7    1  0.5541017E-010  0.4778727E+02  0.7816164E-02  0.1312668E+00
        -11   -1    0    0    0    0  0.00000000000E+00  0.00000000000E+00  0.45593999997E+02  0.45594000000E+02  0.51100000000E-03 0.  1.
         11   -1    0    0    0    0 -0.00000000000E+00 -0.00000000000E+00 -0.45593999997E+02  0.45594000000E+02  0.51100000000E-03 0. -1.
    9900012    2    1    2    0    0 -0.28255608317E+02  0.32360068213E+02 -0.61700754961E+01  0.47787271346E+02  0.20000001374E+02 0.  0.
        -12    1    1    2    0    0  0.28255608317E+02 -0.32360068213E+02  0.61700754961E+01  0.43400728654E+02  0.00000000000E+00 0.  1.
         11    1    3    3    0    0 -0.11972482179E+02  0.11037161694E+02  0.40512200144E+01  0.16780096891E+02  0.51100000000E-03 0. -1.
        -11    1    3    3    0    0 -0.16910063895E+00  0.43058449889E+01  0.17975871033E+01  0.46690701162E+01  0.51100000000E-03 0.  1.
        -12    1    3    3    0    0 -0.16114025498E+02  0.17017061530E+02 -0.12018882614E+02  0.26338104339E+02  0.00000000000E+00 0.  1.
</event>
<event>
 7    1  0.5541017E-010  0.4778727E+02  0.7816164E-02  0.1312668E+00
        -11   -1    0    0    0    0  0.00000000000E+00  0.00000000000E+00  0.45593999997E+02  0.45594000000E+02  0.51100000000E-03 0.  1.
         11   -1    0    0    0    0 -0.00000000000E+00 -0.00000000000E+00 -0.45593999997E+02  0.45594000000E+02  0.51100000000E-03 0. -1.
    9900012    2    1    2    0    0  0.28068460171E+02  0.27807588732E+02 -0.17958933259E+02  0.47787265774E+02  0.19999975972E+02 0.  0.
        -12    1    1    2    0    0 -0.28068460171E+02 -0.27807588732E+02  0.17958933259E+02  0.43400734226E+02  0.00000000000E+00 0.  1.
         11    1    3    3    0    0  0.12217796473E+02  0.14199947912E+02 -0.77229253841E+01  0.20262197514E+02  0.51100000000E-03 0. -1.
        -11    1    3    3    0    0  0.25580568016E+01  0.85933867537E+01  0.15087111472E+01  0.90920932730E+01  0.51100000000E-03 0.  1.
        -12    1    3    3    0    0  0.13292606897E+02  0.50142540670E+01 -0.11744719023E+02  0.18432974987E+02  0.00000000000E+00 0.  1.
</event>
<event>
 7    1  0.5541017E-010  0.4778727E+02  0.7816164E-02  0.1312668E+00
        -11   -1    0    0    0    0  0.00000000000E+00  0.00000000000E+00  0.45593999997E+02  0.45594000000E+02  0.51100000000E-03 0.  1.
         11   -1    0    0    0    0 -0.00000000000E+00 -0.00000000000E+00 -0.45593999997E+02  0.45594000000E+02  0.51100000000E-03 0. -1.
    9900012    2    1    2    0    0  0.36572522797E+02 -0.22382278412E+02  0.67162214069E+01  0.47787269123E+02  0.19999991240E+02 0.  0.
        -12    1    1    2    0    0 -0.36572522797E+02  0.22382278412E+02 -0.67162214069E+01  0.43400730877E+02  0.00000000000E+00 0.  1.
         11    1    3    3    0    0  0.96427025332E+01 -0.82459076566E+01 -0.32746401469E+01  0.13103433656E+02  0.51100000000E-03 0.  1.
        -11    1    3    3    0    0  0.95913697456E+01 -0.75861956224E+01 -0.23015613905E+01  0.12443549442E+02  0.51100000000E-03 0. -1.
        -12    1    3    3    0    0  0.17338450518E+02 -0.65501751335E+01  0.12292422944E+02  0.22240286025E+02  0.00000000000E+00 0.  1.
</event>
<event>
 7    1  0.5541017E-010  0.4778728E+02  0.7816164E-02  0.1312668E+00
        -11   -1    0    0    0    0  0.00000000000E+00  0.00000000000E+00  0.45593999997E+02  0.45594000000E+02  0.51100000000E-03 0. -1.
         11   -1    0    0    0    0 -0.00000000000E+00 -0.00000000000E+00 -0.45593999997E+02  0.45594000000E+02  0.51100000000E-03 0.  1.
    9900012    2    1    2    0    0 -0.16502817883E+02 -0.40132142609E+02  0.83126280965E+00  0.47787275739E+02  0.20000021406E+02 0.  0.
        -12    1    1    2    0    0  0.16502817883E+02  0.40132142609E+02 -0.83126280965E+00  0.43400724261E+02  0.00000000000E+00 0.  1.
         11    1    3    3    0    0 -0.82782197013E-01 -0.15280903029E+02  0.27223294706E+01  0.15521724398E+02  0.51100000000E-03 0. -1.
        -11    1    3    3    0    0 -0.60758767242E+01 -0.13159264289E+02  0.48178634709E+01  0.15273975359E+02  0.51100000000E-03 0.  1.
        -12    1    3    3    0    0 -0.10344158962E+02 -0.11691975292E+02 -0.67089301319E+01  0.16991575982E+02  0.00000000000E+00 0.  1.
</event>
<event>
 7    1  0.5541017E-010  0.4778727E+02  0.7816164E-02  0.1312668E+00
        -11   -1    0    0    0    0  0.00000000000E+00  0.00000000000E+00  0.45593999997E+02  0.45594000000E+02  0.51100000000E-03 0. -1.
         11   -1    0    0    0    0 -0.00000000000E+00 -0.00000000000E+00 -0.45593999997E+02  0.45594000000E+02  0.51100000000E-03 0.  1.
    9900012    2    1    2    0    0 -0.89422229047E+01 -0.25102056014E+02  0.34257073339E+02  0.47787266822E+02  0.19999980750E+02 0.  0.
        -12    1    1    2    0    0  0.89422229047E+01  0.25102056014E+02 -0.34257073339E+02  0.43400733178E+02  0.00000000000E+00 0.  1.
         11    1    3    3    0    0 -0.79220718284E+01 -0.17043852480E+02  0.18122354032E+02  0.26108846113E+02  0.51100000000E-03 0. -1.
        -11    1    3    3    0    0 -0.74937471345E+00 -0.11164805777E+02  0.13887346676E+02  0.17834596953E+02  0.51100000000E-03 0.  1.
        -12    1    3    3    0    0 -0.27077636280E+00  0.31066022428E+01  0.22473726300E+01  0.38438237566E+01  0.00000000000E+00 0.  1.
</event>
<event>
 7    1  0.5541017E-010  0.4778727E+02  0.7816164E-02  0.1312668E+00
        -11   -1    0    0    0    0  0.00000000000E+00  0.00000000000E+00  0.45593999997E+02  0.45594000000E+02  0.51100000000E-03 0.  1.
         11   -1    0    0    0    0 -0.00000000000E+00 -0.00000000000E+00 -0.45593999997E+02  0.45594000000E+02  0.51100000000E-03 0. -1.
    9900012    2    1    2    0    0 -0.33458500729E+02 -0.11511719940E+02 -0.25132293901E+02  0.47787272313E+02  0.20000005786E+02 0.  0.
        -12    1    1    2    0    0  0.33458500729E+02  0.11511719940E+02  0.25132293901E+02  0.43400727687E+02  0.00000000000E+00 0.  1.
         11    1    3    3    0    0  0.33729122830E-01 -0.41956775899E+00 -0.44620285438E+01  0.44818382105E+01  0.51100000000E-03 0. -1.
        -11    1    3    3    0    0 -0.80102019002E+01  0.33268121556E+01 -0.60837191174E+01  0.10594463279E+02  0.51100000000E-03 0.  1.
         12    1    3    3    0    0 -0.25482027952E+02 -0.14418964336E+02 -0.14586546239E+02  0.32710970824E+02  0.00000000000E+00 0. -1.
</event>
<event>
 7    1  0.5541017E-010  0.4778727E+02  0.7816164E-02  0.1312668E+00
        -11   -1    0    0    0    0  0.00000000000E+00  0.00000000000E+00  0.45593999997E+02  0.45594000000E+02  0.51100000000E-03 0.  1.
         11   -1    0    0    0    0 -0.00000000000E+00 -0.00000000000E+00 -0.45593999997E+02  0.45594000000E+02  0.51100000000E-03 0. -1.
    9900012    2    1    2    0    0  0.15624583800E+02  0.40467073229E+02  0.13825923473E+01  0.47787271939E+02  0.20000004077E+02 0.  0.
        -12    1    1    2    0    0 -0.15624583800E+02 -0.40467073229E+02 -0.13825923473E+01  0.43400728061E+02  0.00000000000E+00 0.  1.
         11    1    3    3    0    0  0.10696046482E+02  0.11816521805E+02  0.21618775716E+01  0.16084443192E+02  0.51100000000E-03 0. -1.
        -11    1    3    3    0    0  0.47119776766E+01  0.16378747477E+02  0.55099147621E+01  0.17911595783E+02  0.51100000000E-03 0.  1.
        -12    1    3    3    0    0  0.21655964198E+00  0.12271803947E+02 -0.62891999864E+01  0.13791232963E+02  0.00000000000E+00 0.  1.
</event>
<event>
 7    1  0.5541017E-010  0.4778727E+02  0.7816164E-02  0.1312668E+00
        -11   -1    0    0    0    0  0.00000000000E+00  0.00000000000E+00  0.45593999997E+02  0.45594000000E+02  0.51100000000E-03 0.  1.
         11   -1    0    0    0    0 -0.00000000000E+00 -0.00000000000E+00 -0.45593999997E+02  0.45594000000E+02  0.51100000000E-03 0. -1.
    9900012    2    1    2    0    0 -0.71498032560E+01  0.16957834378E+02 -0.39305664210E+02  0.47787273366E+02  0.20000010584E+02 0.  0.
        -12    1    1    2    0    0  0.71498032560E+01 -0.16957834378E+02  0.39305664210E+02  0.43400726634E+02  0.00000000000E+00 0.  1.
         11    1    3    3    0    0 -0.17609686779E+01  0.12192654738E+01 -0.15919923396E+01  0.26687185784E+01  0.51100000000E-03 0. -1.
        -11    1    3    3    0    0 -0.23807676261E+01 -0.20525268637E+01  0.17975167703E+00  0.31485285360E+01  0.51100000000E-03 0.  1.
         12    1    3    3    0    0 -0.30080669520E+01  0.17791095768E+02 -0.37893423547E+02  0.41970026251E+02  0.00000000000E+00 0. -1.
</event>
<event>
 7    1  0.5541017E-010  0.4778727E+02  0.7816164E-02  0.1312668E+00
        -11   -1    0    0    0    0  0.00000000000E+00  0.00000000000E+00  0.45593999997E+02  0.45594000000E+02  0.51100000000E-03 0.  1.
         11   -1    0    0    0    0 -0.00000000000E+00 -0.00000000000E+00 -0.45593999997E+02  0.45594000000E+02  0.51100000000E-03 0. -1.
    9900012    2    1    2    0    0 -0.98587210333E+01  0.38786344929E+02 -0.16794290021E+02  0.47787272925E+02  0.20000008572E+02 0.  0.
        -12    1    1    2    0    0  0.98587210333E+01 -0.38786344929E+02  0.16794290021E+02  0.43400727075E+02  0.00000000000E+00 0.  1.
         11    1    3    3    0    0  0.13517949182E-01  0.10857381795E+02 -0.45676543149E+00  0.10866993931E+02  0.51100000000E-03 0. -1.
        -11    1    3    3    0    0  0.32180295009E+01  0.88103890591E+01 -0.78932465281E+01  0.12258956328E+02  0.51100000000E-03 0.  1.
        -12    1    3    3    0    0 -0.13090268483E+02  0.19118574075E+02 -0.84442780613E+01  0.24661322665E+02  0.00000000000E+00 0.  1.
</event>
<event>
 7    1  0.5541017E-010  0.4778727E+02  0.7816164E-02  0.1312668E+00
        -11   -1    0    0    0    0  0.00000000000E+00  0.00000000000E+00  0.45593999997E+02  0.45594000000E+02  0.51100000000E-03 0. -1.
         11   -1    0    0    0    0 -0.00000000000E+00 -0.00000000000E+00 -0.45593999997E+02  0.45594000000E+02  0.51100000000E-03 0.  1.
    9900012    2    1    2    0    0  0.41189186416E+02  0.80350151966E+01  0.11068541960E+02  0.47787272265E+02  0.20000005565E+02 0.  0.
        -12    1    1    2    0    0 -0.41189186416E+02 -0.80350151966E+01 -0.11068541960E+02  0.43400727735E+02  0.00000000000E+00 0.  1.
         11    1    3    3    0    0  0.22845773606E+02  0.21120625624E+01  0.81907265933E+00  0.22957810440E+02  0.51100000000E-03 0. -1.
        -11    1    3    3    0    0  0.58620024914E+01  0.57733667496E+01 -0.65663023718E+00  0.82538476097E+01  0.51100000000E-03 0.  1.
        -12    1    3    3    0    0  0.12481410318E+02  0.14958588461E+00  0.10906099538E+02  0.16575614215E+02  0.00000000000E+00 0.  1.
</event>
<event>
 7    1  0.5633954E-010  0.4778727E+02  0.7816164E-02  0.1312668E+00
        -11   -1    0    0    0    0  0.00000000000E+00  0.00000000000E+00  0.45593999997E+02  0.45594000000E+02  0.51100000000E-03 0.  1.
         11   -1    0    0    0    0 -0.00000000000E+00 -0.00000000000E+00 -0.45593999997E+02  0.45594000000E+02  0.51100000000E-03 0. -1.
    9900012    2    1    2    0    0 -0.42338407666E+02 -0.20929835985E+01 -0.93113944531E+01  0.47787269468E+02  0.19999992813E+02 0.  0.
        -12    1    1    2    0    0  0.42338407666E+02  0.20929835985E+01  0.93113944531E+01  0.43400730532E+02  0.00000000000E+00 0.  1.
         11    1    3    3    0    0 -0.20078024830E+02 -0.38343708512E+01 -0.33592088898E+01  0.20715061320E+02  0.51100000000E-03 0. -1.
        -11    1    3    3    0    0 -0.18818145697E+02  0.41590517143E+01 -0.95758675004E+01  0.21520166293E+02  0.51100000000E-03 0.  1.
        -12    1    3    3    0    0 -0.34422371395E+01 -0.24176644617E+01  0.36236819370E+01  0.55520418545E+01  0.00000000000E+00 0.  1.
</event>
<event>
 7    1  0.5541017E-010  0.4778726E+02  0.7816164E-02  0.1312668E+00
        -11   -1    0    0    0    0  0.00000000000E+00  0.00000000000E+00  0.45593999997E+02  0.45594000000E+02  0.51100000000E-03 0.  1.
         11   -1    0    0    0    0 -0.00000000000E+00 -0.00000000000E+00 -0.45593999997E+02  0.45594000000E+02  0.51100000000E-03 0. -1.
    9900012    2    1    2    0    0 -0.26586380496E+02 -0.22273620478E+01 -0.34231962245E+02  0.47787262579E+02  0.19999961403E+02 0.  0.
        -12    1    1    2    0    0  0.26586380496E+02  0.22273620478E+01  0.34231962245E+02  0.43400737421E+02  0.00000000000E+00 0.  1.
         11    1    3    3    0    0 -0.99387454767E+00 -0.69045989823E+00 -0.13192405795E+00  0.12173437090E+01  0.51100000000E-03 0. -1.
        -11    1    3    3    0    0 -0.83362223853E+01  0.52211832014E+01 -0.28551515500E+01  0.10242326314E+02  0.51100000000E-03 0.  1.
         12    1    3    3    0    0 -0.17256283563E+02 -0.67580853509E+01 -0.31244886637E+02  0.36327592557E+02  0.00000000000E+00 0. -1.
</event>
<event>
 7    1  0.5541017E-010  0.4778727E+02  0.7816164E-02  0.1312668E+00
        -11   -1    0    0    0    0  0.00000000000E+00  0.00000000000E+00  0.45593999997E+02  0.45594000000E+02  0.51100000000E-03 0. -1.
         11   -1    0    0    0    0 -0.00000000000E+00 -0.00000000000E+00 -0.45593999997E+02  0.45594000000E+02  0.51100000000E-03 0.  1.
    9900012    2    1    2    0    0 -0.42049884836E+02 -0.10700725834E+02 -0.96187545377E+00  0.47787267835E+02  0.19999985367E+02 0.  0.
        -12    1    1    2    0    0  0.42049884836E+02  0.10700725834E+02  0.96187545377E+00  0.43400732165E+02  0.00000000000E+00 0.  1.
         11    1    3    3    0    0 -0.31501584697E+02 -0.32647490611E+01  0.29126445887E+00  0.31671647575E+02  0.51100000000E-03 0. -1.
        -11    1    3    3    0    0 -0.54862364424E+01  0.14757391825E+01 -0.14548805040E+01  0.58645779029E+01  0.51100000000E-03 0.  1.
        -12    1    3    3    0    0 -0.50620636958E+01 -0.89117159559E+01  0.20174059139E+00  0.10251042357E+02  0.00000000000E+00 0.  1.
</event>
<event>
 7    1  0.5541017E-010  0.4778727E+02  0.7816164E-02  0.1312668E+00
        -11   -1    0    0    0    0  0.00000000000E+00  0.00000000000E+00  0.45593999997E+02  0.45594000000E+02  0.51100000000E-03 0. -1.
         11   -1    0    0    0    0 -0.00000000000E+00 -0.00000000000E+00 -0.45593999997E+02  0.45594000000E+02  0.51100000000E-03 0.  1.
    9900012    2    1    2    0    0 -0.36003808802E+02 -0.23680507553E+02 -0.51558447216E+01  0.47787269349E+02  0.19999992271E+02 0.  0.
        -12    1    1    2    0    0  0.36003808802E+02  0.23680507553E+02  0.51558447216E+01  0.43400730651E+02  0.00000000000E+00 0.  1.
         11    1    3    3    0    0 -0.18895622818E+02 -0.13980365864E+02 -0.64541971641E+01  0.24375230310E+02  0.51100000000E-03 0. -1.
        -11    1    3    3    0    0 -0.73432705572E+01 -0.10702417854E+02 -0.18335820398E+01  0.13108294845E+02  0.51100000000E-03 0.  1.
         12    1    3    3    0    0 -0.97649154273E+01  0.10022761653E+01  0.31319344824E+01  0.10303744194E+02  0.00000000000E+00 0. -1.
</event>
<event>
 7    1  0.5541017E-010  0.4778727E+02  0.7816164E-02  0.1312668E+00
        -11   -1    0    0    0    0  0.00000000000E+00  0.00000000000E+00  0.45593999997E+02  0.45594000000E+02  0.51100000000E-03 0.  1.
         11   -1    0    0    0    0 -0.00000000000E+00 -0.00000000000E+00 -0.45593999997E+02  0.45594000000E+02  0.51100000000E-03 0. -1.
    9900012    2    1    2    0    0  0.33612279343E+02  0.26768710514E+02 -0.61052833705E+01  0.47787266478E+02  0.19999979182E+02 0.  0.
        -12    1    1    2    0    0 -0.33612279343E+02 -0.26768710514E+02  0.61052833705E+01  0.43400733522E+02  0.00000000000E+00 0.  1.
         11    1    3    3    0    0 -0.11902147475E-01  0.73564172063E+01  0.10789673044E+01  0.74351319074E+01  0.51100000000E-03 0.  1.
        -11    1    3    3    0    0  0.73300335750E+01  0.38863089280E+01 -0.51142552962E+01  0.97461990945E+01  0.51100000000E-03 0. -1.
        -12    1    3    3    0    0  0.26294147915E+02  0.15525984379E+02 -0.20699953787E+01  0.30605935477E+02  0.00000000000E+00 0.  1.
</event>
<event>
 7    1  0.5541017E-010  0.4778727E+02  0.7816164E-02  0.1312668E+00
        -11   -1    0    0    0    0  0.00000000000E+00  0.00000000000E+00  0.45593999997E+02  0.45594000000E+02  0.51100000000E-03 0. -1.
         11   -1    0    0    0    0 -0.00000000000E+00 -0.00000000000E+00 -0.45593999997E+02  0.45594000000E+02  0.51100000000E-03 0.  1.
    9900012    2    1    2    0    0 -0.25726584959E+02  0.20007622650E+02  0.28661140118E+02  0.47787273156E+02  0.20000009626E+02 0.  0.
        -12    1    1    2    0    0  0.25726584959E+02 -0.20007622650E+02 -0.28661140118E+02  0.43400726844E+02  0.00000000000E+00 0.  1.
         11    1    3    3    0    0 -0.60508614598E+01  0.97503181387E+01  0.88943208739E+01  0.14518628457E+02  0.51100000000E-03 0. -1.
        -11    1    3    3    0    0  0.40737528604E+00  0.42091353787E+00  0.79582126403E+01  0.79797413191E+01  0.51100000000E-03 0.  1.
        -12    1    3    3    0    0 -0.20083098785E+02  0.98363909739E+01  0.11808606604E+02  0.25288903379E+02  0.00000000000E+00 0.  1.
</event>
<event>
 7    1  0.5541017E-010  0.4778733E+02  0.7816164E-02  0.1312668E+00
        -11   -1    0    0    0    0  0.00000000000E+00  0.00000000000E+00  0.45593999997E+02  0.45594000000E+02  0.51100000000E-03 0.  1.
         11   -1    0    0    0    0 -0.00000000000E+00 -0.00000000000E+00 -0.45593999997E+02  0.45594000000E+02  0.51100000000E-03 0. -1.
    9900012    2    1    2    0    0 -0.25880731511E+02  0.16742478572E+02 -0.30553159148E+02  0.47787327353E+02  0.20000256732E+02 0.  0.
        -12    1    1    2    0    0  0.25880731511E+02 -0.16742478572E+02  0.30553159148E+02  0.43400672647E+02  0.00000000000E+00 0.  1.
         11    1    3    3    0    0 -0.21758484384E+02  0.13299061978E+02 -0.20994810026E+02  0.33031481052E+02  0.51100000000E-03 0. -1.
        -11    1    3    3    0    0 -0.53942694239E+01  0.83112064875E+00 -0.78524318555E+00  0.55141192653E+01  0.51100000000E-03 0.  1.
         12    1    3    3    0    0  0.12720222969E+01  0.26122959451E+01 -0.87731059369E+01  0.92417270360E+01  0.00000000000E+00 0. -1.
</event>
<event>
 7    1  0.5541017E-010  0.4778726E+02  0.7816164E-02  0.1312668E+00
        -11   -1    0    0    0    0  0.00000000000E+00  0.00000000000E+00  0.45593999997E+02  0.45594000000E+02  0.51100000000E-03 0.  1.
         11   -1    0    0    0    0 -0.00000000000E+00 -0.00000000000E+00 -0.45593999997E+02  0.45594000000E+02  0.51100000000E-03 0. -1.
    9900012    2    1    2    0    0 -0.16106685849E+02 -0.68157721523E+01 -0.39720826921E+02  0.47787260717E+02  0.19999952912E+02 0.  0.
        -12    1    1    2    0    0  0.16106685849E+02  0.68157721523E+01  0.39720826921E+02  0.43400739283E+02  0.00000000000E+00 0.  1.
         11    1    3    3    0    0 -0.50334606414E+01 -0.47193691315E+01 -0.28246858732E+02  0.29077365760E+02  0.51100000000E-03 0. -1.
        -11    1    3    3    0    0 -0.10316157740E+02  0.47472237555E+00 -0.12149810027E+02  0.15945731586E+02  0.51100000000E-03 0.  1.
        -12    1    3    3    0    0 -0.75706746773E+00 -0.25711253963E+01  0.67584183822E+00  0.27641633715E+01  0.00000000000E+00 0.  1.
</event>
<event>
 7    1  0.5541017E-010  0.4778727E+02  0.7816164E-02  0.1312668E+00
        -11   -1    0    0    0    0  0.00000000000E+00  0.00000000000E+00  0.45593999997E+02  0.45594000000E+02  0.51100000000E-03 0.  1.
         11   -1    0    0    0    0 -0.00000000000E+00 -0.00000000000E+00 -0.45593999997E+02  0.45594000000E+02  0.51100000000E-03 0. -1.
    9900012    2    1    2    0    0 -0.10236798593E+02  0.31875899662E+02 -0.27618080503E+02  0.47787269645E+02  0.19999993618E+02 0.  0.
        -12    1    1    2    0    0  0.10236798593E+02 -0.31875899662E+02  0.27618080503E+02  0.43400730355E+02  0.00000000000E+00 0.  1.
         11    1    3    3    0    0 -0.11971578505E+01  0.23234629526E+00  0.63846851807E+00  0.13765224407E+01  0.51100000000E-03 0. -1.
        -11    1    3    3    0    0  0.50871833947E+00  0.19213187936E+01 -0.10105741283E+02  0.10299333347E+02  0.51100000000E-03 0.  1.
         12    1    3    3    0    0 -0.95483590819E+01  0.29722234573E+02 -0.18150807738E+02  0.36111413857E+02  0.00000000000E+00 0. -1.
</event>
<event>
 7    1  0.5541017E-010  0.4778727E+02  0.7816164E-02  0.1312668E+00
        -11   -1    0    0    0    0  0.00000000000E+00  0.00000000000E+00  0.45593999997E+02  0.45594000000E+02  0.51100000000E-03 0. -1.
         11   -1    0    0    0    0 -0.00000000000E+00 -0.00000000000E+00 -0.45593999997E+02  0.45594000000E+02  0.51100000000E-03 0.  1.
    9900012    2    1    2    0    0 -0.13729080164E+02  0.12497080727E+02  0.39229562199E+02  0.47787271675E+02  0.20000002873E+02 0.  0.
        -12    1    1    2    0    0  0.13729080164E+02 -0.12497080727E+02 -0.39229562199E+02  0.43400728325E+02  0.00000000000E+00 0.  1.
         11    1    3    3    0    0 -0.66827286992E+01  0.55620856931E+01  0.27974337140E+02  0.29294354385E+02  0.51100000000E-03 0. -1.
        -11    1    3    3    0    0 -0.50418147018E+01  0.98886172001E+01  0.83292162530E+01  0.13877337254E+02  0.51100000000E-03 0.  1.
        -12    1    3    3    0    0 -0.20045367628E+01 -0.29536221660E+01  0.29260088059E+01  0.46155800355E+01  0.00000000000E+00 0.  1.
</event>
<event>
 7    1  0.5541017E-010  0.4778727E+02  0.7816164E-02  0.1312668E+00
        -11   -1    0    0    0    0  0.00000000000E+00  0.00000000000E+00  0.45593999997E+02  0.45594000000E+02  0.51100000000E-03 0. -1.
         11   -1    0    0    0    0 -0.00000000000E+00 -0.00000000000E+00 -0.45593999997E+02  0.45594000000E+02  0.51100000000E-03 0.  1.
    9900012    2    1    2    0    0 -0.30769719377E+02  0.31428757678E+01  0.30446181172E+02  0.47787271358E+02  0.20000001432E+02 0.  0.
        -12    1    1    2    0    0  0.30769719377E+02 -0.31428757678E+01 -0.30446181172E+02  0.43400728642E+02  0.00000000000E+00 0.  1.
         11    1    3    3    0    0 -0.18321552706E+02  0.53072901075E+01  0.10774090570E+02  0.21907251077E+02  0.51100000000E-03 0. -1.
        -11    1    3    3    0    0 -0.10069750427E+01  0.31595855932E+01  0.12367087525E+01  0.35392695089E+01  0.51100000000E-03 0.  1.
         12    1    3    3    0    0 -0.11441191628E+02 -0.53239999328E+01  0.18435381850E+02  0.22340750773E+02  0.00000000000E+00 0. -1.
</event>
<event>
 7    1  0.5541017E-010  0.4778727E+02  0.7816164E-02  0.1312668E+00
        -11   -1    0    0    0    0  0.00000000000E+00  0.00000000000E+00  0.45593999997E+02  0.45594000000E+02  0.51100000000E-03 0.  1.
         11   -1    0    0    0    0 -0.00000000000E+00 -0.00000000000E+00 -0.45593999997E+02  0.45594000000E+02  0.51100000000E-03 0. -1.
    9900012    2    1    2    0    0  0.14910732200E+02 -0.39811427318E+02 -0.87374837751E+01  0.47787270714E+02  0.19999998493E+02 0.  0.
        -12    1    1    2    0    0 -0.14910732200E+02  0.39811427318E+02  0.87374837751E+01  0.43400729286E+02  0.00000000000E+00 0.  1.
         11    1    3    3    0    0 -0.11145855179E+01 -0.52108478593E+01 -0.17348575743E+01  0.56040135041E+01  0.51100000000E-03 0. -1.
        -11    1    3    3    0    0 -0.17864034947E+01 -0.92152508518E+00 -0.33536120293E+01  0.39098797721E+01  0.51100000000E-03 0.  1.
         12    1    3    3    0    0  0.17811721213E+02 -0.33679054374E+02 -0.36490141716E+01  0.38273377438E+02  0.00000000000E+00 0. -1.
</event>
<event>
 7    1  0.5541017E-010  0.4778727E+02  0.7816164E-02  0.1312668E+00
        -11   -1    0    0    0    0  0.00000000000E+00  0.00000000000E+00  0.45593999997E+02  0.45594000000E+02  0.51100000000E-03 0.  1.
         11   -1    0    0    0    0 -0.00000000000E+00 -0.00000000000E+00 -0.45593999997E+02  0.45594000000E+02  0.51100000000E-03 0. -1.
    9900012    2    1    2    0    0 -0.21270471502E+02  0.33030267294E+02 -0.18444284079E+02  0.47787272695E+02  0.20000007525E+02 0.  0.
        -12    1    1    2    0    0  0.21270471502E+02 -0.33030267294E+02  0.18444284079E+02  0.43400727305E+02  0.00000000000E+00 0.  1.
         11    1    3    3    0    0 -0.78452638157E+01  0.74721887782E+01 -0.42255912567E+00  0.10842523966E+02  0.51100000000E-03 0. -1.
        -11    1    3    3    0    0 -0.30732632467E+01 -0.17377916024E+00  0.10857970278E+01  0.32640621358E+01  0.51100000000E-03 0.  1.
         12    1    3    3    0    0 -0.10351944440E+02  0.25731857676E+02 -0.19107521981E+02  0.33680686593E+02  0.00000000000E+00 0. -1.
</event>
<event>
 7    1  0.5541017E-010  0.4778727E+02  0.7816164E-02  0.1312668E+00
        -11   -1    0    0    0    0  0.00000000000E+00  0.00000000000E+00  0.45593999997E+02  0.45594000000E+02  0.51100000000E-03 0.  1.
         11   -1    0    0    0    0 -0.00000000000E+00 -0.00000000000E+00 -0.45593999997E+02  0.45594000000E+02  0.51100000000E-03 0. -1.
    9900012    2    1    2    0    0  0.27609068405E+02 -0.28980477533E+02 -0.16777798223E+02  0.47787271326E+02  0.20000001285E+02 0.  0.
        -12    1    1    2    0    0 -0.27609068405E+02  0.28980477533E+02  0.16777798223E+02  0.43400728674E+02  0.00000000000E+00 0.  1.
         11    1    3    3    0    0  0.22365264564E+02 -0.25321742507E+02 -0.76161498931E+01  0.34632375634E+02  0.51100000000E-03 0. -1.
        -11    1    3    3    0    0  0.65541964588E+01 -0.33972071593E+01 -0.53535303327E+01  0.91191444219E+01  0.51100000000E-03 0.  1.
         12    1    3    3    0    0 -0.13103926176E+01 -0.26152786590E+00 -0.38081179969E+01  0.40357512702E+01  0.00000000000E+00 0. -1.
</event>
<event>
 7    1  0.5541017E-010  0.4778727E+02  0.7816164E-02  0.1312668E+00
        -11   -1    0    0    0    0  0.00000000000E+00  0.00000000000E+00  0.45593999997E+02  0.45594000000E+02  0.51100000000E-03 0.  1.
         11   -1    0    0    0    0 -0.00000000000E+00 -0.00000000000E+00 -0.45593999997E+02  0.45594000000E+02  0.51100000000E-03 0. -1.
    9900012    2    1    2    0    0 -0.17211117678E+02 -0.39711745866E+02  0.32215024859E+01  0.47787269479E+02  0.19999992865E+02 0.  0.
        -12    1    1    2    0    0  0.17211117678E+02  0.39711745866E+02 -0.32215024859E+01  0.43400730521E+02  0.00000000000E+00 0.  1.
         11    1    3    3    0    0 -0.18446228859E+01 -0.41841627955E+01 -0.26485912929E+01  0.52844004379E+01  0.51100000000E-03 0. -1.
        -11    1    3    3    0    0 -0.14765050858E+02 -0.13387506295E+02  0.33769713687E+01  0.20214746784E+02  0.51100000000E-03 0.  1.
         12    1    3    3    0    0 -0.60144393366E+00 -0.22140076776E+02  0.24931224101E+01  0.22288122258E+02  0.00000000000E+00 0. -1.
</event>
<event>
 7    1  0.5541017E-010  0.4778727E+02  0.7816164E-02  0.1312668E+00
        -11   -1    0    0    0    0  0.00000000000E+00  0.00000000000E+00  0.45593999997E+02  0.45594000000E+02  0.51100000000E-03 0.  1.
         11   -1    0    0    0    0 -0.00000000000E+00 -0.00000000000E+00 -0.45593999997E+02  0.45594000000E+02  0.51100000000E-03 0. -1.
    9900012    2    1    2    0    0 -0.18382408637E+02 -0.42084946022E+01 -0.39089632762E+02  0.47787265403E+02  0.19999974280E+02 0.  0.
        -12    1    1    2    0    0  0.18382408637E+02  0.42084946022E+01  0.39089632762E+02  0.43400734597E+02  0.00000000000E+00 0.  1.
         11    1    3    3    0    0 -0.12248865852E+02 -0.72161329755E+01 -0.20154904237E+02  0.24664295142E+02  0.51100000000E-03 0. -1.
        -11    1    3    3    0    0 -0.61767934697E+00 -0.28659677587E+01 -0.46007610558E+00  0.29676538298E+01  0.51100000000E-03 0.  1.
         12    1    3    3    0    0 -0.55158634378E+01  0.58736061320E+01 -0.18474652419E+02  0.20155316432E+02  0.00000000000E+00 0. -1.
</event>
<event>
 7    1  0.5541017E-010  0.4778727E+02  0.7816164E-02  0.1312668E+00
        -11   -1    0    0    0    0  0.00000000000E+00  0.00000000000E+00  0.45593999997E+02  0.45594000000E+02  0.51100000000E-03 0.  1.
         11   -1    0    0    0    0 -0.00000000000E+00 -0.00000000000E+00 -0.45593999997E+02  0.45594000000E+02  0.51100000000E-03 0. -1.
    9900012    2    1    2    0    0  0.14797164289E+02 -0.39311126252E+02  0.10922565735E+02  0.47787272352E+02  0.20000005960E+02 0.  0.
        -12    1    1    2    0    0 -0.14797164289E+02  0.39311126252E+02 -0.10922565735E+02  0.43400727648E+02  0.00000000000E+00 0.  1.
         11    1    3    3    0    0  0.48366264835E+00 -0.25710467633E+00  0.16562526163E+01  0.17444785359E+01  0.51100000000E-03 0. -1.
        -11    1    3    3    0    0 -0.74266674775E+00 -0.49915253161E+01  0.71361898981E+01  0.87402565982E+01  0.51100000000E-03 0.  1.
         12    1    3    3    0    0  0.15056168388E+02 -0.34062496259E+02  0.21301232209E+01  0.37302537218E+02  0.00000000000E+00 0. -1.
</event>
<event>
 7    1  0.5541017E-010  0.4778728E+02  0.7816164E-02  0.1312668E+00
        -11   -1    0    0    0    0  0.00000000000E+00  0.00000000000E+00  0.45593999997E+02  0.45594000000E+02  0.51100000000E-03 0.  1.
         11   -1    0    0    0    0 -0.00000000000E+00 -0.00000000000E+00 -0.45593999997E+02  0.45594000000E+02  0.51100000000E-03 0. -1.
    9900012    2    1    2    0    0 -0.23708121759E+02 -0.30533292133E+02 -0.19729816547E+02  0.47787278499E+02  0.20000033989E+02 0.  0.
        -12    1    1    2    0    0  0.23708121759E+02  0.30533292133E+02  0.19729816547E+02  0.43400721501E+02  0.00000000000E+00 0.  1.
         11    1    3    3    0    0 -0.87131410462E+01 -0.15735506391E+02 -0.14829365098E+02  0.23311693584E+02  0.51100000000E-03 0. -1.
        -11    1    3    3    0    0 -0.16288338897E+02 -0.12763811355E+02 -0.63709102984E+01  0.21652098342E+02  0.51100000000E-03 0.  1.
        -12    1    3    3    0    0  0.12933581847E+01 -0.20339743866E+01  0.14704588492E+01  0.28234865727E+01  0.00000000000E+00 0.  1.
</event>
<event>
 7    1  0.5541017E-010  0.4778727E+02  0.7816164E-02  0.1312668E+00
        -11   -1    0    0    0    0  0.00000000000E+00  0.00000000000E+00  0.45593999997E+02  0.45594000000E+02  0.51100000000E-03 0. -1.
         11   -1    0    0    0    0 -0.00000000000E+00 -0.00000000000E+00 -0.45593999997E+02  0.45594000000E+02  0.51100000000E-03 0.  1.
    9900012    2    1    2    0    0 -0.20296805299E+01 -0.25032616705E+02  0.35395928911E+02  0.47787270909E+02  0.19999999382E+02 0.  0.
        -12    1    1    2    0    0  0.20296805299E+01  0.25032616705E+02 -0.35395928911E+02  0.43400729091E+02  0.00000000000E+00 0.  1.
         11    1    3    3    0    0  0.47933378922E+01 -0.10455553316E+02  0.10683238201E+02  0.15697969997E+02  0.51100000000E-03 0. -1.
        -11    1    3    3    0    0 -0.30690604480E+01 -0.99590899094E+01  0.51168564232E+01  0.11609686636E+02  0.51100000000E-03 0.  1.
        -12    1    3    3    0    0 -0.37539579742E+01 -0.46179734801E+01  0.19595834287E+02  0.20479614277E+02  0.00000000000E+00 0.  1.
</event>
<event>
 7    1  0.5541017E-010  0.4778727E+02  0.7816164E-02  0.1312668E+00
        -11   -1    0    0    0    0  0.00000000000E+00  0.00000000000E+00  0.45593999997E+02  0.45594000000E+02  0.51100000000E-03 0.  1.
         11   -1    0    0    0    0 -0.00000000000E+00 -0.00000000000E+00 -0.45593999997E+02  0.45594000000E+02  0.51100000000E-03 0. -1.
    9900012    2    1    2    0    0  0.41822357304E+01  0.96980316827E+01 -0.42096085565E+02  0.47787270350E+02  0.19999996835E+02 0.  0.
        -12    1    1    2    0    0 -0.41822357304E+01 -0.96980316827E+01  0.42096085565E+02  0.43400729650E+02  0.00000000000E+00 0.  1.
         11    1    3    3    0    0  0.54742327702E+01  0.14998133174E+01 -0.76075076891E+01  0.94916193513E+01  0.51100000000E-03 0. -1.
        -11    1    3    3    0    0 -0.15806811330E+01 -0.34538512557E+01 -0.15960847748E+02  0.16406593261E+02  0.51100000000E-03 0.  1.
         12    1    3    3    0    0  0.28868409326E+00  0.11652069621E+02 -0.18527730128E+02  0.21889057738E+02  0.00000000000E+00 0. -1.
</event>
<event>
 7    1  0.5541017E-010  0.4778727E+02  0.7816164E-02  0.1312668E+00
        -11   -1    0    0    0    0  0.00000000000E+00  0.00000000000E+00  0.45593999997E+02  0.45594000000E+02  0.51100000000E-03 0.  1.
         11   -1    0    0    0    0 -0.00000000000E+00 -0.00000000000E+00 -0.45593999997E+02  0.45594000000E+02  0.51100000000E-03 0. -1.
    9900012    2    1    2    0    0  0.29682781559E+02  0.25897012199E+02 -0.18218138488E+02  0.47787270376E+02  0.19999996954E+02 0.  0.
        -12    1    1    2    0    0 -0.29682781559E+02 -0.25897012199E+02  0.18218138488E+02  0.43400729624E+02  0.00000000000E+00 0.  1.
         11    1    3    3    0    0  0.19770098634E+02  0.25017172025E+02 -0.11275645824E+02  0.33820938561E+02  0.51100000000E-03 0. -1.
        -11    1    3    3    0    0  0.48094633187E+00 -0.38476788284E-01  0.13126927554E+01  0.13985536703E+01  0.51100000000E-03 0.  1.
         12    1    3    3    0    0  0.94317365931E+01  0.91831696233E+00 -0.82551854196E+01  0.12567778146E+02  0.00000000000E+00 0. -1.
</event>
<event>
 7    1  0.5541017E-010  0.4778726E+02  0.7816164E-02  0.1312668E+00
        -11   -1    0    0    0    0  0.00000000000E+00  0.00000000000E+00  0.45593999997E+02  0.45594000000E+02  0.51100000000E-03 0. -1.
         11   -1    0    0    0    0 -0.00000000000E+00 -0.00000000000E+00 -0.45593999997E+02  0.45594000000E+02  0.51100000000E-03 0.  1.
    9900012    2    1    2    0    0 -0.35123266224E+02  0.12546940796E+01  0.25463817960E+02  0.47787261382E+02  0.19999955944E+02 0.  0.
        -12    1    1    2    0    0  0.35123266224E+02 -0.12546940796E+01 -0.25463817960E+02  0.43400738618E+02  0.00000000000E+00 0.  1.
         11    1    3    3    0    0 -0.46182209900E+01 -0.20343456237E+01 -0.16575491198E+00  0.50491585617E+01  0.51100000000E-03 0. -1.
        -11    1    3    3    0    0  0.16824180415E+01  0.40125513628E+00  0.23119974570E+01  0.28873636164E+01  0.51100000000E-03 0.  1.
        -12    1    3    3    0    0 -0.32187463276E+02  0.28877845670E+01  0.23317575415E+02  0.39850739204E+02  0.00000000000E+00 0.  1.
</event>
<event>
 7    1  0.5541017E-010  0.4778728E+02  0.7816164E-02  0.1312668E+00
        -11   -1    0    0    0    0  0.00000000000E+00  0.00000000000E+00  0.45593999997E+02  0.45594000000E+02  0.51100000000E-03 0. -1.
         11   -1    0    0    0    0 -0.00000000000E+00 -0.00000000000E+00 -0.45593999997E+02  0.45594000000E+02  0.51100000000E-03 0.  1.
    9900012    2    1    2    0    0  0.62675916448E+01 -0.38308289757E+02  0.19411723673E+02  0.47787276676E+02  0.20000025675E+02 0.  0.
        -12    1    1    2    0    0 -0.62675916448E+01  0.38308289757E+02 -0.19411723673E+02  0.43400723324E+02  0.00000000000E+00 0.  1.
         11    1    3    3    0    0 -0.14568506546E+01 -0.18646937363E+02  0.15855876599E+02  0.24520185762E+02  0.51100000000E-03 0. -1.
        -11    1    3    3    0    0  0.18718624296E+01 -0.13763335485E+02  0.51360115132E+01  0.14809182528E+02  0.51100000000E-03 0.  1.
        -12    1    3    3    0    0  0.58525798699E+01 -0.58980169094E+01 -0.15801644394E+01  0.84579083852E+01  0.00000000000E+00 0.  1.
</event>
<event>
 7    1  0.5541017E-010  0.4778723E+02  0.7816164E-02  0.1312668E+00
        -11   -1    0    0    0    0  0.00000000000E+00  0.00000000000E+00  0.45593999997E+02  0.45594000000E+02  0.51100000000E-03 0. -1.
         11   -1    0    0    0    0 -0.00000000000E+00 -0.00000000000E+00 -0.45593999997E+02  0.45594000000E+02  0.51100000000E-03 0.  1.
    9900012    2    1    2    0    0 -0.20044113473E+02 -0.25822800105E+02  0.28548958875E+02  0.47787233383E+02  0.19999828285E+02 0.  0.
        -12    1    1    2    0    0  0.20044113473E+02  0.25822800105E+02 -0.28548958875E+02  0.43400766617E+02  0.00000000000E+00 0.  1.
         11    1    3    3    0    0 -0.13101186130E+02 -0.21292949475E+02  0.18720485325E+02  0.31232792805E+02  0.51100000000E-03 0. -1.
        -11    1    3    3    0    0 -0.62918021033E+01 -0.73488631933E+01  0.49121528426E+01  0.10849968191E+02  0.51100000000E-03 0.  1.
        -12    1    3    3    0    0 -0.65112523961E+00  0.28190125638E+01  0.49163207066E+01  0.57044723860E+01  0.00000000000E+00 0.  1.
</event>
<event>
 7    1  0.5541017E-010  0.4778727E+02  0.7816164E-02  0.1312668E+00
        -11   -1    0    0    0    0  0.00000000000E+00  0.00000000000E+00  0.45593999997E+02  0.45594000000E+02  0.51100000000E-03 0.  1.
         11   -1    0    0    0    0 -0.00000000000E+00 -0.00000000000E+00 -0.45593999997E+02  0.45594000000E+02  0.51100000000E-03 0. -1.
    9900012    2    1    2    0    0 -0.37960246307E+01  0.20472416643E+02 -0.38080093206E+02  0.47787272532E+02  0.20000006781E+02 0.  0.
        -12    1    1    2    0    0  0.37960246307E+01 -0.20472416643E+02  0.38080093206E+02  0.43400727468E+02  0.00000000000E+00 0.  1.
         11    1    3    3    0    0  0.17480578603E+00  0.42968011177E+01 -0.11563569307E+02  0.12337308956E+02  0.51100000000E-03 0. -1.
        -11    1    3    3    0    0 -0.76711778024E+00 -0.34953173344E+01 -0.45708716109E+01  0.58050478466E+01  0.51100000000E-03 0.  1.
         12    1    3    3    0    0 -0.32037126365E+01  0.19670932859E+02 -0.21945652288E+02  0.29644915729E+02  0.00000000000E+00 0. -1.
</event>
<event>
 7    1  0.5541017E-010  0.4778727E+02  0.7816164E-02  0.1312668E+00
        -11   -1    0    0    0    0  0.00000000000E+00  0.00000000000E+00  0.45593999997E+02  0.45594000000E+02  0.51100000000E-03 0.  1.
         11   -1    0    0    0    0 -0.00000000000E+00 -0.00000000000E+00 -0.45593999997E+02  0.45594000000E+02  0.51100000000E-03 0. -1.
    9900012    2    1    2    0    0 -0.14189844788E+02 -0.22982668813E+02 -0.33971590395E+02  0.47787265964E+02  0.19999976836E+02 0.  0.
        -12    1    1    2    0    0  0.14189844788E+02  0.22982668813E+02  0.33971590395E+02  0.43400734036E+02  0.00000000000E+00 0.  1.
         11    1    3    3    0    0 -0.77107433820E+01 -0.10851705895E+02 -0.16437985500E+02  0.21152362797E+02  0.51100000000E-03 0. -1.
        -11    1    3    3    0    0  0.36514673127E+01 -0.82182505051E+00 -0.43472747708E+00  0.37679700357E+01  0.51100000000E-03 0.  1.
        -12    1    3    3    0    0 -0.10130568719E+02 -0.11309137867E+02 -0.17098877418E+02  0.22866933131E+02  0.00000000000E+00 0.  1.
</event>
<event>
 7    1  0.5541017E-010  0.4778727E+02  0.7816164E-02  0.1312668E+00
        -11   -1    0    0    0    0  0.00000000000E+00  0.00000000000E+00  0.45593999997E+02  0.45594000000E+02  0.51100000000E-03 0.  1.
         11   -1    0    0    0    0 -0.00000000000E+00 -0.00000000000E+00 -0.45593999997E+02  0.45594000000E+02  0.51100000000E-03 0. -1.
    9900012    2    1    2    0    0 -0.11124219377E+02  0.29661554794E+02 -0.29665927332E+02  0.47787270351E+02  0.19999996838E+02 0.  0.
        -12    1    1    2    0    0  0.11124219377E+02 -0.29661554794E+02  0.29665927332E+02  0.43400729649E+02  0.00000000000E+00 0.  1.
         11    1    3    3    0    0 -0.27528294209E+01  0.38890885902E+01 -0.13426714113E+02  0.14247095564E+02  0.51100000000E-03 0. -1.
        -11    1    3    3    0    0 -0.57722419333E+00  0.59224430199E+01 -0.94366032031E+01  0.11156074550E+02  0.51100000000E-03 0.  1.
        -12    1    3    3    0    0 -0.77941657631E+01  0.19850023184E+02 -0.68026100162E+01  0.22384100237E+02  0.00000000000E+00 0.  1.
</event>
<event>
 7    1  0.5541017E-010  0.4778727E+02  0.7816164E-02  0.1312668E+00
        -11   -1    0    0    0    0  0.00000000000E+00  0.00000000000E+00  0.45593999997E+02  0.45594000000E+02  0.51100000000E-03 0. -1.
         11   -1    0    0    0    0 -0.00000000000E+00 -0.00000000000E+00 -0.45593999997E+02  0.45594000000E+02  0.51100000000E-03 0.  1.
    9900012    2    1    2    0    0  0.19147303549E+02 -0.27790098972E+02  0.27289452980E+02  0.47787273300E+02  0.20000010286E+02 0.  0.
        -12    1    1    2    0    0 -0.19147303549E+02  0.27790098972E+02 -0.27289452980E+02  0.43400726700E+02  0.00000000000E+00 0.  1.
         11    1    3    3    0    0  0.22078412344E+01 -0.86769525821E+01  0.39720905079E+01  0.97949768909E+01  0.51100000000E-03 0. -1.
        -11    1    3    3    0    0  0.10486404286E+02 -0.20242033821E+02  0.14537793630E+02  0.27037974257E+02  0.51100000000E-03 0.  1.
        -12    1    3    3    0    0  0.64530580289E+01  0.11288874306E+01  0.87795688424E+01  0.10954322152E+02  0.00000000000E+00 0.  1.
</event>
<event>
 7    1  0.5541017E-010  0.4778727E+02  0.7816164E-02  0.1312668E+00
        -11   -1    0    0    0    0  0.00000000000E+00  0.00000000000E+00  0.45593999997E+02  0.45594000000E+02  0.51100000000E-03 0.  1.
         11   -1    0    0    0    0 -0.00000000000E+00 -0.00000000000E+00 -0.45593999997E+02  0.45594000000E+02  0.51100000000E-03 0. -1.
    9900012    2    1    2    0    0 -0.19453078334E+02 -0.24982701336E+02 -0.29682753890E+02  0.47787268425E+02  0.19999988056E+02 0.  0.
        -12    1    1    2    0    0  0.19453078334E+02  0.24982701336E+02  0.29682753890E+02  0.43400731575E+02  0.00000000000E+00 0.  1.
         11    1    3    3    0    0  0.25730136345E+00 -0.38825466491E+01 -0.63312446115E+00  0.39422353200E+01  0.51100000000E-03 0. -1.
        -11    1    3    3    0    0 -0.77878865778E+01 -0.67418354170E+01 -0.12703449153E+01  0.10378694456E+02  0.51100000000E-03 0.  1.
         12    1    3    3    0    0 -0.11922493120E+02 -0.14358319270E+02 -0.27779284514E+02  0.33466338649E+02  0.00000000000E+00 0. -1.
</event>
<event>
 7    1  0.5541017E-010  0.4778727E+02  0.7816164E-02  0.1312668E+00
        -11   -1    0    0    0    0  0.00000000000E+00  0.00000000000E+00  0.45593999997E+02  0.45594000000E+02  0.51100000000E-03 0. -1.
         11   -1    0    0    0    0 -0.00000000000E+00 -0.00000000000E+00 -0.45593999997E+02  0.45594000000E+02  0.51100000000E-03 0.  1.
    9900012    2    1    2    0    0 -0.53716695333E+01 -0.86583611038E+01  0.42187689780E+02  0.47787271670E+02  0.20000002852E+02 0.  0.
        -12    1    1    2    0    0  0.53716695333E+01  0.86583611038E+01 -0.42187689780E+02  0.43400728330E+02  0.00000000000E+00 0.  1.
         11    1    3    3    0    0 -0.45101783331E+01 -0.16310263867E+01  0.61057088364E+01  0.77641249556E+01  0.51100000000E-03 0. -1.
        -11    1    3    3    0    0 -0.48155867205E+01  0.34832796497E+01  0.15047636768E+02  0.16178828299E+02  0.51100000000E-03 0.  1.
         12    1    3    3    0    0  0.39540955203E+01 -0.10510614367E+02  0.21034344176E+02  0.23844318415E+02  0.00000000000E+00 0. -1.
</event>
<event>
 7    1  0.5541017E-010  0.4778729E+02  0.7816164E-02  0.1312668E+00
        -11   -1    0    0    0    0  0.00000000000E+00  0.00000000000E+00  0.45593999997E+02  0.45594000000E+02  0.51100000000E-03 0. -1.
         11   -1    0    0    0    0 -0.00000000000E+00 -0.00000000000E+00 -0.45593999997E+02  0.45594000000E+02  0.51100000000E-03 0.  1.
    9900012    2    1    2    0    0  0.33072482451E+02 -0.26201027415E+02  0.10165585380E+02  0.47787285038E+02  0.20000063803E+02 0.  0.
        -12    1    1    2    0    0 -0.33072482451E+02  0.26201027415E+02 -0.10165585380E+02  0.43400714962E+02  0.00000000000E+00 0.  1.
         11    1    3    3    0    0  0.19060939317E+01  0.16164867640E+00  0.49352268039E+01  0.52929942601E+01  0.51100000000E-03 0. -1.
        -11    1    3    3    0    0  0.14107519289E+01 -0.17104129473E+01 -0.22244501967E+01  0.31406866119E+01  0.51100000000E-03 0.  1.
        -12    1    3    3    0    0  0.29755636590E+02 -0.24652263144E+02  0.74548087727E+01  0.39353604166E+02  0.00000000000E+00 0.  1.
</event>
<event>
 7    1  0.5541017E-010  0.4778730E+02  0.7816164E-02  0.1312668E+00
        -11   -1    0    0    0    0  0.00000000000E+00  0.00000000000E+00  0.45593999997E+02  0.45594000000E+02  0.51100000000E-03 0.  1.
         11   -1    0    0    0    0 -0.00000000000E+00 -0.00000000000E+00 -0.45593999997E+02  0.45594000000E+02  0.51100000000E-03 0. -1.
    9900012    2    1    2    0    0  0.13356213354E+01  0.16921323126E+02 -0.39943785117E+02  0.47787296893E+02  0.20000117853E+02 0.  0.
        -12    1    1    2    0    0 -0.13356213354E+01 -0.16921323126E+02  0.39943785117E+02  0.43400703107E+02  0.00000000000E+00 0.  1.
         11    1    3    3    0    0 -0.42957724142E+01  0.47548222773E+01 -0.27475234124E+01  0.69721503632E+01  0.51100000000E-03 0. -1.
        -11    1    3    3    0    0 -0.21340314106E+01  0.11583074190E+01 -0.12004058115E+02  0.12247170188E+02  0.51100000000E-03 0.  1.
         12    1    3    3    0    0  0.77654251603E+01  0.11008193430E+02 -0.25192203590E+02  0.28567976342E+02  0.00000000000E+00 0. -1.
</event>
<event>
 7    1  0.5541017E-010  0.4778727E+02  0.7816164E-02  0.1312668E+00
        -11   -1    0    0    0    0  0.00000000000E+00  0.00000000000E+00  0.45593999997E+02  0.45594000000E+02  0.51100000000E-03 0. -1.
         11   -1    0    0    0    0 -0.00000000000E+00 -0.00000000000E+00 -0.45593999997E+02  0.45594000000E+02  0.51100000000E-03 0.  1.
    9900012    2    1    2    0    0 -0.62124423911E+01 -0.91420214386E+01  0.41969658877E+02  0.47787271173E+02  0.20000000586E+02 0.  0.
        -12    1    1    2    0    0  0.62124423911E+01  0.91420214386E+01 -0.41969658877E+02  0.43400728827E+02  0.00000000000E+00 0.  1.
         11    1    3    3    0    0 -0.73882297731E+00 -0.91884768482E+01  0.25252867886E+02  0.26882732430E+02  0.51100000000E-03 0. -1.
        -11    1    3    3    0    0  0.35338454482E+01  0.20839769258E+00  0.49207840712E+01  0.60618156840E+01  0.51100000000E-03 0.  1.
        -12    1    3    3    0    0 -0.90074648621E+01 -0.16194228299E+00  0.11796006920E+02  0.14842723059E+02  0.00000000000E+00 0.  1.
</event>
<event>
 7    1  0.5541017E-010  0.4778727E+02  0.7816164E-02  0.1312668E+00
        -11   -1    0    0    0    0  0.00000000000E+00  0.00000000000E+00  0.45593999997E+02  0.45594000000E+02  0.51100000000E-03 0.  1.
         11   -1    0    0    0    0 -0.00000000000E+00 -0.00000000000E+00 -0.45593999997E+02  0.45594000000E+02  0.51100000000E-03 0. -1.
    9900012    2    1    2    0    0  0.15050270011E+02  0.14289022632E+02 -0.38117403743E+02  0.47787271166E+02  0.20000000556E+02 0.  0.
        -12    1    1    2    0    0 -0.15050270011E+02 -0.14289022632E+02  0.38117403743E+02  0.43400728834E+02  0.00000000000E+00 0.  1.
         11    1    3    3    0    0  0.16867893593E+02  0.83039448277E+01 -0.17537855521E+02  0.25711042579E+02  0.51100000000E-03 0. -1.
        -11    1    3    3    0    0 -0.87666592116E-01  0.25465672848E+01 -0.24231362082E+01  0.35162877743E+01  0.51100000000E-03 0.  1.
         12    1    3    3    0    0 -0.17299569893E+01  0.34385105192E+01 -0.18156412014E+02  0.18559940813E+02  0.00000000000E+00 0. -1.
</event>
<event>
 7    1  0.5541017E-010  0.4778727E+02  0.7816164E-02  0.1312668E+00
        -11   -1    0    0    0    0  0.00000000000E+00  0.00000000000E+00  0.45593999997E+02  0.45594000000E+02  0.51100000000E-03 0. -1.
         11   -1    0    0    0    0 -0.00000000000E+00 -0.00000000000E+00 -0.45593999997E+02  0.45594000000E+02  0.51100000000E-03 0.  1.
    9900012    2    1    2    0    0 -0.32118487122E+02  0.24421018369E+02  0.15988736480E+02  0.47787273653E+02  0.20000011894E+02 0.  0.
        -12    1    1    2    0    0  0.32118487122E+02 -0.24421018369E+02 -0.15988736480E+02  0.43400726347E+02  0.00000000000E+00 0.  1.
         11    1    3    3    0    0 -0.14424938823E+02  0.75977351012E+01  0.20757133209E+01  0.16435115600E+02  0.51100000000E-03 0. -1.
        -11    1    3    3    0    0 -0.10353164509E+02  0.87641355986E+01 -0.14187301924E+00  0.13565331413E+02  0.51100000000E-03 0.  1.
         12    1    3    3    0    0 -0.73403837897E+01  0.80591476697E+01  0.14054896178E+02  0.17786826640E+02  0.00000000000E+00 0. -1.
</event>
<event>
 7    1  0.5541017E-010  0.4778727E+02  0.7816164E-02  0.1312668E+00
        -11   -1    0    0    0    0  0.00000000000E+00  0.00000000000E+00  0.45593999997E+02  0.45594000000E+02  0.51100000000E-03 0.  1.
         11   -1    0    0    0    0 -0.00000000000E+00 -0.00000000000E+00 -0.45593999997E+02  0.45594000000E+02  0.51100000000E-03 0. -1.
    9900012    2    1    2    0    0  0.19764866433E+02 -0.10989267583E+02 -0.37043346066E+02  0.47787269190E+02  0.19999991543E+02 0.  0.
        -12    1    1    2    0    0 -0.19764866433E+02  0.10989267583E+02  0.37043346066E+02  0.43400730810E+02  0.00000000000E+00 0.  1.
         11    1    3    3    0    0  0.14485913676E+02 -0.12465197325E+02 -0.23502990544E+02  0.30292134360E+02  0.51100000000E-03 0. -1.
        -11    1    3    3    0    0 -0.59850878584E+00 -0.33936707923E+01 -0.42318290898E+01  0.54574345548E+01  0.51100000000E-03 0.  1.
        -12    1    3    3    0    0  0.58774615436E+01  0.48696005337E+01 -0.93085264322E+01  0.12037700274E+02  0.00000000000E+00 0.  1.
</event>
<event>
 7    1  0.5541017E-010  0.4778727E+02  0.7816164E-02  0.1312668E+00
        -11   -1    0    0    0    0  0.00000000000E+00  0.00000000000E+00  0.45593999997E+02  0.45594000000E+02  0.51100000000E-03 0.  1.
         11   -1    0    0    0    0 -0.00000000000E+00 -0.00000000000E+00 -0.45593999997E+02  0.45594000000E+02  0.51100000000E-03 0. -1.
    9900012    2    1    2    0    0  0.10709876724E+02  0.41450237246E+02 -0.71273802349E+01  0.47787272170E+02  0.20000005132E+02 0.  0.
        -12    1    1    2    0    0 -0.10709876724E+02 -0.41450237246E+02  0.71273802349E+01  0.43400727830E+02  0.00000000000E+00 0.  1.
         11    1    3    3    0    0  0.93023183383E+01  0.11050788993E+02 -0.71828189857E+01  0.16132140363E+02  0.51100000000E-03 0. -1.
        -11    1    3    3    0    0 -0.11117065030E+01  0.41056876998E+01 -0.27918740807E+01  0.50879390700E+01  0.51100000000E-03 0.  1.
        -12    1    3    3    0    0  0.25192648886E+01  0.26293760553E+02  0.28473128314E+01  0.26567192737E+02  0.00000000000E+00 0.  1.
</event>
<event>
 7    1  0.5541017E-010  0.4778727E+02  0.7816164E-02  0.1312668E+00
        -11   -1    0    0    0    0  0.00000000000E+00  0.00000000000E+00  0.45593999997E+02  0.45594000000E+02  0.51100000000E-03 0. -1.
         11   -1    0    0    0    0 -0.00000000000E+00 -0.00000000000E+00 -0.45593999997E+02  0.45594000000E+02  0.51100000000E-03 0.  1.
    9900012    2    1    2    0    0  0.12892803087E+02  0.34183362850E+02  0.23428543228E+02  0.47787270686E+02  0.19999998368E+02 0.  0.
        -12    1    1    2    0    0 -0.12892803087E+02 -0.34183362850E+02 -0.23428543228E+02  0.43400729314E+02  0.00000000000E+00 0.  1.
         11    1    3    3    0    0  0.15327903206E+01  0.10710222211E+02  0.15158823741E+02  0.18623862205E+02  0.51100000000E-03 0. -1.
        -11    1    3    3    0    0 -0.10329009151E+01  0.49761847490E+01  0.40583613331E+01  0.65038139524E+01  0.51100000000E-03 0.  1.
        -12    1    3    3    0    0  0.12392913681E+02  0.18496955890E+02  0.42113581540E+01  0.22659594529E+02  0.00000000000E+00 0.  1.
</event>
<event>
 7    1  0.5541017E-010  0.4778727E+02  0.7816164E-02  0.1312668E+00
        -11   -1    0    0    0    0  0.00000000000E+00  0.00000000000E+00  0.45593999997E+02  0.45594000000E+02  0.51100000000E-03 0.  1.
         11   -1    0    0    0    0 -0.00000000000E+00 -0.00000000000E+00 -0.45593999997E+02  0.45594000000E+02  0.51100000000E-03 0. -1.
    9900012    2    1    2    0    0  0.29864040349E+02 -0.12062006934E+02 -0.29090726397E+02  0.47787270979E+02  0.19999999703E+02 0.  0.
        -12    1    1    2    0    0 -0.29864040349E+02  0.12062006934E+02  0.29090726397E+02  0.43400729021E+02  0.00000000000E+00 0.  1.
         11    1    3    3    0    0  0.13278335459E+02 -0.11733091998E+02 -0.75304362317E+01  0.19253236364E+02  0.51100000000E-03 0. -1.
        -11    1    3    3    0    0  0.27867660963E+01  0.19652479019E+01 -0.80303495245E+00  0.35033027257E+01  0.51100000000E-03 0.  1.
         12    1    3    3    0    0  0.13798938793E+02 -0.22941628381E+01 -0.20757255213E+02  0.25030731890E+02  0.00000000000E+00 0. -1.
</event>
<event>
 7    1  0.5541017E-010  0.4778728E+02  0.7816164E-02  0.1312668E+00
        -11   -1    0    0    0    0  0.00000000000E+00  0.00000000000E+00  0.45593999997E+02  0.45594000000E+02  0.51100000000E-03 0.  1.
         11   -1    0    0    0    0 -0.00000000000E+00 -0.00000000000E+00 -0.45593999997E+02  0.45594000000E+02  0.51100000000E-03 0. -1.
    9900012    2    1    2    0    0 -0.27563628205E+02 -0.32960997108E+02 -0.61189535722E+01  0.47787279695E+02  0.20000039441E+02 0.  0.
        -12    1    1    2    0    0  0.27563628205E+02  0.32960997108E+02  0.61189535722E+01  0.43400720305E+02  0.00000000000E+00 0.  1.
         11    1    3    3    0    0 -0.50351090827E+01 -0.48744921445E+01 -0.33247624875E+01  0.77567417774E+01  0.51100000000E-03 0. -1.
        -11    1    3    3    0    0 -0.40744493837E+01  0.16871959873E+01 -0.23538550744E+01  0.49988400707E+01  0.51100000000E-03 0.  1.
         12    1    3    3    0    0 -0.18454069738E+02 -0.29773700951E+02 -0.44033601039E+00  0.35031697847E+02  0.00000000000E+00 0. -1.
</event>
<event>
 7    1 -0.5541017E-010  0.4778727E+02  0.7816164E-02  0.1312668E+00
        -11   -1    0    0    0    0  0.00000000000E+00  0.00000000000E+00  0.45593999997E+02  0.45594000000E+02  0.51100000000E-03 0.  1.
         11   -1    0    0    0    0 -0.00000000000E+00 -0.00000000000E+00 -0.45593999997E+02  0.45594000000E+02  0.51100000000E-03 0. -1.
    9900012    2    1    2    0    0  0.10437250500E+02 -0.37760238507E+02 -0.18677563019E+02  0.47787272236E+02  0.20000005432E+02 0.  0.
        -12    1    1    2    0    0 -0.10437250500E+02  0.37760238507E+02  0.18677563019E+02  0.43400727764E+02  0.00000000000E+00 0.  1.
         11    1    3    3    0    0 -0.17670552659E+01 -0.25723999003E+02 -0.88738546827E+01  0.27268881646E+02  0.51100000000E-03 0. -1.
        -11    1    3    3    0    0  0.30161912013E+01 -0.55591393088E+01 -0.58106087765E+01  0.85886328267E+01  0.51100000000E-03 0.  1.
         12    1    3    3    0    0  0.91881145648E+01 -0.64771001952E+01 -0.39930995597E+01  0.11929757763E+02  0.00000000000E+00 0. -1.
</event>
<event>
 7    1  0.5541017E-010  0.4778728E+02  0.7816164E-02  0.1312668E+00
        -11   -1    0    0    0    0  0.00000000000E+00  0.00000000000E+00  0.45593999997E+02  0.45594000000E+02  0.51100000000E-03 0.  1.
         11   -1    0    0    0    0 -0.00000000000E+00 -0.00000000000E+00 -0.45593999997E+02  0.45594000000E+02  0.51100000000E-03 0. -1.
    9900012    2    1    2    0    0  0.17345913214E+02 -0.32468082000E+02 -0.22990557545E+02  0.47787276616E+02  0.20000025405E+02 0.  0.
        -12    1    1    2    0    0 -0.17345913214E+02  0.32468082000E+02  0.22990557545E+02  0.43400723384E+02  0.00000000000E+00 0.  1.
         11    1    3    3    0    0  0.34807936958E+01 -0.28940658395E+01 -0.63058239188E+00  0.45704678371E+01  0.51100000000E-03 0. -1.
        -11    1    3    3    0    0  0.17679457734E+02 -0.20530668945E+02 -0.17602150986E+02  0.32309554511E+02  0.51100000000E-03 0.  1.
        -12    1    3    3    0    0 -0.38143382151E+01 -0.90433472148E+01 -0.47578241677E+01  0.10907254268E+02  0.00000000000E+00 0.  1.
</event>
<event>
 7    1  0.5541017E-010  0.4778727E+02  0.7816164E-02  0.1312668E+00
        -11   -1    0    0    0    0  0.00000000000E+00  0.00000000000E+00  0.45593999997E+02  0.45594000000E+02  0.51100000000E-03 0. -1.
         11   -1    0    0    0    0 -0.00000000000E+00 -0.00000000000E+00 -0.45593999997E+02  0.45594000000E+02  0.51100000000E-03 0.  1.
    9900012    2    1    2    0    0  0.40872518482E+02 -0.55520410146E+01  0.13499454190E+02  0.47787272012E+02  0.20000004411E+02 0.  0.
        -12    1    1    2    0    0 -0.40872518482E+02  0.55520410146E+01 -0.13499454190E+02  0.43400727988E+02  0.00000000000E+00 0.  1.
         11    1    3    3    0    0  0.17375560523E+02  0.10146530714E+01  0.31993661867E+01  0.17696767179E+02  0.51100000000E-03 0. -1.
        -11    1    3    3    0    0  0.17052834364E+02  0.10089732841E+01  0.21214630361E+01  0.17213883717E+02  0.51100000000E-03 0.  1.
        -12    1    3    3    0    0  0.64441235944E+01 -0.75756673701E+01  0.81786249674E+01  0.12876621116E+02  0.00000000000E+00 0.  1.
</event>
<event>
 7    1  0.5541017E-010  0.4778727E+02  0.7816164E-02  0.1312668E+00
        -11   -1    0    0    0    0  0.00000000000E+00  0.00000000000E+00  0.45593999997E+02  0.45594000000E+02  0.51100000000E-03 0.  1.
         11   -1    0    0    0    0 -0.00000000000E+00 -0.00000000000E+00 -0.45593999997E+02  0.45594000000E+02  0.51100000000E-03 0. -1.
    9900012    2    1    2    0    0 -0.73318692670E+01  0.84054185536E+01 -0.41943010325E+02  0.47787268634E+02  0.19999989008E+02 0.  0.
        -12    1    1    2    0    0  0.73318692670E+01 -0.84054185536E+01  0.41943010325E+02  0.43400731366E+02  0.00000000000E+00 0.  1.
         11    1    3    3    0    0 -0.18905025024E+01 -0.66952992782E+00 -0.26619471257E+02  0.26694915627E+02  0.51100000000E-03 0. -1.
        -11    1    3    3    0    0 -0.53217542391E+01  0.23409822170E+01 -0.12506726639E+02  0.13792007737E+02  0.51100000000E-03 0.  1.
        -12    1    3    3    0    0 -0.11961252556E+00  0.67339662644E+01 -0.28168124288E+01  0.73003452703E+01  0.00000000000E+00 0.  1.
</event>
<event>
 7    1  0.5541017E-010  0.4778727E+02  0.7816164E-02  0.1312668E+00
        -11   -1    0    0    0    0  0.00000000000E+00  0.00000000000E+00  0.45593999997E+02  0.45594000000E+02  0.51100000000E-03 0. -1.
         11   -1    0    0    0    0 -0.00000000000E+00 -0.00000000000E+00 -0.45593999997E+02  0.45594000000E+02  0.51100000000E-03 0.  1.
    9900012    2    1    2    0    0 -0.16517197272E+02 -0.38585654261E+02  0.11043213333E+02  0.47787273264E+02  0.20000010121E+02 0.  0.
        -12    1    1    2    0    0  0.16517197272E+02  0.38585654261E+02 -0.11043213333E+02  0.43400726736E+02  0.00000000000E+00 0.  1.
         11    1    3    3    0    0 -0.13235971843E+01 -0.34579559798E+01  0.40451172694E+01  0.54838255852E+01  0.51100000000E-03 0. -1.
        -11    1    3    3    0    0  0.65981086652E+00 -0.22353561425E+01  0.52546316394E+01  0.57483320528E+01  0.51100000000E-03 0.  1.
         12    1    3    3    0    0 -0.15853410954E+02 -0.32892342139E+02  0.17434644244E+01  0.36555115626E+02  0.00000000000E+00 0. -1.
</event>
<event>
 7    1  0.5541017E-010  0.4778727E+02  0.7816164E-02  0.1312668E+00
        -11   -1    0    0    0    0  0.00000000000E+00  0.00000000000E+00  0.45593999997E+02  0.45594000000E+02  0.51100000000E-03 0.  1.
         11   -1    0    0    0    0 -0.00000000000E+00 -0.00000000000E+00 -0.45593999997E+02  0.45594000000E+02  0.51100000000E-03 0. -1.
    9900012    2    1    2    0    0  0.25739998106E+02 -0.19154169849E+02 -0.29226589061E+02  0.47787271512E+02  0.20000002134E+02 0.  0.
        -12    1    1    2    0    0 -0.25739998106E+02  0.19154169849E+02  0.29226589061E+02  0.43400728488E+02  0.00000000000E+00 0.  1.
         11    1    3    3    0    0  0.15519612374E+02 -0.70735647942E+01 -0.13372890866E+02  0.21673206904E+02  0.51100000000E-03 0. -1.
        -11    1    3    3    0    0  0.10478122080E+02 -0.29500269641E+01 -0.51486728810E+01  0.12041699801E+02  0.51100000000E-03 0.  1.
         12    1    3    3    0    0 -0.25773634738E+00 -0.91305780908E+01 -0.10705025314E+02  0.14072364807E+02  0.00000000000E+00 0. -1.
</event>
<event>
 7    1  0.5541017E-010  0.4778727E+02  0.7816164E-02  0.1312668E+00
        -11   -1    0    0    0    0  0.00000000000E+00  0.00000000000E+00  0.45593999997E+02  0.45594000000E+02  0.51100000000E-03 0. -1.
         11   -1    0    0    0    0 -0.00000000000E+00 -0.00000000000E+00 -0.45593999997E+02  0.45594000000E+02  0.51100000000E-03 0.  1.
    9900012    2    1    2    0    0 -0.12930549005E+02  0.10719157398E+02  0.40019043059E+02  0.47787271432E+02  0.20000001767E+02 0.  0.
        -12    1    1    2    0    0  0.12930549005E+02 -0.10719157398E+02 -0.40019043059E+02  0.43400728568E+02  0.00000000000E+00 0.  1.
         11    1    3    3    0    0 -0.92523723497E+01  0.11801387945E+02  0.15241694645E+02  0.21381964536E+02  0.51100000000E-03 0. -1.
        -11    1    3    3    0    0 -0.30762721869E+01  0.32379503808E+01  0.15882184843E+02  0.16498229265E+02  0.51100000000E-03 0.  1.
        -12    1    3    3    0    0 -0.60190446857E+00 -0.43201809272E+01  0.88951635714E+01  0.99070776314E+01  0.00000000000E+00 0.  1.
</event>
<event>
 7    1  0.7981698E-010  0.4778727E+02  0.7816164E-02  0.1312668E+00
        -11   -1    0    0    0    0  0.00000000000E+00  0.00000000000E+00  0.45593999997E+02  0.45594000000E+02  0.51100000000E-03 0. -1.
         11   -1    0    0    0    0 -0.00000000000E+00 -0.00000000000E+00 -0.45593999997E+02  0.45594000000E+02  0.51100000000E-03 0.  1.
    9900012    2    1    2    0    0  0.36047729431E+02  0.23963063995E+02  0.31553364233E+01  0.47787269809E+02  0.19999994368E+02 0.  0.
        -12    1    1    2    0    0 -0.36047729431E+02 -0.23963063995E+02 -0.31553364233E+01  0.43400730191E+02  0.00000000000E+00 0.  1.
         11    1    3    3    0    0  0.21175650204E+02  0.19207881685E+02  0.29072495439E+00  0.28590827229E+02  0.51100000000E-03 0. -1.
        -11    1    3    3    0    0  0.13818822182E+02  0.64332502871E+01  0.52261007743E+01  0.16113928301E+02  0.51100000000E-03 0.  1.
        -12    1    3    3    0    0  0.10532570455E+01 -0.16780679768E+01 -0.23614893054E+01  0.30825142787E+01  0.00000000000E+00 0.  1.
</event>
<event>
 7    1  0.8282434E-010  0.4778727E+02  0.7816164E-02  0.1312668E+00
        -11   -1    0    0    0    0  0.00000000000E+00  0.00000000000E+00  0.45593999997E+02  0.45594000000E+02  0.51100000000E-03 0. -1.
         11   -1    0    0    0    0 -0.00000000000E+00 -0.00000000000E+00 -0.45593999997E+02  0.45594000000E+02  0.51100000000E-03 0.  1.
    9900012    2    1    2    0    0 -0.12272326050E+02  0.31289575272E+02  0.27458618877E+02  0.47787271227E+02  0.20000000833E+02 0.  0.
        -12    1    1    2    0    0  0.12272326050E+02 -0.31289575272E+02 -0.27458618877E+02  0.43400728773E+02  0.00000000000E+00 0.  1.
         11    1    3    3    0    0 -0.68064240055E+01  0.21558070242E+02  0.16686403086E+02  0.28098289068E+02  0.51100000000E-03 0. -1.
        -11    1    3    3    0    0  0.14959877641E+01  0.80031833911E+01  0.20498939959E+01  0.83958912236E+01  0.51100000000E-03 0.  1.
        -12    1    3    3    0    0 -0.69618898083E+01  0.17283216389E+01  0.87223217950E+01  0.11293090936E+02  0.00000000000E+00 0.  1.
</event>
<event>
 7    1  0.5541017E-010  0.4778727E+02  0.7816164E-02  0.1312668E+00
        -11   -1    0    0    0    0  0.00000000000E+00  0.00000000000E+00  0.45593999997E+02  0.45594000000E+02  0.51100000000E-03 0.  1.
         11   -1    0    0    0    0 -0.00000000000E+00 -0.00000000000E+00 -0.45593999997E+02  0.45594000000E+02  0.51100000000E-03 0. -1.
    9900012    2    1    2    0    0 -0.39647012243E+01  0.37813212325E+02 -0.20930018587E+02  0.47787267746E+02  0.19999984962E+02 0.  0.
        -12    1    1    2    0    0  0.39647012243E+01 -0.37813212325E+02  0.20930018587E+02  0.43400732254E+02  0.00000000000E+00 0.  1.
         11    1    3    3    0    0 -0.61604053321E+01  0.29067663924E+02 -0.69732520468E+01  0.30520581977E+02  0.51100000000E-03 0. -1.
        -11    1    3    3    0    0 -0.13906711783E+01  0.38584406984E+01 -0.58293747474E+01  0.71276322265E+01  0.51100000000E-03 0.  1.
         12    1    3    3    0    0  0.35863752861E+01  0.48871077022E+01 -0.81273917928E+01  0.10139053543E+02  0.00000000000E+00 0. -1.
</event>
<event>
 7    1  0.5541017E-010  0.4778727E+02  0.7816164E-02  0.1312668E+00
        -11   -1    0    0    0    0  0.00000000000E+00  0.00000000000E+00  0.45593999997E+02  0.45594000000E+02  0.51100000000E-03 0.  1.
         11   -1    0    0    0    0 -0.00000000000E+00 -0.00000000000E+00 -0.45593999997E+02  0.45594000000E+02  0.51100000000E-03 0. -1.
    9900012    2    1    2    0    0  0.37814087039E+02 -0.18295891595E+01 -0.21221947826E+02  0.47787266773E+02  0.19999980525E+02 0.  0.
        -12    1    1    2    0    0 -0.37814087039E+02  0.18295891595E+01  0.21221947826E+02  0.43400733227E+02  0.00000000000E+00 0.  1.
         11    1    3    3    0    0  0.10801009408E+02  0.11569955284E+01  0.21036124216E+01  0.11064611532E+02  0.51100000000E-03 0. -1.
        -11    1    3    3    0    0  0.27023882043E+01  0.18545025635E+01 -0.11812580035E+01  0.34838846848E+01  0.51100000000E-03 0.  1.
        -12    1    3    3    0    0  0.24310689427E+02 -0.48410872514E+01 -0.22144302244E+02  0.33238770556E+02  0.00000000000E+00 0.  1.
</event>
<event>
 7    1  0.5541017E-010  0.4778727E+02  0.7816164E-02  0.1312668E+00
        -11   -1    0    0    0    0  0.00000000000E+00  0.00000000000E+00  0.45593999997E+02  0.45594000000E+02  0.51100000000E-03 0. -1.
         11   -1    0    0    0    0 -0.00000000000E+00 -0.00000000000E+00 -0.45593999997E+02  0.45594000000E+02  0.51100000000E-03 0.  1.
    9900012    2    1    2    0    0  0.30488601188E+02  0.14754763265E+02  0.27136056190E+02  0.47787269742E+02  0.19999994061E+02 0.  0.
        -12    1    1    2    0    0 -0.30488601188E+02 -0.14754763265E+02 -0.27136056190E+02  0.43400730258E+02  0.00000000000E+00 0.  1.
         11    1    3    3    0    0  0.83010452646E+01  0.52616206792E+01 -0.17269677673E+01  0.99786984415E+01  0.51100000000E-03 0. -1.
        -11    1    3    3    0    0  0.85747745189E+01  0.19624791735E+01  0.11803874838E+02  0.14721057843E+02  0.51100000000E-03 0.  1.
         12    1    3    3    0    0  0.13612781404E+02  0.75306634125E+01  0.17059149119E+02  0.23087513457E+02  0.00000000000E+00 0. -1.
</event>
<event>
 7    1  0.5541017E-010  0.4778727E+02  0.7816164E-02  0.1312668E+00
        -11   -1    0    0    0    0  0.00000000000E+00  0.00000000000E+00  0.45593999997E+02  0.45594000000E+02  0.51100000000E-03 0. -1.
         11   -1    0    0    0    0 -0.00000000000E+00 -0.00000000000E+00 -0.45593999997E+02  0.45594000000E+02  0.51100000000E-03 0.  1.
    9900012    2    1    2    0    0 -0.21505994858E+02 -0.33695734003E+02  0.16903053209E+02  0.47787268294E+02  0.19999987458E+02 0.  0.
        -12    1    1    2    0    0  0.21505994858E+02  0.33695734003E+02 -0.16903053209E+02  0.43400731706E+02  0.00000000000E+00 0.  1.
         11    1    3    3    0    0 -0.12591754298E+02 -0.14524554160E+02  0.12802638886E+02  0.23095941473E+02  0.51100000000E-03 0. -1.
        -11    1    3    3    0    0 -0.94524670551E+01 -0.17586436615E+02  0.71543276137E+01  0.21208872909E+02  0.51100000000E-03 0.  1.
        -12    1    3    3    0    0  0.53822649484E+00 -0.15847432291E+01 -0.30539132899E+01  0.34824539113E+01  0.00000000000E+00 0.  1.
</event>
<event>
 7    1  0.5541017E-010  0.4778727E+02  0.7816164E-02  0.1312668E+00
        -11   -1    0    0    0    0  0.00000000000E+00  0.00000000000E+00  0.45593999997E+02  0.45594000000E+02  0.51100000000E-03 0.  1.
         11   -1    0    0    0    0 -0.00000000000E+00 -0.00000000000E+00 -0.45593999997E+02  0.45594000000E+02  0.51100000000E-03 0. -1.
    9900012    2    1    2    0    0 -0.39315441636E+02 -0.84799130674E+01  0.16309838266E+02  0.47787266125E+02  0.19999977570E+02 0.  0.
        -12    1    1    2    0    0  0.39315441636E+02  0.84799130674E+01 -0.16309838266E+02  0.43400733875E+02  0.00000000000E+00 0.  1.
         11    1    3    3    0    0 -0.32090408293E+01 -0.43510422234E+01 -0.20854195347E+01  0.57946946745E+01  0.51100000000E-03 0. -1.
        -11    1    3    3    0    0 -0.43273425544E+01 -0.30699786235E+01  0.56103466009E+01  0.77218295485E+01  0.51100000000E-03 0.  1.
        -12    1    3    3    0    0 -0.31779058252E+02 -0.10588922205E+01  0.12784911200E+02  0.34270741902E+02  0.00000000000E+00 0.  1.
</event>
<event>
 7    1  0.5541017E-010  0.4778727E+02  0.7816164E-02  0.1312668E+00
        -11   -1    0    0    0    0  0.00000000000E+00  0.00000000000E+00  0.45593999997E+02  0.45594000000E+02  0.51100000000E-03 0. -1.
         11   -1    0    0    0    0 -0.00000000000E+00 -0.00000000000E+00 -0.45593999997E+02  0.45594000000E+02  0.51100000000E-03 0.  1.
    9900012    2    1    2    0    0 -0.42018230121E+02  0.10607252966E+02  0.23616864304E+01  0.47787273730E+02  0.20000012244E+02 0.  0.
        -12    1    1    2    0    0  0.42018230121E+02 -0.10607252966E+02 -0.23616864304E+01  0.43400726270E+02  0.00000000000E+00 0.  1.
         11    1    3    3    0    0 -0.18708902626E+02  0.91302545610E+01 -0.41580121082E+01  0.21229075599E+02  0.51100000000E-03 0. -1.
        -11    1    3    3    0    0 -0.11485917473E+02  0.28444695658E+01 -0.18925148151E+01  0.11983276676E+02  0.51100000000E-03 0.  1.
        -12    1    3    3    0    0 -0.11823410022E+02 -0.13674711609E+01  0.84122133537E+01  0.14574921455E+02  0.00000000000E+00 0.  1.
</event>
<event>
 7    1  0.5541017E-010  0.4778727E+02  0.7816164E-02  0.1312668E+00
        -11   -1    0    0    0    0  0.00000000000E+00  0.00000000000E+00  0.45593999997E+02  0.45594000000E+02  0.51100000000E-03 0.  1.
         11   -1    0    0    0    0 -0.00000000000E+00 -0.00000000000E+00 -0.45593999997E+02  0.45594000000E+02  0.51100000000E-03 0. -1.
    9900012    2    1    2    0    0  0.11772800868E+02 -0.18562998924E+02 -0.37422445949E+02  0.47787271548E+02  0.20000002296E+02 0.  0.
        -12    1    1    2    0    0 -0.11772800868E+02  0.18562998924E+02  0.37422445949E+02  0.43400728452E+02  0.00000000000E+00 0.  1.
         11    1    3    3    0    0  0.14014474974E+01 -0.11137243259E+01  0.97729797756E+00  0.20394971341E+01  0.51100000000E-03 0.  1.
        -11    1    3    3    0    0  0.82100613961E+01 -0.12058586874E+01 -0.10392905755E+02  0.13299311772E+02  0.51100000000E-03 0. -1.
         12    1    3    3    0    0  0.21612919740E+01 -0.16243415911E+02 -0.28006838172E+02  0.32448462642E+02  0.00000000000E+00 0. -1.
</event>
<event>
 7    1  0.5541017E-010  0.4778726E+02  0.7816164E-02  0.1312668E+00
        -11   -1    0    0    0    0  0.00000000000E+00  0.00000000000E+00  0.45593999997E+02  0.45594000000E+02  0.51100000000E-03 0.  1.
         11   -1    0    0    0    0 -0.00000000000E+00 -0.00000000000E+00 -0.45593999997E+02  0.45594000000E+02  0.51100000000E-03 0. -1.
    9900012    2    1    2    0    0  0.17523418560E+02  0.25161949248E+01 -0.39626036684E+02  0.47787260166E+02  0.19999950400E+02 0.  0.
        -12    1    1    2    0    0 -0.17523418560E+02 -0.25161949248E+01  0.39626036684E+02  0.43400739834E+02  0.00000000000E+00 0.  1.
         11    1    3    3    0    0  0.54180673128E+01 -0.54317388296E+01 -0.64348644574E+01  0.10013327168E+02  0.51100000000E-03 0. -1.
        -11    1    3    3    0    0  0.10522306470E+02  0.22778411732E+01 -0.13764084736E+02  0.17474482045E+02  0.51100000000E-03 0.  1.
        -12    1    3    3    0    0  0.15830447767E+01  0.56700925813E+01 -0.19427087490E+02  0.20299450953E+02  0.00000000000E+00 0.  1.
</event>
<event>
 7    1  0.5541017E-010  0.4778727E+02  0.7816164E-02  0.1312668E+00
        -11   -1    0    0    0    0  0.00000000000E+00  0.00000000000E+00  0.45593999997E+02  0.45594000000E+02  0.51100000000E-03 0.  1.
         11   -1    0    0    0    0 -0.00000000000E+00 -0.00000000000E+00 -0.45593999997E+02  0.45594000000E+02  0.51100000000E-03 0. -1.
    9900012    2    1    2    0    0  0.79764851446E+01 -0.27841568263E+02 -0.32324080813E+02  0.47787269142E+02  0.19999991326E+02 0.  0.
        -12    1    1    2    0    0 -0.79764851446E+01  0.27841568263E+02  0.32324080813E+02  0.43400730858E+02  0.00000000000E+00 0.  1.
         11    1    3    3    0    0 -0.66383352798E+00 -0.10836895543E+02 -0.53370913720E+01  0.12098079374E+02  0.51100000000E-03 0.  1.
        -11    1    3    3    0    0 -0.76599325349E+00 -0.12501470541E+02 -0.17961710712E+02  0.21897409968E+02  0.51100000000E-03 0. -1.
         12    1    3    3    0    0  0.94063119261E+01 -0.45032021795E+01 -0.90252787288E+01  0.13791779800E+02  0.00000000000E+00 0. -1.
</event>
<event>
 7    1  0.5541017E-010  0.4778727E+02  0.7816164E-02  0.1312668E+00
        -11   -1    0    0    0    0  0.00000000000E+00  0.00000000000E+00  0.45593999997E+02  0.45594000000E+02  0.51100000000E-03 0. -1.
         11   -1    0    0    0    0 -0.00000000000E+00 -0.00000000000E+00 -0.45593999997E+02  0.45594000000E+02  0.51100000000E-03 0.  1.
    9900012    2    1    2    0    0 -0.99002206895E+01 -0.16072495895E+02  0.39080478126E+02  0.47787271151E+02  0.20000000488E+02 0.  0.
        -12    1    1    2    0    0  0.99002206895E+01  0.16072495895E+02 -0.39080478126E+02  0.43400728849E+02  0.00000000000E+00 0.  1.
         11    1    3    3    0    0 -0.14152931966E+01 -0.18993972206E+01  0.18289121432E+02  0.18441874299E+02  0.51100000000E-03 0. -1.
        -11    1    3    3    0    0  0.36679623222E+00 -0.10114632347E+02  0.14740525167E+02  0.17880811208E+02  0.51100000000E-03 0.  1.
         12    1    3    3    0    0 -0.88517237251E+01 -0.40584663268E+01  0.60508315278E+01  0.11464585645E+02  0.00000000000E+00 0. -1.
</event>
<event>
 7    1  0.5541017E-010  0.4778728E+02  0.7816164E-02  0.1312668E+00
        -11   -1    0    0    0    0  0.00000000000E+00  0.00000000000E+00  0.45593999997E+02  0.45594000000E+02  0.51100000000E-03 0. -1.
         11   -1    0    0    0    0 -0.00000000000E+00 -0.00000000000E+00 -0.45593999997E+02  0.45594000000E+02  0.51100000000E-03 0.  1.
    9900012    2    1    2    0    0  0.20215673310E+02  0.24272481520E+01  0.38328288846E+02  0.47787277578E+02  0.20000029787E+02 0.  0.
        -12    1    1    2    0    0 -0.20215673310E+02 -0.24272481520E+01 -0.38328288846E+02  0.43400722422E+02  0.00000000000E+00 0.  1.
         11    1    3    3    0    0  0.13965824411E+02  0.21265386602E+01  0.80229452459E+01  0.16246047791E+02  0.51100000000E-03 0. -1.
        -11    1    3    3    0    0  0.94618804206E+00 -0.71839580051E-01  0.19967472987E+00  0.96969221667E+00  0.51100000000E-03 0.  1.
        -12    1    3    3    0    0  0.53036608572E+01  0.37254907182E+00  0.30105668870E+02  0.30571537570E+02  0.00000000000E+00 0.  1.
</event>
<event>
 7    1  0.5541017E-010  0.4778727E+02  0.7816164E-02  0.1312668E+00
        -11   -1    0    0    0    0  0.00000000000E+00  0.00000000000E+00  0.45593999997E+02  0.45594000000E+02  0.51100000000E-03 0.  1.
         11   -1    0    0    0    0 -0.00000000000E+00 -0.00000000000E+00 -0.45593999997E+02  0.45594000000E+02  0.51100000000E-03 0. -1.
    9900012    2    1    2    0    0  0.33816775883E+02 -0.23301947907E+02 -0.14038105552E+02  0.47787268268E+02  0.19999987341E+02 0.  0.
        -12    1    1    2    0    0 -0.33816775883E+02  0.23301947907E+02  0.14038105552E+02  0.43400731732E+02  0.00000000000E+00 0.  1.
         11    1    3    3    0    0 -0.72892675271E+00 -0.90478186843E+00  0.11764498402E+01  0.16534808520E+01  0.51100000000E-03 0.  1.
        -11    1    3    3    0    0  0.75961016216E+01 -0.95350666894E+01 -0.10113033971E+02  0.15839561641E+02  0.51100000000E-03 0. -1.
         12    1    3    3    0    0  0.26949601014E+02 -0.12862099349E+02 -0.51015214214E+01  0.30294225775E+02  0.00000000000E+00 0. -1.
</event>
<event>
 7    1  0.5541017E-010  0.4778727E+02  0.7816164E-02  0.1312668E+00
        -11   -1    0    0    0    0  0.00000000000E+00  0.00000000000E+00  0.45593999997E+02  0.45594000000E+02  0.51100000000E-03 0. -1.
         11   -1    0    0    0    0 -0.00000000000E+00 -0.00000000000E+00 -0.45593999997E+02  0.45594000000E+02  0.51100000000E-03 0.  1.
    9900012    2    1    2    0    0 -0.30175116030E+02 -0.30569415729E+01  0.31044171590E+02  0.47787272945E+02  0.20000008664E+02 0.  0.
        -12    1    1    2    0    0  0.30175116030E+02  0.30569415729E+01 -0.31044171590E+02  0.43400727055E+02  0.00000000000E+00 0.  1.
         11    1    3    3    0    0 -0.41839856458E+01 -0.30445700850E+01  0.74488427649E+01  0.90697520189E+01  0.51100000000E-03 0. -1.
        -11    1    3    3    0    0 -0.24970487366E+01 -0.42769375539E+01  0.10200151051E+02  0.11338894521E+02  0.51100000000E-03 0.  1.
        -12    1    3    3    0    0 -0.23494081648E+02  0.42645660661E+01  0.13395177774E+02  0.27378626405E+02  0.00000000000E+00 0.  1.
</event>
<event>
 7    1  0.5541017E-010  0.4778727E+02  0.7816164E-02  0.1312668E+00
        -11   -1    0    0    0    0  0.00000000000E+00  0.00000000000E+00  0.45593999997E+02  0.45594000000E+02  0.51100000000E-03 0.  1.
         11   -1    0    0    0    0 -0.00000000000E+00 -0.00000000000E+00 -0.45593999997E+02  0.45594000000E+02  0.51100000000E-03 0. -1.
    9900012    2    1    2    0    0  0.13755787146E+02  0.20901417007E+02 -0.35461700135E+02  0.47787273170E+02  0.20000009690E+02 0.  0.
        -12    1    1    2    0    0 -0.13755787146E+02 -0.20901417007E+02  0.35461700135E+02  0.43400726830E+02  0.00000000000E+00 0.  1.
         11    1    3    3    0    0 -0.24737452311E+01  0.65465388394E+01 -0.72630642847E+01  0.10086064114E+02  0.51100000000E-03 0. -1.
        -11    1    3    3    0    0  0.32666249945E+01  0.83703591972E+00 -0.13438777047E+02  0.13855403161E+02  0.51100000000E-03 0.  1.
        -12    1    3    3    0    0  0.12962907383E+02  0.13517842248E+02 -0.14759858804E+02  0.23845805894E+02  0.00000000000E+00 0.  1.
</event>
<event>
 7    1  0.5541017E-010  0.4778727E+02  0.7816164E-02  0.1312668E+00
        -11   -1    0    0    0    0  0.00000000000E+00  0.00000000000E+00  0.45593999997E+02  0.45594000000E+02  0.51100000000E-03 0. -1.
         11   -1    0    0    0    0 -0.00000000000E+00 -0.00000000000E+00 -0.45593999997E+02  0.45594000000E+02  0.51100000000E-03 0.  1.
    9900012    2    1    2    0    0 -0.18353353053E+02 -0.43667876950E+01  0.39085916577E+02  0.47787271000E+02  0.19999999797E+02 0.  0.
        -12    1    1    2    0    0  0.18353353053E+02  0.43667876950E+01 -0.39085916577E+02  0.43400729000E+02  0.00000000000E+00 0.  1.
         11    1    3    3    0    0 -0.10203629667E+02  0.36367823834E+01  0.14073254824E+02  0.17759412887E+02  0.51100000000E-03 0. -1.
        -11    1    3    3    0    0 -0.30645922654E+01  0.25435622121E+01  0.26453785313E+01  0.47811570059E+01  0.51100000000E-03 0.  1.
         12    1    3    3    0    0 -0.50851311203E+01 -0.10547132291E+02  0.22367283222E+02  0.25246701107E+02  0.00000000000E+00 0. -1.
</event>
<event>
 7    1  0.5541017E-010  0.4778726E+02  0.7816164E-02  0.1312668E+00
        -11   -1    0    0    0    0  0.00000000000E+00  0.00000000000E+00  0.45593999997E+02  0.45594000000E+02  0.51100000000E-03 0. -1.
         11   -1    0    0    0    0 -0.00000000000E+00 -0.00000000000E+00 -0.45593999997E+02  0.45594000000E+02  0.51100000000E-03 0.  1.
    9900012    2    1    2    0    0  0.42255844736E+02  0.76805595181E+01  0.62511113601E+01  0.47787264959E+02  0.19999972253E+02 0.  0.
        -12    1    1    2    0    0 -0.42255844736E+02 -0.76805595181E+01 -0.62511113601E+01  0.43400735041E+02  0.00000000000E+00 0.  1.
         11    1    3    3    0    0  0.14574206419E+02  0.84544248177E+01 -0.54451401831E+01  0.17706901017E+02  0.51100000000E-03 0. -1.
        -11    1    3    3    0    0  0.53234485360E+01 -0.57238818656E+00  0.22366840944E+01  0.58025415596E+01  0.51100000000E-03 0.  1.
         12    1    3    3    0    0  0.22358189781E+02 -0.20147711307E+00  0.94595674488E+01  0.24277822383E+02  0.00000000000E+00 0. -1.
</event>
<event>
 7    1  0.5541017E-010  0.4778727E+02  0.7816164E-02  0.1312668E+00
        -11   -1    0    0    0    0  0.00000000000E+00  0.00000000000E+00  0.45593999997E+02  0.45594000000E+02  0.51100000000E-03 0.  1.
         11   -1    0    0    0    0 -0.00000000000E+00 -0.00000000000E+00 -0.45593999997E+02  0.45594000000E+02  0.51100000000E-03 0. -1.
    9900012    2    1    2    0    0 -0.12981987860E+02  0.39278053319E+02 -0.13127301082E+02  0.47787268266E+02  0.19999987331E+02 0.  0.
        -12    1    1    2    0    0  0.12981987860E+02 -0.39278053319E+02  0.13127301082E+02  0.43400731734E+02  0.00000000000E+00 0.  1.
         11    1    3    3    0    0 -0.74491755114E+01  0.20402531687E+02 -0.97413899376E+01  0.23804373405E+02  0.51100000000E-03 0. -1.
        -11    1    3    3    0    0 -0.11424298085E+01  0.11555185209E+02 -0.81699327801E+01  0.14197719992E+02  0.51100000000E-03 0.  1.
        -12    1    3    3    0    0 -0.43903825405E+01  0.73203364232E+01  0.47840216352E+01  0.97851748685E+01  0.00000000000E+00 0.  1.
</event>
<event>
 7    1  0.5541017E-010  0.4778727E+02  0.7816164E-02  0.1312668E+00
        -11   -1    0    0    0    0  0.00000000000E+00  0.00000000000E+00  0.45593999997E+02  0.45594000000E+02  0.51100000000E-03 0.  1.
         11   -1    0    0    0    0 -0.00000000000E+00 -0.00000000000E+00 -0.45593999997E+02  0.45594000000E+02  0.51100000000E-03 0. -1.
    9900012    2    1    2    0    0 -0.29136876910E+02  0.17244954146E+02  0.27152856326E+02  0.47787266755E+02  0.19999980442E+02 0.  0.
        -12    1    1    2    0    0  0.29136876910E+02 -0.17244954146E+02 -0.27152856326E+02  0.43400733245E+02  0.00000000000E+00 0.  1.
         11    1    3    3    0    0 -0.23936532525E+02  0.18052821710E+02  0.19218177114E+02  0.35611799911E+02  0.51100000000E-03 0. -1.
        -11    1    3    3    0    0 -0.60571647968E+01 -0.30867684046E+00  0.23515288779E+01  0.65049377470E+01  0.51100000000E-03 0.  1.
         12    1    3    3    0    0  0.85682041134E+00 -0.49919072412E+00  0.55831503333E+01  0.56705290971E+01  0.00000000000E+00 0. -1.
</event>
<event>
 7    1  0.5541017E-010  0.4778727E+02  0.7816164E-02  0.1312668E+00
        -11   -1    0    0    0    0  0.00000000000E+00  0.00000000000E+00  0.45593999997E+02  0.45594000000E+02  0.51100000000E-03 0.  1.
         11   -1    0    0    0    0 -0.00000000000E+00 -0.00000000000E+00 -0.45593999997E+02  0.45594000000E+02  0.51100000000E-03 0. -1.
    9900012    2    1    2    0    0  0.33654605977E+02 -0.32202482788E+01 -0.27214345973E+02  0.47787272711E+02  0.20000007599E+02 0.  0.
        -12    1    1    2    0    0 -0.33654605977E+02  0.32202482788E+01  0.27214345973E+02  0.43400727289E+02  0.00000000000E+00 0.  1.
         11    1    3    3    0    0  0.95249666998E-01 -0.10761454433E+01 -0.29779115452E+00  0.11206432737E+01  0.51100000000E-03 0.  1.
        -11    1    3    3    0    0  0.26390423152E+00 -0.91352342215E+00 -0.85867305415E+01  0.86392194173E+01  0.51100000000E-03 0. -1.
         12    1    3    3    0    0  0.33295452079E+02 -0.12305794133E+01 -0.18329824277E+02  0.38027410020E+02  0.00000000000E+00 0. -1.
</event>
<event>
 7    1  0.6910079E-010  0.4778727E+02  0.7816164E-02  0.1312668E+00
        -11   -1    0    0    0    0  0.00000000000E+00  0.00000000000E+00  0.45593999997E+02  0.45594000000E+02  0.51100000000E-03 0.  1.
         11   -1    0    0    0    0 -0.00000000000E+00 -0.00000000000E+00 -0.45593999997E+02  0.45594000000E+02  0.51100000000E-03 0. -1.
    9900012    2    1    2    0    0 -0.14613047237E+02  0.19580122646E+02 -0.35870616100E+02  0.47787268995E+02  0.19999990655E+02 0.  0.
        -12    1    1    2    0    0  0.14613047237E+02 -0.19580122646E+02  0.35870616100E+02  0.43400731005E+02  0.00000000000E+00 0.  1.
         11    1    3    3    0    0 -0.89299800493E+01  0.10479696505E+02 -0.17492016332E+02  0.22260710189E+02  0.51100000000E-03 0. -1.
        -11    1    3    3    0    0  0.80889880122E+00  0.63311192857E+01 -0.17232036208E+02  0.18376083936E+02  0.51100000000E-03 0.  1.
        -12    1    3    3    0    0 -0.64919659893E+01  0.27693068558E+01 -0.11465635599E+01  0.71504748699E+01  0.00000000000E+00 0.  1.
</event>
<event>
 7    1  0.5541017E-010  0.4778727E+02  0.7816164E-02  0.1312668E+00
        -11   -1    0    0    0    0  0.00000000000E+00  0.00000000000E+00  0.45593999997E+02  0.45594000000E+02  0.51100000000E-03 0.  1.
         11   -1    0    0    0    0 -0.00000000000E+00 -0.00000000000E+00 -0.45593999997E+02  0.45594000000E+02  0.51100000000E-03 0. -1.
    9900012    2    1    2    0    0 -0.38694504990E+02 -0.18635890922E+02  0.62499746227E+01  0.47787270402E+02  0.19999997072E+02 0.  0.
        -12    1    1    2    0    0  0.38694504990E+02  0.18635890922E+02 -0.62499746227E+01  0.43400729598E+02  0.00000000000E+00 0.  1.
         11    1    3    3    0    0  0.18524954889E+00 -0.21851892533E+01 -0.55435401449E+00  0.22620075381E+01  0.51100000000E-03 0. -1.
        -11    1    3    3    0    0 -0.23429018266E+01  0.53266063186E+00 -0.32086819711E+01  0.40085604112E+01  0.51100000000E-03 0.  1.
         12    1    3    3    0    0 -0.36536852712E+02 -0.16983362300E+02  0.10013010608E+02  0.41516702453E+02  0.00000000000E+00 0. -1.
</event>
<event>
 7    1  0.5541017E-010  0.4778727E+02  0.7816164E-02  0.1312668E+00
        -11   -1    0    0    0    0  0.00000000000E+00  0.00000000000E+00  0.45593999997E+02  0.45594000000E+02  0.51100000000E-03 0.  1.
         11   -1    0    0    0    0 -0.00000000000E+00 -0.00000000000E+00 -0.45593999997E+02  0.45594000000E+02  0.51100000000E-03 0. -1.
    9900012    2    1    2    0    0  0.34295743506E+02 -0.12540461881E+01 -0.26567888527E+02  0.47787270107E+02  0.19999995725E+02 0.  0.
        -12    1    1    2    0    0 -0.34295743506E+02  0.12540461881E+01  0.26567888527E+02  0.43400729893E+02  0.00000000000E+00 0.  1.
         11    1    3    3    0    0  0.18280507696E+02 -0.38314746558E+01 -0.23483152686E+02  0.30005259872E+02  0.51100000000E-03 0. -1.
        -11    1    3    3    0    0  0.46635552801E+01  0.32886197790E+01 -0.29125473930E+01  0.64067698943E+01  0.51100000000E-03 0.  1.
        -12    1    3    3    0    0  0.11351680530E+02 -0.71119131138E+00 -0.17218844796E+00  0.11375240340E+02  0.00000000000E+00 0.  1.
</event>
<event>
 7    1  0.5541017E-010  0.4778727E+02  0.7816164E-02  0.1312668E+00
        -11   -1    0    0    0    0  0.00000000000E+00  0.00000000000E+00  0.45593999997E+02  0.45594000000E+02  0.51100000000E-03 0.  1.
         11   -1    0    0    0    0 -0.00000000000E+00 -0.00000000000E+00 -0.45593999997E+02  0.45594000000E+02  0.51100000000E-03 0. -1.
    9900012    2    1    2    0    0 -0.10655615811E+02  0.40026674179E+02  0.12959410911E+02  0.47787272756E+02  0.20000007804E+02 0.  0.
        -12    1    1    2    0    0  0.10655615811E+02 -0.40026674179E+02 -0.12959410911E+02  0.43400727244E+02  0.00000000000E+00 0.  1.
         11    1    3    3    0    0 -0.56046184080E+01  0.24835062902E+02  0.69456336702E+01  0.26390034562E+02  0.51100000000E-03 0. -1.
        -11    1    3    3    0    0  0.22831030183E+01  0.95984301654E+01 -0.84608591674E+00  0.99024382185E+01  0.51100000000E-03 0.  1.
         12    1    3    3    0    0 -0.73341004210E+01  0.55931811117E+01  0.68598631577E+01  0.11494799975E+02  0.00000000000E+00 0. -1.
</event>
<event>
 7    1  0.5541017E-010  0.4778727E+02  0.7816164E-02  0.1312668E+00
        -11   -1    0    0    0    0  0.00000000000E+00  0.00000000000E+00  0.45593999997E+02  0.45594000000E+02  0.51100000000E-03 0. -1.
         11   -1    0    0    0    0 -0.00000000000E+00 -0.00000000000E+00 -0.45593999997E+02  0.45594000000E+02  0.51100000000E-03 0.  1.
    9900012    2    1    2    0    0 -0.13100924929E+00  0.31621710953E+02  0.29726643083E+02  0.47787273324E+02  0.20000010394E+02 0.  0.
        -12    1    1    2    0    0  0.13100924929E+00 -0.31621710953E+02 -0.29726643083E+02  0.43400726676E+02  0.00000000000E+00 0.  1.
         11    1    3    3    0    0 -0.10811790867E+01  0.34362364959E+01 -0.17170779618E+01  0.39906173032E+01  0.51100000000E-03 0.  1.
        -11    1    3    3    0    0 -0.43273288764E+01  0.46920452950E+01  0.73247197307E+01  0.97155845758E+01  0.51100000000E-03 0. -1.
         12    1    3    3    0    0  0.52774987138E+01  0.23493429162E+02  0.24119001314E+02  0.34081071445E+02  0.00000000000E+00 0. -1.
</event>
<event>
 7    1  0.5541017E-010  0.4778728E+02  0.7816164E-02  0.1312668E+00
        -11   -1    0    0    0    0  0.00000000000E+00  0.00000000000E+00  0.45593999997E+02  0.45594000000E+02  0.51100000000E-03 0.  1.
         11   -1    0    0    0    0 -0.00000000000E+00 -0.00000000000E+00 -0.45593999997E+02  0.45594000000E+02  0.51100000000E-03 0. -1.
    9900012    2    1    2    0    0  0.32243962924E+02  0.12605922158E+02 -0.26173276143E+02  0.47787276474E+02  0.20000024757E+02 0.  0.
        -12    1    1    2    0    0 -0.32243962924E+02 -0.12605922158E+02  0.26173276143E+02  0.43400723526E+02  0.00000000000E+00 0.  1.
         11    1    3    3    0    0  0.42005544977E+01  0.30570072207E+01 -0.14898027773E+00  0.51973211003E+01  0.51100000000E-03 0. -1.
        -11    1    3    3    0    0  0.29889370158E+02  0.92582875658E+01 -0.22301797241E+02  0.38424738094E+02  0.51100000000E-03 0.  1.
        -12    1    3    3    0    0 -0.18459617323E+01  0.29062737153E+00 -0.37224986240E+01  0.41652172803E+01  0.00000000000E+00 0.  1.
</event>
<event>
 7    1  0.5541017E-010  0.4778727E+02  0.7816164E-02  0.1312668E+00
        -11   -1    0    0    0    0  0.00000000000E+00  0.00000000000E+00  0.45593999997E+02  0.45594000000E+02  0.51100000000E-03 0.  1.
         11   -1    0    0    0    0 -0.00000000000E+00 -0.00000000000E+00 -0.45593999997E+02  0.45594000000E+02  0.51100000000E-03 0. -1.
    9900012    2    1    2    0    0  0.28625342163E+02  0.22147550372E+02 -0.23952011498E+02  0.47787273552E+02  0.20000011434E+02 0.  0.
        -12    1    1    2    0    0 -0.28625342163E+02 -0.22147550372E+02  0.23952011498E+02  0.43400726448E+02  0.00000000000E+00 0.  1.
         11    1    3    3    0    0  0.18296163476E+00  0.12624826387E+01 -0.51087165090E+01  0.52655789808E+01  0.51100000000E-03 0. -1.
        -11    1    3    3    0    0  0.13207924022E+02  0.66076863802E+01 -0.15442114989E+02  0.21367491473E+02  0.51100000000E-03 0.  1.
        -12    1    3    3    0    0  0.15234456506E+02  0.14277381353E+02 -0.34011799999E+01  0.21154203098E+02  0.00000000000E+00 0.  1.
</event>
<event>
 7    1  0.5541017E-010  0.4778727E+02  0.7816164E-02  0.1312668E+00
        -11   -1    0    0    0    0  0.00000000000E+00  0.00000000000E+00  0.45593999997E+02  0.45594000000E+02  0.51100000000E-03 0.  1.
         11   -1    0    0    0    0 -0.00000000000E+00 -0.00000000000E+00 -0.45593999997E+02  0.45594000000E+02  0.51100000000E-03 0. -1.
    9900012    2    1    2    0    0 -0.11959728638E+01  0.21440591228E+02 -0.37715965890E+02  0.47787269749E+02  0.19999994092E+02 0.  0.
        -12    1    1    2    0    0  0.11959728638E+01 -0.21440591228E+02  0.37715965890E+02  0.43400730251E+02  0.00000000000E+00 0.  1.
         11    1    3    3    0    0 -0.15436409662E+00 -0.11734501696E+01 -0.53684022986E+01  0.54973227189E+01  0.51100000000E-03 0. -1.
        -11    1    3    3    0    0  0.30167408997E+01  0.62373452289E+01 -0.14392990703E+01  0.70764951237E+01  0.51100000000E-03 0.  1.
         12    1    3    3    0    0 -0.40583496669E+01  0.16376696169E+02 -0.30908264521E+02  0.35213451906E+02  0.00000000000E+00 0. -1.
</event>
<event>
 7    1  0.5541017E-010  0.4778727E+02  0.7816164E-02  0.1312668E+00
        -11   -1    0    0    0    0  0.00000000000E+00  0.00000000000E+00  0.45593999997E+02  0.45594000000E+02  0.51100000000E-03 0.  1.
         11   -1    0    0    0    0 -0.00000000000E+00 -0.00000000000E+00 -0.45593999997E+02  0.45594000000E+02  0.51100000000E-03 0. -1.
    9900012    2    1    2    0    0 -0.31465432156E+02  0.66908799093E+00 -0.29884816766E+02  0.47787269906E+02  0.19999994810E+02 0.  0.
        -12    1    1    2    0    0  0.31465432156E+02 -0.66908799093E+00  0.29884816766E+02  0.43400730094E+02  0.00000000000E+00 0.  1.
         11    1    3    3    0    0 -0.16956871739E+02 -0.17636185341E+01 -0.15347304161E+02  0.22938735684E+02  0.51100000000E-03 0. -1.
        -11    1    3    3    0    0 -0.18731275909E+01 -0.39656314668E+01 -0.82693304830E+01  0.93603774924E+01  0.51100000000E-03 0.  1.
        -12    1    3    3    0    0 -0.12635432826E+02  0.63983379918E+01 -0.62681821221E+01  0.15488156729E+02  0.00000000000E+00 0.  1.
</event>
<event>
 7    1  0.5541017E-010  0.4778727E+02  0.7816164E-02  0.1312668E+00
        -11   -1    0    0    0    0  0.00000000000E+00  0.00000000000E+00  0.45593999997E+02  0.45594000000E+02  0.51100000000E-03 0.  1.
         11   -1    0    0    0    0 -0.00000000000E+00 -0.00000000000E+00 -0.45593999997E+02  0.45594000000E+02  0.51100000000E-03 0. -1.
    9900012    2    1    2    0    0 -0.20716647255E+02 -0.31305270078E+02 -0.21781272113E+02  0.47787271631E+02  0.20000002674E+02 0.  0.
        -12    1    1    2    0    0  0.20716647255E+02  0.31305270078E+02  0.21781272113E+02  0.43400728369E+02  0.00000000000E+00 0.  1.
         11    1    3    3    0    0 -0.45624190218E+01 -0.97332697171E+01 -0.11862855344E+02  0.16008733363E+02  0.51100000000E-03 0. -1.
        -11    1    3    3    0    0 -0.11363177564E+02 -0.43483764460E+01 -0.55621116703E+01  0.13377864873E+02  0.51100000000E-03 0.  1.
         12    1    3    3    0    0 -0.47910506691E+01 -0.17223623915E+02 -0.43563050982E+01  0.18400673395E+02  0.00000000000E+00 0. -1.
</event>
<event>
 7    1  0.5541017E-010  0.4778727E+02  0.7816164E-02  0.1312668E+00
        -11   -1    0    0    0    0  0.00000000000E+00  0.00000000000E+00  0.45593999997E+02  0.45594000000E+02  0.51100000000E-03 0.  1.
         11   -1    0    0    0    0 -0.00000000000E+00 -0.00000000000E+00 -0.45593999997E+02  0.45594000000E+02  0.51100000000E-03 0. -1.
    9900012    2    1    2    0    0 -0.97991596466E+01 -0.29139912946E+02 -0.30634378665E+02  0.47787271752E+02  0.20000003225E+02 0.  0.
        -12    1    1    2    0    0  0.97991596466E+01  0.29139912946E+02  0.30634378665E+02  0.43400728248E+02  0.00000000000E+00 0.  1.
         11    1    3    3    0    0 -0.84611709555E+01 -0.12775201968E+02 -0.71158773213E+01  0.16894759826E+02  0.51100000000E-03 0. -1.
        -11    1    3    3    0    0  0.92955454857E+00  0.12086972428E+01 -0.10285602270E+00  0.15282670925E+01  0.51100000000E-03 0.  1.
         12    1    3    3    0    0 -0.22675432396E+01 -0.17573408221E+02 -0.23415645321E+02  0.29364244834E+02  0.00000000000E+00 0. -1.
</event>
<event>
 7    1  0.5541017E-010  0.4778727E+02  0.7816164E-02  0.1312668E+00
        -11   -1    0    0    0    0  0.00000000000E+00  0.00000000000E+00  0.45593999997E+02  0.45594000000E+02  0.51100000000E-03 0.  1.
         11   -1    0    0    0    0 -0.00000000000E+00 -0.00000000000E+00 -0.45593999997E+02  0.45594000000E+02  0.51100000000E-03 0. -1.
    9900012    2    1    2    0    0  0.22265803124E+02 -0.13834076117E+02 -0.34590115696E+02  0.47787265506E+02  0.19999974749E+02 0.  0.
        -12    1    1    2    0    0 -0.22265803124E+02  0.13834076117E+02  0.34590115696E+02  0.43400734494E+02  0.00000000000E+00 0.  1.
         11    1    3    3    0    0  0.12436606426E+02 -0.47661808499E+01 -0.78291623739E+01  0.15449318530E+02  0.51100000000E-03 0. -1.
        -11    1    3    3    0    0  0.73106286116E+01 -0.44313314347E+01 -0.49090468943E+01  0.98580287406E+01  0.51100000000E-03 0.  1.
        -12    1    3    3    0    0  0.25185680860E+01 -0.46365638324E+01 -0.21851906428E+02  0.22479918236E+02  0.00000000000E+00 0.  1.
</event>
<event>
 7    1  0.5541017E-010  0.4778726E+02  0.7816164E-02  0.1312668E+00
        -11   -1    0    0    0    0  0.00000000000E+00  0.00000000000E+00  0.45593999997E+02  0.45594000000E+02  0.51100000000E-03 0. -1.
         11   -1    0    0    0    0 -0.00000000000E+00 -0.00000000000E+00 -0.45593999997E+02  0.45594000000E+02  0.51100000000E-03 0.  1.
    9900012    2    1    2    0    0 -0.20987701707E+02 -0.30717114842E+02  0.22351712591E+02  0.47787264719E+02  0.19999971159E+02 0.  0.
        -12    1    1    2    0    0  0.20987701707E+02  0.30717114842E+02 -0.22351712591E+02  0.43400735281E+02  0.00000000000E+00 0.  1.
         11    1    3    3    0    0  0.13945992464E+01 -0.19585199865E+01 -0.10737303509E+01  0.26331738877E+01  0.51100000000E-03 0. -1.
        -11    1    3    3    0    0 -0.41922026545E+01 -0.83266465641E+01  0.29017649842E+00  0.93269399463E+01  0.51100000000E-03 0.  1.
         12    1    3    3    0    0 -0.18190098299E+02 -0.20431948292E+02  0.23135266443E+02  0.35827150885E+02  0.00000000000E+00 0. -1.
</event>
<event>
 7    1  0.5541017E-010  0.4778728E+02  0.7816164E-02  0.1312668E+00
        -11   -1    0    0    0    0  0.00000000000E+00  0.00000000000E+00  0.45593999997E+02  0.45594000000E+02  0.51100000000E-03 0. -1.
         11   -1    0    0    0    0 -0.00000000000E+00 -0.00000000000E+00 -0.45593999997E+02  0.45594000000E+02  0.51100000000E-03 0.  1.
    9900012    2    1    2    0    0 -0.27967979434E+02 -0.94106880452E+01  0.31825356224E+02  0.47787283163E+02  0.20000055255E+02 0.  0.
        -12    1    1    2    0    0  0.27967979434E+02  0.94106880452E+01 -0.31825356224E+02  0.43400716837E+02  0.00000000000E+00 0.  1.
         11    1    3    3    0    0 -0.15888136324E+01 -0.27983472613E+01  0.50110865528E+01  0.59553391888E+01  0.51100000000E-03 0. -1.
        -11    1    3    3    0    0 -0.26803652147E+01 -0.78784532983E+01  0.80387923887E+01  0.11570504198E+02  0.51100000000E-03 0.  1.
         12    1    3    3    0    0 -0.23698800587E+02  0.12661125144E+01  0.18775477283E+02  0.30261439777E+02  0.00000000000E+00 0. -1.
</event>
<event>
 7    1  0.5541017E-010  0.4778728E+02  0.7816164E-02  0.1312668E+00
        -11   -1    0    0    0    0  0.00000000000E+00  0.00000000000E+00  0.45593999997E+02  0.45594000000E+02  0.51100000000E-03 0.  1.
         11   -1    0    0    0    0 -0.00000000000E+00 -0.00000000000E+00 -0.45593999997E+02  0.45594000000E+02  0.51100000000E-03 0. -1.
    9900012    2    1    2    0    0  0.13857088600E+02  0.34066455369E+02 -0.23045186613E+02  0.47787275214E+02  0.20000019010E+02 0.  0.
        -12    1    1    2    0    0 -0.13857088600E+02 -0.34066455369E+02  0.23045186613E+02  0.43400724786E+02  0.00000000000E+00 0.  1.
         11    1    3    3    0    0 -0.98548404619E-03  0.51102618499E+00 -0.15382214567E+01  0.16208868695E+01  0.51100000000E-03 0. -1.
        -11    1    3    3    0    0  0.48980182375E+01  0.79378969289E+01  0.27944335347E+01  0.97370246661E+01  0.51100000000E-03 0.  1.
        -12    1    3    3    0    0  0.89600558470E+01  0.25617532256E+02 -0.24301398691E+02  0.36429363678E+02  0.00000000000E+00 0.  1.
</event>
<event>
 7    1  0.5541017E-010  0.4778727E+02  0.7816164E-02  0.1312668E+00
        -11   -1    0    0    0    0  0.00000000000E+00  0.00000000000E+00  0.45593999997E+02  0.45594000000E+02  0.51100000000E-03 0.  1.
         11   -1    0    0    0    0 -0.00000000000E+00 -0.00000000000E+00 -0.45593999997E+02  0.45594000000E+02  0.51100000000E-03 0. -1.
    9900012    2    1    2    0    0  0.10709204775E+02 -0.39974574981E+02 -0.13075533768E+02  0.47787270799E+02  0.19999998882E+02 0.  0.
        -12    1    1    2    0    0 -0.10709204775E+02  0.39974574981E+02  0.13075533768E+02  0.43400729201E+02  0.00000000000E+00 0.  1.
         11    1    3    3    0    0  0.90441608460E+01 -0.78422088540E+01 -0.24661910566E+01  0.12222077716E+02  0.51100000000E-03 0. -1.
        -11    1    3    3    0    0  0.25997766678E+01 -0.87488068486E+01  0.14454029137E+01  0.92406520246E+01  0.51100000000E-03 0.  1.
         12    1    3    3    0    0 -0.93473273833E+00 -0.23383559278E+02 -0.12054745626E+02  0.26324541058E+02  0.00000000000E+00 0. -1.
</event>
<event>
 7    1  0.5541017E-010  0.4778727E+02  0.7816164E-02  0.1312668E+00
        -11   -1    0    0    0    0  0.00000000000E+00  0.00000000000E+00  0.45593999997E+02  0.45594000000E+02  0.51100000000E-03 0. -1.
         11   -1    0    0    0    0 -0.00000000000E+00 -0.00000000000E+00 -0.45593999997E+02  0.45594000000E+02  0.51100000000E-03 0.  1.
    9900012    2    1    2    0    0 -0.24881474011E+02 -0.32564729558E+02  0.14285448349E+02  0.47787269653E+02  0.19999993656E+02 0.  0.
        -12    1    1    2    0    0  0.24881474011E+02  0.32564729558E+02 -0.14285448349E+02  0.43400730347E+02  0.00000000000E+00 0.  1.
         11    1    3    3    0    0 -0.15967601210E+02 -0.71948807130E+01  0.19948970650E+01  0.17626973973E+02  0.51100000000E-03 0.  1.
        -11    1    3    3    0    0 -0.16637458823E+00 -0.97811375754E+00  0.20871525657E+01  0.23109723321E+01  0.51100000000E-03 0. -1.
         12    1    3    3    0    0 -0.87474982126E+01 -0.24391735088E+02  0.10203398718E+02  0.27849323348E+02  0.00000000000E+00 0. -1.
</event>
<event>
 7    1  0.5541017E-010  0.4778727E+02  0.7816164E-02  0.1312668E+00
        -11   -1    0    0    0    0  0.00000000000E+00  0.00000000000E+00  0.45593999997E+02  0.45594000000E+02  0.51100000000E-03 0.  1.
         11   -1    0    0    0    0 -0.00000000000E+00 -0.00000000000E+00 -0.45593999997E+02  0.45594000000E+02  0.51100000000E-03 0. -1.
    9900012    2    1    2    0    0  0.17449416633E+01  0.43327837258E+02 -0.18102560487E+01  0.47787270400E+02  0.19999997062E+02 0.  0.
        -12    1    1    2    0    0 -0.17449416633E+01 -0.43327837258E+02  0.18102560487E+01  0.43400729600E+02  0.00000000000E+00 0.  1.
         11    1    3    3    0    0 -0.22996171084E+01  0.58542034905E+01 -0.35457594553E+01  0.72202733833E+01  0.51100000000E-03 0. -1.
        -11    1    3    3    0    0  0.73062293394E+01  0.79053622658E+01  0.99066570081E+00  0.10810048959E+02  0.51100000000E-03 0.  1.
         12    1    3    3    0    0 -0.32616705677E+01  0.29568271501E+02  0.74483770578E+00  0.29756948057E+02  0.00000000000E+00 0. -1.
</event>
<event>
 7    1  0.5541017E-010  0.4778723E+02  0.7816164E-02  0.1312668E+00
        -11   -1    0    0    0    0  0.00000000000E+00  0.00000000000E+00  0.45593999997E+02  0.45594000000E+02  0.51100000000E-03 0.  1.
         11   -1    0    0    0    0 -0.00000000000E+00 -0.00000000000E+00 -0.45593999997E+02  0.45594000000E+02  0.51100000000E-03 0. -1.
    9900012    2    1    2    0    0 -0.32876373697E+02 -0.24117320736E+02 -0.14870300681E+02  0.47787228701E+02  0.19999806940E+02 0.  0.
        -12    1    1    2    0    0  0.32876373697E+02  0.24117320736E+02  0.14870300681E+02  0.43400771299E+02  0.00000000000E+00 0.  1.
         11    1    3    3    0    0 -0.24461522683E+01 -0.11970962259E+02 -0.56649296456E+01  0.13467703088E+02  0.51100000000E-03 0. -1.
        -11    1    3    3    0    0 -0.58917196044E+01 -0.13731932373E+01 -0.21843784835E+00  0.60535720792E+01  0.51100000000E-03 0.  1.
         12    1    3    3    0    0 -0.24538501824E+02 -0.10773165240E+02 -0.89869331870E+01  0.28265953534E+02  0.00000000000E+00 0. -1.
</event>
<event>
 7    1  0.5541017E-010  0.4778727E+02  0.7816164E-02  0.1312668E+00
        -11   -1    0    0    0    0  0.00000000000E+00  0.00000000000E+00  0.45593999997E+02  0.45594000000E+02  0.51100000000E-03 0. -1.
         11   -1    0    0    0    0 -0.00000000000E+00 -0.00000000000E+00 -0.45593999997E+02  0.45594000000E+02  0.51100000000E-03 0.  1.
    9900012    2    1    2    0    0  0.35170718880E+02  0.23172719743E+02  0.10472299619E+02  0.47787268829E+02  0.19999989900E+02 0.  0.
        -12    1    1    2    0    0 -0.35170718880E+02 -0.23172719743E+02 -0.10472299619E+02  0.43400731171E+02  0.00000000000E+00 0.  1.
         11    1    3    3    0    0  0.32461232979E+01  0.23979539531E+01 -0.24674092703E+01  0.47302862910E+01  0.51100000000E-03 0. -1.
        -11    1    3    3    0    0  0.23811284234E-01 -0.12475189629E+01  0.26832186509E+01  0.29591439859E+01  0.51100000000E-03 0.  1.
         12    1    3    3    0    0  0.31900784298E+02  0.22022284753E+02  0.10256490238E+02  0.40097838552E+02  0.00000000000E+00 0. -1.
</event>
<event>
 7    1  0.5541017E-010  0.4778728E+02  0.7816164E-02  0.1312668E+00
        -11   -1    0    0    0    0  0.00000000000E+00  0.00000000000E+00  0.45593999997E+02  0.45594000000E+02  0.51100000000E-03 0.  1.
         11   -1    0    0    0    0 -0.00000000000E+00 -0.00000000000E+00 -0.45593999997E+02  0.45594000000E+02  0.51100000000E-03 0. -1.
    9900012    2    1    2    0    0 -0.19394988895E+02  0.37940089682E+01 -0.38640167264E+02  0.47787278526E+02  0.20000034110E+02 0.  0.
        -12    1    1    2    0    0  0.19394988895E+02 -0.37940089682E+01  0.38640167264E+02  0.43400721474E+02  0.00000000000E+00 0.  1.
         11    1    3    3    0    0 -0.99648267302E+01  0.34242816617E+01 -0.90042933085E+01  0.13860042385E+02  0.51100000000E-03 0. -1.
        -11    1    3    3    0    0 -0.70261312557E+01  0.66935623719E+01 -0.18696396606E+02  0.21064793945E+02  0.51100000000E-03 0.  1.
        -12    1    3    3    0    0 -0.24040309090E+01 -0.63238350654E+01 -0.10939477350E+02  0.12862442196E+02  0.00000000000E+00 0.  1.
</event>
<event>
 7    1  0.5541017E-010  0.4778727E+02  0.7816164E-02  0.1312668E+00
        -11   -1    0    0    0    0  0.00000000000E+00  0.00000000000E+00  0.45593999997E+02  0.45594000000E+02  0.51100000000E-03 0.  1.
         11   -1    0    0    0    0 -0.00000000000E+00 -0.00000000000E+00 -0.45593999997E+02  0.45594000000E+02  0.51100000000E-03 0. -1.
    9900012    2    1    2    0    0 -0.29165309840E+01 -0.40333512323E+02 -0.15758331683E+02  0.47787269745E+02  0.19999994073E+02 0.  0.
        -12    1    1    2    0    0  0.29165309840E+01  0.40333512323E+02  0.15758331683E+02  0.43400730255E+02  0.00000000000E+00 0.  1.
         11    1    3    3    0    0 -0.24401432948E+01 -0.19393841593E+00 -0.82310000719E+00  0.25825191754E+01  0.51100000000E-03 0. -1.
        -11    1    3    3    0    0  0.10858984474E+01 -0.49815225408E+01  0.27774179006E+01  0.58059273779E+01  0.51100000000E-03 0.  1.
         12    1    3    3    0    0 -0.15622861365E+01 -0.35158051366E+02 -0.17712649577E+02  0.39398823191E+02  0.00000000000E+00 0. -1.
</event>
<event>
 7    1  0.5541017E-010  0.4778727E+02  0.7816164E-02  0.1312668E+00
        -11   -1    0    0    0    0  0.00000000000E+00  0.00000000000E+00  0.45593999997E+02  0.45594000000E+02  0.51100000000E-03 0.  1.
         11   -1    0    0    0    0 -0.00000000000E+00 -0.00000000000E+00 -0.45593999997E+02  0.45594000000E+02  0.51100000000E-03 0. -1.
    9900012    2    1    2    0    0 -0.13445347561E+02  0.36322896455E+02 -0.19582983468E+02  0.47787269368E+02  0.19999992355E+02 0.  0.
        -12    1    1    2    0    0  0.13445347561E+02 -0.36322896455E+02  0.19582983468E+02  0.43400730632E+02  0.00000000000E+00 0.  1.
         11    1    3    3    0    0 -0.98406537669E+01  0.53146404822E+01 -0.99170017830E+00  0.11227971300E+02  0.51100000000E-03 0. -1.
        -11    1    3    3    0    0  0.90867580145E+00  0.48327151903E+01 -0.28711860872E+01  0.56942547916E+01  0.51100000000E-03 0.  1.
         12    1    3    3    0    0 -0.45133695954E+01  0.26175540783E+02 -0.15720097202E+02  0.30865043276E+02  0.00000000000E+00 0. -1.
</event>
<event>
 7    1  0.7352580E-010  0.4778727E+02  0.7816164E-02  0.1312668E+00
        -11   -1    0    0    0    0  0.00000000000E+00  0.00000000000E+00  0.45593999997E+02  0.45594000000E+02  0.51100000000E-03 0. -1.
         11   -1    0    0    0    0 -0.00000000000E+00 -0.00000000000E+00 -0.45593999997E+02  0.45594000000E+02  0.51100000000E-03 0.  1.
    9900012    2    1    2    0    0  0.26917803718E+02 -0.33239755994E+02 -0.73603138598E+01  0.47787265495E+02  0.19999974696E+02 0.  0.
        -12    1    1    2    0    0 -0.26917803718E+02  0.33239755994E+02  0.73603138598E+01  0.43400734505E+02  0.00000000000E+00 0.  1.
         11    1    3    3    0    0  0.16508338306E+02 -0.12770583093E+02 -0.45241023881E-01  0.20871393657E+02  0.51100000000E-03 0. -1.
        -11    1    3    3    0    0  0.11836381966E+02 -0.12733753078E+02 -0.77574804091E+01  0.19037513179E+02  0.51100000000E-03 0.  1.
        -12    1    3    3    0    0 -0.14269165548E+01 -0.77354198227E+01  0.44240757315E+00  0.78783586582E+01  0.00000000000E+00 0.  1.
</event>
<event>
 7    1  0.5541017E-010  0.4778726E+02  0.7816164E-02  0.1312668E+00
        -11   -1    0    0    0    0  0.00000000000E+00  0.00000000000E+00  0.45593999997E+02  0.45594000000E+02  0.51100000000E-03 0.  1.
         11   -1    0    0    0    0 -0.00000000000E+00 -0.00000000000E+00 -0.45593999997E+02  0.45594000000E+02  0.51100000000E-03 0. -1.
    9900012    2    1    2    0    0  0.10607957375E+02 -0.13441754200E+02 -0.39879999150E+02  0.47787264432E+02  0.19999969852E+02 0.  0.
        -12    1    1    2    0    0 -0.10607957375E+02  0.13441754200E+02  0.39879999150E+02  0.43400735568E+02  0.00000000000E+00 0.  1.
         11    1    3    3    0    0  0.88067096943E-01  0.11835227707E+01 -0.98242575300E+01  0.98956817976E+01  0.51100000000E-03 0.  1.
        -11    1    3    3    0    0  0.70057284261E+01 -0.20335604327E+01 -0.30866381507E+01  0.79210437537E+01  0.51100000000E-03 0. -1.
         12    1    3    3    0    0  0.35141618522E+01 -0.12591716538E+02 -0.26969103469E+02  0.29970538881E+02  0.00000000000E+00 0. -1.
</event>
<event>
 7    1  0.5541017E-010  0.4778727E+02  0.7816164E-02  0.1312668E+00
        -11   -1    0    0    0    0  0.00000000000E+00  0.00000000000E+00  0.45593999997E+02  0.45594000000E+02  0.51100000000E-03 0.  1.
         11   -1    0    0    0    0 -0.00000000000E+00 -0.00000000000E+00 -0.45593999997E+02  0.45594000000E+02  0.51100000000E-03 0. -1.
    9900012    2    1    2    0    0 -0.22600973020E+01  0.23215512168E+02 -0.36599934211E+02  0.47787271558E+02  0.20000002341E+02 0.  0.
        -12    1    1    2    0    0  0.22600973020E+01 -0.23215512168E+02  0.36599934211E+02  0.43400728442E+02  0.00000000000E+00 0.  1.
         11    1    3    3    0    0  0.43628069355E+01  0.42589242100E+01 -0.17305238773E+02  0.18347855707E+02  0.51100000000E-03 0. -1.
        -11    1    3    3    0    0 -0.42508492129E+01  0.68819353921E+01 -0.13726957479E+02  0.15932988284E+02  0.51100000000E-03 0.  1.
         12    1    3    3    0    0 -0.23720550246E+01  0.12074652566E+02 -0.55677379587E+01  0.13506427566E+02  0.00000000000E+00 0. -1.
</event>
<event>
 7    1  0.5541017E-010  0.4778726E+02  0.7816164E-02  0.1312668E+00
        -11   -1    0    0    0    0  0.00000000000E+00  0.00000000000E+00  0.45593999997E+02  0.45594000000E+02  0.51100000000E-03 0.  1.
         11   -1    0    0    0    0 -0.00000000000E+00 -0.00000000000E+00 -0.45593999997E+02  0.45594000000E+02  0.51100000000E-03 0. -1.
    9900012    2    1    2    0    0 -0.17046957026E+02  0.15558023545E+02 -0.36755584865E+02  0.47787264301E+02  0.19999969252E+02 0.  0.
        -12    1    1    2    0    0  0.17046957026E+02 -0.15558023545E+02  0.36755584865E+02  0.43400735699E+02  0.00000000000E+00 0.  1.
         11    1    3    3    0    0 -0.39821061948E+01  0.72714700537E+01 -0.14653349220E+02  0.16836035463E+02  0.51100000000E-03 0. -1.
        -11    1    3    3    0    0 -0.72522773727E+01  0.24871009992E+01 -0.32086046340E+00  0.76736008607E+01  0.51100000000E-03 0.  1.
        -12    1    3    3    0    0 -0.58125734589E+01  0.57994524920E+01 -0.21781375181E+02  0.23277627976E+02  0.00000000000E+00 0.  1.
</event>
<event>
 7    1  0.5541017E-010  0.4778728E+02  0.7816164E-02  0.1312668E+00
        -11   -1    0    0    0    0  0.00000000000E+00  0.00000000000E+00  0.45593999997E+02  0.45594000000E+02  0.51100000000E-03 0.  1.
         11   -1    0    0    0    0 -0.00000000000E+00 -0.00000000000E+00 -0.45593999997E+02  0.45594000000E+02  0.51100000000E-03 0. -1.
    9900012    2    1    2    0    0  0.32944998809E+02  0.32838838552E+01 -0.28061820533E+02  0.47787278677E+02  0.20000034799E+02 0.  0.
        -12    1    1    2    0    0 -0.32944998809E+02 -0.32838838552E+01  0.28061820533E+02  0.43400721323E+02  0.00000000000E+00 0.  1.
         11    1    3    3    0    0  0.18028247953E+02 -0.62487225347E+01 -0.15697812616E+02  0.24708006370E+02  0.51100000000E-03 0. -1.
        -11    1    3    3    0    0  0.31073773477E+01  0.58527691162E+00  0.79808939469E+00  0.32611792327E+01  0.51100000000E-03 0.  1.
         12    1    3    3    0    0  0.11809373508E+02  0.89473294783E+01 -0.13162097312E+02  0.19818093075E+02  0.00000000000E+00 0. -1.
</event>
<event>
 7    1  0.5541017E-010  0.4778727E+02  0.7816164E-02  0.1312668E+00
        -11   -1    0    0    0    0  0.00000000000E+00  0.00000000000E+00  0.45593999997E+02  0.45594000000E+02  0.51100000000E-03 0.  1.
         11   -1    0    0    0    0 -0.00000000000E+00 -0.00000000000E+00 -0.45593999997E+02  0.45594000000E+02  0.51100000000E-03 0. -1.
    9900012    2    1    2    0    0  0.38710457830E+02 -0.14524232146E+02  0.13197360524E+02  0.47787272015E+02  0.20000004425E+02 0.  0.
        -12    1    1    2    0    0 -0.38710457830E+02  0.14524232146E+02 -0.13197360524E+02  0.43400727985E+02  0.00000000000E+00 0.  1.
         11    1    3    3    0    0  0.88175625873E+01 -0.53742653973E+01 -0.12489713604E+01  0.10401541629E+02  0.51100000000E-03 0. -1.
        -11    1    3    3    0    0  0.21643259049E+02 -0.13136809708E+02  0.10746246478E+02  0.27504331389E+02  0.51100000000E-03 0.  1.
        -12    1    3    3    0    0  0.82496361940E+01  0.39868429594E+01  0.37000854063E+01  0.98813989966E+01  0.00000000000E+00 0.  1.
</event>
<event>
 7    1  0.5541017E-010  0.4778727E+02  0.7816164E-02  0.1312668E+00
        -11   -1    0    0    0    0  0.00000000000E+00  0.00000000000E+00  0.45593999997E+02  0.45594000000E+02  0.51100000000E-03 0.  1.
         11   -1    0    0    0    0 -0.00000000000E+00 -0.00000000000E+00 -0.45593999997E+02  0.45594000000E+02  0.51100000000E-03 0. -1.
    9900012    2    1    2    0    0  0.70255356138E+01  0.29082130519E+02 -0.31440333522E+02  0.47787273760E+02  0.20000012381E+02 0.  0.
        -12    1    1    2    0    0 -0.70255356138E+01 -0.29082130519E+02  0.31440333522E+02  0.43400726240E+02  0.00000000000E+00 0.  1.
         11    1    3    3    0    0 -0.24058250126E+01  0.87814139977E+01 -0.78195296802E+01  0.12001927781E+02  0.51100000000E-03 0. -1.
        -11    1    3    3    0    0 -0.30744699240E+01  0.66603522156E+01 -0.11577975747E+02  0.13706282487E+02  0.51100000000E-03 0.  1.
         12    1    3    3    0    0  0.12505830550E+02  0.13640364306E+02 -0.12042828095E+02  0.22079063492E+02  0.00000000000E+00 0. -1.
</event>
<event>
 7    1  0.5541017E-010  0.4778726E+02  0.7816164E-02  0.1312668E+00
        -11   -1    0    0    0    0  0.00000000000E+00  0.00000000000E+00  0.45593999997E+02  0.45594000000E+02  0.51100000000E-03 0. -1.
         11   -1    0    0    0    0 -0.00000000000E+00 -0.00000000000E+00 -0.45593999997E+02  0.45594000000E+02  0.51100000000E-03 0.  1.
    9900012    2    1    2    0    0 -0.20558550645E+02 -0.31680674546E+02  0.21384687002E+02  0.47787262881E+02  0.19999962778E+02 0.  0.
        -12    1    1    2    0    0  0.20558550645E+02  0.31680674546E+02 -0.21384687002E+02  0.43400737119E+02  0.00000000000E+00 0.  1.
         11    1    3    3    0    0  0.14245645128E+01 -0.71094967105E+01  0.14745638182E+01  0.73992341660E+01  0.51100000000E-03 0.  1.
        -11    1    3    3    0    0 -0.84854332810E+01 -0.59847404421E+01  0.63709206774E+00  0.10403152536E+02  0.51100000000E-03 0. -1.
         12    1    3    3    0    0 -0.13497681877E+02 -0.18586437393E+02  0.19273031117E+02  0.29984876179E+02  0.00000000000E+00 0. -1.
</event>
<event>
 7    1  0.5541017E-010  0.4778727E+02  0.7816164E-02  0.1312668E+00
        -11   -1    0    0    0    0  0.00000000000E+00  0.00000000000E+00  0.45593999997E+02  0.45594000000E+02  0.51100000000E-03 0.  1.
         11   -1    0    0    0    0 -0.00000000000E+00 -0.00000000000E+00 -0.45593999997E+02  0.45594000000E+02  0.51100000000E-03 0. -1.
    9900012    2    1    2    0    0 -0.27248682674E+02  0.25864245325E+02 -0.21729547647E+02  0.47787272649E+02  0.20000007314E+02 0.  0.
        -12    1    1    2    0    0  0.27248682674E+02 -0.25864245325E+02  0.21729547647E+02  0.43400727351E+02  0.00000000000E+00 0.  1.
         11    1    3    3    0    0 -0.11595071392E+02  0.65733496368E+01  0.14571142500E+01  0.13408123964E+02  0.51100000000E-03 0.  1.
        -11    1    3    3    0    0 -0.66433426438E+01  0.86469714360E+01 -0.67536408338E+01  0.12826370542E+02  0.51100000000E-03 0. -1.
        -12    1    3    3    0    0 -0.90102686379E+01  0.10643924252E+02 -0.16433021063E+02  0.21552778143E+02  0.00000000000E+00 0.  1.
</event>
<event>
 7    1  0.5541017E-010  0.4778727E+02  0.7816164E-02  0.1312668E+00
        -11   -1    0    0    0    0  0.00000000000E+00  0.00000000000E+00  0.45593999997E+02  0.45594000000E+02  0.51100000000E-03 0.  1.
         11   -1    0    0    0    0 -0.00000000000E+00 -0.00000000000E+00 -0.45593999997E+02  0.45594000000E+02  0.51100000000E-03 0. -1.
    9900012    2    1    2    0    0  0.16604556922E+02  0.33192458598E+02 -0.22498276868E+02  0.47787273274E+02  0.20000010164E+02 0.  0.
        -12    1    1    2    0    0 -0.16604556922E+02 -0.33192458598E+02  0.22498276868E+02  0.43400726726E+02  0.00000000000E+00 0.  1.
         11    1    3    3    0    0  0.57944075487E+01  0.12739795215E+02 -0.16088697757E+02  0.21324252314E+02  0.51100000000E-03 0. -1.
        -11    1    3    3    0    0  0.92538173717E+01  0.19401648400E+02 -0.89663910374E+01  0.23290626120E+02  0.51100000000E-03 0.  1.
        -12    1    3    3    0    0  0.15563320014E+01  0.10510149824E+01  0.25568119262E+01  0.31723948395E+01  0.00000000000E+00 0.  1.
</event>
<event>
 7    1  0.5541017E-010  0.4778727E+02  0.7816164E-02  0.1312668E+00
        -11   -1    0    0    0    0  0.00000000000E+00  0.00000000000E+00  0.45593999997E+02  0.45594000000E+02  0.51100000000E-03 0.  1.
         11   -1    0    0    0    0 -0.00000000000E+00 -0.00000000000E+00 -0.45593999997E+02  0.45594000000E+02  0.51100000000E-03 0. -1.
    9900012    2    1    2    0    0  0.14300220941E+02  0.22059843135E+02 -0.34532451802E+02  0.47787271601E+02  0.20000002539E+02 0.  0.
        -12    1    1    2    0    0 -0.14300220941E+02 -0.22059843135E+02  0.34532451802E+02  0.43400728399E+02  0.00000000000E+00 0.  1.
         11    1    3    3    0    0 -0.19044010924E+01  0.13799487260E+01 -0.86659245724E+01  0.89793792081E+01  0.51100000000E-03 0.  1.
        -11    1    3    3    0    0  0.27776390451E+00  0.65788598691E+01 -0.11123024670E+02  0.12925951727E+02  0.51100000000E-03 0. -1.
        -12    1    3    3    0    0  0.15926858129E+02  0.14101034540E+02 -0.14743502559E+02  0.25881940666E+02  0.00000000000E+00 0.  1.
</event>
<event>
 7    1  0.5541017E-010  0.4778725E+02  0.7816164E-02  0.1312668E+00
        -11   -1    0    0    0    0  0.00000000000E+00  0.00000000000E+00  0.45593999997E+02  0.45594000000E+02  0.51100000000E-03 0.  1.
         11   -1    0    0    0    0 -0.00000000000E+00 -0.00000000000E+00 -0.45593999997E+02  0.45594000000E+02  0.51100000000E-03 0. -1.
    9900012    2    1    2    0    0 -0.18476690111E+02 -0.39812203240E+01 -0.39069001114E+02  0.47787250689E+02  0.19999907189E+02 0.  0.
        -12    1    1    2    0    0  0.18476690111E+02  0.39812203240E+01  0.39069001114E+02  0.43400749311E+02  0.00000000000E+00 0.  1.
         11    1    3    3    0    0 -0.17037273675E+01  0.23890816103E+01 -0.80199270794E+01  0.85398845721E+01  0.51100000000E-03 0. -1.
        -11    1    3    3    0    0 -0.15105513893E+01  0.35916051758E+01 -0.13099744838E+02  0.13666920220E+02  0.51100000000E-03 0.  1.
        -12    1    3    3    0    0 -0.15262411354E+02 -0.99619071102E+01 -0.17949329197E+02  0.25580445896E+02  0.00000000000E+00 0.  1.
</event>
<event>
 7    1  0.5541017E-010  0.4778727E+02  0.7816164E-02  0.1312668E+00
        -11   -1    0    0    0    0  0.00000000000E+00  0.00000000000E+00  0.45593999997E+02  0.45594000000E+02  0.51100000000E-03 0. -1.
         11   -1    0    0    0    0 -0.00000000000E+00 -0.00000000000E+00 -0.45593999997E+02  0.45594000000E+02  0.51100000000E-03 0.  1.
    9900012    2    1    2    0    0 -0.36211765322E+02  0.23920498962E+02  0.37548452303E+00  0.47787271816E+02  0.20000003517E+02 0.  0.
        -12    1    1    2    0    0  0.36211765322E+02 -0.23920498962E+02 -0.37548452303E+00  0.43400728184E+02  0.00000000000E+00 0.  1.
         11    1    3    3    0    0 -0.23429920612E+02  0.15126635991E+02  0.74096335048E+01  0.28856177246E+02  0.51100000000E-03 0. -1.
        -11    1    3    3    0    0 -0.12633851233E+01  0.41336594638E+01  0.57556890091E+00  0.43605690400E+01  0.51100000000E-03 0.  1.
        -12    1    3    3    0    0 -0.11518459586E+02  0.46602035074E+01 -0.76097178827E+01  0.14570525530E+02  0.00000000000E+00 0.  1.
</event>
<event>
 7    1  0.5541017E-010  0.4778727E+02  0.7816164E-02  0.1312668E+00
        -11   -1    0    0    0    0  0.00000000000E+00  0.00000000000E+00  0.45593999997E+02  0.45594000000E+02  0.51100000000E-03 0.  1.
         11   -1    0    0    0    0 -0.00000000000E+00 -0.00000000000E+00 -0.45593999997E+02  0.45594000000E+02  0.51100000000E-03 0. -1.
    9900012    2    1    2    0    0  0.31942173161E+02 -0.29198528035E+02 -0.32812947030E+01  0.47787270045E+02  0.19999995445E+02 0.  0.
        -12    1    1    2    0    0 -0.31942173161E+02  0.29198528035E+02  0.32812947030E+01  0.43400729955E+02  0.00000000000E+00 0.  1.
         11    1    3    3    0    0  0.12284497800E+02 -0.12259291180E+02 -0.57597884315E+01  0.18285903573E+02  0.51100000000E-03 0. -1.
        -11    1    3    3    0    0  0.99675704684E+01 -0.69364940455E+01 -0.56309831196E+01  0.13385640883E+02  0.51100000000E-03 0.  1.
        -12    1    3    3    0    0  0.96901048928E+01 -0.10002742809E+02  0.81094768481E+01  0.16115725590E+02  0.00000000000E+00 0.  1.
</event>
<event>
 7    1  0.5541017E-010  0.4778727E+02  0.7816164E-02  0.1312668E+00
        -11   -1    0    0    0    0  0.00000000000E+00  0.00000000000E+00  0.45593999997E+02  0.45594000000E+02  0.51100000000E-03 0. -1.
         11   -1    0    0    0    0 -0.00000000000E+00 -0.00000000000E+00 -0.45593999997E+02  0.45594000000E+02  0.51100000000E-03 0.  1.
    9900012    2    1    2    0    0 -0.16155907142E+02 -0.26099118586E+02  0.30682994827E+02  0.47787268461E+02  0.19999988222E+02 0.  0.
        -12    1    1    2    0    0  0.16155907142E+02  0.26099118586E+02 -0.30682994827E+02  0.43400731539E+02  0.00000000000E+00 0.  1.
         11    1    3    3    0    0 -0.28267580407E+00 -0.20929776983E+01  0.95305290189E+01  0.97617337034E+01  0.51100000000E-03 0. -1.
        -11    1    3    3    0    0  0.22655881388E+01 -0.30555848000E+01  0.16916093918E+01  0.41630554501E+01  0.51100000000E-03 0.  1.
         12    1    3    3    0    0 -0.18138819477E+02 -0.20950556088E+02  0.19460856416E+02  0.33862479308E+02  0.00000000000E+00 0. -1.
</event>
<event>
 7    1  0.5541017E-010  0.4778727E+02  0.7816164E-02  0.1312668E+00
        -11   -1    0    0    0    0  0.00000000000E+00  0.00000000000E+00  0.45593999997E+02  0.45594000000E+02  0.51100000000E-03 0.  1.
         11   -1    0    0    0    0 -0.00000000000E+00 -0.00000000000E+00 -0.45593999997E+02  0.45594000000E+02  0.51100000000E-03 0. -1.
    9900012    2    1    2    0    0 -0.13874810064E+02  0.39710146073E+02 -0.10687244408E+02  0.47787271337E+02  0.20000001332E+02 0.  0.
        -12    1    1    2    0    0  0.13874810064E+02 -0.39710146073E+02  0.10687244408E+02  0.43400728663E+02  0.00000000000E+00 0.  1.
         11    1    3    3    0    0 -0.20185334060E+01  0.28015526825E+02 -0.55488798014E+01  0.28631002212E+02  0.51100000000E-03 0. -1.
        -11    1    3    3    0    0 -0.61664326796E+01  0.10142881584E+02 -0.58183809889E+01  0.13219549781E+02  0.51100000000E-03 0.  1.
        -12    1    3    3    0    0 -0.56898439789E+01  0.15517376649E+01  0.68001638216E+00  0.59367193436E+01  0.00000000000E+00 0.  1.
</event>
<event>
 7    1  0.5541017E-010  0.4778727E+02  0.7816164E-02  0.1312668E+00
        -11   -1    0    0    0    0  0.00000000000E+00  0.00000000000E+00  0.45593999997E+02  0.45594000000E+02  0.51100000000E-03 0.  1.
         11   -1    0    0    0    0 -0.00000000000E+00 -0.00000000000E+00 -0.45593999997E+02  0.45594000000E+02  0.51100000000E-03 0. -1.
    9900012    2    1    2    0    0  0.10448776027E+02  0.19799320442E+02 -0.37181083152E+02  0.47787274721E+02  0.20000016762E+02 0.  0.
        -12    1    1    2    0    0 -0.10448776027E+02 -0.19799320442E+02  0.37181083152E+02  0.43400725279E+02  0.00000000000E+00 0.  1.
         11    1    3    3    0    0 -0.16374657951E+01  0.90333247822E+01 -0.99659838460E+01  0.13550021592E+02  0.51100000000E-03 0. -1.
        -11    1    3    3    0    0  0.69187389298E+01  0.12003564308E+02 -0.12755939034E+02  0.18832644142E+02  0.51100000000E-03 0.  1.
         12    1    3    3    0    0  0.51675028921E+01 -0.12375686482E+01 -0.14459160272E+02  0.15404608987E+02  0.00000000000E+00 0. -1.
</event>
<event>
 7    1  0.5541017E-010  0.4778726E+02  0.7816164E-02  0.1312668E+00
        -11   -1    0    0    0    0  0.00000000000E+00  0.00000000000E+00  0.45593999997E+02  0.45594000000E+02  0.51100000000E-03 0. -1.
         11   -1    0    0    0    0 -0.00000000000E+00 -0.00000000000E+00 -0.45593999997E+02  0.45594000000E+02  0.51100000000E-03 0.  1.
    9900012    2    1    2    0    0  0.11296481977E+02 -0.18086400490E+02  0.37800736392E+02  0.47787261993E+02  0.19999958733E+02 0.  0.
        -12    1    1    2    0    0 -0.11296481977E+02  0.18086400490E+02 -0.37800736392E+02  0.43400738007E+02  0.00000000000E+00 0.  1.
         11    1    3    3    0    0 -0.44356844657E+01 -0.34134019188E+01  0.29595308714E+01  0.63313057562E+01  0.51100000000E-03 0. -1.
        -11    1    3    3    0    0  0.11036890178E+01 -0.92027923543E+00  0.24808096812E+00  0.14582824648E+01  0.51100000000E-03 0.  1.
        -12    1    3    3    0    0  0.14628477424E+02 -0.13752719335E+02  0.34593124553E+02  0.39997673772E+02  0.00000000000E+00 0.  1.
</event>
<event>
 7    1  0.5541017E-010  0.4778727E+02  0.7816164E-02  0.1312668E+00
        -11   -1    0    0    0    0  0.00000000000E+00  0.00000000000E+00  0.45593999997E+02  0.45594000000E+02  0.51100000000E-03 0. -1.
         11   -1    0    0    0    0 -0.00000000000E+00 -0.00000000000E+00 -0.45593999997E+02  0.45594000000E+02  0.51100000000E-03 0.  1.
    9900012    2    1    2    0    0 -0.42717777628E+02  0.76648423700E+01  0.25499321681E+00  0.47787270103E+02  0.19999995708E+02 0.  0.
        -12    1    1    2    0    0  0.42717777628E+02 -0.76648423700E+01 -0.25499321681E+00  0.43400729897E+02  0.00000000000E+00 0.  1.
         11    1    3    3    0    0 -0.26852326869E+01 -0.41497573788E+00  0.22517729700E+00  0.27264233938E+01  0.51100000000E-03 0. -1.
        -11    1    3    3    0    0 -0.37248963322E+01  0.56315543826E+01 -0.48940716558E+01  0.83391363511E+01  0.51100000000E-03 0.  1.
        -12    1    3    3    0    0 -0.36307648609E+02  0.24482637253E+01  0.49238875756E+01  0.36721710358E+02  0.00000000000E+00 0.  1.
</event>
<event>
 7    1  0.5541017E-010  0.4778727E+02  0.7816164E-02  0.1312668E+00
        -11   -1    0    0    0    0  0.00000000000E+00  0.00000000000E+00  0.45593999997E+02  0.45594000000E+02  0.51100000000E-03 0.  1.
         11   -1    0    0    0    0 -0.00000000000E+00 -0.00000000000E+00 -0.45593999997E+02  0.45594000000E+02  0.51100000000E-03 0. -1.
    9900012    2    1    2    0    0  0.38788964637E+02  0.25103798563E+01 -0.19306415654E+02  0.47787268784E+02  0.19999989695E+02 0.  0.
        -12    1    1    2    0    0 -0.38788964637E+02 -0.25103798563E+01  0.19306415654E+02  0.43400731216E+02  0.00000000000E+00 0.  1.
         11    1    3    3    0    0  0.14831083603E+02 -0.51055301271E+01 -0.15491054689E+02  0.22045413454E+02  0.51100000000E-03 0. -1.
        -11    1    3    3    0    0  0.67186426221E+01  0.30061279620E+00 -0.78232112800E+00  0.67707129126E+01  0.51100000000E-03 0.  1.
        -12    1    3    3    0    0  0.17239238412E+02  0.73152971872E+01 -0.30330398366E+01  0.18971142417E+02  0.00000000000E+00 0.  1.
</event>
<event>
 7    1  0.5541017E-010  0.4778727E+02  0.7816164E-02  0.1312668E+00
        -11   -1    0    0    0    0  0.00000000000E+00  0.00000000000E+00  0.45593999997E+02  0.45594000000E+02  0.51100000000E-03 0. -1.
         11   -1    0    0    0    0 -0.00000000000E+00 -0.00000000000E+00 -0.45593999997E+02  0.45594000000E+02  0.51100000000E-03 0.  1.
    9900012    2    1    2    0    0 -0.24590917863E+02 -0.34448430451E+02 -0.96028934546E+01  0.47787272304E+02  0.20000005742E+02 0.  0.
        -12    1    1    2    0    0  0.24590917863E+02  0.34448430451E+02  0.96028934546E+01  0.43400727696E+02  0.00000000000E+00 0.  1.
         11    1    3    3    0    0 -0.18701364528E+02 -0.19617389424E+02 -0.44591774890E+01  0.27467567550E+02  0.51100000000E-03 0. -1.
        -11    1    3    3    0    0 -0.69213568872E+01 -0.11510480678E+02  0.77679487472E+00  0.13453615021E+02  0.51100000000E-03 0.  1.
        -12    1    3    3    0    0  0.10318035522E+01 -0.33205603492E+01 -0.59205108403E+01  0.68660897324E+01  0.00000000000E+00 0.  1.
</event>
<event>
 7    1  0.5541017E-010  0.4778728E+02  0.7816164E-02  0.1312668E+00
        -11   -1    0    0    0    0  0.00000000000E+00  0.00000000000E+00  0.45593999997E+02  0.45594000000E+02  0.51100000000E-03 0. -1.
         11   -1    0    0    0    0 -0.00000000000E+00 -0.00000000000E+00 -0.45593999997E+02  0.45594000000E+02  0.51100000000E-03 0.  1.
    9900012    2    1    2    0    0  0.29350247336E+02 -0.80412343196E+01  0.30943891509E+02  0.47787275470E+02  0.20000020177E+02 0.  0.
        -12    1    1    2    0    0 -0.29350247336E+02  0.80412343196E+01 -0.30943891509E+02  0.43400724530E+02  0.00000000000E+00 0.  1.
         11    1    3    3    0    0  0.84764493552E+01 -0.27119033923E+01  0.19200594820E+02  0.21162879184E+02  0.51100000000E-03 0. -1.
        -11    1    3    3    0    0  0.70800592286E+01 -0.67097530737E+01  0.68670440071E+01  0.11929137381E+02  0.51100000000E-03 0.  1.
        -12    1    3    3    0    0  0.13793738752E+02  0.13804221465E+01  0.48762526819E+01  0.14695258905E+02  0.00000000000E+00 0.  1.
</event>
<event>
 7    1  0.5541017E-010  0.4778727E+02  0.7816164E-02  0.1312668E+00
        -11   -1    0    0    0    0  0.00000000000E+00  0.00000000000E+00  0.45593999997E+02  0.45594000000E+02  0.51100000000E-03 0. -1.
         11   -1    0    0    0    0 -0.00000000000E+00 -0.00000000000E+00 -0.45593999997E+02  0.45594000000E+02  0.51100000000E-03 0.  1.
    9900012    2    1    2    0    0 -0.39026172147E+02  0.14281804772E+02 -0.12514431301E+02  0.47787273615E+02  0.20000011718E+02 0.  0.
        -12    1    1    2    0    0  0.39026172147E+02 -0.14281804772E+02  0.12514431301E+02  0.43400726385E+02  0.00000000000E+00 0.  1.
         11    1    3    3    0    0 -0.34317261828E+00  0.36926956232E+01 -0.21308197019E+01  0.42771674359E+01  0.51100000000E-03 0.  1.
        -11    1    3    3    0    0 -0.17747912296E+02  0.10039258679E+02 -0.61067140300E+00  0.20399706505E+02  0.51100000000E-03 0. -1.
         12    1    3    3    0    0 -0.20935087233E+02  0.54985047017E+00 -0.97729401956E+01  0.23110399673E+02  0.00000000000E+00 0. -1.
</event>
<event>
 7    1  0.5541017E-010  0.4778728E+02  0.7816164E-02  0.1312668E+00
        -11   -1    0    0    0    0  0.00000000000E+00  0.00000000000E+00  0.45593999997E+02  0.45594000000E+02  0.51100000000E-03 0.  1.
         11   -1    0    0    0    0 -0.00000000000E+00 -0.00000000000E+00 -0.45593999997E+02  0.45594000000E+02  0.51100000000E-03 0. -1.
    9900012    2    1    2    0    0 -0.34989383881E+02 -0.20022438515E+02 -0.16076935607E+02  0.47787275502E+02  0.20000020324E+02 0.  0.
        -12    1    1    2    0    0  0.34989383881E+02  0.20022438515E+02  0.16076935607E+02  0.43400724498E+02  0.00000000000E+00 0.  1.
         11    1    3    3    0    0 -0.77882389455E+01 -0.14866495588E+01 -0.68205737532E-01  0.79291515982E+01  0.51100000000E-03 0. -1.
        -11    1    3    3    0    0 -0.64484170997E+01  0.23457474489E+01 -0.47177864650E+01  0.83271918181E+01  0.51100000000E-03 0.  1.
        -12    1    3    3    0    0 -0.20752727836E+02 -0.20881536405E+02 -0.11290943404E+02  0.31530932086E+02  0.00000000000E+00 0.  1.
</event>
<event>
 7    1  0.5541017E-010  0.4778727E+02  0.7816164E-02  0.1312668E+00
        -11   -1    0    0    0    0  0.00000000000E+00  0.00000000000E+00  0.45593999997E+02  0.45594000000E+02  0.51100000000E-03 0.  1.
         11   -1    0    0    0    0 -0.00000000000E+00 -0.00000000000E+00 -0.45593999997E+02  0.45594000000E+02  0.51100000000E-03 0. -1.
    9900012    2    1    2    0    0 -0.32020156435E+01  0.79449192171E+01 -0.42547019874E+02  0.47787267912E+02  0.19999985720E+02 0.  0.
        -12    1    1    2    0    0  0.32020156435E+01 -0.79449192171E+01  0.42547019874E+02  0.43400732088E+02  0.00000000000E+00 0.  1.
         11    1    3    3    0    0  0.38564010611E+01  0.27070956563E+01 -0.11599235898E+02  0.12519683291E+02  0.51100000000E-03 0. -1.
        -11    1    3    3    0    0  0.42638000128E+01  0.90036710097E+00 -0.50379971870E+01  0.66612361753E+01  0.51100000000E-03 0.  1.
         12    1    3    3    0    0 -0.11322216717E+02  0.43374564598E+01 -0.25909786790E+02  0.28606348446E+02  0.00000000000E+00 0. -1.
</event>
<event>
 7    1  0.5541017E-010  0.4778725E+02  0.7816164E-02  0.1312668E+00
        -11   -1    0    0    0    0  0.00000000000E+00  0.00000000000E+00  0.45593999997E+02  0.45594000000E+02  0.51100000000E-03 0.  1.
         11   -1    0    0    0    0 -0.00000000000E+00 -0.00000000000E+00 -0.45593999997E+02  0.45594000000E+02  0.51100000000E-03 0. -1.
    9900012    2    1    2    0    0 -0.31474890498E+02  0.25887987685E+02 -0.14925436341E+02  0.47787247838E+02  0.19999894191E+02 0.  0.
        -12    1    1    2    0    0  0.31474890498E+02 -0.25887987685E+02  0.14925436341E+02  0.43400752162E+02  0.00000000000E+00 0.  1.
         11    1    3    3    0    0 -0.24309820352E+02  0.16379159339E+02 -0.24973383315E+01  0.29419057177E+02  0.51100000000E-03 0. -1.
        -11    1    3    3    0    0  0.72808948136E+00  0.16804470819E+01 -0.20030536390E+00  0.18423189701E+01  0.51100000000E-03 0.  1.
         12    1    3    3    0    0 -0.78931596277E+01  0.78283812643E+01 -0.12227792646E+02  0.16525871690E+02  0.00000000000E+00 0. -1.
</event>
<event>
 7    1  0.5541017E-010  0.4778727E+02  0.7816164E-02  0.1312668E+00
        -11   -1    0    0    0    0  0.00000000000E+00  0.00000000000E+00  0.45593999997E+02  0.45594000000E+02  0.51100000000E-03 0. -1.
         11   -1    0    0    0    0 -0.00000000000E+00 -0.00000000000E+00 -0.45593999997E+02  0.45594000000E+02  0.51100000000E-03 0.  1.
    9900012    2    1    2    0    0 -0.90181304208E+01  0.40382649880E+02 -0.13097265673E+02  0.47787268950E+02  0.19999990449E+02 0.  0.
        -12    1    1    2    0    0  0.90181304208E+01 -0.40382649880E+02  0.13097265673E+02  0.43400731050E+02  0.00000000000E+00 0.  1.
         11    1    3    3    0    0 -0.15042557681E+01  0.87013979099E+01  0.22685050704E+01  0.91171940046E+01  0.51100000000E-03 0. -1.
        -11    1    3    3    0    0 -0.65891705330E+01  0.27184405415E+02 -0.65465172151E+01  0.28727442524E+02  0.51100000000E-03 0.  1.
        -12    1    3    3    0    0 -0.92470411962E+00  0.44968465546E+01 -0.88192535287E+01  0.99426324205E+01  0.00000000000E+00 0.  1.
</event>
<event>
 7    1  0.5541017E-010  0.4778729E+02  0.7816164E-02  0.1312668E+00
        -11   -1    0    0    0    0  0.00000000000E+00  0.00000000000E+00  0.45593999997E+02  0.45594000000E+02  0.51100000000E-03 0.  1.
         11   -1    0    0    0    0 -0.00000000000E+00 -0.00000000000E+00 -0.45593999997E+02  0.45594000000E+02  0.51100000000E-03 0. -1.
    9900012    2    1    2    0    0 -0.13836760236E+02  0.74246747734E+01 -0.40460354429E+02  0.47787285607E+02  0.20000066396E+02 0.  0.
        -12    1    1    2    0    0  0.13836760236E+02 -0.74246747734E+01  0.40460354429E+02  0.43400714393E+02  0.00000000000E+00 0.  1.
         11    1    3    3    0    0 -0.44138004308E+01  0.74297012644E+01 -0.42705692814E+01  0.96394946636E+01  0.51100000000E-03 0. -1.
        -11    1    3    3    0    0 -0.20467707928E+01  0.32734463733E+01 -0.14483788638E+02  0.14989491499E+02  0.51100000000E-03 0.  1.
        -12    1    3    3    0    0 -0.73761890123E+01 -0.32784728642E+01 -0.21705996510E+02  0.23158299444E+02  0.00000000000E+00 0.  1.
</event>
<event>
 7    1  0.5541017E-010  0.4778728E+02  0.7816164E-02  0.1312668E+00
        -11   -1    0    0    0    0  0.00000000000E+00  0.00000000000E+00  0.45593999997E+02  0.45594000000E+02  0.51100000000E-03 0.  1.
         11   -1    0    0    0    0 -0.00000000000E+00 -0.00000000000E+00 -0.45593999997E+02  0.45594000000E+02  0.51100000000E-03 0. -1.
    9900012    2    1    2    0    0  0.11348838345E+02  0.33377571500E+02 -0.25313323059E+02  0.47787277249E+02  0.20000028289E+02 0.  0.
        -12    1    1    2    0    0 -0.11348838345E+02 -0.33377571500E+02  0.25313323059E+02  0.43400722751E+02  0.00000000000E+00 0.  1.
         11    1    3    3    0    0  0.10344521020E+02  0.18039491918E+02 -0.17098738854E+02  0.26922096027E+02  0.51100000000E-03 0. -1.
        -11    1    3    3    0    0  0.16816071354E+01 -0.24153505606E+00 -0.45347963383E+01  0.48425736785E+01  0.51100000000E-03 0.  1.
        -12    1    3    3    0    0 -0.67728981068E+00  0.15579614638E+02 -0.36797878663E+01  0.16022607544E+02  0.00000000000E+00 0.  1.
</event>
<event>
 7    1  0.5541017E-010  0.4778727E+02  0.7816164E-02  0.1312668E+00
        -11   -1    0    0    0    0  0.00000000000E+00  0.00000000000E+00  0.45593999997E+02  0.45594000000E+02  0.51100000000E-03 0.  1.
         11   -1    0    0    0    0 -0.00000000000E+00 -0.00000000000E+00 -0.45593999997E+02  0.45594000000E+02  0.51100000000E-03 0. -1.
    9900012    2    1    2    0    0 -0.13620085306E+02  0.36542954653E+02 -0.19045437933E+02  0.47787274608E+02  0.20000016247E+02 0.  0.
        -12    1    1    2    0    0  0.13620085306E+02 -0.36542954653E+02  0.19045437933E+02  0.43400725392E+02  0.00000000000E+00 0.  1.
         11    1    3    3    0    0 -0.37522798920E+01  0.16958748891E+02 -0.13675038100E+02  0.22106230697E+02  0.51100000000E-03 0. -1.
        -11    1    3    3    0    0 -0.26780202466E+01 -0.74150359202E+00 -0.28398137967E+01  0.39731804237E+01  0.51100000000E-03 0.  1.
        -12    1    3    3    0    0 -0.71897851677E+01  0.20325709354E+02 -0.25305860362E+01  0.21707863488E+02  0.00000000000E+00 0.  1.
</event>
<event>
 7    1  0.5541017E-010  0.4778727E+02  0.7816164E-02  0.1312668E+00
        -11   -1    0    0    0    0  0.00000000000E+00  0.00000000000E+00  0.45593999997E+02  0.45594000000E+02  0.51100000000E-03 0.  1.
         11   -1    0    0    0    0 -0.00000000000E+00 -0.00000000000E+00 -0.45593999997E+02  0.45594000000E+02  0.51100000000E-03 0. -1.
    9900012    2    1    2    0    0  0.24453035007E+02  0.88264235330E+01 -0.34752937600E+02  0.47787270222E+02  0.19999996252E+02 0.  0.
        -12    1    1    2    0    0 -0.24453035007E+02 -0.88264235330E+01  0.34752937600E+02  0.43400729778E+02  0.00000000000E+00 0.  1.
         11    1    3    3    0    0  0.11135351636E+01 -0.80158574670E-01  0.12014507626E+01  0.16400823619E+01  0.51100000000E-03 0. -1.
        -11    1    3    3    0    0  0.38316372515E+01  0.59931187679E+01 -0.29556229193E+01  0.77028970976E+01  0.51100000000E-03 0.  1.
         12    1    3    3    0    0  0.19507862592E+02  0.29134633398E+01 -0.32998765443E+02  0.38444290763E+02  0.00000000000E+00 0. -1.
</event>
<event>
 7    1  0.5541017E-010  0.4778728E+02  0.7816164E-02  0.1312668E+00
        -11   -1    0    0    0    0  0.00000000000E+00  0.00000000000E+00  0.45593999997E+02  0.45594000000E+02  0.51100000000E-03 0.  1.
         11   -1    0    0    0    0 -0.00000000000E+00 -0.00000000000E+00 -0.45593999997E+02  0.45594000000E+02  0.51100000000E-03 0. -1.
    9900012    2    1    2    0    0 -0.34804988432E+01 -0.43258453835E+02  0.46346393473E+00  0.47787279969E+02  0.20000040690E+02 0.  0.
        -12    1    1    2    0    0  0.34804988432E+01  0.43258453835E+02 -0.46346393473E+00  0.43400720031E+02  0.00000000000E+00 0.  1.
         11    1    3    3    0    0 -0.15617178399E+01 -0.59122458722E+01  0.15131819860E+01  0.62994709182E+01  0.51100000000E-03 0. -1.
        -11    1    3    3    0    0  0.52243134931E+01 -0.97156810986E+01  0.53194411260E+01  0.12246810394E+02  0.51100000000E-03 0.  1.
         12    1    3    3    0    0 -0.71430944965E+01 -0.27630526864E+02 -0.63691591773E+01  0.29240998656E+02  0.00000000000E+00 0. -1.
</event>
<event>
 7    1  0.5541017E-010  0.4778728E+02  0.7816164E-02  0.1312668E+00
        -11   -1    0    0    0    0  0.00000000000E+00  0.00000000000E+00  0.45593999997E+02  0.45594000000E+02  0.51100000000E-03 0.  1.
         11   -1    0    0    0    0 -0.00000000000E+00 -0.00000000000E+00 -0.45593999997E+02  0.45594000000E+02  0.51100000000E-03 0. -1.
    9900012    2    1    2    0    0 -0.20635110875E+02 -0.61070270151E+01 -0.37689777471E+02  0.47787275287E+02  0.20000019344E+02 0.  0.
        -12    1    1    2    0    0  0.20635110875E+02  0.61070270151E+01  0.37689777471E+02  0.43400724713E+02  0.00000000000E+00 0.  1.
         11    1    3    3    0    0  0.54838783064E+00 -0.37195766851E+00  0.13863665537E+01  0.15365852408E+01  0.51100000000E-03 0.  1.
        -11    1    3    3    0    0 -0.55815618034E+01  0.33464100086E+01 -0.12964373695E+02  0.14506111735E+02  0.51100000000E-03 0. -1.
         12    1    3    3    0    0 -0.15601936902E+02 -0.90814793552E+01 -0.26111770330E+02  0.31744578311E+02  0.00000000000E+00 0. -1.
</event>
<event>
 7    1  0.5541017E-010  0.4778726E+02  0.7816164E-02  0.1312668E+00
        -11   -1    0    0    0    0  0.00000000000E+00  0.00000000000E+00  0.45593999997E+02  0.45594000000E+02  0.51100000000E-03 0.  1.
         11   -1    0    0    0    0 -0.00000000000E+00 -0.00000000000E+00 -0.45593999997E+02  0.45594000000E+02  0.51100000000E-03 0. -1.
    9900012    2    1    2    0    0  0.21280983508E+00 -0.37067068141E+01 -0.43241634689E+02  0.47787263439E+02  0.19999965325E+02 0.  0.
        -12    1    1    2    0    0 -0.21280983508E+00  0.37067068141E+01  0.43241634689E+02  0.43400736561E+02  0.00000000000E+00 0.  1.
         11    1    3    3    0    0 -0.26883724300E+01 -0.41969877719E+01 -0.32445434690E+02  0.32826030603E+02  0.51100000000E-03 0. -1.
        -11    1    3    3    0    0  0.42013614891E+01  0.15126428072E+01 -0.12072630852E+02  0.12871982854E+02  0.51100000000E-03 0.  1.
        -12    1    3    3    0    0 -0.13001792240E+01 -0.10223618494E+01  0.12764308534E+01  0.20892499825E+01  0.00000000000E+00 0.  1.
</event>
<event>
 7    1  0.5541017E-010  0.4778727E+02  0.7816164E-02  0.1312668E+00
        -11   -1    0    0    0    0  0.00000000000E+00  0.00000000000E+00  0.45593999997E+02  0.45594000000E+02  0.51100000000E-03 0.  1.
         11   -1    0    0    0    0 -0.00000000000E+00 -0.00000000000E+00 -0.45593999997E+02  0.45594000000E+02  0.51100000000E-03 0. -1.
    9900012    2    1    2    0    0 -0.24793610122E+02 -0.76150090186E+01 -0.34798153438E+02  0.47787274800E+02  0.20000017123E+02 0.  0.
        -12    1    1    2    0    0  0.24793610122E+02  0.76150090186E+01  0.34798153438E+02  0.43400725200E+02  0.00000000000E+00 0.  1.
         11    1    3    3    0    0 -0.20454154022E+00  0.16418247857E+01 -0.42596089634E+00  0.17084697290E+01  0.51100000000E-03 0. -1.
        -11    1    3    3    0    0 -0.96561615300E+01 -0.11733621108E+02 -0.20717707531E+02  0.25693242797E+02  0.51100000000E-03 0.  1.
        -12    1    3    3    0    0 -0.14932907051E+02  0.24767873036E+01 -0.13654485010E+02  0.20385562274E+02  0.00000000000E+00 0.  1.
</event>
<event>
 7    1  0.5541017E-010  0.4778727E+02  0.7816164E-02  0.1312668E+00
        -11   -1    0    0    0    0  0.00000000000E+00  0.00000000000E+00  0.45593999997E+02  0.45594000000E+02  0.51100000000E-03 0.  1.
         11   -1    0    0    0    0 -0.00000000000E+00 -0.00000000000E+00 -0.45593999997E+02  0.45594000000E+02  0.51100000000E-03 0. -1.
    9900012    2    1    2    0    0 -0.46597420842E+01  0.23203561681E+01 -0.43087423893E+02  0.47787270204E+02  0.19999996170E+02 0.  0.
        -12    1    1    2    0    0  0.46597420842E+01 -0.23203561681E+01  0.43087423893E+02  0.43400729796E+02  0.00000000000E+00 0.  1.
         11    1    3    3    0    0  0.27128155618E+01  0.37751918268E+01 -0.21210408169E+02  0.21713886261E+02  0.51100000000E-03 0. -1.
        -11    1    3    3    0    0  0.23234821818E+01 -0.37737307352E+00 -0.27414717474E+00  0.23698389862E+01  0.51100000000E-03 0.  1.
         12    1    3    3    0    0 -0.96960398278E+01 -0.10774625852E+01 -0.21602868550E+02  0.23703544957E+02  0.00000000000E+00 0. -1.
</event>
<event>
 7    1  0.5541017E-010  0.4778727E+02  0.7816164E-02  0.1312668E+00
        -11   -1    0    0    0    0  0.00000000000E+00  0.00000000000E+00  0.45593999997E+02  0.45594000000E+02  0.51100000000E-03 0.  1.
         11   -1    0    0    0    0 -0.00000000000E+00 -0.00000000000E+00 -0.45593999997E+02  0.45594000000E+02  0.51100000000E-03 0. -1.
    9900012    2    1    2    0    0 -0.92935159790E+01  0.39588230803E+02 -0.15166607474E+02  0.47787269135E+02  0.19999991295E+02 0.  0.
        -12    1    1    2    0    0  0.92935159790E+01 -0.39588230803E+02  0.15166607474E+02  0.43400730865E+02  0.00000000000E+00 0.  1.
         11    1    3    3    0    0 -0.76348129481E+01  0.22426850685E+02 -0.93956341776E+01  0.25485916547E+02  0.51100000000E-03 0. -1.
        -11    1    3    3    0    0 -0.14928555788E+00  0.16549998100E+02 -0.88867782470E+01  0.18785620861E+02  0.51100000000E-03 0.  1.
        -12    1    3    3    0    0 -0.15094174730E+01  0.61138201798E+00  0.31158049508E+01  0.35157317263E+01  0.00000000000E+00 0.  1.
</event>
<event>
 7    1  0.5541017E-010  0.4778727E+02  0.7816164E-02  0.1312668E+00
        -11   -1    0    0    0    0  0.00000000000E+00  0.00000000000E+00  0.45593999997E+02  0.45594000000E+02  0.51100000000E-03 0.  1.
         11   -1    0    0    0    0 -0.00000000000E+00 -0.00000000000E+00 -0.45593999997E+02  0.45594000000E+02  0.51100000000E-03 0. -1.
    9900012    2    1    2    0    0  0.29558204324E+02  0.20041315991E+02 -0.24663358553E+02  0.47787273686E+02  0.20000012045E+02 0.  0.
        -12    1    1    2    0    0 -0.29558204324E+02 -0.20041315991E+02  0.24663358553E+02  0.43400726314E+02  0.00000000000E+00 0.  1.
         11    1    3    3    0    0  0.24358902693E+01  0.15214599670E+01 -0.93611467174E+01  0.97918062665E+01  0.51100000000E-03 0. -1.
        -11    1    3    3    0    0  0.12904299114E+02  0.15205535708E+02 -0.66379833704E+01  0.21018850475E+02  0.51100000000E-03 0.  1.
         12    1    3    3    0    0  0.14218014940E+02  0.33143203151E+01 -0.86642284650E+01  0.16976616945E+02  0.00000000000E+00 0. -1.
</event>
<event>
 7    1  0.5541017E-010  0.4778729E+02  0.7816164E-02  0.1312668E+00
        -11   -1    0    0    0    0  0.00000000000E+00  0.00000000000E+00  0.45593999997E+02  0.45594000000E+02  0.51100000000E-03 0.  1.
         11   -1    0    0    0    0 -0.00000000000E+00 -0.00000000000E+00 -0.45593999997E+02  0.45594000000E+02  0.51100000000E-03 0. -1.
    9900012    2    1    2    0    0 -0.59763404666E+00  0.25318492600E+02 -0.35245408594E+02  0.47787285018E+02  0.20000063712E+02 0.  0.
        -12    1    1    2    0    0  0.59763404666E+00 -0.25318492600E+02  0.35245408594E+02  0.43400714982E+02  0.00000000000E+00 0.  1.
         11    1    3    3    0    0 -0.14022088987E+01  0.46011752450E+01 -0.20387396606E+01  0.52243146054E+01  0.51100000000E-03 0. -1.
        -11    1    3    3    0    0 -0.43975404304E+01 -0.66369478092E+00 -0.75496627675E+01  0.87622063867E+01  0.51100000000E-03 0.  1.
         12    1    3    3    0    0  0.52021152825E+01  0.21381012135E+02 -0.25657006166E+02  0.33800764026E+02  0.00000000000E+00 0. -1.
</event>
<event>
 7    1  0.5541017E-010  0.4778727E+02  0.7816164E-02  0.1312668E+00
        -11   -1    0    0    0    0  0.00000000000E+00  0.00000000000E+00  0.45593999997E+02  0.45594000000E+02  0.51100000000E-03 0. -1.
         11   -1    0    0    0    0 -0.00000000000E+00 -0.00000000000E+00 -0.45593999997E+02  0.45594000000E+02  0.51100000000E-03 0.  1.
    9900012    2    1    2    0    0 -0.32814579081E+02  0.28081865842E+02  0.42703085603E+01  0.47787270460E+02  0.19999997336E+02 0.  0.
        -12    1    1    2    0    0  0.32814579081E+02 -0.28081865842E+02 -0.42703085603E+01  0.43400729540E+02  0.00000000000E+00 0.  1.
         11    1    3    3    0    0 -0.51146169145E+01  0.48013552689E+01 -0.17069909818E+01  0.72198432859E+01  0.51100000000E-03 0. -1.
        -11    1    3    3    0    0 -0.58871721778E+00  0.27052592412E+01 -0.42118113624E+01  0.50402748673E+01  0.51100000000E-03 0.  1.
         12    1    3    3    0    0 -0.27111244948E+02  0.20575251332E+02  0.10189110904E+02  0.35527152307E+02  0.00000000000E+00 0. -1.
</event>
<event>
 7    1  0.5541017E-010  0.4778727E+02  0.7816164E-02  0.1312668E+00
        -11   -1    0    0    0    0  0.00000000000E+00  0.00000000000E+00  0.45593999997E+02  0.45594000000E+02  0.51100000000E-03 0.  1.
         11   -1    0    0    0    0 -0.00000000000E+00 -0.00000000000E+00 -0.45593999997E+02  0.45594000000E+02  0.51100000000E-03 0. -1.
    9900012    2    1    2    0    0 -0.31824210772E+02  0.16372592996E+02 -0.24551604551E+02  0.47787268685E+02  0.19999989240E+02 0.  0.
        -12    1    1    2    0    0  0.31824210772E+02 -0.16372592996E+02  0.24551604551E+02  0.43400731315E+02  0.00000000000E+00 0.  1.
         11    1    3    3    0    0 -0.25909558074E+01 -0.57187064086E+00 -0.86133747602E+01  0.90127860868E+01  0.51100000000E-03 0. -1.
        -11    1    3    3    0    0 -0.27341129038E+01  0.35585809950E+01 -0.59469592730E+01  0.74501809995E+01  0.51100000000E-03 0.  1.
        -12    1    3    3    0    0 -0.26499142060E+02  0.13385882642E+02 -0.99912705182E+01  0.31324301598E+02  0.00000000000E+00 0.  1.
</event>
<event>
 7    1  0.5541017E-010  0.4778727E+02  0.7816164E-02  0.1312668E+00
        -11   -1    0    0    0    0  0.00000000000E+00  0.00000000000E+00  0.45593999997E+02  0.45594000000E+02  0.51100000000E-03 0.  1.
         11   -1    0    0    0    0 -0.00000000000E+00 -0.00000000000E+00 -0.45593999997E+02  0.45594000000E+02  0.51100000000E-03 0. -1.
    9900012    2    1    2    0    0  0.15491380356E+01  0.43147665880E+02 -0.44161493495E+01  0.47787271036E+02  0.19999999962E+02 0.  0.
        -12    1    1    2    0    0 -0.15491380356E+01 -0.43147665880E+02  0.44161493495E+01  0.43400728964E+02  0.00000000000E+00 0.  1.
         11    1    3    3    0    0 -0.45994360241E+01  0.16885616510E+02  0.33792341561E+01  0.17824087084E+02  0.51100000000E-03 0. -1.
        -11    1    3    3    0    0 -0.17046632114E+01  0.25842319633E+01  0.13715355964E+01  0.33860362754E+01  0.51100000000E-03 0.  1.
        -12    1    3    3    0    0  0.78532372712E+01  0.23677817407E+02 -0.91669191020E+01  0.26577147676E+02  0.00000000000E+00 0.  1.
</event>
<event>
 7    1  0.5541017E-010  0.4778727E+02  0.7816164E-02  0.1312668E+00
        -11   -1    0    0    0    0  0.00000000000E+00  0.00000000000E+00  0.45593999997E+02  0.45594000000E+02  0.51100000000E-03 0.  1.
         11   -1    0    0    0    0 -0.00000000000E+00 -0.00000000000E+00 -0.45593999997E+02  0.45594000000E+02  0.51100000000E-03 0. -1.
    9900012    2    1    2    0    0  0.12231084201E+01  0.31514550760E+02 -0.29815438391E+02  0.47787271086E+02  0.20000000188E+02 0.  0.
        -12    1    1    2    0    0 -0.12231084201E+01 -0.31514550760E+02  0.29815438391E+02  0.43400728914E+02  0.00000000000E+00 0.  1.
         11    1    3    3    0    0 -0.13167605545E+01  0.17596647909E+01 -0.60879315729E+01  0.64724948537E+01  0.51100000000E-03 0. -1.
        -11    1    3    3    0    0  0.89850847625E+01  0.19479789540E+02 -0.17474349122E+02  0.27668516878E+02  0.51100000000E-03 0.  1.
        -12    1    3    3    0    0 -0.64452157879E+01  0.10275096429E+02 -0.62531576961E+01  0.13646259354E+02  0.00000000000E+00 0.  1.
</event>
<event>
 7    1  0.5541017E-010  0.4778730E+02  0.7816164E-02  0.1312668E+00
        -11   -1    0    0    0    0  0.00000000000E+00  0.00000000000E+00  0.45593999997E+02  0.45594000000E+02  0.51100000000E-03 0.  1.
         11   -1    0    0    0    0 -0.00000000000E+00 -0.00000000000E+00 -0.45593999997E+02  0.45594000000E+02  0.51100000000E-03 0. -1.
    9900012    2    1    2    0    0 -0.18779394912E+02  0.28279985832E+02 -0.27040660274E+02  0.47787302079E+02  0.20000141500E+02 0.  0.
        -12    1    1    2    0    0  0.18779394912E+02 -0.28279985832E+02  0.27040660274E+02  0.43400697921E+02  0.00000000000E+00 0.  1.
         11    1    3    3    0    0 -0.14898250109E+02  0.14312345426E+02 -0.14284221624E+02  0.25116529927E+02  0.51100000000E-03 0.  1.
        -11    1    3    3    0    0 -0.49136982097E+01  0.12932535346E+02 -0.14734262927E+02  0.20211219776E+02  0.51100000000E-03 0. -1.
        -12    1    3    3    0    0  0.10325534071E+01  0.10351050601E+01  0.19778242765E+01  0.24595523765E+01  0.00000000000E+00 0.  1.
</event>
<event>
 7    1  0.5541017E-010  0.4778728E+02  0.7816164E-02  0.1312668E+00
        -11   -1    0    0    0    0  0.00000000000E+00  0.00000000000E+00  0.45593999997E+02  0.45594000000E+02  0.51100000000E-03 0.  1.
         11   -1    0    0    0    0 -0.00000000000E+00 -0.00000000000E+00 -0.45593999997E+02  0.45594000000E+02  0.51100000000E-03 0. -1.
    9900012    2    1    2    0    0 -0.31577195857E+02  0.18413220666E+02 -0.23397790332E+02  0.47787278970E+02  0.20000036136E+02 0.  0.
        -12    1    1    2    0    0  0.31577195857E+02 -0.18413220666E+02  0.23397790332E+02  0.43400721030E+02  0.00000000000E+00 0.  1.
         11    1    3    3    0    0 -0.18728284439E+02  0.44856571454E+01 -0.13620197192E+02  0.23587698697E+02  0.51100000000E-03 0. -1.
        -11    1    3    3    0    0 -0.20003130891E+01 -0.19597791605E+01 -0.51280139347E+00  0.28469197991E+01  0.51100000000E-03 0.  1.
        -12    1    3    3    0    0 -0.10848598329E+02  0.15887342681E+02 -0.92647917471E+01  0.21352660473E+02  0.00000000000E+00 0.  1.
</event>
<event>
 7    1  0.5541017E-010  0.4778727E+02  0.7816164E-02  0.1312668E+00
        -11   -1    0    0    0    0  0.00000000000E+00  0.00000000000E+00  0.45593999997E+02  0.45594000000E+02  0.51100000000E-03 0.  1.
         11   -1    0    0    0    0 -0.00000000000E+00 -0.00000000000E+00 -0.45593999997E+02  0.45594000000E+02  0.51100000000E-03 0. -1.
    9900012    2    1    2    0    0 -0.91622106952E+01 -0.27286169179E+02 -0.32482954252E+02  0.47787269013E+02  0.19999990737E+02 0.  0.
        -12    1    1    2    0    0  0.91622106952E+01  0.27286169179E+02  0.32482954252E+02  0.43400730987E+02  0.00000000000E+00 0.  1.
         11    1    3    3    0    0 -0.12835005937E+02 -0.20237765127E+02 -0.29649655512E+02  0.38123569966E+02  0.51100000000E-03 0. -1.
        -11    1    3    3    0    0 -0.60562427165E+00 -0.40055758079E+00  0.69623348875E+00  0.10059664338E+01  0.51100000000E-03 0.  1.
        -12    1    3    3    0    0  0.42784195132E+01 -0.66478464718E+01 -0.35295322285E+01  0.86577326128E+01  0.00000000000E+00 0.  1.
</event>
<event>
 7    1  0.5541017E-010  0.4778731E+02  0.7816164E-02  0.1312668E+00
        -11   -1    0    0    0    0  0.00000000000E+00  0.00000000000E+00  0.45593999997E+02  0.45594000000E+02  0.51100000000E-03 0.  1.
         11   -1    0    0    0    0 -0.00000000000E+00 -0.00000000000E+00 -0.45593999997E+02  0.45594000000E+02  0.51100000000E-03 0. -1.
    9900012    2    1    2    0    0  0.70812298874E+01  0.20795049517E+02 -0.37430490325E+02  0.47787314440E+02  0.20000197857E+02 0.  0.
        -12    1    1    2    0    0 -0.70812298874E+01 -0.20795049517E+02  0.37430490325E+02  0.43400685560E+02  0.00000000000E+00 0.  1.
         11    1    3    3    0    0 -0.90926986627E+00 -0.16964288568E+01 -0.68164503192E+01  0.70829822654E+01  0.51100000000E-03 0. -1.
        -11    1    3    3    0    0 -0.18977498013E+01  0.12810978613E+02 -0.15870055176E+02  0.20483683235E+02  0.51100000000E-03 0.  1.
         12    1    3    3    0    0  0.98882495550E+01  0.96804997608E+01 -0.14743984830E+02  0.20220648940E+02  0.00000000000E+00 0. -1.
</event>
<event>
 7    1  0.5541017E-010  0.4778727E+02  0.7816164E-02  0.1312668E+00
        -11   -1    0    0    0    0  0.00000000000E+00  0.00000000000E+00  0.45593999997E+02  0.45594000000E+02  0.51100000000E-03 0. -1.
         11   -1    0    0    0    0 -0.00000000000E+00 -0.00000000000E+00 -0.45593999997E+02  0.45594000000E+02  0.51100000000E-03 0.  1.
    9900012    2    1    2    0    0 -0.30986624669E+02 -0.25168335626E+02  0.17029589202E+02  0.47787274949E+02  0.20000017804E+02 0.  0.
        -12    1    1    2    0    0  0.30986624669E+02  0.25168335626E+02 -0.17029589202E+02  0.43400725051E+02  0.00000000000E+00 0.  1.
         11    1    3    3    0    0 -0.66307738620E+01 -0.48775122138E+01 -0.13350252552E+01  0.83390395189E+01  0.51100000000E-03 0. -1.
        -11    1    3    3    0    0 -0.14094402637E+02 -0.18752645003E+02  0.80078663423E+01  0.24787896318E+02  0.51100000000E-03 0.  1.
         12    1    3    3    0    0 -0.10261448170E+02 -0.15381784095E+01  0.10356748115E+02  0.14660339112E+02  0.00000000000E+00 0. -1.
</event>
<event>
 7    1  0.5541017E-010  0.4778726E+02  0.7816164E-02  0.1312668E+00
        -11   -1    0    0    0    0  0.00000000000E+00  0.00000000000E+00  0.45593999997E+02  0.45594000000E+02  0.51100000000E-03 0.  1.
         11   -1    0    0    0    0 -0.00000000000E+00 -0.00000000000E+00 -0.45593999997E+02  0.45594000000E+02  0.51100000000E-03 0. -1.
    9900012    2    1    2    0    0 -0.69552145354E+01  0.15391226158E+02 -0.39979482932E+02  0.47787263746E+02  0.19999966724E+02 0.  0.
        -12    1    1    2    0    0  0.69552145354E+01 -0.15391226158E+02  0.39979482932E+02  0.43400736254E+02  0.00000000000E+00 0.  1.
         11    1    3    3    0    0  0.13833857263E+00 -0.23063589421E+01  0.36976980220E-01  0.23108000105E+01  0.51100000000E-03 0. -1.
        -11    1    3    3    0    0 -0.19515104206E+01  0.82959804998E+01 -0.79048371969E+01  0.11624032723E+02  0.51100000000E-03 0.  1.
         12    1    3    3    0    0 -0.51420426875E+01  0.94016046002E+01 -0.32111622715E+02  0.33852431013E+02  0.00000000000E+00 0. -1.
</event>
<event>
 7    1  0.5541017E-010  0.4778726E+02  0.7816164E-02  0.1312668E+00
        -11   -1    0    0    0    0  0.00000000000E+00  0.00000000000E+00  0.45593999997E+02  0.45594000000E+02  0.51100000000E-03 0.  1.
         11   -1    0    0    0    0 -0.00000000000E+00 -0.00000000000E+00 -0.45593999997E+02  0.45594000000E+02  0.51100000000E-03 0. -1.
    9900012    2    1    2    0    0 -0.51299816810E+00  0.39033589908E+02  0.18966799891E+02  0.47787264910E+02  0.19999972032E+02 0.  0.
        -12    1    1    2    0    0  0.51299816810E+00 -0.39033589908E+02 -0.18966799891E+02  0.43400735090E+02  0.00000000000E+00 0.  1.
         11    1    3    3    0    0  0.23720135284E+01  0.69192988308E+01  0.12850483902E+01  0.74266071739E+01  0.51100000000E-03 0. -1.
        -11    1    3    3    0    0 -0.84275327283E+01  0.95887051076E+01  0.88750452075E+01  0.15547765152E+02  0.51100000000E-03 0.  1.
        -12    1    3    3    0    0  0.55425210318E+01  0.22525585970E+02  0.88067062935E+01  0.24812892584E+02  0.00000000000E+00 0.  1.
</event>
<event>
 7    1  0.5541017E-010  0.4778727E+02  0.7816164E-02  0.1312668E+00
        -11   -1    0    0    0    0  0.00000000000E+00  0.00000000000E+00  0.45593999997E+02  0.45594000000E+02  0.51100000000E-03 0.  1.
         11   -1    0    0    0    0 -0.00000000000E+00 -0.00000000000E+00 -0.45593999997E+02  0.45594000000E+02  0.51100000000E-03 0. -1.
    9900012    2    1    2    0    0  0.41287041710E+02 -0.56244388162E+01 -0.12139565162E+02  0.47787272271E+02  0.20000005591E+02 0.  0.
        -12    1    1    2    0    0 -0.41287041710E+02  0.56244388162E+01  0.12139565162E+02  0.43400727729E+02  0.00000000000E+00 0.  1.
         11    1    3    3    0    0  0.20614549352E+02 -0.27473914034E+00 -0.13646839473E+02  0.24723902492E+02  0.51100000000E-03 0. -1.
        -11    1    3    3    0    0  0.15010920781E+02 -0.45161076396E+01 -0.27706397355E+01  0.15918524294E+02  0.51100000000E-03 0.  1.
         12    1    3    3    0    0  0.56615715766E+01 -0.83359203632E+00  0.42779140469E+01  0.71448454841E+01  0.00000000000E+00 0. -1.
</event>
<event>
 7    1  0.5541017E-010  0.4778727E+02  0.7816164E-02  0.1312668E+00
        -11   -1    0    0    0    0  0.00000000000E+00  0.00000000000E+00  0.45593999997E+02  0.45594000000E+02  0.51100000000E-03 0.  1.
         11   -1    0    0    0    0 -0.00000000000E+00 -0.00000000000E+00 -0.45593999997E+02  0.45594000000E+02  0.51100000000E-03 0. -1.
    9900012    2    1    2    0    0 -0.39221781683E+02  0.45961539569E+01 -0.18004188891E+02  0.47787267204E+02  0.19999982491E+02 0.  0.
        -12    1    1    2    0    0  0.39221781683E+02 -0.45961539569E+01  0.18004188891E+02  0.43400732796E+02  0.00000000000E+00 0.  1.
         11    1    3    3    0    0 -0.18595920962E+02 -0.44520196981E+01 -0.37354307629E+01  0.19482869374E+02  0.51100000000E-03 0. -1.
        -11    1    3    3    0    0  0.42209669291E-01 -0.12623266635E+01 -0.13127493031E+01  0.18216918662E+01  0.51100000000E-03 0.  1.
        -12    1    3    3    0    0 -0.20668070391E+02  0.10310500319E+02 -0.12956008825E+02  0.26482705964E+02  0.00000000000E+00 0.  1.
</event>
<event>
 7    1  0.5541017E-010  0.4778726E+02  0.7816164E-02  0.1312668E+00
        -11   -1    0    0    0    0  0.00000000000E+00  0.00000000000E+00  0.45593999997E+02  0.45594000000E+02  0.51100000000E-03 0.  1.
         11   -1    0    0    0    0 -0.00000000000E+00 -0.00000000000E+00 -0.45593999997E+02  0.45594000000E+02  0.51100000000E-03 0. -1.
    9900012    2    1    2    0    0  0.26529543363E+02 -0.29911809727E+02  0.16884654363E+02  0.47787255938E+02  0.19999931124E+02 0.  0.
        -12    1    1    2    0    0 -0.26529543363E+02  0.29911809727E+02 -0.16884654363E+02  0.43400744062E+02  0.00000000000E+00 0.  1.
         11    1    3    3    0    0  0.17266745353E+02 -0.97276485026E+01  0.36543782236E+01  0.20152471832E+02  0.51100000000E-03 0. -1.
        -11    1    3    3    0    0  0.80124205581E+00  0.24206720352E+00  0.32877444205E+01  0.33926168364E+01  0.51100000000E-03 0.  1.
        -12    1    3    3    0    0  0.84615559540E+01 -0.20426228428E+02  0.99425317185E+01  0.24242167270E+02  0.00000000000E+00 0.  1.
</event>
<event>
 7    1  0.5541017E-010  0.4778727E+02  0.7816164E-02  0.1312668E+00
        -11   -1    0    0    0    0  0.00000000000E+00  0.00000000000E+00  0.45593999997E+02  0.45594000000E+02  0.51100000000E-03 0. -1.
         11   -1    0    0    0    0 -0.00000000000E+00 -0.00000000000E+00 -0.45593999997E+02  0.45594000000E+02  0.51100000000E-03 0.  1.
    9900012    2    1    2    0    0  0.28217553094E+02  0.15019017373E+02  0.29356805141E+02  0.47787271970E+02  0.20000004218E+02 0.  0.
        -12    1    1    2    0    0 -0.28217553094E+02 -0.15019017373E+02 -0.29356805141E+02  0.43400728030E+02  0.00000000000E+00 0.  1.
         11    1    3    3    0    0  0.93949518037E+01  0.57165341105E+01  0.80070079483E+01  0.13603531092E+02  0.51100000000E-03 0. -1.
        -11    1    3    3    0    0  0.46131619502E+01  0.10698614655E+02  0.56042100584E+01  0.12928603535E+02  0.51100000000E-03 0.  1.
         12    1    3    3    0    0  0.14209439340E+02 -0.13961313933E+01  0.15745587135E+02  0.21255137343E+02  0.00000000000E+00 0. -1.
</event>
<event>
 7    1  0.5541017E-010  0.4778727E+02  0.7816164E-02  0.1312668E+00
        -11   -1    0    0    0    0  0.00000000000E+00  0.00000000000E+00  0.45593999997E+02  0.45594000000E+02  0.51100000000E-03 0.  1.
         11   -1    0    0    0    0 -0.00000000000E+00 -0.00000000000E+00 -0.45593999997E+02  0.45594000000E+02  0.51100000000E-03 0. -1.
    9900012    2    1    2    0    0 -0.28397606281E+02  0.22392271292E+02 -0.23995525695E+02  0.47787272938E+02  0.20000008635E+02 0.  0.
        -12    1    1    2    0    0  0.28397606281E+02 -0.22392271292E+02  0.23995525695E+02  0.43400727062E+02  0.00000000000E+00 0.  1.
         11    1    3    3    0    0 -0.80574799857E+01 -0.19509034914E+01 -0.78561924362E+01  0.11421417075E+02  0.51100000000E-03 0. -1.
        -11    1    3    3    0    0 -0.70979406595E+01  0.62545798278E+01 -0.14670845231E+01  0.95735504222E+01  0.51100000000E-03 0.  1.
        -12    1    3    3    0    0 -0.13242185636E+02  0.18088594956E+02 -0.14672248736E+02  0.26792305441E+02  0.00000000000E+00 0.  1.
</event>
<event>
 7    1  0.5541017E-010  0.4778728E+02  0.7816164E-02  0.1312668E+00
        -11   -1    0    0    0    0  0.00000000000E+00  0.00000000000E+00  0.45593999997E+02  0.45594000000E+02  0.51100000000E-03 0. -1.
         11   -1    0    0    0    0 -0.00000000000E+00 -0.00000000000E+00 -0.45593999997E+02  0.45594000000E+02  0.51100000000E-03 0.  1.
    9900012    2    1    2    0    0  0.95455328964E+01 -0.27837042838E+02  0.31899915440E+02  0.47787276995E+02  0.20000027132E+02 0.  0.
        -12    1    1    2    0    0 -0.95455328964E+01  0.27837042838E+02 -0.31899915440E+02  0.43400723005E+02  0.00000000000E+00 0.  1.
         11    1    3    3    0    0 -0.36639219979E-01  0.11213574763E+00  0.31276497707E+01  0.31298738326E+01  0.51100000000E-03 0. -1.
        -11    1    3    3    0    0  0.15661292926E+01 -0.25099448215E+02  0.24609258777E+02  0.35185944345E+02  0.51100000000E-03 0.  1.
         12    1    3    3    0    0  0.80160428237E+01 -0.28497303703E+01  0.41630068929E+01  0.94714588172E+01  0.00000000000E+00 0. -1.
</event>
<event>
 7    1  0.5541017E-010  0.4778727E+02  0.7816164E-02  0.1312668E+00
        -11   -1    0    0    0    0  0.00000000000E+00  0.00000000000E+00  0.45593999997E+02  0.45594000000E+02  0.51100000000E-03 0.  1.
         11   -1    0    0    0    0 -0.00000000000E+00 -0.00000000000E+00 -0.45593999997E+02  0.45594000000E+02  0.51100000000E-03 0. -1.
    9900012    2    1    2    0    0 -0.54034637014E+01  0.35922096465E+01 -0.42912954304E+02  0.47787273770E+02  0.20000012429E+02 0.  0.
        -12    1    1    2    0    0  0.54034637014E+01 -0.35922096465E+01  0.42912954304E+02  0.43400726230E+02  0.00000000000E+00 0.  1.
         11    1    3    3    0    0 -0.78636679105E+01 -0.35026439559E+00 -0.21490585874E+02  0.22886791816E+02  0.51100000000E-03 0. -1.
        -11    1    3    3    0    0 -0.26340735208E+01  0.64838231131E+01 -0.12016168097E+02  0.13905632005E+02  0.51100000000E-03 0.  1.
        -12    1    3    3    0    0  0.50942777299E+01 -0.25413490711E+01 -0.94062003340E+01  0.10994849950E+02  0.00000000000E+00 0.  1.
</event>
<event>
 7    1  0.5541017E-010  0.4778724E+02  0.7816164E-02  0.1312668E+00
        -11   -1    0    0    0    0  0.00000000000E+00  0.00000000000E+00  0.45593999997E+02  0.45594000000E+02  0.51100000000E-03 0.  1.
         11   -1    0    0    0    0 -0.00000000000E+00 -0.00000000000E+00 -0.45593999997E+02  0.45594000000E+02  0.51100000000E-03 0. -1.
    9900012    2    1    2    0    0  0.19202984062E+02  0.34276559987E+02 -0.18438778296E+02  0.47787243020E+02  0.19999872223E+02 0.  0.
        -12    1    1    2    0    0 -0.19202984062E+02 -0.34276559987E+02  0.18438778296E+02  0.43400756980E+02  0.00000000000E+00 0.  1.
         11    1    3    3    0    0  0.84715308119E+00  0.94734216288E+01  0.28296143762E-01  0.95112663002E+01  0.51100000000E-03 0. -1.
        -11    1    3    3    0    0 -0.20996192140E+01  0.24368697538E+01 -0.17961698902E+01  0.36841500480E+01  0.51100000000E-03 0.  1.
         12    1    3    3    0    0  0.20455450195E+02  0.22366268604E+02 -0.16670904550E+02  0.34591826671E+02  0.00000000000E+00 0. -1.
</event>
<event>
 7    1  0.5541017E-010  0.4778727E+02  0.7816164E-02  0.1312668E+00
        -11   -1    0    0    0    0  0.00000000000E+00  0.00000000000E+00  0.45593999997E+02  0.45594000000E+02  0.51100000000E-03 0.  1.
         11   -1    0    0    0    0 -0.00000000000E+00 -0.00000000000E+00 -0.45593999997E+02  0.45594000000E+02  0.51100000000E-03 0. -1.
    9900012    2    1    2    0    0  0.32609820965E+01 -0.15042247231E+02 -0.40579798337E+02  0.47787271445E+02  0.20000001827E+02 0.  0.
        -12    1    1    2    0    0 -0.32609820965E+01  0.15042247231E+02  0.40579798337E+02  0.43400728555E+02  0.00000000000E+00 0.  1.
         11    1    3    3    0    0  0.35533596774E+01 -0.39739306567E+01 -0.13750722805E+02  0.14747910624E+02  0.51100000000E-03 0. -1.
        -11    1    3    3    0    0 -0.32984262353E+00 -0.10279926735E+02 -0.54391218958E+01  0.11634850111E+02  0.51100000000E-03 0.  1.
        -12    1    3    3    0    0  0.37465042600E-01 -0.78838983919E+00 -0.21389953636E+02  0.21404510710E+02  0.00000000000E+00 0.  1.
</event>
<event>
 7    1  0.5541017E-010  0.4778727E+02  0.7816164E-02  0.1312668E+00
        -11   -1    0    0    0    0  0.00000000000E+00  0.00000000000E+00  0.45593999997E+02  0.45594000000E+02  0.51100000000E-03 0.  1.
         11   -1    0    0    0    0 -0.00000000000E+00 -0.00000000000E+00 -0.45593999997E+02  0.45594000000E+02  0.51100000000E-03 0. -1.
    9900012    2    1    2    0    0 -0.65937539693E+01 -0.86517566120E+01 -0.42015388802E+02  0.47787269821E+02  0.19999994421E+02 0.  0.
        -12    1    1    2    0    0  0.65937539693E+01  0.86517566120E+01  0.42015388802E+02  0.43400730179E+02  0.00000000000E+00 0.  1.
         11    1    3    3    0    0 -0.29029091091E+00 -0.20308241706E+01 -0.15596514043E+02  0.15730853956E+02  0.51100000000E-03 0. -1.
        -11    1    3    3    0    0 -0.31718928145E+01 -0.16784605207E+01 -0.25938626169E+02  0.26185691924E+02  0.51100000000E-03 0.  1.
        -12    1    3    3    0    0 -0.31315702438E+01 -0.49424719207E+01 -0.48024859019E+00  0.58707239407E+01  0.00000000000E+00 0.  1.
</event>
<event>
 7    1  0.5541017E-010  0.4778727E+02  0.7816164E-02  0.1312668E+00
        -11   -1    0    0    0    0  0.00000000000E+00  0.00000000000E+00  0.45593999997E+02  0.45594000000E+02  0.51100000000E-03 0.  1.
         11   -1    0    0    0    0 -0.00000000000E+00 -0.00000000000E+00 -0.45593999997E+02  0.45594000000E+02  0.51100000000E-03 0. -1.
    9900012    2    1    2    0    0 -0.30017104733E+01  0.20506372477E+02 -0.38132681896E+02  0.47787274124E+02  0.20000014043E+02 0.  0.
        -12    1    1    2    0    0  0.30017104733E+01 -0.20506372477E+02  0.38132681896E+02  0.43400725876E+02  0.00000000000E+00 0.  1.
         11    1    3    3    0    0  0.50291600517E+01  0.14255174745E+02 -0.20330137546E+02  0.25334106472E+02  0.51100000000E-03 0. -1.
        -11    1    3    3    0    0 -0.20718483046E+01  0.52438293223E+01 -0.28336712360E+01  0.63103085736E+01  0.51100000000E-03 0.  1.
        -12    1    3    3    0    0 -0.59590222204E+01  0.10073684100E+01 -0.14968873115E+02  0.16142859079E+02  0.00000000000E+00 0.  1.
</event>
<event>
 7    1  0.5541017E-010  0.4778727E+02  0.7816164E-02  0.1312668E+00
        -11   -1    0    0    0    0  0.00000000000E+00  0.00000000000E+00  0.45593999997E+02  0.45594000000E+02  0.51100000000E-03 0.  1.
         11   -1    0    0    0    0 -0.00000000000E+00 -0.00000000000E+00 -0.45593999997E+02  0.45594000000E+02  0.51100000000E-03 0. -1.
    9900012    2    1    2    0    0  0.43170299761E+02  0.37288806227E+01 -0.24585036170E+01  0.47787267608E+02  0.19999984332E+02 0.  0.
        -12    1    1    2    0    0 -0.43170299761E+02 -0.37288806227E+01  0.24585036170E+01  0.43400732392E+02  0.00000000000E+00 0.  1.
         11    1    3    3    0    0  0.14652297603E+01  0.18513223353E+01 -0.66221770620E+00  0.24521062765E+01  0.51100000000E-03 0.  1.
        -11    1    3    3    0    0  0.29417773560E+02 -0.41355618257E+01 -0.72983074481E+01  0.30590416224E+02  0.51100000000E-03 0. -1.
         12    1    3    3    0    0  0.12287296440E+02  0.60131201131E+01  0.55020215372E+01  0.14744745108E+02  0.00000000000E+00 0. -1.
</event>
<event>
 7    1  0.5541017E-010  0.4778727E+02  0.7816164E-02  0.1312668E+00
        -11   -1    0    0    0    0  0.00000000000E+00  0.00000000000E+00  0.45593999997E+02  0.45594000000E+02  0.51100000000E-03 0.  1.
         11   -1    0    0    0    0 -0.00000000000E+00 -0.00000000000E+00 -0.45593999997E+02  0.45594000000E+02  0.51100000000E-03 0. -1.
    9900012    2    1    2    0    0  0.39721114546E+02  0.66223089699E+01  0.16186454753E+02  0.47787271500E+02  0.20000002079E+02 0.  0.
        -12    1    1    2    0    0 -0.39721114546E+02 -0.66223089699E+01 -0.16186454753E+02  0.43400728500E+02  0.00000000000E+00 0.  1.
         11    1    3    3    0    0  0.29486359270E+02 -0.32091516932E+01  0.83373294894E+01  0.30809983785E+02  0.51100000000E-03 0. -1.
        -11    1    3    3    0    0 -0.11961701758E+00  0.95462019561E+00  0.18342416328E+01  0.20712437272E+01  0.51100000000E-03 0.  1.
         12    1    3    3    0    0  0.10354372293E+02  0.88768404675E+01  0.60148836308E+01  0.14906043988E+02  0.00000000000E+00 0. -1.
</event>
<event>
 7    1  0.5541017E-010  0.4778727E+02  0.7816164E-02  0.1312668E+00
        -11   -1    0    0    0    0  0.00000000000E+00  0.00000000000E+00  0.45593999997E+02  0.45594000000E+02  0.51100000000E-03 0.  1.
         11   -1    0    0    0    0 -0.00000000000E+00 -0.00000000000E+00 -0.45593999997E+02  0.45594000000E+02  0.51100000000E-03 0. -1.
    9900012    2    1    2    0    0  0.28932286040E+02 -0.32301224067E+02 -0.17824613559E+01  0.47787269358E+02  0.19999992313E+02 0.  0.
        -12    1    1    2    0    0 -0.28932286040E+02  0.32301224067E+02  0.17824613559E+01  0.43400730642E+02  0.00000000000E+00 0.  1.
         11    1    3    3    0    0  0.26392252793E+02 -0.26231331579E+02 -0.59016309991E+01  0.37675761606E+02  0.51100000000E-03 0. -1.
        -11    1    3    3    0    0  0.13364311466E+01  0.10135028285E+01 -0.25987408346E+00  0.16972834157E+01  0.51100000000E-03 0.  1.
        -12    1    3    3    0    0  0.12036021005E+01 -0.70833953162E+01  0.43790437267E+01  0.84142243364E+01  0.00000000000E+00 0.  1.
</event>
<event>
 7    1  0.5541017E-010  0.4778727E+02  0.7816164E-02  0.1312668E+00
        -11   -1    0    0    0    0  0.00000000000E+00  0.00000000000E+00  0.45593999997E+02  0.45594000000E+02  0.51100000000E-03 0.  1.
         11   -1    0    0    0    0 -0.00000000000E+00 -0.00000000000E+00 -0.45593999997E+02  0.45594000000E+02  0.51100000000E-03 0. -1.
    9900012    2    1    2    0    0 -0.18429308991E+02  0.26090784866E+02 -0.29381198713E+02  0.47787270483E+02  0.19999997439E+02 0.  0.
        -12    1    1    2    0    0  0.18429308991E+02 -0.26090784866E+02  0.29381198713E+02  0.43400729517E+02  0.00000000000E+00 0.  1.
         11    1    3    3    0    0 -0.62660584339E+00  0.46316823280E+01 -0.23539644566E+01  0.52331887979E+01  0.51100000000E-03 0. -1.
        -11    1    3    3    0    0 -0.28144493348E+00  0.11775781145E+02 -0.50212883271E+01  0.12804747930E+02  0.51100000000E-03 0.  1.
         12    1    3    3    0    0 -0.17521258214E+02  0.96833213926E+01 -0.22005945930E+02  0.29749333755E+02  0.00000000000E+00 0. -1.
</event>
<event>
 7    1  0.5541017E-010  0.4778727E+02  0.7816164E-02  0.1312668E+00
        -11   -1    0    0    0    0  0.00000000000E+00  0.00000000000E+00  0.45593999997E+02  0.45594000000E+02  0.51100000000E-03 0. -1.
         11   -1    0    0    0    0 -0.00000000000E+00 -0.00000000000E+00 -0.45593999997E+02  0.45594000000E+02  0.51100000000E-03 0.  1.
    9900012    2    1    2    0    0 -0.27851107626E+02 -0.16626817163E+02  0.28835541389E+02  0.47787266226E+02  0.19999978030E+02 0.  0.
        -12    1    1    2    0    0  0.27851107626E+02  0.16626817163E+02 -0.28835541389E+02  0.43400733774E+02  0.00000000000E+00 0.  1.
         11    1    3    3    0    0 -0.12812381970E+02 -0.13900061090E+02  0.10977523183E+02  0.21860348706E+02  0.51100000000E-03 0.  1.
        -11    1    3    3    0    0 -0.56415105453E+01 -0.53162263416E+01  0.33410640189E+01  0.84410670407E+01  0.51100000000E-03 0. -1.
        -12    1    3    3    0    0 -0.93972151110E+01  0.25894702693E+01  0.14516954187E+02  0.17485850479E+02  0.00000000000E+00 0.  1.
</event>
<event>
 7    1  0.5541017E-010  0.4778730E+02  0.7816164E-02  0.1312668E+00
        -11   -1    0    0    0    0  0.00000000000E+00  0.00000000000E+00  0.45593999997E+02  0.45594000000E+02  0.51100000000E-03 0.  1.
         11   -1    0    0    0    0 -0.00000000000E+00 -0.00000000000E+00 -0.45593999997E+02  0.45594000000E+02  0.51100000000E-03 0. -1.
    9900012    2    1    2    0    0 -0.26506554286E+02  0.26139532897E+02 -0.22310279490E+02  0.47787295269E+02  0.20000110450E+02 0.  0.
        -12    1    1    2    0    0  0.26506554286E+02 -0.26139532897E+02  0.22310279490E+02  0.43400704731E+02  0.00000000000E+00 0.  1.
         11    1    3    3    0    0 -0.34776452063E+01  0.72208192172E+01 -0.76668920609E+01  0.11091234399E+02  0.51100000000E-03 0. -1.
        -11    1    3    3    0    0 -0.14184980044E+02  0.27206416552E+01 -0.10290745860E+02  0.17734570773E+02  0.51100000000E-03 0.  1.
        -12    1    3    3    0    0 -0.88439290357E+01  0.16198072025E+02 -0.43526415687E+01  0.18961490098E+02  0.00000000000E+00 0.  1.
</event>
<event>
 7    1  0.5541017E-010  0.4778727E+02  0.7816164E-02  0.1312668E+00
        -11   -1    0    0    0    0  0.00000000000E+00  0.00000000000E+00  0.45593999997E+02  0.45594000000E+02  0.51100000000E-03 0.  1.
         11   -1    0    0    0    0 -0.00000000000E+00 -0.00000000000E+00 -0.45593999997E+02  0.45594000000E+02  0.51100000000E-03 0. -1.
    9900012    2    1    2    0    0 -0.10678789582E+02  0.25287142427E+02 -0.33617661059E+02  0.47787271272E+02  0.20000001038E+02 0.  0.
        -12    1    1    2    0    0  0.10678789582E+02 -0.25287142427E+02  0.33617661059E+02  0.43400728728E+02  0.00000000000E+00 0.  1.
         11    1    3    3    0    0 -0.76218271795E+01  0.44036879570E+01 -0.10411019817E+02  0.13633563403E+02  0.51100000000E-03 0. -1.
        -11    1    3    3    0    0 -0.12076984554E+01 -0.85978939235E+00 -0.65110674378E+01  0.66777071513E+01  0.51100000000E-03 0.  1.
        -12    1    3    3    0    0 -0.18492639472E+01  0.21743243862E+02 -0.16695573804E+02  0.27476000718E+02  0.00000000000E+00 0.  1.
</event>
<event>
 7    1  0.5541017E-010  0.4778726E+02  0.7816164E-02  0.1312668E+00
        -11   -1    0    0    0    0  0.00000000000E+00  0.00000000000E+00  0.45593999997E+02  0.45594000000E+02  0.51100000000E-03 0.  1.
         11   -1    0    0    0    0 -0.00000000000E+00 -0.00000000000E+00 -0.45593999997E+02  0.45594000000E+02  0.51100000000E-03 0. -1.
    9900012    2    1    2    0    0  0.10113573281E+02 -0.30408749915E+02 -0.29268542559E+02  0.47787262456E+02  0.19999960840E+02 0.  0.
        -12    1    1    2    0    0 -0.10113573281E+02  0.30408749915E+02  0.29268542559E+02  0.43400737544E+02  0.00000000000E+00 0.  1.
         11    1    3    3    0    0  0.28091167473E+01 -0.26031199100E+01 -0.93561882977E+00  0.39424298372E+01  0.51100000000E-03 0. -1.
        -11    1    3    3    0    0  0.12247539893E+02 -0.13639282320E+02 -0.13682459913E+02  0.22874482839E+02  0.51100000000E-03 0.  1.
         12    1    3    3    0    0 -0.49430833597E+01 -0.14166347685E+02 -0.14650463816E+02  0.20970349779E+02  0.00000000000E+00 0. -1.
</event>
<event>
 7    1  0.5541017E-010  0.4778728E+02  0.7816164E-02  0.1312668E+00
        -11   -1    0    0    0    0  0.00000000000E+00  0.00000000000E+00  0.45593999997E+02  0.45594000000E+02  0.51100000000E-03 0.  1.
         11   -1    0    0    0    0 -0.00000000000E+00 -0.00000000000E+00 -0.45593999997E+02  0.45594000000E+02  0.51100000000E-03 0. -1.
    9900012    2    1    2    0    0  0.32141587152E+02 -0.99932095196E+01 -0.27398478711E+02  0.47787279997E+02  0.20000040816E+02 0.  0.
        -12    1    1    2    0    0 -0.32141587152E+02  0.99932095196E+01  0.27398478711E+02  0.43400720003E+02  0.00000000000E+00 0.  1.
         11    1    3    3    0    0  0.55487867446E+01 -0.48201719548E+01 -0.55683462628E+01  0.92211481050E+01  0.51100000000E-03 0. -1.
        -11    1    3    3    0    0  0.14032466696E+01  0.20046039025E+01  0.19963772954E+01  0.31580152926E+01  0.51100000000E-03 0.  1.
         12    1    3    3    0    0  0.25189553738E+02 -0.71776414673E+01 -0.23826509743E+02  0.35408116599E+02  0.00000000000E+00 0. -1.
</event>
<event>
 7    1  0.5541017E-010  0.4778727E+02  0.7816164E-02  0.1312668E+00
        -11   -1    0    0    0    0  0.00000000000E+00  0.00000000000E+00  0.45593999997E+02  0.45594000000E+02  0.51100000000E-03 0.  1.
         11   -1    0    0    0    0 -0.00000000000E+00 -0.00000000000E+00 -0.45593999997E+02  0.45594000000E+02  0.51100000000E-03 0. -1.
    9900012    2    1    2    0    0  0.74703233458E+01 -0.42441926826E+02  0.51478573812E+01  0.47787270522E+02  0.19999997617E+02 0.  0.
        -12    1    1    2    0    0 -0.74703233458E+01  0.42441926826E+02 -0.51478573812E+01  0.43400729478E+02  0.00000000000E+00 0.  1.
         11    1    3    3    0    0  0.63183001982E+01 -0.32918879663E+02  0.59567039419E+01  0.34044909719E+02  0.51100000000E-03 0. -1.
        -11    1    3    3    0    0  0.52040914730E+01 -0.69676726835E+01  0.68704477879E+00  0.87237068654E+01  0.51100000000E-03 0.  1.
        -12    1    3    3    0    0 -0.40520683254E+01 -0.25553744798E+01 -0.14958913395E+01  0.50186539376E+01  0.00000000000E+00 0.  1.
</event>
<event>
 7    1  0.5541017E-010  0.4778727E+02  0.7816164E-02  0.1312668E+00
        -11   -1    0    0    0    0  0.00000000000E+00  0.00000000000E+00  0.45593999997E+02  0.45594000000E+02  0.51100000000E-03 0.  1.
         11   -1    0    0    0    0 -0.00000000000E+00 -0.00000000000E+00 -0.45593999997E+02  0.45594000000E+02  0.51100000000E-03 0. -1.
    9900012    2    1    2    0    0  0.87789020853E+01  0.13493839090E+02 -0.40304717379E+02  0.47787273529E+02  0.20000011330E+02 0.  0.
        -12    1    1    2    0    0 -0.87789020853E+01 -0.13493839090E+02  0.40304717379E+02  0.43400726471E+02  0.00000000000E+00 0.  1.
         11    1    3    3    0    0 -0.11079075465E+01 -0.71461417486E+00 -0.50700821725E+01  0.52386893444E+01  0.51100000000E-03 0. -1.
        -11    1    3    3    0    0  0.17694685358E+00  0.75265998761E+01 -0.27351109636E+02  0.28368366440E+02  0.51100000000E-03 0.  1.
         12    1    3    3    0    0  0.97098627782E+01  0.66818533887E+01 -0.78835255701E+01  0.14180217745E+02  0.00000000000E+00 0. -1.
</event>
<event>
 7    1  0.5541017E-010  0.4778727E+02  0.7816164E-02  0.1312668E+00
        -11   -1    0    0    0    0  0.00000000000E+00  0.00000000000E+00  0.45593999997E+02  0.45594000000E+02  0.51100000000E-03 0.  1.
         11   -1    0    0    0    0 -0.00000000000E+00 -0.00000000000E+00 -0.45593999997E+02  0.45594000000E+02  0.51100000000E-03 0. -1.
    9900012    2    1    2    0    0 -0.27257875315E+02 -0.29302876660E+02 -0.16792051009E+02  0.47787270463E+02  0.19999997350E+02 0.  0.
        -12    1    1    2    0    0  0.27257875315E+02  0.29302876660E+02  0.16792051009E+02  0.43400729537E+02  0.00000000000E+00 0.  1.
         11    1    3    3    0    0 -0.83862429937E+01 -0.12389437359E+01 -0.44668886698E+01  0.95821264748E+01  0.51100000000E-03 0. -1.
        -11    1    3    3    0    0 -0.40481762347E+01 -0.40964217505E+01  0.25963640047E+01  0.63173972720E+01  0.51100000000E-03 0.  1.
        -12    1    3    3    0    0 -0.14823456086E+02 -0.23967511174E+02 -0.14921526344E+02  0.31887746716E+02  0.00000000000E+00 0.  1.
</event>
<event>
 7    1  0.5541017E-010  0.4778727E+02  0.7816164E-02  0.1312668E+00
        -11   -1    0    0    0    0  0.00000000000E+00  0.00000000000E+00  0.45593999997E+02  0.45594000000E+02  0.51100000000E-03 0.  1.
         11   -1    0    0    0    0 -0.00000000000E+00 -0.00000000000E+00 -0.45593999997E+02  0.45594000000E+02  0.51100000000E-03 0. -1.
    9900012    2    1    2    0    0 -0.14196835564E+02 -0.38998649898E+02  0.12695608412E+02  0.47787270664E+02  0.19999998267E+02 0.  0.
        -12    1    1    2    0    0  0.14196835564E+02  0.38998649898E+02 -0.12695608412E+02  0.43400729336E+02  0.00000000000E+00 0.  1.
         11    1    3    3    0    0 -0.70779506058E+01 -0.23056957557E+02  0.68676240179E+00  0.24128661783E+02  0.51100000000E-03 0. -1.
        -11    1    3    3    0    0 -0.19016958728E+01 -0.28010015928E+01 -0.18520905709E+01  0.38590538814E+01  0.51100000000E-03 0.  1.
        -12    1    3    3    0    0 -0.52171890851E+01 -0.13140690748E+02  0.13860936581E+02  0.19799555000E+02  0.00000000000E+00 0.  1.
</event>
<event>
 7    1  0.5541017E-010  0.4778727E+02  0.7816164E-02  0.1312668E+00
        -11   -1    0    0    0    0  0.00000000000E+00  0.00000000000E+00  0.45593999997E+02  0.45594000000E+02  0.51100000000E-03 0.  1.
         11   -1    0    0    0    0 -0.00000000000E+00 -0.00000000000E+00 -0.45593999997E+02  0.45594000000E+02  0.51100000000E-03 0. -1.
    9900012    2    1    2    0    0  0.36995783032E+02  0.15556707867E+02 -0.16520427530E+02  0.47787266739E+02  0.19999980369E+02 0.  0.
        -12    1    1    2    0    0 -0.36995783032E+02 -0.15556707867E+02  0.16520427530E+02  0.43400733261E+02  0.00000000000E+00 0.  1.
         11    1    3    3    0    0  0.85594703188E+01  0.37557457133E+01 -0.95001916236E+01  0.13327557884E+02  0.51100000000E-03 0.  1.
        -11    1    3    3    0    0  0.20846200227E+02  0.34511587060E+01 -0.90642324166E+01  0.22992061018E+02  0.51100000000E-03 0. -1.
        -12    1    3    3    0    0  0.75901124867E+01  0.83498034473E+01  0.20439965103E+01  0.11467647837E+02  0.00000000000E+00 0.  1.
</event>
<event>
 7    1  0.5541017E-010  0.4778727E+02  0.7816164E-02  0.1312668E+00
        -11   -1    0    0    0    0  0.00000000000E+00  0.00000000000E+00  0.45593999997E+02  0.45594000000E+02  0.51100000000E-03 0. -1.
         11   -1    0    0    0    0 -0.00000000000E+00 -0.00000000000E+00 -0.45593999997E+02  0.45594000000E+02  0.51100000000E-03 0.  1.
    9900012    2    1    2    0    0 -0.14826084574E+02  0.37847543621E+02  0.15210976330E+02  0.47787272553E+02  0.20000006880E+02 0.  0.
        -12    1    1    2    0    0  0.14826084574E+02 -0.37847543621E+02 -0.15210976330E+02  0.43400727447E+02  0.00000000000E+00 0.  1.
         11    1    3    3    0    0 -0.13966147434E+01  0.13417958157E+02  0.13843562738E+02  0.19329675718E+02  0.51100000000E-03 0. -1.
        -11    1    3    3    0    0 -0.65375972186E+01  0.70076362492E+01 -0.69487609497E+00  0.96088498918E+01  0.51100000000E-03 0.  1.
        -12    1    3    3    0    0 -0.68918726121E+01  0.17421949215E+02  0.20622896874E+01  0.18848746943E+02  0.00000000000E+00 0.  1.
</event>
<event>
 7    1  0.5541017E-010  0.4778726E+02  0.7816164E-02  0.1312668E+00
        -11   -1    0    0    0    0  0.00000000000E+00  0.00000000000E+00  0.45593999997E+02  0.45594000000E+02  0.51100000000E-03 0.  1.
         11   -1    0    0    0    0 -0.00000000000E+00 -0.00000000000E+00 -0.45593999997E+02  0.45594000000E+02  0.51100000000E-03 0. -1.
    9900012    2    1    2    0    0 -0.26078837886E+02  0.11146556364E+02 -0.32852280359E+02  0.47787264649E+02  0.19999970839E+02 0.  0.
        -12    1    1    2    0    0  0.26078837886E+02 -0.11146556364E+02  0.32852280359E+02  0.43400735351E+02  0.00000000000E+00 0.  1.
         11    1    3    3    0    0 -0.22038199362E+01  0.13303466379E+01 -0.78484441028E+01  0.82598256389E+01  0.51100000000E-03 0.  1.
        -11    1    3    3    0    0 -0.20052820834E+02  0.88612196424E+00 -0.20914033087E+02  0.28987887397E+02  0.51100000000E-03 0. -1.
         12    1    3    3    0    0 -0.38221971156E+01  0.89300877621E+01 -0.40898031689E+01  0.10539551612E+02  0.00000000000E+00 0. -1.
</event>
<event>
 7    1  0.5541017E-010  0.4778728E+02  0.7816164E-02  0.1312668E+00
        -11   -1    0    0    0    0  0.00000000000E+00  0.00000000000E+00  0.45593999997E+02  0.45594000000E+02  0.51100000000E-03 0.  1.
         11   -1    0    0    0    0 -0.00000000000E+00 -0.00000000000E+00 -0.45593999997E+02  0.45594000000E+02  0.51100000000E-03 0. -1.
    9900012    2    1    2    0    0  0.41514096960E+02 -0.63773146506E+01  0.10933061485E+02  0.47787283163E+02  0.20000055252E+02 0.  0.
        -12    1    1    2    0    0 -0.41514096960E+02  0.63773146506E+01 -0.10933061485E+02  0.43400716837E+02  0.00000000000E+00 0.  1.
         11    1    3    3    0    0  0.20289683528E+02 -0.17244255440E+01  0.12108389924E+02  0.23690884491E+02  0.51100000000E-03 0. -1.
        -11    1    3    3    0    0 -0.95437813481E+00  0.73980361284E+00  0.22572643556E+00  0.12284541891E+01  0.51100000000E-03 0.  1.
         12    1    3    3    0    0  0.22178791567E+02 -0.53926927194E+01 -0.14010548752E+01  0.22867944483E+02  0.00000000000E+00 0. -1.
</event>
<event>
 7    1  0.5541017E-010  0.4778727E+02  0.7816164E-02  0.1312668E+00
        -11   -1    0    0    0    0  0.00000000000E+00  0.00000000000E+00  0.45593999997E+02  0.45594000000E+02  0.51100000000E-03 0.  1.
         11   -1    0    0    0    0 -0.00000000000E+00 -0.00000000000E+00 -0.45593999997E+02  0.45594000000E+02  0.51100000000E-03 0. -1.
    9900012    2    1    2    0    0 -0.81838477022E+00  0.71056144846E+01 -0.42807287849E+02  0.47787269548E+02  0.19999993175E+02 0.  0.
        -12    1    1    2    0    0  0.81838477022E+00 -0.71056144846E+01  0.42807287849E+02  0.43400730452E+02  0.00000000000E+00 0.  1.
         11    1    3    3    0    0 -0.21568782798E+01  0.29909295090E+01 -0.16878765254E+02  0.17276877612E+02  0.51100000000E-03 0.  1.
        -11    1    3    3    0    0 -0.17486898886E+01  0.74944575765E+01 -0.24552806937E+02  0.25730626488E+02  0.51100000000E-03 0. -1.
         12    1    3    3    0    0  0.30871833982E+01 -0.33797726009E+01 -0.13757156570E+01  0.47797654479E+01  0.00000000000E+00 0. -1.
</event>
<event>
 7    1  0.5541017E-010  0.4778727E+02  0.7816164E-02  0.1312668E+00
        -11   -1    0    0    0    0  0.00000000000E+00  0.00000000000E+00  0.45593999997E+02  0.45594000000E+02  0.51100000000E-03 0. -1.
         11   -1    0    0    0    0 -0.00000000000E+00 -0.00000000000E+00 -0.45593999997E+02  0.45594000000E+02  0.51100000000E-03 0.  1.
    9900012    2    1    2    0    0 -0.28218265557E+02  0.32856196503E+02  0.27969598521E+01  0.47787272539E+02  0.20000006816E+02 0.  0.
        -12    1    1    2    0    0  0.28218265557E+02 -0.32856196503E+02 -0.27969598521E+01  0.43400727461E+02  0.00000000000E+00 0.  1.
         11    1    3    3    0    0 -0.10587427245E+02  0.20144615725E+02  0.99124314421E+01  0.24822478839E+02  0.51100000000E-03 0. -1.
        -11    1    3    3    0    0 -0.50090503913E+00  0.14997391949E+00 -0.48161569984E+00  0.71088112804E+00  0.51100000000E-03 0.  1.
         12    1    3    3    0    0 -0.17129933272E+02  0.12561606859E+02 -0.66338558902E+01  0.22253912572E+02  0.00000000000E+00 0. -1.
</event>
<event>
 7    1  0.5541017E-010  0.4778727E+02  0.7816164E-02  0.1312668E+00
        -11   -1    0    0    0    0  0.00000000000E+00  0.00000000000E+00  0.45593999997E+02  0.45594000000E+02  0.51100000000E-03 0.  1.
         11   -1    0    0    0    0 -0.00000000000E+00 -0.00000000000E+00 -0.45593999997E+02  0.45594000000E+02  0.51100000000E-03 0. -1.
    9900012    2    1    2    0    0  0.12717313405E+02  0.23590324293E+02 -0.34137808358E+02  0.47787269361E+02  0.19999992325E+02 0.  0.
        -12    1    1    2    0    0 -0.12717313405E+02 -0.23590324293E+02  0.34137808358E+02  0.43400730639E+02  0.00000000000E+00 0.  1.
         11    1    3    3    0    0  0.67872695904E+01  0.62569219966E+01 -0.22701514279E+02  0.24506628740E+02  0.51100000000E-03 0. -1.
        -11    1    3    3    0    0  0.13721639135E+01  0.95743540482E+01 -0.10432148918E+02  0.14226061315E+02  0.51100000000E-03 0.  1.
        -12    1    3    3    0    0  0.45578799009E+01  0.77590482482E+01 -0.10041451616E+01  0.90545793063E+01  0.00000000000E+00 0.  1.
</event>
<event>
 7    1  0.5541017E-010  0.4778727E+02  0.7816164E-02  0.1312668E+00
        -11   -1    0    0    0    0  0.00000000000E+00  0.00000000000E+00  0.45593999997E+02  0.45594000000E+02  0.51100000000E-03 0.  1.
         11   -1    0    0    0    0 -0.00000000000E+00 -0.00000000000E+00 -0.45593999997E+02  0.45594000000E+02  0.51100000000E-03 0. -1.
    9900012    2    1    2    0    0  0.76769618311E+01  0.15085128646E+02 -0.39964062203E+02  0.47787272852E+02  0.20000008243E+02 0.  0.
        -12    1    1    2    0    0 -0.76769618311E+01 -0.15085128646E+02  0.39964062203E+02  0.43400727148E+02  0.00000000000E+00 0.  1.
         11    1    3    3    0    0  0.11848157501E+02  0.28845729337E+01 -0.24343362398E+02  0.27226804628E+02  0.51100000000E-03 0.  1.
        -11    1    3    3    0    0  0.14307646064E+00  0.47988147077E+01 -0.57046363655E+01  0.74560022664E+01  0.51100000000E-03 0. -1.
        -12    1    3    3    0    0 -0.43142721302E+01  0.74017410042E+01 -0.99160634396E+01  0.13104465958E+02  0.00000000000E+00 0.  1.
</event>
<event>
 7    1  0.5541017E-010  0.4778727E+02  0.7816164E-02  0.1312668E+00
        -11   -1    0    0    0    0  0.00000000000E+00  0.00000000000E+00  0.45593999997E+02  0.45594000000E+02  0.51100000000E-03 0. -1.
         11   -1    0    0    0    0 -0.00000000000E+00 -0.00000000000E+00 -0.45593999997E+02  0.45594000000E+02  0.51100000000E-03 0.  1.
    9900012    2    1    2    0    0  0.11745117100E+02 -0.28201179184E+02  0.30828050251E+02  0.47787274599E+02  0.20000016205E+02 0.  0.
        -12    1    1    2    0    0 -0.11745117100E+02  0.28201179184E+02 -0.30828050251E+02  0.43400725401E+02  0.00000000000E+00 0.  1.
         11    1    3    3    0    0  0.11563886750E+01 -0.39930616644E+01 -0.21517678213E+01  0.46810128435E+01  0.51100000000E-03 0.  1.
        -11    1    3    3    0    0  0.67489636738E+01 -0.60580789048E+01  0.88766064334E+01  0.12690270790E+02  0.51100000000E-03 0. -1.
         12    1    3    3    0    0  0.38397647512E+01 -0.18150038615E+02  0.24103211639E+02  0.30415990965E+02  0.00000000000E+00 0. -1.
</event>
<event>
 7    1  0.5541017E-010  0.4778727E+02  0.7816164E-02  0.1312668E+00
        -11   -1    0    0    0    0  0.00000000000E+00  0.00000000000E+00  0.45593999997E+02  0.45594000000E+02  0.51100000000E-03 0.  1.
         11   -1    0    0    0    0 -0.00000000000E+00 -0.00000000000E+00 -0.45593999997E+02  0.45594000000E+02  0.51100000000E-03 0. -1.
    9900012    2    1    2    0    0 -0.20505000940E+02 -0.37544665091E+01 -0.38066678825E+02  0.47787272828E+02  0.20000008133E+02 0.  0.
        -12    1    1    2    0    0  0.20505000940E+02  0.37544665091E+01  0.38066678825E+02  0.43400727172E+02  0.00000000000E+00 0.  1.
         11    1    3    3    0    0 -0.48197413039E+01  0.73364196876E+01 -0.11168513856E+02  0.14205233616E+02  0.51100000000E-03 0. -1.
        -11    1    3    3    0    0 -0.75802014962E+01 -0.25320749435E+01 -0.13910203261E+02  0.16042587487E+02  0.51100000000E-03 0.  1.
        -12    1    3    3    0    0 -0.81050581397E+01 -0.85588112532E+01 -0.12987961707E+02  0.17539451725E+02  0.00000000000E+00 0.  1.
</event>
<event>
 7    1  0.5541017E-010  0.4778727E+02  0.7816164E-02  0.1312668E+00
        -11   -1    0    0    0    0  0.00000000000E+00  0.00000000000E+00  0.45593999997E+02  0.45594000000E+02  0.51100000000E-03 0.  1.
         11   -1    0    0    0    0 -0.00000000000E+00 -0.00000000000E+00 -0.45593999997E+02  0.45594000000E+02  0.51100000000E-03 0. -1.
    9900012    2    1    2    0    0 -0.14711659296E+02 -0.37134462077E+01 -0.40662026296E+02  0.47787274379E+02  0.20000015202E+02 0.  0.
        -12    1    1    2    0    0  0.14711659296E+02  0.37134462077E+01  0.40662026296E+02  0.43400725621E+02  0.00000000000E+00 0.  1.
         11    1    3    3    0    0 -0.41684308596E+01 -0.10906933570E+02 -0.23151982380E+02  0.25929737834E+02  0.51100000000E-03 0. -1.
        -11    1    3    3    0    0 -0.32284670998E+01  0.38875283850E+01 -0.69507926398E+01  0.85935670907E+01  0.51100000000E-03 0.  1.
        -12    1    3    3    0    0 -0.73147613365E+01  0.33059589776E+01 -0.10559251276E+02  0.13263969454E+02  0.00000000000E+00 0.  1.
</event>
<event>
 7    1  0.5541017E-010  0.4778727E+02  0.7816164E-02  0.1312668E+00
        -11   -1    0    0    0    0  0.00000000000E+00  0.00000000000E+00  0.45593999997E+02  0.45594000000E+02  0.51100000000E-03 0. -1.
         11   -1    0    0    0    0 -0.00000000000E+00 -0.00000000000E+00 -0.45593999997E+02  0.45594000000E+02  0.51100000000E-03 0.  1.
    9900012    2    1    2    0    0 -0.35256603818E+02  0.19458874292E+02 -0.16184795249E+02  0.47787268454E+02  0.19999988189E+02 0.  0.
        -12    1    1    2    0    0  0.35256603818E+02 -0.19458874292E+02  0.16184795249E+02  0.43400731546E+02  0.00000000000E+00 0.  1.
         11    1    3    3    0    0 -0.18827487423E+02  0.48641512109E+01 -0.10129494224E+02  0.21925804504E+02  0.51100000000E-03 0. -1.
        -11    1    3    3    0    0 -0.10900133051E+02  0.17859633140E+01 -0.12978088978E+01  0.11121460052E+02  0.51100000000E-03 0.  1.
         12    1    3    3    0    0 -0.55289833446E+01  0.12808759767E+02 -0.47574921273E+01  0.14740003899E+02  0.00000000000E+00 0. -1.
</event>
<event>
 7    1  0.5541017E-010  0.4778727E+02  0.7816164E-02  0.1312668E+00
        -11   -1    0    0    0    0  0.00000000000E+00  0.00000000000E+00  0.45593999997E+02  0.45594000000E+02  0.51100000000E-03 0.  1.
         11   -1    0    0    0    0 -0.00000000000E+00 -0.00000000000E+00 -0.45593999997E+02  0.45594000000E+02  0.51100000000E-03 0. -1.
    9900012    2    1    2    0    0  0.19900533353E+02 -0.20123743629E+02 -0.32903298109E+02  0.47787270607E+02  0.19999998005E+02 0.  0.
        -12    1    1    2    0    0 -0.19900533353E+02  0.20123743629E+02  0.32903298109E+02  0.43400729393E+02  0.00000000000E+00 0.  1.
         11    1    3    3    0    0  0.10497497863E+01 -0.79274602030E+01 -0.88142855819E+01  0.11901186095E+02  0.51100000000E-03 0. -1.
        -11    1    3    3    0    0 -0.46325640714E+00 -0.59817824083E+01 -0.33438122468E+01  0.68685812131E+01  0.51100000000E-03 0.  1.
         12    1    3    3    0    0  0.19314039974E+02 -0.62145010178E+01 -0.20745200281E+02  0.29017503299E+02  0.00000000000E+00 0. -1.
</event>
<event>
 7    1  0.6430721E-010  0.4778727E+02  0.7816164E-02  0.1312668E+00
        -11   -1    0    0    0    0  0.00000000000E+00  0.00000000000E+00  0.45593999997E+02  0.45594000000E+02  0.51100000000E-03 0.  1.
         11   -1    0    0    0    0 -0.00000000000E+00 -0.00000000000E+00 -0.45593999997E+02  0.45594000000E+02  0.51100000000E-03 0. -1.
    9900012    2    1    2    0    0  0.19409878927E+02 -0.35778977842E+02 -0.15058043551E+02  0.47787270387E+02  0.19999997002E+02 0.  0.
        -12    1    1    2    0    0 -0.19409878927E+02  0.35778977842E+02  0.15058043551E+02  0.43400729613E+02  0.00000000000E+00 0.  1.
         11    1    3    3    0    0  0.11159446716E+02 -0.15049879027E+02 -0.22210426393E+01  0.18867038464E+02  0.51100000000E-03 0. -1.
        -11    1    3    3    0    0  0.82221336191E+01 -0.41697083610E+01 -0.60323921079E+01  0.11017245748E+02  0.51100000000E-03 0.  1.
        -12    1    3    3    0    0  0.28298591934E-01 -0.16559390454E+02 -0.68046088035E+01  0.17902986175E+02  0.00000000000E+00 0.  1.
</event>
<event>
 7    1  0.5541017E-010  0.4778727E+02  0.7816164E-02  0.1312668E+00
        -11   -1    0    0    0    0  0.00000000000E+00  0.00000000000E+00  0.45593999997E+02  0.45594000000E+02  0.51100000000E-03 0.  1.
         11   -1    0    0    0    0 -0.00000000000E+00 -0.00000000000E+00 -0.45593999997E+02  0.45594000000E+02  0.51100000000E-03 0. -1.
    9900012    2    1    2    0    0  0.92094499900E+01  0.53364263767E+01 -0.42075313614E+02  0.47787269230E+02  0.19999991730E+02 0.  0.
        -12    1    1    2    0    0 -0.92094499900E+01 -0.53364263767E+01  0.42075313614E+02  0.43400730770E+02  0.00000000000E+00 0.  1.
         11    1    3    3    0    0  0.22639811632E+01  0.49026699091E+01 -0.91259686325E+01  0.10604012763E+02  0.51100000000E-03 0. -1.
        -11    1    3    3    0    0 -0.28021841041E+01  0.49445612657E+01 -0.64887599991E+01  0.86258291457E+01  0.51100000000E-03 0.  1.
         12    1    3    3    0    0  0.97476529310E+01 -0.45108047982E+01 -0.26460584983E+02  0.28557427321E+02  0.00000000000E+00 0. -1.
</event>
<event>
 7    1  0.5541017E-010  0.4778727E+02  0.7816164E-02  0.1312668E+00
        -11   -1    0    0    0    0  0.00000000000E+00  0.00000000000E+00  0.45593999997E+02  0.45594000000E+02  0.51100000000E-03 0. -1.
         11   -1    0    0    0    0 -0.00000000000E+00 -0.00000000000E+00 -0.45593999997E+02  0.45594000000E+02  0.51100000000E-03 0.  1.
    9900012    2    1    2    0    0 -0.13135126183E+02  0.38967446903E+02 -0.13879122666E+02  0.47787268394E+02  0.19999987915E+02 0.  0.
        -12    1    1    2    0    0  0.13135126183E+02 -0.38967446903E+02  0.13879122666E+02  0.43400731606E+02  0.00000000000E+00 0.  1.
         11    1    3    3    0    0  0.29032346217E+00  0.37837673373E+00 -0.28407173810E+00  0.55511591476E+00  0.51100000000E-03 0.  1.
        -11    1    3    3    0    0 -0.53714874811E+01  0.11700491179E+02  0.47244163788E+01  0.13714025010E+02  0.51100000000E-03 0. -1.
         12    1    3    3    0    0 -0.80539621644E+01  0.26888578990E+02 -0.18319467307E+02  0.33518127469E+02  0.00000000000E+00 0. -1.
</event>
<event>
 7    1  0.5541017E-010  0.4778727E+02  0.7816164E-02  0.1312668E+00
        -11   -1    0    0    0    0  0.00000000000E+00  0.00000000000E+00  0.45593999997E+02  0.45594000000E+02  0.51100000000E-03 0.  1.
         11   -1    0    0    0    0 -0.00000000000E+00 -0.00000000000E+00 -0.45593999997E+02  0.45594000000E+02  0.51100000000E-03 0. -1.
    9900012    2    1    2    0    0 -0.16799708969E+02 -0.80898824139E+00 -0.40009230544E+02  0.47787271756E+02  0.20000003244E+02 0.  0.
        -12    1    1    2    0    0  0.16799708969E+02  0.80898824139E+00  0.40009230544E+02  0.43400728244E+02  0.00000000000E+00 0.  1.
         11    1    3    3    0    0 -0.21246330318E+01  0.34774619423E+01 -0.76461722491E+01  0.86643382554E+01  0.51100000000E-03 0. -1.
        -11    1    3    3    0    0  0.33186035566E-02  0.46687803608E+01 -0.53385616389E+01  0.70920914901E+01  0.51100000000E-03 0.  1.
         12    1    3    3    0    0 -0.14678394541E+02 -0.89552305445E+01 -0.27024496656E+02  0.32030842010E+02  0.00000000000E+00 0. -1.
</event>
<event>
 7    1  0.5541017E-010  0.4778727E+02  0.7816164E-02  0.1312668E+00
        -11   -1    0    0    0    0  0.00000000000E+00  0.00000000000E+00  0.45593999997E+02  0.45594000000E+02  0.51100000000E-03 0.  1.
         11   -1    0    0    0    0 -0.00000000000E+00 -0.00000000000E+00 -0.45593999997E+02  0.45594000000E+02  0.51100000000E-03 0. -1.
    9900012    2    1    2    0    0 -0.30933836775E+02  0.44112366895E+01 -0.30120792347E+02  0.47787269610E+02  0.19999993460E+02 0.  0.
        -12    1    1    2    0    0  0.30933836775E+02 -0.44112366895E+01  0.30120792347E+02  0.43400730390E+02  0.00000000000E+00 0.  1.
         11    1    3    3    0    0 -0.86272909058E+01  0.63507293252E+01 -0.50665621996E+01  0.11850399323E+02  0.51100000000E-03 0. -1.
        -11    1    3    3    0    0 -0.19012326418E+02  0.32212765084E+01 -0.21401720625E+02  0.28807617467E+02  0.51100000000E-03 0.  1.
        -12    1    3    3    0    0 -0.32942194513E+01 -0.51607691441E+01 -0.36525095230E+01  0.71292528198E+01  0.00000000000E+00 0.  1.
</event>
<event>
 7    1  0.5541017E-010  0.4778727E+02  0.7816164E-02  0.1312668E+00
        -11   -1    0    0    0    0  0.00000000000E+00  0.00000000000E+00  0.45593999997E+02  0.45594000000E+02  0.51100000000E-03 0. -1.
         11   -1    0    0    0    0 -0.00000000000E+00 -0.00000000000E+00 -0.45593999997E+02  0.45594000000E+02  0.51100000000E-03 0.  1.
    9900012    2    1    2    0    0 -0.25175163857E+02  0.35125440997E+02  0.40047303583E+01  0.47787270217E+02  0.19999996227E+02 0.  0.
        -12    1    1    2    0    0  0.25175163857E+02 -0.35125440997E+02 -0.40047303583E+01  0.43400729783E+02  0.00000000000E+00 0.  1.
         11    1    3    3    0    0 -0.11214818785E+02  0.12043887467E+02  0.99789240425E+00  0.16487060842E+02  0.51100000000E-03 0. -1.
        -11    1    3    3    0    0 -0.10668343933E+02  0.44422747293E+01 -0.19844226955E+01  0.11725412604E+02  0.51100000000E-03 0.  1.
        -12    1    3    3    0    0 -0.32920011382E+01  0.18639278801E+02  0.49912606495E+01  0.19574796770E+02  0.00000000000E+00 0.  1.
</event>
<event>
 7    1  0.5541017E-010  0.4778727E+02  0.7816164E-02  0.1312668E+00
        -11   -1    0    0    0    0  0.00000000000E+00  0.00000000000E+00  0.45593999997E+02  0.45594000000E+02  0.51100000000E-03 0. -1.
         11   -1    0    0    0    0 -0.00000000000E+00 -0.00000000000E+00 -0.45593999997E+02  0.45594000000E+02  0.51100000000E-03 0.  1.
    9900012    2    1    2    0    0  0.15487111432E+02 -0.40461875593E+02 -0.25708133378E+01  0.47787273298E+02  0.20000010277E+02 0.  0.
        -12    1    1    2    0    0 -0.15487111432E+02  0.40461875593E+02  0.25708133378E+01  0.43400726702E+02  0.00000000000E+00 0.  1.
         11    1    3    3    0    0  0.70964257250E+01 -0.12824707048E+02  0.69941974235E+00  0.14673839211E+02  0.51100000000E-03 0. -1.
        -11    1    3    3    0    0  0.78842668802E+01 -0.35929219402E+01  0.87803378338E+00  0.87087137909E+01  0.51100000000E-03 0.  1.
         12    1    3    3    0    0  0.50641882702E+00 -0.24044246604E+02 -0.41482668635E+01  0.24404720297E+02  0.00000000000E+00 0. -1.
</event>
<event>
 7    1  0.5541017E-010  0.4778727E+02  0.7816164E-02  0.1312668E+00
        -11   -1    0    0    0    0  0.00000000000E+00  0.00000000000E+00  0.45593999997E+02  0.45594000000E+02  0.51100000000E-03 0.  1.
         11   -1    0    0    0    0 -0.00000000000E+00 -0.00000000000E+00 -0.45593999997E+02  0.45594000000E+02  0.51100000000E-03 0. -1.
    9900012    2    1    2    0    0  0.27776220701E+02  0.16387015092E+02 -0.29044283781E+02  0.47787272813E+02  0.20000008063E+02 0.  0.
        -12    1    1    2    0    0 -0.27776220701E+02 -0.16387015092E+02  0.29044283781E+02  0.43400727187E+02  0.00000000000E+00 0.  1.
         11    1    3    3    0    0  0.67188717051E+01  0.26973288807E+01  0.13825591625E+01  0.73709083687E+01  0.51100000000E-03 0. -1.
        -11    1    3    3    0    0  0.28497808697E+00  0.15316438228E+01 -0.57015772488E+01  0.59105946143E+01  0.51100000000E-03 0.  1.
         12    1    3    3    0    0  0.20772370909E+02  0.12158042388E+02 -0.24725265694E+02  0.34505769830E+02  0.00000000000E+00 0. -1.
</event>
<event>
 7    1  0.5541017E-010  0.4778727E+02  0.7816164E-02  0.1312668E+00
        -11   -1    0    0    0    0  0.00000000000E+00  0.00000000000E+00  0.45593999997E+02  0.45594000000E+02  0.51100000000E-03 0.  1.
         11   -1    0    0    0    0 -0.00000000000E+00 -0.00000000000E+00 -0.45593999997E+02  0.45594000000E+02  0.51100000000E-03 0. -1.
    9900012    2    1    2    0    0  0.35914386622E+02 -0.89130449425E+01 -0.22679010709E+02  0.47787273470E+02  0.20000011060E+02 0.  0.
        -12    1    1    2    0    0 -0.35914386622E+02  0.89130449425E+01  0.22679010709E+02  0.43400726530E+02  0.00000000000E+00 0.  1.
         11    1    3    3    0    0  0.20372677660E+02 -0.14057597386E+02 -0.15879256482E+02  0.29407700114E+02  0.51100000000E-03 0. -1.
        -11    1    3    3    0    0  0.10846295270E+01 -0.66032511236E+00 -0.14030696276E+01  0.18923675927E+01  0.51100000000E-03 0.  1.
        -12    1    3    3    0    0  0.14457079435E+02  0.58048775559E+01 -0.53966845998E+01  0.16487205764E+02  0.00000000000E+00 0.  1.
</event>
<event>
 7    1  0.5541017E-010  0.4778727E+02  0.7816164E-02  0.1312668E+00
        -11   -1    0    0    0    0  0.00000000000E+00  0.00000000000E+00  0.45593999997E+02  0.45594000000E+02  0.51100000000E-03 0. -1.
         11   -1    0    0    0    0 -0.00000000000E+00 -0.00000000000E+00 -0.45593999997E+02  0.45594000000E+02  0.51100000000E-03 0.  1.
    9900012    2    1    2    0    0  0.43550543745E+01 -0.33252695179E+02  0.27548418771E+02  0.47787267148E+02  0.19999982236E+02 0.  0.
        -12    1    1    2    0    0 -0.43550543745E+01  0.33252695179E+02 -0.27548418771E+02  0.43400732852E+02  0.00000000000E+00 0.  1.
         11    1    3    3    0    0 -0.20715569321E+01 -0.12474967691E+02  0.63237887582E+01  0.14138828506E+02  0.51100000000E-03 0. -1.
        -11    1    3    3    0    0 -0.44557410630E+01 -0.34133431274E+01  0.48221542040E+01  0.73998453466E+01  0.51100000000E-03 0.  1.
        -12    1    3    3    0    0  0.10882352370E+02 -0.17364384361E+02  0.16402475809E+02  0.26248593296E+02  0.00000000000E+00 0.  1.
</event>
<event>
 7    1  0.5541017E-010  0.4778727E+02  0.7816164E-02  0.1312668E+00
        -11   -1    0    0    0    0  0.00000000000E+00  0.00000000000E+00  0.45593999997E+02  0.45594000000E+02  0.51100000000E-03 0.  1.
         11   -1    0    0    0    0 -0.00000000000E+00 -0.00000000000E+00 -0.45593999997E+02  0.45594000000E+02  0.51100000000E-03 0. -1.
    9900012    2    1    2    0    0 -0.13795126177E+02  0.14320556618E+02 -0.38577703763E+02  0.47787273327E+02  0.20000010409E+02 0.  0.
        -12    1    1    2    0    0  0.13795126177E+02 -0.14320556618E+02  0.38577703763E+02  0.43400726673E+02  0.00000000000E+00 0.  1.
         11    1    3    3    0    0 -0.73522905329E+01  0.39388449081E+01 -0.10564709444E+02  0.13460451745E+02  0.51100000000E-03 0. -1.
        -11    1    3    3    0    0 -0.54040935190E+01 -0.28967320784E+01 -0.58796065077E+01  0.84950018506E+01  0.51100000000E-03 0.  1.
         12    1    3    3    0    0 -0.10387421255E+01  0.13278443788E+02 -0.22133387812E+02  0.25831819732E+02  0.00000000000E+00 0. -1.
</event>
<event>
 7    1  0.5541017E-010  0.4778726E+02  0.7816164E-02  0.1312668E+00
        -11   -1    0    0    0    0  0.00000000000E+00  0.00000000000E+00  0.45593999997E+02  0.45594000000E+02  0.51100000000E-03 0.  1.
         11   -1    0    0    0    0 -0.00000000000E+00 -0.00000000000E+00 -0.45593999997E+02  0.45594000000E+02  0.51100000000E-03 0. -1.
    9900012    2    1    2    0    0 -0.37880084232E+02 -0.19498281416E+02 -0.82789085519E+01  0.47787261684E+02  0.19999957321E+02 0.  0.
        -12    1    1    2    0    0  0.37880084232E+02  0.19498281416E+02  0.82789085519E+01  0.43400738316E+02  0.00000000000E+00 0.  1.
         11    1    3    3    0    0 -0.25098591084E+02 -0.13092287603E+02 -0.84002607485E+01  0.29528150128E+02  0.51100000000E-03 0. -1.
        -11    1    3    3    0    0 -0.73671122555E+01 -0.94657230632E+01 -0.52669645552E+00  0.12006317733E+02  0.51100000000E-03 0.  1.
        -12    1    3    3    0    0 -0.54143808922E+01  0.30597292503E+01  0.64804865207E+00  0.62527938225E+01  0.00000000000E+00 0.  1.
</event>
<event>
 7    1  0.5541017E-010  0.4778727E+02  0.7816164E-02  0.1312668E+00
        -11   -1    0    0    0    0  0.00000000000E+00  0.00000000000E+00  0.45593999997E+02  0.45594000000E+02  0.51100000000E-03 0.  1.
         11   -1    0    0    0    0 -0.00000000000E+00 -0.00000000000E+00 -0.45593999997E+02  0.45594000000E+02  0.51100000000E-03 0. -1.
    9900012    2    1    2    0    0 -0.22354091259E+02  0.27028047038E+02 -0.25561749677E+02  0.47787265338E+02  0.19999973980E+02 0.  0.
        -12    1    1    2    0    0  0.22354091259E+02 -0.27028047038E+02  0.25561749677E+02  0.43400734662E+02  0.00000000000E+00 0.  1.
         11    1    3    3    0    0 -0.62494645885E+01  0.74922382188E+01 -0.13092059205E+02  0.16327628599E+02  0.51100000000E-03 0. -1.
        -11    1    3    3    0    0 -0.11491804646E+02  0.20746975150E+02 -0.12229444111E+02  0.26684412218E+02  0.51100000000E-03 0.  1.
         12    1    3    3    0    0 -0.46128220246E+01 -0.12111663303E+01 -0.24024636027E+00  0.47752245208E+01  0.00000000000E+00 0. -1.
</event>
<event>
 7    1  0.5541017E-010  0.4778727E+02  0.7816164E-02  0.1312668E+00
        -11   -1    0    0    0    0  0.00000000000E+00  0.00000000000E+00  0.45593999997E+02  0.45594000000E+02  0.51100000000E-03 0.  1.
         11   -1    0    0    0    0 -0.00000000000E+00 -0.00000000000E+00 -0.45593999997E+02  0.45594000000E+02  0.51100000000E-03 0. -1.
    9900012    2    1    2    0    0 -0.43309534793E+01  0.17801295574E+02 -0.39344377512E+02  0.47787270467E+02  0.19999997368E+02 0.  0.
        -12    1    1    2    0    0  0.43309534793E+01 -0.17801295574E+02  0.39344377512E+02  0.43400729533E+02  0.00000000000E+00 0.  1.
         11    1    3    3    0    0  0.22912584708E+01 -0.17677497446E+00 -0.19122784773E+01  0.29896360995E+01  0.51100000000E-03 0. -1.
        -11    1    3    3    0    0 -0.16867709166E+01 -0.19584671245E+01 -0.11132348837E+02  0.11428472361E+02  0.51100000000E-03 0.  1.
         12    1    3    3    0    0 -0.49354410335E+01  0.19936537673E+02 -0.26299750198E+02  0.33369162007E+02  0.00000000000E+00 0. -1.
</event>
<event>
 7    1  0.5541017E-010  0.4778727E+02  0.7816164E-02  0.1312668E+00
        -11   -1    0    0    0    0  0.00000000000E+00  0.00000000000E+00  0.45593999997E+02  0.45594000000E+02  0.51100000000E-03 0.  1.
         11   -1    0    0    0    0 -0.00000000000E+00 -0.00000000000E+00 -0.45593999997E+02  0.45594000000E+02  0.51100000000E-03 0. -1.
    9900012    2    1    2    0    0  0.24840108314E+02  0.10074157149E+02 -0.34133622146E+02  0.47787265166E+02  0.19999973198E+02 0.  0.
        -12    1    1    2    0    0 -0.24840108314E+02 -0.10074157149E+02  0.34133622146E+02  0.43400734834E+02  0.00000000000E+00 0.  1.
         11    1    3    3    0    0  0.61262917408E+01  0.87008851851E+00 -0.40927402215E+01  0.74188292409E+01  0.51100000000E-03 0.  1.
        -11    1    3    3    0    0 -0.13878046585E+01 -0.27521218457E+01 -0.64500953530E+01  0.71486996543E+01  0.51100000000E-03 0. -1.
         12    1    3    3    0    0  0.20101621232E+02  0.11956190476E+02 -0.23590786571E+02  0.33219736271E+02  0.00000000000E+00 0. -1.
</event>
<event>
 7    1  0.5541017E-010  0.4778727E+02  0.7816164E-02  0.1312668E+00
        -11   -1    0    0    0    0  0.00000000000E+00  0.00000000000E+00  0.45593999997E+02  0.45594000000E+02  0.51100000000E-03 0. -1.
         11   -1    0    0    0    0 -0.00000000000E+00 -0.00000000000E+00 -0.45593999997E+02  0.45594000000E+02  0.51100000000E-03 0.  1.
    9900012    2    1    2    0    0 -0.39125403382E+02 -0.52283600972E+01 -0.18041345761E+02  0.47787273094E+02  0.20000009343E+02 0.  0.
        -12    1    1    2    0    0  0.39125403382E+02  0.52283600972E+01  0.18041345761E+02  0.43400726906E+02  0.00000000000E+00 0.  1.
         11    1    3    3    0    0 -0.13847333638E+02  0.32609900152E+01 -0.80464647640E+01  0.16344060090E+02  0.51100000000E-03 0. -1.
        -11    1    3    3    0    0 -0.15233136120E+01  0.28498287288E+01 -0.24673334711E+01  0.40656786472E+01  0.51100000000E-03 0.  1.
        -12    1    3    3    0    0 -0.23754756132E+02 -0.11339178841E+02 -0.75275475263E+01  0.27377534357E+02  0.00000000000E+00 0.  1.
</event>
<event>
 7    1  0.5541017E-010  0.4778727E+02  0.7816164E-02  0.1312668E+00
        -11   -1    0    0    0    0  0.00000000000E+00  0.00000000000E+00  0.45593999997E+02  0.45594000000E+02  0.51100000000E-03 0.  1.
         11   -1    0    0    0    0 -0.00000000000E+00 -0.00000000000E+00 -0.45593999997E+02  0.45594000000E+02  0.51100000000E-03 0. -1.
    9900012    2    1    2    0    0 -0.24040888684E+02  0.23297269629E+01 -0.36058717743E+02  0.47787273258E+02  0.20000010094E+02 0.  0.
        -12    1    1    2    0    0  0.24040888684E+02 -0.23297269629E+01  0.36058717743E+02  0.43400726742E+02  0.00000000000E+00 0.  1.
         11    1    3    3    0    0 -0.10298278406E+02  0.39062660422E+01 -0.23465624583E+02  0.25921978895E+02  0.51100000000E-03 0. -1.
        -11    1    3    3    0    0 -0.63222404749E+01  0.17281391976E+01 -0.12058677389E+02  0.13724754655E+02  0.51100000000E-03 0.  1.
        -12    1    3    3    0    0 -0.74203698026E+01 -0.33046782769E+01 -0.53441577160E+00  0.81405397080E+01  0.00000000000E+00 0.  1.
</event>
<event>
 7    1  0.5541017E-010  0.4778727E+02  0.7816164E-02  0.1312668E+00
        -11   -1    0    0    0    0  0.00000000000E+00  0.00000000000E+00  0.45593999997E+02  0.45594000000E+02  0.51100000000E-03 0.  1.
         11   -1    0    0    0    0 -0.00000000000E+00 -0.00000000000E+00 -0.45593999997E+02  0.45594000000E+02  0.51100000000E-03 0. -1.
    9900012    2    1    2    0    0 -0.21686630871E+02 -0.31299250812E+02 -0.20824761547E+02  0.47787265520E+02  0.19999974810E+02 0.  0.
        -12    1    1    2    0    0  0.21686630871E+02  0.31299250812E+02  0.20824761547E+02  0.43400734480E+02  0.00000000000E+00 0.  1.
         11    1    3    3    0    0 -0.28896449197E+01 -0.73006037071E+01 -0.80407789955E+01  0.11238460276E+02  0.51100000000E-03 0. -1.
        -11    1    3    3    0    0 -0.83071486974E+01 -0.65895310143E+01 -0.12270456756E+02  0.16217112805E+02  0.51100000000E-03 0.  1.
         12    1    3    3    0    0 -0.10489837254E+02 -0.17409116090E+02 -0.51352579552E+00  0.20331692439E+02  0.00000000000E+00 0. -1.
</event>
<event>
 7    1  0.5541017E-010  0.4778727E+02  0.7816164E-02  0.1312668E+00
        -11   -1    0    0    0    0  0.00000000000E+00  0.00000000000E+00  0.45593999997E+02  0.45594000000E+02  0.51100000000E-03 0.  1.
         11   -1    0    0    0    0 -0.00000000000E+00 -0.00000000000E+00 -0.45593999997E+02  0.45594000000E+02  0.51100000000E-03 0. -1.
    9900012    2    1    2    0    0 -0.20599817387E+02 -0.35460532812E+02  0.14206388640E+02  0.47787270261E+02  0.19999996429E+02 0.  0.
        -12    1    1    2    0    0  0.20599817387E+02  0.35460532812E+02 -0.14206388640E+02  0.43400729739E+02  0.00000000000E+00 0.  1.
         11    1    3    3    0    0 -0.81642364916E+01 -0.11762621815E+02 -0.20909179323E+01  0.14470175103E+02  0.51100000000E-03 0. -1.
        -11    1    3    3    0    0 -0.18227084709E+00  0.12472916046E+01  0.56912671640E+00  0.13830634436E+01  0.51100000000E-03 0.  1.
         12    1    3    3    0    0 -0.12253310048E+02 -0.24945202601E+02  0.15728179856E+02  0.31934031714E+02  0.00000000000E+00 0. -1.
</event>
<event>
 7    1  0.5541017E-010  0.4778727E+02  0.7816164E-02  0.1312668E+00
        -11   -1    0    0    0    0  0.00000000000E+00  0.00000000000E+00  0.45593999997E+02  0.45594000000E+02  0.51100000000E-03 0. -1.
         11   -1    0    0    0    0 -0.00000000000E+00 -0.00000000000E+00 -0.45593999997E+02  0.45594000000E+02  0.51100000000E-03 0.  1.
    9900012    2    1    2    0    0 -0.20464325012E+02  0.73042951384E+01  0.37569696110E+02  0.47787269690E+02  0.19999993825E+02 0.  0.
        -12    1    1    2    0    0  0.20464325012E+02 -0.73042951384E+01 -0.37569696110E+02  0.43400730310E+02  0.00000000000E+00 0.  1.
         11    1    3    3    0    0 -0.66324906483E+01  0.15992967726E+01  0.62059041220E+01  0.92228481826E+01  0.51100000000E-03 0. -1.
        -11    1    3    3    0    0 -0.82509852718E+01  0.94848226929E+01  0.28671040662E+02  0.31306056800E+02  0.51100000000E-03 0.  1.
        -12    1    3    3    0    0 -0.55808490915E+01 -0.37798243271E+01  0.26927513263E+01  0.72583647078E+01  0.00000000000E+00 0.  1.
</event>
<event>
 7    1  0.5541017E-010  0.4778727E+02  0.7816164E-02  0.1312668E+00
        -11   -1    0    0    0    0  0.00000000000E+00  0.00000000000E+00  0.45593999997E+02  0.45594000000E+02  0.51100000000E-03 0.  1.
         11   -1    0    0    0    0 -0.00000000000E+00 -0.00000000000E+00 -0.45593999997E+02  0.45594000000E+02  0.51100000000E-03 0. -1.
    9900012    2    1    2    0    0 -0.43067949019E+02 -0.20327887701E+01 -0.49641640041E+01  0.47787269739E+02  0.19999994048E+02 0.  0.
        -12    1    1    2    0    0  0.43067949019E+02  0.20327887701E+01  0.49641640041E+01  0.43400730261E+02  0.00000000000E+00 0.  1.
         11    1    3    3    0    0 -0.23375689195E+02 -0.85964575711E+01 -0.33146505919E+01  0.25125859924E+02  0.51100000000E-03 0. -1.
        -11    1    3    3    0    0 -0.34727604646E+01  0.85445786276E+00 -0.39325239477E+01  0.53155346245E+01  0.51100000000E-03 0.  1.
        -12    1    3    3    0    0 -0.16219499360E+02  0.57092109382E+01  0.22830105356E+01  0.17345875191E+02  0.00000000000E+00 0.  1.
</event>
<event>
 7    1  0.5541017E-010  0.4778727E+02  0.7816164E-02  0.1312668E+00
        -11   -1    0    0    0    0  0.00000000000E+00  0.00000000000E+00  0.45593999997E+02  0.45594000000E+02  0.51100000000E-03 0. -1.
         11   -1    0    0    0    0 -0.00000000000E+00 -0.00000000000E+00 -0.45593999997E+02  0.45594000000E+02  0.51100000000E-03 0.  1.
    9900012    2    1    2    0    0 -0.38891091900E+02  0.10150613855E+02  0.16372889497E+02  0.47787268425E+02  0.19999988055E+02 0.  0.
        -12    1    1    2    0    0  0.38891091900E+02 -0.10150613855E+02 -0.16372889497E+02  0.43400731575E+02  0.00000000000E+00 0.  1.
         11    1    3    3    0    0 -0.28400010816E+01  0.13528184906E+01 -0.28164424283E+01  0.42223301890E+01  0.51100000000E-03 0. -1.
        -11    1    3    3    0    0 -0.60135697344E+01 -0.89750415288E+00  0.80614949719E+01  0.10097338070E+02  0.51100000000E-03 0.  1.
         12    1    3    3    0    0 -0.30037521084E+02  0.96952995175E+01  0.11127836953E+02  0.33467600166E+02  0.00000000000E+00 0. -1.
</event>
<event>
 7    1  0.5541017E-010  0.4778727E+02  0.7816164E-02  0.1312668E+00
        -11   -1    0    0    0    0  0.00000000000E+00  0.00000000000E+00  0.45593999997E+02  0.45594000000E+02  0.51100000000E-03 0.  1.
         11   -1    0    0    0    0 -0.00000000000E+00 -0.00000000000E+00 -0.45593999997E+02  0.45594000000E+02  0.51100000000E-03 0. -1.
    9900012    2    1    2    0    0 -0.40814283236E+02  0.89235951188E+01  0.11755296795E+02  0.47787271104E+02  0.20000000272E+02 0.  0.
        -12    1    1    2    0    0  0.40814283236E+02 -0.89235951188E+01 -0.11755296795E+02  0.43400728896E+02  0.00000000000E+00 0.  1.
         11    1    3    3    0    0 -0.17980994062E+02  0.56707812188E+01  0.11708893210E+02  0.22193965115E+02  0.51100000000E-03 0. -1.
        -11    1    3    3    0    0  0.12564962698E+01  0.41962618235E-01  0.28592132381E+00  0.12893001985E+01  0.51100000000E-03 0.  1.
         12    1    3    3    0    0 -0.24089785444E+02  0.32108512818E+01 -0.23951773838E+00  0.24304005790E+02  0.00000000000E+00 0. -1.
</event>
<event>
 7    1  0.5726579E-010  0.4778723E+02  0.7816164E-02  0.1312668E+00
        -11   -1    0    0    0    0  0.00000000000E+00  0.00000000000E+00  0.45593999997E+02  0.45594000000E+02  0.51100000000E-03 0. -1.
         11   -1    0    0    0    0 -0.00000000000E+00 -0.00000000000E+00 -0.45593999997E+02  0.45594000000E+02  0.51100000000E-03 0.  1.
    9900012    2    1    2    0    0  0.29999228329E+02 -0.14735830540E+02  0.27686246078E+02  0.47787232450E+02  0.19999824031E+02 0.  0.
        -12    1    1    2    0    0 -0.29999228329E+02  0.14735830540E+02 -0.27686246078E+02  0.43400767550E+02  0.00000000000E+00 0.  1.
         11    1    3    3    0    0  0.14849790606E+02 -0.72096134675E+01  0.13036126283E+02  0.21034148334E+02  0.51100000000E-03 0. -1.
        -11    1    3    3    0    0  0.12019229290E+02 -0.60939076055E-01  0.26993519787E+01  0.12318769730E+02  0.51100000000E-03 0.  1.
        -12    1    3    3    0    0  0.31302084332E+01 -0.74652779964E+01  0.11950767816E+02  0.14434314386E+02  0.00000000000E+00 0.  1.
</event>
<event>
 7    1  0.5541017E-010  0.4778727E+02  0.7816164E-02  0.1312668E+00
        -11   -1    0    0    0    0  0.00000000000E+00  0.00000000000E+00  0.45593999997E+02  0.45594000000E+02  0.51100000000E-03 0. -1.
         11   -1    0    0    0    0 -0.00000000000E+00 -0.00000000000E+00 -0.45593999997E+02  0.45594000000E+02  0.51100000000E-03 0.  1.
    9900012    2    1    2    0    0  0.13574396660E+02  0.16709931419E+01  0.41189401450E+02  0.47787271267E+02  0.20000001016E+02 0.  0.
        -12    1    1    2    0    0 -0.13574396660E+02 -0.16709931419E+01 -0.41189401450E+02  0.43400728733E+02  0.00000000000E+00 0.  1.
         11    1    3    3    0    0  0.12258782268E+02  0.79550636570E+01  0.21820345991E+02  0.26261916912E+02  0.51100000000E-03 0. -1.
        -11    1    3    3    0    0  0.13817921484E+01  0.11680176197E+01  0.25248583921E+01  0.31062074726E+01  0.51100000000E-03 0.  1.
        -12    1    3    3    0    0 -0.66177756741E-01 -0.74520881348E+01  0.16844197067E+02  0.18419146883E+02  0.00000000000E+00 0.  1.
</event>
<event>
 7    1  0.5541017E-010  0.4778728E+02  0.7816164E-02  0.1312668E+00
        -11   -1    0    0    0    0  0.00000000000E+00  0.00000000000E+00  0.45593999997E+02  0.45594000000E+02  0.51100000000E-03 0. -1.
         11   -1    0    0    0    0 -0.00000000000E+00 -0.00000000000E+00 -0.45593999997E+02  0.45594000000E+02  0.51100000000E-03 0.  1.
    9900012    2    1    2    0    0  0.12832033405E+02 -0.23487255242E+02  0.34165921444E+02  0.47787280787E+02  0.20000044422E+02 0.  0.
        -12    1    1    2    0    0 -0.12832033405E+02  0.23487255242E+02 -0.34165921444E+02  0.43400719213E+02  0.00000000000E+00 0.  1.
         11    1    3    3    0    0  0.12102527057E+02 -0.73273956708E+01  0.21481455070E+02  0.25721873973E+02  0.51100000000E-03 0. -1.
        -11    1    3    3    0    0  0.13132332854E+01 -0.58504654459E+00 -0.62735225119E+00  0.15685764978E+01  0.51100000000E-03 0.  1.
         12    1    3    3    0    0 -0.58372693723E+00 -0.15574813026E+02  0.13311818625E+02  0.20496830317E+02  0.00000000000E+00 0. -1.
</event>
<event>
 7    1  0.5541017E-010  0.4778727E+02  0.7816164E-02  0.1312668E+00
        -11   -1    0    0    0    0  0.00000000000E+00  0.00000000000E+00  0.45593999997E+02  0.45594000000E+02  0.51100000000E-03 0.  1.
         11   -1    0    0    0    0 -0.00000000000E+00 -0.00000000000E+00 -0.45593999997E+02  0.45594000000E+02  0.51100000000E-03 0. -1.
    9900012    2    1    2    0    0 -0.80798416166E+01 -0.26786502855E+02 -0.33178649147E+02  0.47787270341E+02  0.19999996791E+02 0.  0.
        -12    1    1    2    0    0  0.80798416166E+01  0.26786502855E+02  0.33178649147E+02  0.43400729659E+02  0.00000000000E+00 0.  1.
         11    1    3    3    0    0  0.21458484181E+01 -0.54106364712E+01 -0.12134814441E+02  0.13458579948E+02  0.51100000000E-03 0. -1.
        -11    1    3    3    0    0 -0.85952555254E+01 -0.12540953870E+02 -0.20232180774E+02  0.25308004280E+02  0.51100000000E-03 0.  1.
         12    1    3    3    0    0 -0.16304345093E+01 -0.88349125142E+01 -0.81165393168E+00  0.90206861118E+01  0.00000000000E+00 0. -1.
</event>
<event>
 7    1  0.5541017E-010  0.4778727E+02  0.7816164E-02  0.1312668E+00
        -11   -1    0    0    0    0  0.00000000000E+00  0.00000000000E+00  0.45593999997E+02  0.45594000000E+02  0.51100000000E-03 0.  1.
         11   -1    0    0    0    0 -0.00000000000E+00 -0.00000000000E+00 -0.45593999997E+02  0.45594000000E+02  0.51100000000E-03 0. -1.
    9900012    2    1    2    0    0 -0.13948419689E+02  0.36013533152E+02 -0.19801274126E+02  0.47787269143E+02  0.19999991331E+02 0.  0.
        -12    1    1    2    0    0  0.13948419689E+02 -0.36013533152E+02  0.19801274126E+02  0.43400730857E+02  0.00000000000E+00 0.  1.
         11    1    3    3    0    0 -0.13234385324E+01 -0.11383453321E+01  0.35408465575E+00  0.17812062903E+01  0.51100000000E-03 0. -1.
        -11    1    3    3    0    0  0.20012324637E+01  0.29446205546E+01  0.25975954168E+00  0.35697614577E+01  0.51100000000E-03 0.  1.
         12    1    3    3    0    0 -0.14626213621E+02  0.34207257929E+02 -0.20415118324E+02  0.42436301395E+02  0.00000000000E+00 0. -1.
</event>
<event>
 7    1  0.5541017E-010  0.4778727E+02  0.7816164E-02  0.1312668E+00
        -11   -1    0    0    0    0  0.00000000000E+00  0.00000000000E+00  0.45593999997E+02  0.45594000000E+02  0.51100000000E-03 0. -1.
         11   -1    0    0    0    0 -0.00000000000E+00 -0.00000000000E+00 -0.45593999997E+02  0.45594000000E+02  0.51100000000E-03 0.  1.
    9900012    2    1    2    0    0 -0.27027660270E+02 -0.32985941564E+02  0.80657642863E+01  0.47787270581E+02  0.19999997888E+02 0.  0.
        -12    1    1    2    0    0  0.27027660270E+02  0.32985941564E+02 -0.80657642863E+01  0.43400729419E+02  0.00000000000E+00 0.  1.
         11    1    3    3    0    0 -0.17411037234E+02 -0.24523871496E+02  0.91052082538E+01  0.31424024381E+02  0.51100000000E-03 0. -1.
        -11    1    3    3    0    0 -0.97905405723E+01 -0.38563314897E+01  0.21736370310E+01  0.10744797600E+02  0.51100000000E-03 0.  1.
        -12    1    3    3    0    0  0.17391753661E+00 -0.46057385790E+01 -0.32130809985E+01  0.56184485999E+01  0.00000000000E+00 0.  1.
</event>
<event>
 7    1  0.5541017E-010  0.4778727E+02  0.7816164E-02  0.1312668E+00
        -11   -1    0    0    0    0  0.00000000000E+00  0.00000000000E+00  0.45593999997E+02  0.45594000000E+02  0.51100000000E-03 0. -1.
         11   -1    0    0    0    0 -0.00000000000E+00 -0.00000000000E+00 -0.45593999997E+02  0.45594000000E+02  0.51100000000E-03 0.  1.
    9900012    2    1    2    0    0  0.43934415650E+01  0.29485819139E+02  0.31542150913E+02  0.47787272548E+02  0.20000006858E+02 0.  0.
        -12    1    1    2    0    0 -0.43934415650E+01 -0.29485819139E+02 -0.31542150913E+02  0.43400727452E+02  0.00000000000E+00 0.  1.
         11    1    3    3    0    0  0.43468351143E+01  0.83794320829E+01  0.33760039050E+01  0.10025330926E+02  0.51100000000E-03 0. -1.
        -11    1    3    3    0    0 -0.38050045038E+01  0.10099102587E+02  0.51454640820E+01  0.11955991519E+02  0.51100000000E-03 0.  1.
         12    1    3    3    0    0  0.38516109545E+01  0.11007284469E+02  0.23020682927E+02  0.25805950103E+02  0.00000000000E+00 0. -1.
</event>
<event>
 7    1  0.7208986E-010  0.4778727E+02  0.7816164E-02  0.1312668E+00
        -11   -1    0    0    0    0  0.00000000000E+00  0.00000000000E+00  0.45593999997E+02  0.45594000000E+02  0.51100000000E-03 0.  1.
         11   -1    0    0    0    0 -0.00000000000E+00 -0.00000000000E+00 -0.45593999997E+02  0.45594000000E+02  0.51100000000E-03 0. -1.
    9900012    2    1    2    0    0  0.72515908641E+01  0.34328326973E+02 -0.25546108208E+02  0.47787271350E+02  0.20000001393E+02 0.  0.
        -12    1    1    2    0    0 -0.72515908641E+01 -0.34328326973E+02  0.25546108208E+02  0.43400728650E+02  0.00000000000E+00 0.  1.
         11    1    3    3    0    0  0.13551390303E+01  0.11683043239E+02 -0.11273087313E+02  0.16291482405E+02  0.51100000000E-03 0. -1.
        -11    1    3    3    0    0  0.28884667802E+00  0.19214731178E+02 -0.45318968237E+01  0.19744047602E+02  0.51100000000E-03 0.  1.
        -12    1    3    3    0    0  0.56076051557E+01  0.34305525557E+01 -0.97411240711E+01  0.11751741343E+02  0.00000000000E+00 0.  1.
</event>
<event>
 7    1  0.5541017E-010  0.4778727E+02  0.7816164E-02  0.1312668E+00
        -11   -1    0    0    0    0  0.00000000000E+00  0.00000000000E+00  0.45593999997E+02  0.45594000000E+02  0.51100000000E-03 0. -1.
         11   -1    0    0    0    0 -0.00000000000E+00 -0.00000000000E+00 -0.45593999997E+02  0.45594000000E+02  0.51100000000E-03 0.  1.
    9900012    2    1    2    0    0 -0.17434690934E+02  0.37660322929E+02  0.12702553506E+02  0.47787271473E+02  0.20000001956E+02 0.  0.
        -12    1    1    2    0    0  0.17434690934E+02 -0.37660322929E+02 -0.12702553506E+02  0.43400728527E+02  0.00000000000E+00 0.  1.
         11    1    3    3    0    0 -0.52866687165E+01  0.84070486325E+01  0.94686713119E+01  0.13721627801E+02  0.51100000000E-03 0. -1.
        -11    1    3    3    0    0  0.24749841394E+01  0.48274845620E+01  0.93053711176E+00  0.55041850681E+01  0.51100000000E-03 0.  1.
         12    1    3    3    0    0 -0.14623006357E+02  0.24425789734E+02  0.23033450822E+01  0.28561458605E+02  0.00000000000E+00 0. -1.
</event>
<event>
 7    1  0.5541017E-010  0.4778733E+02  0.7816164E-02  0.1312667E+00
        -11   -1    0    0    0    0  0.00000000000E+00  0.00000000000E+00  0.45593999997E+02  0.45594000000E+02  0.51100000000E-03 0.  1.
         11   -1    0    0    0    0 -0.00000000000E+00 -0.00000000000E+00 -0.45593999997E+02  0.45594000000E+02  0.51100000000E-03 0. -1.
    9900012    2    1    2    0    0 -0.13709211084E+02  0.40628961807E+02 -0.67054456596E+01  0.47787331715E+02  0.20000276621E+02 0.  0.
        -12    1    1    2    0    0  0.13709211084E+02 -0.40628961807E+02  0.67054456596E+01  0.43400668285E+02  0.00000000000E+00 0.  1.
         11    1    3    3    0    0 -0.12998387571E+02  0.28764752336E+02 -0.22369358088E+01  0.31644477219E+02  0.51100000000E-03 0. -1.
        -11    1    3    3    0    0 -0.50222421211E+01  0.38323487815E+01 -0.10341699965E+01  0.64015092712E+01  0.51100000000E-03 0.  1.
        -12    1    3    3    0    0  0.43114186087E+01  0.80318606899E+01 -0.34343398543E+01  0.97413452251E+01  0.00000000000E+00 0.  1.
</event>
<event>
 7    1  0.5541017E-010  0.4778727E+02  0.7816164E-02  0.1312668E+00
        -11   -1    0    0    0    0  0.00000000000E+00  0.00000000000E+00  0.45593999997E+02  0.45594000000E+02  0.51100000000E-03 0. -1.
         11   -1    0    0    0    0 -0.00000000000E+00 -0.00000000000E+00 -0.45593999997E+02  0.45594000000E+02  0.51100000000E-03 0.  1.
    9900012    2    1    2    0    0 -0.29920687569E+02 -0.30805979749E+02  0.62743295559E+01  0.47787272538E+02  0.20000006808E+02 0.  0.
        -12    1    1    2    0    0  0.29920687569E+02  0.30805979749E+02 -0.62743295559E+01  0.43400727462E+02  0.00000000000E+00 0.  1.
         11    1    3    3    0    0  0.10549758808E+01 -0.37016659289E+01 -0.21508589514E+01  0.44092515519E+01  0.51100000000E-03 0. -1.
        -11    1    3    3    0    0 -0.29768098253E+01  0.66932113817E+00  0.21511589772E-02  0.30511296941E+01  0.51100000000E-03 0.  1.
         12    1    3    3    0    0 -0.27998853625E+02 -0.27773634958E+02  0.84230373484E+01  0.40326891292E+02  0.00000000000E+00 0. -1.
</event>
<event>
 7    1  0.5541017E-010  0.4778726E+02  0.7816164E-02  0.1312668E+00
        -11   -1    0    0    0    0  0.00000000000E+00  0.00000000000E+00  0.45593999997E+02  0.45594000000E+02  0.51100000000E-03 0. -1.
         11   -1    0    0    0    0 -0.00000000000E+00 -0.00000000000E+00 -0.45593999997E+02  0.45594000000E+02  0.51100000000E-03 0.  1.
    9900012    2    1    2    0    0  0.42485851755E+02  0.41672350218E+01 -0.78237230382E+01  0.47787261651E+02  0.19999957173E+02 0.  0.
        -12    1    1    2    0    0 -0.42485851755E+02 -0.41672350218E+01  0.78237230382E+01  0.43400738349E+02  0.00000000000E+00 0.  1.
         11    1    3    3    0    0  0.96820499665E+01 -0.45226780008E+00  0.33384074159E+00  0.96983548924E+01  0.51100000000E-03 0. -1.
        -11    1    3    3    0    0  0.94921520855E+01 -0.47169011886E+01 -0.74707494179E+01  0.12967737087E+02  0.51100000000E-03 0.  1.
        -12    1    3    3    0    0  0.23311649703E+02  0.93364040105E+01 -0.68681436197E+00  0.25121169672E+02  0.00000000000E+00 0.  1.
</event>
<event>
 7    1  0.5541017E-010  0.4778729E+02  0.7816164E-02  0.1312668E+00
        -11   -1    0    0    0    0  0.00000000000E+00  0.00000000000E+00  0.45593999997E+02  0.45594000000E+02  0.51100000000E-03 0.  1.
         11   -1    0    0    0    0 -0.00000000000E+00 -0.00000000000E+00 -0.45593999997E+02  0.45594000000E+02  0.51100000000E-03 0. -1.
    9900012    2    1    2    0    0 -0.35624497315E+02  0.17819760083E+02 -0.17232899047E+02  0.47787291850E+02  0.20000094860E+02 0.  0.
        -12    1    1    2    0    0  0.35624497315E+02 -0.17819760083E+02  0.17232899047E+02  0.43400708150E+02  0.00000000000E+00 0.  1.
         11    1    3    3    0    0 -0.10561181199E+02  0.91156715530E+01 -0.13433479563E+02  0.19367302074E+02  0.51100000000E-03 0. -1.
        -11    1    3    3    0    0  0.32031215574E+00  0.17250899132E+01  0.29100779196E+00  0.17785445966E+01  0.51100000000E-03 0.  1.
        -12    1    3    3    0    0 -0.25383628273E+02  0.69789986165E+01 -0.40904272753E+01  0.26641445180E+02  0.00000000000E+00 0.  1.
</event>
<event>
 7    1  0.5541017E-010  0.4778727E+02  0.7816164E-02  0.1312668E+00
        -11   -1    0    0    0    0  0.00000000000E+00  0.00000000000E+00  0.45593999997E+02  0.45594000000E+02  0.51100000000E-03 0.  1.
         11   -1    0    0    0    0 -0.00000000000E+00 -0.00000000000E+00 -0.45593999997E+02  0.45594000000E+02  0.51100000000E-03 0. -1.
    9900012    2    1    2    0    0 -0.29251874594E+02  0.75482122187E+01 -0.31160479508E+02  0.47787272378E+02  0.20000006081E+02 0.  0.
        -12    1    1    2    0    0  0.29251874594E+02 -0.75482122187E+01  0.31160479508E+02  0.43400727622E+02  0.00000000000E+00 0.  1.
         11    1    3    3    0    0 -0.28017381274E+01 -0.23859543517E+01 -0.30782607625E+00  0.36928677010E+01  0.51100000000E-03 0. -1.
        -11    1    3    3    0    0 -0.37528024271E+01 -0.33443106231E+01 -0.33345342797E+01  0.60321686585E+01  0.51100000000E-03 0.  1.
         12    1    3    3    0    0 -0.22697334039E+02  0.13278477194E+02 -0.27518119152E+02  0.38062236019E+02  0.00000000000E+00 0. -1.
</event>
<event>
 7    1  0.5541017E-010  0.4778727E+02  0.7816164E-02  0.1312668E+00
        -11   -1    0    0    0    0  0.00000000000E+00  0.00000000000E+00  0.45593999997E+02  0.45594000000E+02  0.51100000000E-03 0.  1.
         11   -1    0    0    0    0 -0.00000000000E+00 -0.00000000000E+00 -0.45593999997E+02  0.45594000000E+02  0.51100000000E-03 0. -1.
    9900012    2    1    2    0    0  0.31613786550E+02 -0.16956829031E+02 -0.24426571346E+02  0.47787274907E+02  0.20000017613E+02 0.  0.
        -12    1    1    2    0    0 -0.31613786550E+02  0.16956829031E+02  0.24426571346E+02  0.43400725093E+02  0.00000000000E+00 0.  1.
         11    1    3    3    0    0  0.26067059861E+02 -0.17724929118E+02 -0.25297086909E+02  0.40417908510E+02  0.51100000000E-03 0. -1.
        -11    1    3    3    0    0  0.32593036228E+00  0.90792095690E+00 -0.13789407139E+01  0.16828632798E+01  0.51100000000E-03 0.  1.
         12    1    3    3    0    0  0.52207963270E+01 -0.13982087088E+00  0.22494562767E+01  0.56865031174E+01  0.00000000000E+00 0. -1.
</event>
<event>
 7    1  0.5541017E-010  0.4778727E+02  0.7816164E-02  0.1312668E+00
        -11   -1    0    0    0    0  0.00000000000E+00  0.00000000000E+00  0.45593999997E+02  0.45594000000E+02  0.51100000000E-03 0.  1.
         11   -1    0    0    0    0 -0.00000000000E+00 -0.00000000000E+00 -0.45593999997E+02  0.45594000000E+02  0.51100000000E-03 0. -1.
    9900012    2    1    2    0    0  0.11152080372E+02  0.20701687677E+02 -0.36478683748E+02  0.47787272618E+02  0.20000007175E+02 0.  0.
        -12    1    1    2    0    0 -0.11152080372E+02 -0.20701687677E+02  0.36478683748E+02  0.43400727382E+02  0.00000000000E+00 0.  1.
         11    1    3    3    0    0  0.11848498588E+02  0.21995265798E+02 -0.31419780455E+02  0.40142013407E+02  0.51100000000E-03 0. -1.
        -11    1    3    3    0    0 -0.75813786896E+00  0.19122697401E+01 -0.58066472653E+00  0.21374565196E+01  0.51100000000E-03 0.  1.
        -12    1    3    3    0    0  0.61719653176E-01 -0.32058478612E+01 -0.44782385667E+01  0.55078026912E+01  0.00000000000E+00 0.  1.
</event>
<event>
 7    1  0.5541017E-010  0.4778727E+02  0.7816164E-02  0.1312668E+00
        -11   -1    0    0    0    0  0.00000000000E+00  0.00000000000E+00  0.45593999997E+02  0.45594000000E+02  0.51100000000E-03 0.  1.
         11   -1    0    0    0    0 -0.00000000000E+00 -0.00000000000E+00 -0.45593999997E+02  0.45594000000E+02  0.51100000000E-03 0. -1.
    9900012    2    1    2    0    0 -0.27050763665E+02  0.27565591209E+02 -0.19799439577E+02  0.47787269118E+02  0.19999991215E+02 0.  0.
        -12    1    1    2    0    0  0.27050763665E+02 -0.27565591209E+02  0.19799439577E+02  0.43400730882E+02  0.00000000000E+00 0.  1.
         11    1    3    3    0    0 -0.13839902734E+02  0.93263328750E+01 -0.88576638184E+01  0.18893956737E+02  0.51100000000E-03 0. -1.
        -11    1    3    3    0    0 -0.75803299518E+01  0.13144523693E+02 -0.14058409111E+02  0.20685230777E+02  0.51100000000E-03 0.  1.
         12    1    3    3    0    0 -0.56305309796E+01  0.50947346409E+01  0.31166333524E+01  0.82080816046E+01  0.00000000000E+00 0. -1.
</event>
<event>
 7    1  0.5541017E-010  0.4778727E+02  0.7816164E-02  0.1312668E+00
        -11   -1    0    0    0    0  0.00000000000E+00  0.00000000000E+00  0.45593999997E+02  0.45594000000E+02  0.51100000000E-03 0.  1.
         11   -1    0    0    0    0 -0.00000000000E+00 -0.00000000000E+00 -0.45593999997E+02  0.45594000000E+02  0.51100000000E-03 0. -1.
    9900012    2    1    2    0    0  0.65939890934E+01 -0.39134093286E+02 -0.17568873257E+02  0.47787271239E+02  0.20000000887E+02 0.  0.
        -12    1    1    2    0    0 -0.65939890934E+01  0.39134093286E+02  0.17568873257E+02  0.43400728761E+02  0.00000000000E+00 0.  1.
         11    1    3    3    0    0  0.40313100113E+00 -0.95546126093E+01 -0.87802240811E+01  0.12982506379E+02  0.51100000000E-03 0. -1.
        -11    1    3    3    0    0  0.60205775628E+01 -0.20985153168E+02 -0.12812340971E+02  0.25313634450E+02  0.51100000000E-03 0.  1.
        -12    1    3    3    0    0  0.17028052949E+00 -0.85943275083E+01  0.40236917948E+01  0.94911304089E+01  0.00000000000E+00 0.  1.
</event>
<event>
 7    1  0.5541017E-010  0.4778727E+02  0.7816164E-02  0.1312668E+00
        -11   -1    0    0    0    0  0.00000000000E+00  0.00000000000E+00  0.45593999997E+02  0.45594000000E+02  0.51100000000E-03 0.  1.
         11   -1    0    0    0    0 -0.00000000000E+00 -0.00000000000E+00 -0.45593999997E+02  0.45594000000E+02  0.51100000000E-03 0. -1.
    9900012    2    1    2    0    0 -0.22180207389E+02 -0.26931296257E+02 -0.25814084569E+02  0.47787270974E+02  0.19999999678E+02 0.  0.
        -12    1    1    2    0    0  0.22180207389E+02  0.26931296257E+02  0.25814084569E+02  0.43400729026E+02  0.00000000000E+00 0.  1.
         11    1    3    3    0    0 -0.58750705395E+01 -0.34424168789E+01 -0.43932912594E+01  0.81035607090E+01  0.51100000000E-03 0. -1.
        -11    1    3    3    0    0 -0.97440177812E+01 -0.23549761897E+02 -0.11915983957E+02  0.28134104604E+02  0.51100000000E-03 0.  1.
        -12    1    3    3    0    0 -0.65611190681E+01  0.60882519454E-01 -0.95048093520E+01  0.11549605661E+02  0.00000000000E+00 0.  1.
</event>
<event>
 7    1  0.5541017E-010  0.4778726E+02  0.7816164E-02  0.1312668E+00
        -11   -1    0    0    0    0  0.00000000000E+00  0.00000000000E+00  0.45593999997E+02  0.45594000000E+02  0.51100000000E-03 0. -1.
         11   -1    0    0    0    0 -0.00000000000E+00 -0.00000000000E+00 -0.45593999997E+02  0.45594000000E+02  0.51100000000E-03 0.  1.
    9900012    2    1    2    0    0 -0.42720067429E+02  0.75319605516E+01 -0.13745568832E+01  0.47787262708E+02  0.19999961990E+02 0.  0.
        -12    1    1    2    0    0  0.42720067429E+02 -0.75319605516E+01  0.13745568832E+01  0.43400737292E+02  0.00000000000E+00 0.  1.
         11    1    3    3    0    0 -0.30327079775E+02  0.69624407783E+01  0.28528592161E+01  0.31246538292E+02  0.51100000000E-03 0. -1.
        -11    1    3    3    0    0 -0.68120666005E+01  0.52864552710E+01 -0.30086545586E+01  0.91325168063E+01  0.51100000000E-03 0.  1.
         12    1    3    3    0    0 -0.55809210529E+01 -0.47169354977E+01 -0.12187615406E+01  0.74082076092E+01  0.00000000000E+00 0. -1.
</event>
<event>
 7    1  0.5541017E-010  0.4778730E+02  0.7816164E-02  0.1312668E+00
        -11   -1    0    0    0    0  0.00000000000E+00  0.00000000000E+00  0.45593999997E+02  0.45594000000E+02  0.51100000000E-03 0. -1.
         11   -1    0    0    0    0 -0.00000000000E+00 -0.00000000000E+00 -0.45593999997E+02  0.45594000000E+02  0.51100000000E-03 0.  1.
    9900012    2    1    2    0    0  0.37973536886E+02 -0.20916394383E+02 -0.20336248708E+01  0.47787300838E+02  0.20000135842E+02 0.  0.
        -12    1    1    2    0    0 -0.37973536886E+02  0.20916394383E+02  0.20336248708E+01  0.43400699162E+02  0.00000000000E+00 0.  1.
         11    1    3    3    0    0  0.20810495845E+01 -0.80582986080E+01 -0.29831033725E+01  0.88411452776E+01  0.51100000000E-03 0. -1.
        -11    1    3    3    0    0  0.14283554369E+02 -0.89514174477E+01 -0.10933321430E+01  0.16892103930E+02  0.51100000000E-03 0.  1.
         12    1    3    3    0    0  0.21608932932E+02 -0.39066783276E+01  0.20428106447E+01  0.22054051631E+02  0.00000000000E+00 0. -1.
</event>
<event>
 7    1  0.5541017E-010  0.4778727E+02  0.7816164E-02  0.1312668E+00
        -11   -1    0    0    0    0  0.00000000000E+00  0.00000000000E+00  0.45593999997E+02  0.45594000000E+02  0.51100000000E-03 0.  1.
         11   -1    0    0    0    0 -0.00000000000E+00 -0.00000000000E+00 -0.45593999997E+02  0.45594000000E+02  0.51100000000E-03 0. -1.
    9900012    2    1    2    0    0  0.21494526220E+02  0.19740508105E+02 -0.32123528027E+02  0.47787269930E+02  0.19999994919E+02 0.  0.
        -12    1    1    2    0    0 -0.21494526220E+02 -0.19740508105E+02  0.32123528027E+02  0.43400730070E+02  0.00000000000E+00 0.  1.
         11    1    3    3    0    0  0.33032180778E+01  0.40338302181E+00 -0.70096464098E+01  0.77594529822E+01  0.51100000000E-03 0. -1.
        -11    1    3    3    0    0  0.20020489810E+02  0.14510813602E+02 -0.24536628416E+02  0.34834320116E+02  0.51100000000E-03 0.  1.
         12    1    3    3    0    0 -0.18291816679E+01  0.48263114811E+01 -0.57725320182E+00  0.51934968322E+01  0.00000000000E+00 0. -1.
</event>
<event>
 7    1  0.5541017E-010  0.4778723E+02  0.7816164E-02  0.1312668E+00
        -11   -1    0    0    0    0  0.00000000000E+00  0.00000000000E+00  0.45593999997E+02  0.45594000000E+02  0.51100000000E-03 0. -1.
         11   -1    0    0    0    0 -0.00000000000E+00 -0.00000000000E+00 -0.45593999997E+02  0.45594000000E+02  0.51100000000E-03 0.  1.
    9900012    2    1    2    0    0 -0.13327774956E+02 -0.32795040521E+02  0.25109416869E+02  0.47787227155E+02  0.19999799889E+02 0.  0.
        -12    1    1    2    0    0  0.13327774956E+02  0.32795040521E+02 -0.25109416869E+02  0.43400772845E+02  0.00000000000E+00 0.  1.
         11    1    3    3    0    0 -0.24058132832E+01 -0.36861114087E+01  0.45636473353E+01  0.63405230173E+01  0.51100000000E-03 0. -1.
        -11    1    3    3    0    0 -0.15996598020E+02 -0.23221953369E+02  0.16735968917E+02  0.32790896943E+02  0.51100000000E-03 0.  1.
        -12    1    3    3    0    0  0.50746363467E+01 -0.58869757428E+01  0.38098006169E+01  0.86558071945E+01  0.00000000000E+00 0.  1.
</event>
<event>
 7    1  0.5541017E-010  0.4778727E+02  0.7816164E-02  0.1312668E+00
        -11   -1    0    0    0    0  0.00000000000E+00  0.00000000000E+00  0.45593999997E+02  0.45594000000E+02  0.51100000000E-03 0.  1.
         11   -1    0    0    0    0 -0.00000000000E+00 -0.00000000000E+00 -0.45593999997E+02  0.45594000000E+02  0.51100000000E-03 0. -1.
    9900012    2    1    2    0    0  0.15776730476E+02  0.44473031705E+01 -0.40186310383E+02  0.47787271064E+02  0.20000000090E+02 0.  0.
        -12    1    1    2    0    0 -0.15776730476E+02 -0.44473031705E+01  0.40186310383E+02  0.43400728936E+02  0.00000000000E+00 0.  1.
         11    1    3    3    0    0 -0.10069131393E+01  0.99532861190E+00 -0.21907922682E+00  0.14326720087E+01  0.51100000000E-03 0. -1.
        -11    1    3    3    0    0 -0.20177500950E+01 -0.12089895724E+01 -0.52145272397E+00  0.24093327782E+01  0.51100000000E-03 0.  1.
         12    1    3    3    0    0  0.18801393710E+02  0.46609641310E+01 -0.39445778432E+02  0.43945266277E+02  0.00000000000E+00 0. -1.
</event>
<event>
 7    1  0.5541017E-010  0.4778727E+02  0.7816164E-02  0.1312668E+00
        -11   -1    0    0    0    0  0.00000000000E+00  0.00000000000E+00  0.45593999997E+02  0.45594000000E+02  0.51100000000E-03 0.  1.
         11   -1    0    0    0    0 -0.00000000000E+00 -0.00000000000E+00 -0.45593999997E+02  0.45594000000E+02  0.51100000000E-03 0. -1.
    9900012    2    1    2    0    0  0.64117248039E+01 -0.14950599642E+02 -0.40236707662E+02  0.47787270880E+02  0.19999999252E+02 0.  0.
        -12    1    1    2    0    0 -0.64117248039E+01  0.14950599642E+02  0.40236707662E+02  0.43400729120E+02  0.00000000000E+00 0.  1.
         11    1    3    3    0    0 -0.24208443952E+01 -0.66128331607E+01 -0.23671132738E+02  0.24696408147E+02  0.51100000000E-03 0. -1.
        -11    1    3    3    0    0 -0.19115956538E+01  0.11006004885E+00 -0.46311554522E+00  0.19699714281E+01  0.51100000000E-03 0.  1.
         12    1    3    3    0    0  0.10744164853E+02 -0.84478265304E+01 -0.16102459379E+02  0.21120891305E+02  0.00000000000E+00 0. -1.
</event>
<event>
 7    1  0.5541017E-010  0.4778727E+02  0.7816164E-02  0.1312668E+00
        -11   -1    0    0    0    0  0.00000000000E+00  0.00000000000E+00  0.45593999997E+02  0.45594000000E+02  0.51100000000E-03 0.  1.
         11   -1    0    0    0    0 -0.00000000000E+00 -0.00000000000E+00 -0.45593999997E+02  0.45594000000E+02  0.51100000000E-03 0. -1.
    9900012    2    1    2    0    0  0.17847694785E+02  0.90942889609E+01 -0.38501652594E+02  0.47787267825E+02  0.19999985322E+02 0.  0.
        -12    1    1    2    0    0 -0.17847694785E+02 -0.90942889609E+01  0.38501652594E+02  0.43400732175E+02  0.00000000000E+00 0.  1.
         11    1    3    3    0    0  0.82599845419E+01  0.49163246333E+00 -0.42600458882E+01  0.93068275122E+01  0.51100000000E-03 0. -1.
        -11    1    3    3    0    0  0.71934678047E+01  0.16107143655E+01 -0.66896450360E+01  0.99544829496E+01  0.51100000000E-03 0.  1.
         12    1    3    3    0    0  0.23942424382E+01  0.69919421320E+01 -0.27551961670E+02  0.28525957363E+02  0.00000000000E+00 0. -1.
</event>
<event>
 7    1  0.5541017E-010  0.4778728E+02  0.7816164E-02  0.1312668E+00
        -11   -1    0    0    0    0  0.00000000000E+00  0.00000000000E+00  0.45593999997E+02  0.45594000000E+02  0.51100000000E-03 0.  1.
         11   -1    0    0    0    0 -0.00000000000E+00 -0.00000000000E+00 -0.45593999997E+02  0.45594000000E+02  0.51100000000E-03 0. -1.
    9900012    2    1    2    0    0  0.17703905317E+02  0.18096499090E+02 -0.35252102998E+02  0.47787282165E+02  0.20000050702E+02 0.  0.
        -12    1    1    2    0    0 -0.17703905317E+02 -0.18096499090E+02  0.35252102998E+02  0.43400717835E+02  0.00000000000E+00 0.  1.
         11    1    3    3    0    0  0.14753775427E+02  0.80096336500E+01 -0.20914222044E+02  0.26818516076E+02  0.51100000000E-03 0. -1.
        -11    1    3    3    0    0 -0.95869911752E+00 -0.20310463064E+01 -0.39172520438E+01  0.45154309797E+01  0.51100000000E-03 0.  1.
         12    1    3    3    0    0  0.39088290075E+01  0.12117911747E+02 -0.10420628911E+02  0.16453335109E+02  0.00000000000E+00 0. -1.
</event>
<event>
 7    1  0.5541017E-010  0.4778727E+02  0.7816164E-02  0.1312668E+00
        -11   -1    0    0    0    0  0.00000000000E+00  0.00000000000E+00  0.45593999997E+02  0.45594000000E+02  0.51100000000E-03 0. -1.
         11   -1    0    0    0    0 -0.00000000000E+00 -0.00000000000E+00 -0.45593999997E+02  0.45594000000E+02  0.51100000000E-03 0.  1.
    9900012    2    1    2    0    0 -0.15190108527E+02  0.39347972614E+02 -0.10228443451E+02  0.47787269577E+02  0.19999993307E+02 0.  0.
        -12    1    1    2    0    0  0.15190108527E+02 -0.39347972614E+02  0.10228443451E+02  0.43400730423E+02  0.00000000000E+00 0.  1.
         11    1    3    3    0    0  0.18434312443E+01  0.76839500468E+01 -0.57669173111E+01  0.97825693255E+01  0.51100000000E-03 0.  1.
        -11    1    3    3    0    0 -0.45545361226E+01  0.15833971939E+02 -0.65696158220E+01  0.17737483445E+02  0.51100000000E-03 0. -1.
         12    1    3    3    0    0 -0.12479003649E+02  0.15830050628E+02  0.21080896825E+01  0.20267216806E+02  0.00000000000E+00 0. -1.
</event>
<event>
 7    1  0.5541017E-010  0.4778727E+02  0.7816164E-02  0.1312668E+00
        -11   -1    0    0    0    0  0.00000000000E+00  0.00000000000E+00  0.45593999997E+02  0.45594000000E+02  0.51100000000E-03 0. -1.
         11   -1    0    0    0    0 -0.00000000000E+00 -0.00000000000E+00 -0.45593999997E+02  0.45594000000E+02  0.51100000000E-03 0.  1.
    9900012    2    1    2    0    0 -0.38312010325E+02  0.67350408983E+01  0.19247140001E+02  0.47787270637E+02  0.19999998142E+02 0.  0.
        -12    1    1    2    0    0  0.38312010325E+02 -0.67350408983E+01 -0.19247140001E+02  0.43400729363E+02  0.00000000000E+00 0.  1.
         11    1    3    3    0    0 -0.23719476309E+01  0.41260720635E+01  0.25140084172E+01  0.53824571359E+01  0.51100000000E-03 0. -1.
        -11    1    3    3    0    0 -0.69409123924E+01 -0.27713312642E+01 -0.16461798592E+01  0.76528720233E+01  0.51100000000E-03 0.  1.
         12    1    3    3    0    0 -0.28999150301E+02  0.53803000991E+01  0.18379311443E+02  0.34751941478E+02  0.00000000000E+00 0. -1.
</event>
<event>
 7    1  0.5541017E-010  0.4778727E+02  0.7816164E-02  0.1312668E+00
        -11   -1    0    0    0    0  0.00000000000E+00  0.00000000000E+00  0.45593999997E+02  0.45594000000E+02  0.51100000000E-03 0. -1.
         11   -1    0    0    0    0 -0.00000000000E+00 -0.00000000000E+00 -0.45593999997E+02  0.45594000000E+02  0.51100000000E-03 0.  1.
    9900012    2    1    2    0    0  0.19658226848E+02  0.38256386058E+02 -0.57987908995E+01  0.47787274973E+02  0.20000017911E+02 0.  0.
        -12    1    1    2    0    0 -0.19658226848E+02 -0.38256386058E+02  0.57987908995E+01  0.43400725027E+02  0.00000000000E+00 0.  1.
         11    1    3    3    0    0  0.61035113566E+01  0.29152026202E+01 -0.90587265932E-01  0.67645741559E+01  0.51100000000E-03 0. -1.
        -11    1    3    3    0    0 -0.91606010175E-01  0.34609399936E+00 -0.33693247786E+01  0.33882919653E+01  0.51100000000E-03 0.  1.
         12    1    3    3    0    0  0.13646321501E+02  0.34995089438E+02 -0.23388788550E+01  0.37634408852E+02  0.00000000000E+00 0. -1.
</event>
<event>
 7    1  0.5541017E-010  0.4778726E+02  0.7816164E-02  0.1312668E+00
        -11   -1    0    0    0    0  0.00000000000E+00  0.00000000000E+00  0.45593999997E+02  0.45594000000E+02  0.51100000000E-03 0.  1.
         11   -1    0    0    0    0 -0.00000000000E+00 -0.00000000000E+00 -0.45593999997E+02  0.45594000000E+02  0.51100000000E-03 0. -1.
    9900012    2    1    2    0    0 -0.29599400292E+02 -0.21302015052E+02 -0.23531330644E+02  0.47787264237E+02  0.19999968961E+02 0.  0.
        -12    1    1    2    0    0  0.29599400292E+02  0.21302015052E+02  0.23531330644E+02  0.43400735763E+02  0.00000000000E+00 0.  1.
         11    1    3    3    0    0 -0.13152916684E+02 -0.16784505013E+02 -0.11716804344E+02  0.24331098005E+02  0.51100000000E-03 0. -1.
        -11    1    3    3    0    0 -0.10049786885E+01 -0.14260508171E+01 -0.66621558063E+01  0.68867934008E+01  0.51100000000E-03 0.  1.
        -12    1    3    3    0    0 -0.15441504920E+02 -0.30914592217E+01 -0.51523704937E+01  0.16569372831E+02  0.00000000000E+00 0.  1.
</event>
<event>
 7    1  0.5541017E-010  0.4778727E+02  0.7816164E-02  0.1312668E+00
        -11   -1    0    0    0    0  0.00000000000E+00  0.00000000000E+00  0.45593999997E+02  0.45594000000E+02  0.51100000000E-03 0.  1.
         11   -1    0    0    0    0 -0.00000000000E+00 -0.00000000000E+00 -0.45593999997E+02  0.45594000000E+02  0.51100000000E-03 0. -1.
    9900012    2    1    2    0    0 -0.41540885214E+01  0.32095086969E+02  0.28918370215E+02  0.47787271955E+02  0.20000004150E+02 0.  0.
        -12    1    1    2    0    0  0.41540885214E+01 -0.32095086969E+02 -0.28918370215E+02  0.43400728045E+02  0.00000000000E+00 0.  1.
         11    1    3    3    0    0 -0.52820765012E+01  0.19698741567E+02  0.14304583885E+02  0.24911079300E+02  0.51100000000E-03 0. -1.
        -11    1    3    3    0    0 -0.52818645326E+01  0.38920530244E+01  0.79749536715E+01  0.10326957733E+02  0.51100000000E-03 0.  1.
         12    1    3    3    0    0  0.64098525124E+01  0.85042923773E+01  0.66388326582E+01  0.12549234922E+02  0.00000000000E+00 0. -1.
</event>
<event>
 7    1  0.6746386E-010  0.4778728E+02  0.7816164E-02  0.1312668E+00
        -11   -1    0    0    0    0  0.00000000000E+00  0.00000000000E+00  0.45593999997E+02  0.45594000000E+02  0.51100000000E-03 0.  1.
         11   -1    0    0    0    0 -0.00000000000E+00 -0.00000000000E+00 -0.45593999997E+02  0.45594000000E+02  0.51100000000E-03 0. -1.
    9900012    2    1    2    0    0  0.41666612861E+02 -0.10657802135E+02  0.58246778673E+01  0.47787282887E+02  0.20000053995E+02 0.  0.
        -12    1    1    2    0    0 -0.41666612861E+02  0.10657802135E+02 -0.58246778673E+01  0.43400717113E+02  0.00000000000E+00 0.  1.
         11    1    3    3    0    0  0.20078319606E+02 -0.50686392821E+01  0.11276491330E+01  0.20738891368E+02  0.51100000000E-03 0. -1.
        -11    1    3    3    0    0  0.13488826939E+02 -0.76729122952E+01  0.86845167883E+01  0.17783218702E+02  0.51100000000E-03 0.  1.
        -12    1    3    3    0    0  0.80994663164E+01  0.20837494424E+01 -0.39874880540E+01  0.92651728170E+01  0.00000000000E+00 0.  1.
</event>
<event>
 7    1  0.5541017E-010  0.4778727E+02  0.7816164E-02  0.1312668E+00
        -11   -1    0    0    0    0  0.00000000000E+00  0.00000000000E+00  0.45593999997E+02  0.45594000000E+02  0.51100000000E-03 0. -1.
         11   -1    0    0    0    0 -0.00000000000E+00 -0.00000000000E+00 -0.45593999997E+02  0.45594000000E+02  0.51100000000E-03 0.  1.
    9900012    2    1    2    0    0 -0.18283367203E+02  0.39019102905E+02  0.51818270051E+01  0.47787271448E+02  0.20000001838E+02 0.  0.
        -12    1    1    2    0    0  0.18283367203E+02 -0.39019102905E+02 -0.51818270051E+01  0.43400728552E+02  0.00000000000E+00 0.  1.
         11    1    3    3    0    0 -0.71284975395E+00  0.23195123010E+01 -0.11556178505E+01  0.26877025438E+01  0.51100000000E-03 0.  1.
        -11    1    3    3    0    0 -0.62959041436E+01  0.88126230225E+01  0.10070348105E+02  0.14788936566E+02  0.51100000000E-03 0. -1.
         12    1    3    3    0    0 -0.11274613305E+02  0.27886967581E+02 -0.37329032498E+01  0.30310632338E+02  0.00000000000E+00 0. -1.
</event>
<event>
 7    1  0.5541017E-010  0.4778725E+02  0.7816164E-02  0.1312668E+00
        -11   -1    0    0    0    0  0.00000000000E+00  0.00000000000E+00  0.45593999997E+02  0.45594000000E+02  0.51100000000E-03 0.  1.
         11   -1    0    0    0    0 -0.00000000000E+00 -0.00000000000E+00 -0.45593999997E+02  0.45594000000E+02  0.51100000000E-03 0. -1.
    9900012    2    1    2    0    0 -0.16022466191E+01  0.29536359035E+02 -0.31759429654E+02  0.47787250338E+02  0.19999905591E+02 0.  0.
        -12    1    1    2    0    0  0.16022466191E+01 -0.29536359035E+02  0.31759429654E+02  0.43400749662E+02  0.00000000000E+00 0.  1.
         11    1    3    3    0    0  0.12069273829E+01  0.11719373604E+02 -0.98440897354E+01  0.15352735729E+02  0.51100000000E-03 0. -1.
        -11    1    3    3    0    0 -0.20303270333E+01  0.16727427095E+02 -0.83543646754E+01  0.18807563757E+02  0.51100000000E-03 0.  1.
         12    1    3    3    0    0 -0.77884696874E+00  0.10895583353E+01 -0.13560975244E+02  0.13626950852E+02  0.00000000000E+00 0. -1.
</event>
<event>
 7    1  0.5541017E-010  0.4778727E+02  0.7816164E-02  0.1312668E+00
        -11   -1    0    0    0    0  0.00000000000E+00  0.00000000000E+00  0.45593999997E+02  0.45594000000E+02  0.51100000000E-03 0.  1.
         11   -1    0    0    0    0 -0.00000000000E+00 -0.00000000000E+00 -0.45593999997E+02  0.45594000000E+02  0.51100000000E-03 0. -1.
    9900012    2    1    2    0    0 -0.46273114883E+01 -0.37428199778E+02 -0.21478854996E+02  0.47787270027E+02  0.19999995360E+02 0.  0.
        -12    1    1    2    0    0  0.46273114883E+01  0.37428199778E+02  0.21478854996E+02  0.43400729973E+02  0.00000000000E+00 0.  1.
         11    1    3    3    0    0 -0.32506346246E+01 -0.16597452024E+02 -0.12361922053E+02  0.20948965517E+02  0.51100000000E-03 0. -1.
        -11    1    3    3    0    0 -0.28774721299E+01 -0.22464372924E+02 -0.68373835959E+01  0.23657508563E+02  0.51100000000E-03 0.  1.
        -12    1    3    3    0    0  0.15007952661E+01  0.16336251691E+01 -0.22795493474E+01  0.31807959461E+01  0.00000000000E+00 0.  1.
</event>
<event>
 7    1  0.5541017E-010  0.4778727E+02  0.7816164E-02  0.1312668E+00
        -11   -1    0    0    0    0  0.00000000000E+00  0.00000000000E+00  0.45593999997E+02  0.45594000000E+02  0.51100000000E-03 0.  1.
         11   -1    0    0    0    0 -0.00000000000E+00 -0.00000000000E+00 -0.45593999997E+02  0.45594000000E+02  0.51100000000E-03 0. -1.
    9900012    2    1    2    0    0 -0.36420630896E+02 -0.21443865939E+02 -0.98651718964E+01  0.47787270077E+02  0.19999995591E+02 0.  0.
        -12    1    1    2    0    0  0.36420630896E+02  0.21443865939E+02  0.98651718964E+01  0.43400729923E+02  0.00000000000E+00 0.  1.
         11    1    3    3    0    0 -0.17013144523E+02 -0.70215227711E+01 -0.10320851578E+02  0.21101394413E+02  0.51100000000E-03 0.  1.
        -11    1    3    3    0    0 -0.82623140807E+01 -0.53993079332E+01 -0.53366004644E+01  0.11220412867E+02  0.51100000000E-03 0. -1.
         12    1    3    3    0    0 -0.11145172292E+02 -0.90230352349E+01  0.57922801459E+01  0.15465462798E+02  0.00000000000E+00 0. -1.
</event>
<event>
 7    1  0.5541017E-010  0.4778729E+02  0.7816164E-02  0.1312668E+00
        -11   -1    0    0    0    0  0.00000000000E+00  0.00000000000E+00  0.45593999997E+02  0.45594000000E+02  0.51100000000E-03 0.  1.
         11   -1    0    0    0    0 -0.00000000000E+00 -0.00000000000E+00 -0.45593999997E+02  0.45594000000E+02  0.51100000000E-03 0. -1.
    9900012    2    1    2    0    0  0.14081880411E+02  0.76500743493E+01 -0.40333596778E+02  0.47787285461E+02  0.20000065730E+02 0.  0.
        -12    1    1    2    0    0 -0.14081880411E+02 -0.76500743493E+01  0.40333596778E+02  0.43400714539E+02  0.00000000000E+00 0.  1.
         11    1    3    3    0    0 -0.16125681081E+01  0.68298567242E+00 -0.10902698146E+02  0.11042448662E+02  0.51100000000E-03 0. -1.
        -11    1    3    3    0    0  0.56427345013E+00  0.54334067450E+01 -0.14230987693E+02  0.15243402651E+02  0.51100000000E-03 0.  1.
         12    1    3    3    0    0  0.15130175069E+02  0.15336819319E+01 -0.15199910938E+02  0.21501434148E+02  0.00000000000E+00 0. -1.
</event>
<event>
 7    1  0.5541017E-010  0.4778727E+02  0.7816164E-02  0.1312668E+00
        -11   -1    0    0    0    0  0.00000000000E+00  0.00000000000E+00  0.45593999997E+02  0.45594000000E+02  0.51100000000E-03 0. -1.
         11   -1    0    0    0    0 -0.00000000000E+00 -0.00000000000E+00 -0.45593999997E+02  0.45594000000E+02  0.51100000000E-03 0.  1.
    9900012    2    1    2    0    0  0.16597236452E+02  0.39720708715E+02 -0.55154511524E+01  0.47787272356E+02  0.20000005980E+02 0.  0.
        -12    1    1    2    0    0 -0.16597236452E+02 -0.39720708715E+02  0.55154511524E+01  0.43400727644E+02  0.00000000000E+00 0.  1.
         11    1    3    3    0    0 -0.23418993725E+01  0.27400632952E+01 -0.16106431951E+01  0.39479882592E+01  0.51100000000E-03 0. -1.
        -11    1    3    3    0    0  0.69035551764E+01  0.34599800794E+01 -0.27748101120E+01  0.82054925289E+01  0.51100000000E-03 0.  1.
         12    1    3    3    0    0  0.12035580648E+02  0.33520665340E+02 -0.11299978454E+01  0.35633791568E+02  0.00000000000E+00 0. -1.
</event>
<event>
 7    1  0.5541017E-010  0.4778727E+02  0.7816164E-02  0.1312668E+00
        -11   -1    0    0    0    0  0.00000000000E+00  0.00000000000E+00  0.45593999997E+02  0.45594000000E+02  0.51100000000E-03 0.  1.
         11   -1    0    0    0    0 -0.00000000000E+00 -0.00000000000E+00 -0.45593999997E+02  0.45594000000E+02  0.51100000000E-03 0. -1.
    9900012    2    1    2    0    0 -0.15590010429E+01 -0.42056073324E+02 -0.10605648099E+02  0.47787267756E+02  0.19999985007E+02 0.  0.
        -12    1    1    2    0    0  0.15590010429E+01  0.42056073324E+02  0.10605648099E+02  0.43400732244E+02  0.00000000000E+00 0.  1.
         11    1    3    3    0    0  0.17600553058E+01 -0.33561759774E+01  0.22064339113E+01  0.43852095431E+01  0.51100000000E-03 0. -1.
        -11    1    3    3    0    0 -0.89088265426E+00 -0.12720517328E+01  0.24569318367E+01  0.29065962613E+01  0.51100000000E-03 0.  1.
         12    1    3    3    0    0 -0.24281736945E+01 -0.37427845614E+02 -0.15269013847E+02  0.40495461952E+02  0.00000000000E+00 0. -1.
</event>
<event>
 7    1  0.5541017E-010  0.4778727E+02  0.7816164E-02  0.1312668E+00
        -11   -1    0    0    0    0  0.00000000000E+00  0.00000000000E+00  0.45593999997E+02  0.45594000000E+02  0.51100000000E-03 0.  1.
         11   -1    0    0    0    0 -0.00000000000E+00 -0.00000000000E+00 -0.45593999997E+02  0.45594000000E+02  0.51100000000E-03 0. -1.
    9900012    2    1    2    0    0 -0.36760821738E+02  0.22293128802E+02  0.59398545300E+01  0.47787268687E+02  0.19999989251E+02 0.  0.
        -12    1    1    2    0    0  0.36760821738E+02 -0.22293128802E+02 -0.59398545300E+01  0.43400731313E+02  0.00000000000E+00 0.  1.
         11    1    3    3    0    0 -0.22999614276E+02  0.15888893699E+02 -0.42014110965E+00  0.27957391127E+02  0.51100000000E-03 0. -1.
        -11    1    3    3    0    0 -0.14072261661E+02  0.21973805471E+01  0.63921279704E+01  0.15611416649E+02  0.51100000000E-03 0.  1.
        -12    1    3    3    0    0  0.31105419874E+00  0.42068545561E+01 -0.32132330717E-01  0.42184609110E+01  0.00000000000E+00 0.  1.
</event>
<event>
 7    1  0.5541017E-010  0.4778727E+02  0.7816164E-02  0.1312668E+00
        -11   -1    0    0    0    0  0.00000000000E+00  0.00000000000E+00  0.45593999997E+02  0.45594000000E+02  0.51100000000E-03 0.  1.
         11   -1    0    0    0    0 -0.00000000000E+00 -0.00000000000E+00 -0.45593999997E+02  0.45594000000E+02  0.51100000000E-03 0. -1.
    9900012    2    1    2    0    0  0.30972920343E+02 -0.17432591656E+02 -0.24907960488E+02  0.47787267955E+02  0.19999985912E+02 0.  0.
        -12    1    1    2    0    0 -0.30972920343E+02  0.17432591656E+02  0.24907960488E+02  0.43400732045E+02  0.00000000000E+00 0.  1.
         11    1    3    3    0    0  0.20309199534E+02 -0.40146114062E+01 -0.16927299115E+02  0.26741618239E+02  0.51100000000E-03 0. -1.
        -11    1    3    3    0    0  0.94527769133E+01 -0.97877553544E+01 -0.98387447113E+01  0.16791546802E+02  0.51100000000E-03 0.  1.
        -12    1    3    3    0    0  0.12109438951E+01 -0.36302248956E+01  0.18580833378E+01  0.42541029137E+01  0.00000000000E+00 0.  1.
</event>
<event>
 7    1  0.5541017E-010  0.4778727E+02  0.7816164E-02  0.1312668E+00
        -11   -1    0    0    0    0  0.00000000000E+00  0.00000000000E+00  0.45593999997E+02  0.45594000000E+02  0.51100000000E-03 0. -1.
         11   -1    0    0    0    0 -0.00000000000E+00 -0.00000000000E+00 -0.45593999997E+02  0.45594000000E+02  0.51100000000E-03 0.  1.
    9900012    2    1    2    0    0  0.32407967711E+00 -0.11264166449E+02  0.41912251412E+02  0.47787270837E+02  0.19999999056E+02 0.  0.
        -12    1    1    2    0    0 -0.32407967711E+00  0.11264166449E+02 -0.41912251412E+02  0.43400729163E+02  0.00000000000E+00 0.  1.
         11    1    3    3    0    0 -0.89235472573E+00 -0.95599474759E+01  0.21406905963E+02  0.23461553995E+02  0.51100000000E-03 0. -1.
        -11    1    3    3    0    0  0.43307382762E+01 -0.16844548758E+01  0.20690469329E+02  0.21205853049E+02  0.51100000000E-03 0.  1.
        -12    1    3    3    0    0 -0.31143038733E+01 -0.19764097139E-01 -0.18512387966E+00  0.31198637928E+01  0.00000000000E+00 0.  1.
</event>
<event>
 7    1  0.5541017E-010  0.4778726E+02  0.7816164E-02  0.1312668E+00
        -11   -1    0    0    0    0  0.00000000000E+00  0.00000000000E+00  0.45593999997E+02  0.45594000000E+02  0.51100000000E-03 0.  1.
         11   -1    0    0    0    0 -0.00000000000E+00 -0.00000000000E+00 -0.45593999997E+02  0.45594000000E+02  0.51100000000E-03 0. -1.
    9900012    2    1    2    0    0 -0.31354509208E+02  0.73272720142E+01 -0.29100343228E+02  0.47787261080E+02  0.19999954567E+02 0.  0.
        -12    1    1    2    0    0  0.31354509208E+02 -0.73272720142E+01  0.29100343228E+02  0.43400738920E+02  0.00000000000E+00 0.  1.
         11    1    3    3    0    0 -0.20860808494E+02  0.89617481519E+00 -0.14221028797E+02  0.25262900083E+02  0.51100000000E-03 0.  1.
        -11    1    3    3    0    0 -0.12032781452E+02  0.74364620844E+01 -0.10035950066E+02  0.17343848817E+02  0.51100000000E-03 0. -1.
        -12    1    3    3    0    0  0.15390807376E+01 -0.10053648854E+01 -0.48433643649E+01  0.51805121794E+01  0.00000000000E+00 0.  1.
</event>
<event>
 7    1  0.5541017E-010  0.4778727E+02  0.7816164E-02  0.1312668E+00
        -11   -1    0    0    0    0  0.00000000000E+00  0.00000000000E+00  0.45593999997E+02  0.45594000000E+02  0.51100000000E-03 0.  1.
         11   -1    0    0    0    0 -0.00000000000E+00 -0.00000000000E+00 -0.45593999997E+02  0.45594000000E+02  0.51100000000E-03 0. -1.
    9900012    2    1    2    0    0 -0.46334722051E+01 -0.32202047488E+01 -0.43032367119E+02  0.47787269555E+02  0.19999993210E+02 0.  0.
        -12    1    1    2    0    0  0.46334722051E+01  0.32202047488E+01  0.43032367119E+02  0.43400730445E+02  0.00000000000E+00 0.  1.
         11    1    3    3    0    0 -0.10241515532E+01  0.85918532182E+00 -0.23511865993E+02  0.23549839247E+02  0.51100000000E-03 0. -1.
        -11    1    3    3    0    0 -0.47259600508E+01  0.79323883366E+00 -0.18532185280E+02  0.19141729748E+02  0.51100000000E-03 0.  1.
        -12    1    3    3    0    0  0.11166393990E+01 -0.48726289043E+01 -0.98831584608E+00  0.50957005600E+01  0.00000000000E+00 0.  1.
</event>
<event>
 7    1  0.5541017E-010  0.4778728E+02  0.7816164E-02  0.1312668E+00
        -11   -1    0    0    0    0  0.00000000000E+00  0.00000000000E+00  0.45593999997E+02  0.45594000000E+02  0.51100000000E-03 0.  1.
         11   -1    0    0    0    0 -0.00000000000E+00 -0.00000000000E+00 -0.45593999997E+02  0.45594000000E+02  0.51100000000E-03 0. -1.
    9900012    2    1    2    0    0  0.31357313289E+00 -0.35016835318E+02 -0.25638748065E+02  0.47787280120E+02  0.20000041378E+02 0.  0.
        -12    1    1    2    0    0 -0.31357313289E+00  0.35016835318E+02  0.25638748065E+02  0.43400719880E+02  0.00000000000E+00 0.  1.
         11    1    3    3    0    0 -0.44628092488E+01 -0.15567959069E+02 -0.10060193961E+02  0.19065296188E+02  0.51100000000E-03 0. -1.
        -11    1    3    3    0    0  0.29964647493E+01 -0.13031999415E+02 -0.17279207938E+02  0.21849092360E+02  0.51100000000E-03 0.  1.
        -12    1    3    3    0    0  0.17799176324E+01 -0.64168768345E+01  0.17006538340E+01  0.68728915713E+01  0.00000000000E+00 0.  1.
</event>
<event>
 7    1  0.5541017E-010  0.4778727E+02  0.7816164E-02  0.1312668E+00
        -11   -1    0    0    0    0  0.00000000000E+00  0.00000000000E+00  0.45593999997E+02  0.45594000000E+02  0.51100000000E-03 0.  1.
         11   -1    0    0    0    0 -0.00000000000E+00 -0.00000000000E+00 -0.45593999997E+02  0.45594000000E+02  0.51100000000E-03 0. -1.
    9900012    2    1    2    0    0 -0.20683469716E+02 -0.32269877540E+02 -0.20358595551E+02  0.47787270412E+02  0.19999997115E+02 0.  0.
        -12    1    1    2    0    0  0.20683469716E+02  0.32269877540E+02  0.20358595551E+02  0.43400729588E+02  0.00000000000E+00 0.  1.
         11    1    3    3    0    0 -0.37179377741E+00  0.64969216483E+00 -0.27342428691E+01  0.28348571129E+01  0.51100000000E-03 0. -1.
        -11    1    3    3    0    0 -0.12751562882E+02 -0.84350128657E+01 -0.97966021125E+01  0.18158337236E+02  0.51100000000E-03 0.  1.
         12    1    3    3    0    0 -0.75601130565E+01 -0.24484556840E+02 -0.78277505697E+01  0.26794076062E+02  0.00000000000E+00 0. -1.
</event>
<event>
 7    1  0.5541017E-010  0.4778728E+02  0.7816164E-02  0.1312668E+00
        -11   -1    0    0    0    0  0.00000000000E+00  0.00000000000E+00  0.45593999997E+02  0.45594000000E+02  0.51100000000E-03 0. -1.
         11   -1    0    0    0    0 -0.00000000000E+00 -0.00000000000E+00 -0.45593999997E+02  0.45594000000E+02  0.51100000000E-03 0.  1.
    9900012    2    1    2    0    0 -0.28706900001E+02 -0.54962967795E+01  0.32083133549E+02  0.47787275994E+02  0.20000022565E+02 0.  0.
        -12    1    1    2    0    0  0.28706900001E+02  0.54962967795E+01 -0.32083133549E+02  0.43400724006E+02  0.00000000000E+00 0.  1.
         11    1    3    3    0    0 -0.25879849031E+00 -0.11649821496E+01  0.23366991494E+00  0.12160435674E+01  0.51100000000E-03 0. -1.
        -11    1    3    3    0    0 -0.26834235625E+02 -0.65642404336E+01  0.19242141426E+02  0.33666384732E+02  0.51100000000E-03 0.  1.
        -12    1    3    3    0    0 -0.16138658864E+01  0.22329258038E+01  0.12607322208E+02  0.12904847694E+02  0.00000000000E+00 0.  1.
</event>
<event>
 7    1  0.5541017E-010  0.4778727E+02  0.7816164E-02  0.1312668E+00
        -11   -1    0    0    0    0  0.00000000000E+00  0.00000000000E+00  0.45593999997E+02  0.45594000000E+02  0.51100000000E-03 0.  1.
         11   -1    0    0    0    0 -0.00000000000E+00 -0.00000000000E+00 -0.45593999997E+02  0.45594000000E+02  0.51100000000E-03 0. -1.
    9900012    2    1    2    0    0 -0.28992422371E+02  0.28949552907E+02 -0.14317329431E+02  0.47787273157E+02  0.20000009633E+02 0.  0.
        -12    1    1    2    0    0  0.28992422371E+02 -0.28949552907E+02  0.14317329431E+02  0.43400726843E+02  0.00000000000E+00 0.  1.
         11    1    3    3    0    0 -0.24437239858E+01  0.33634932717E+01  0.87352803792E+00  0.42482849954E+01  0.51100000000E-03 0. -1.
        -11    1    3    3    0    0  0.24987449722E+01  0.29035108625E+01 -0.49493581467E+00  0.38625203542E+01  0.51100000000E-03 0.  1.
         12    1    3    3    0    0 -0.29047443357E+02  0.22682548773E+02 -0.14695921654E+02  0.39676467808E+02  0.00000000000E+00 0. -1.
</event>
<event>
 7    1  0.5541017E-010  0.4778727E+02  0.7816164E-02  0.1312668E+00
        -11   -1    0    0    0    0  0.00000000000E+00  0.00000000000E+00  0.45593999997E+02  0.45594000000E+02  0.51100000000E-03 0.  1.
         11   -1    0    0    0    0 -0.00000000000E+00 -0.00000000000E+00 -0.45593999997E+02  0.45594000000E+02  0.51100000000E-03 0. -1.
    9900012    2    1    2    0    0 -0.14506087569E+01 -0.11351646929E+02 -0.41864774140E+02  0.47787268813E+02  0.19999989825E+02 0.  0.
        -12    1    1    2    0    0  0.14506087569E+01  0.11351646929E+02  0.41864774140E+02  0.43400731187E+02  0.00000000000E+00 0.  1.
         11    1    3    3    0    0 -0.21279642705E+01 -0.13240100799E+01 -0.22724593872E+02  0.22862379612E+02  0.51100000000E-03 0. -1.
        -11    1    3    3    0    0 -0.30579535145E+01  0.17614729116E+01 -0.52665644063E+01  0.63396030965E+01  0.51100000000E-03 0.  1.
        -12    1    3    3    0    0  0.37353090281E+01 -0.11789109761E+02 -0.13873615862E+02  0.18585286104E+02  0.00000000000E+00 0.  1.
</event>
<event>
 7    1  0.5541017E-010  0.4778727E+02  0.7816164E-02  0.1312668E+00
        -11   -1    0    0    0    0  0.00000000000E+00  0.00000000000E+00  0.45593999997E+02  0.45594000000E+02  0.51100000000E-03 0. -1.
         11   -1    0    0    0    0 -0.00000000000E+00 -0.00000000000E+00 -0.45593999997E+02  0.45594000000E+02  0.51100000000E-03 0.  1.
    9900012    2    1    2    0    0 -0.52575665336E+01  0.37296339162E+02  0.21563039517E+02  0.47787267357E+02  0.19999983189E+02 0.  0.
        -12    1    1    2    0    0  0.52575665336E+01 -0.37296339162E+02 -0.21563039517E+02  0.43400732643E+02  0.00000000000E+00 0.  1.
         11    1    3    3    0    0 -0.16480855840E+01  0.63684327836E+01  0.35462552345E+01  0.74732221070E+01  0.51100000000E-03 0. -1.
        -11    1    3    3    0    0 -0.48159550115E+01  0.36758225661E+01 -0.21083996933E+01  0.64148611628E+01  0.51100000000E-03 0.  1.
         12    1    3    3    0    0  0.12064740618E+01  0.27252083812E+02  0.20125183976E+02  0.33899184088E+02  0.00000000000E+00 0. -1.
</event>
<event>
 7    1  0.5541017E-010  0.4778727E+02  0.7816164E-02  0.1312668E+00
        -11   -1    0    0    0    0  0.00000000000E+00  0.00000000000E+00  0.45593999997E+02  0.45594000000E+02  0.51100000000E-03 0. -1.
         11   -1    0    0    0    0 -0.00000000000E+00 -0.00000000000E+00 -0.45593999997E+02  0.45594000000E+02  0.51100000000E-03 0.  1.
    9900012    2    1    2    0    0 -0.28740982778E+02  0.30920726432E+02  0.10074125206E+02  0.47787269444E+02  0.19999992702E+02 0.  0.
        -12    1    1    2    0    0  0.28740982778E+02 -0.30920726432E+02 -0.10074125206E+02  0.43400730556E+02  0.00000000000E+00 0.  1.
         11    1    3    3    0    0 -0.74951623153E+01  0.12057507292E+01  0.23120893664E+00  0.75950477804E+01  0.51100000000E-03 0. -1.
        -11    1    3    3    0    0 -0.48938066991E+01 -0.16023193308E+00  0.16019028392E+01  0.51518066004E+01  0.51100000000E-03 0.  1.
        -12    1    3    3    0    0 -0.16352013764E+02  0.29875207636E+02  0.82410134306E+01  0.35040415063E+02  0.00000000000E+00 0.  1.
</event>
<event>
 7    1  0.5541017E-010  0.4778727E+02  0.7816164E-02  0.1312668E+00
        -11   -1    0    0    0    0  0.00000000000E+00  0.00000000000E+00  0.45593999997E+02  0.45594000000E+02  0.51100000000E-03 0.  1.
         11   -1    0    0    0    0 -0.00000000000E+00 -0.00000000000E+00 -0.45593999997E+02  0.45594000000E+02  0.51100000000E-03 0. -1.
    9900012    2    1    2    0    0  0.21280362111E+01 -0.26184907134E+02 -0.34546275535E+02  0.47787273588E+02  0.20000011597E+02 0.  0.
        -12    1    1    2    0    0 -0.21280362111E+01  0.26184907134E+02  0.34546275535E+02  0.43400726412E+02  0.00000000000E+00 0.  1.
         11    1    3    3    0    0 -0.26331892705E+00 -0.67358526130E+01 -0.15663985340E+02  0.17052902518E+02  0.51100000000E-03 0. -1.
        -11    1    3    3    0    0 -0.51215019928E+01 -0.13995916794E+02 -0.12701419818E+02  0.19581663239E+02  0.51100000000E-03 0.  1.
        -12    1    3    3    0    0  0.75128571310E+01 -0.54531377275E+01 -0.61808703773E+01  0.11152707831E+02  0.00000000000E+00 0.  1.
</event>
<event>
 7    1  0.5541017E-010  0.4778728E+02  0.7816164E-02  0.1312668E+00
        -11   -1    0    0    0    0  0.00000000000E+00  0.00000000000E+00  0.45593999997E+02  0.45594000000E+02  0.51100000000E-03 0.  1.
         11   -1    0    0    0    0 -0.00000000000E+00 -0.00000000000E+00 -0.45593999997E+02  0.45594000000E+02  0.51100000000E-03 0. -1.
    9900012    2    1    2    0    0  0.15573903419E+02 -0.16173843802E+02 -0.37141394285E+02  0.47787275807E+02  0.20000021715E+02 0.  0.
        -12    1    1    2    0    0 -0.15573903419E+02  0.16173843802E+02  0.37141394285E+02  0.43400724193E+02  0.00000000000E+00 0.  1.
         11    1    3    3    0    0  0.97450081693E+01 -0.12413282875E+02 -0.20706036819E+02  0.26034491294E+02  0.51100000000E-03 0. -1.
        -11    1    3    3    0    0  0.50456846723E+01 -0.59601977328E+01 -0.34124036114E+01  0.85221704685E+01  0.51100000000E-03 0.  1.
        -12    1    3    3    0    0  0.78321057726E+00  0.21996368054E+01 -0.13022953855E+02  0.13230614044E+02  0.00000000000E+00 0.  1.
</event>
<event>
 7    1  0.5541017E-010  0.4778727E+02  0.7816164E-02  0.1312668E+00
        -11   -1    0    0    0    0  0.00000000000E+00  0.00000000000E+00  0.45593999997E+02  0.45594000000E+02  0.51100000000E-03 0. -1.
         11   -1    0    0    0    0 -0.00000000000E+00 -0.00000000000E+00 -0.45593999997E+02  0.45594000000E+02  0.51100000000E-03 0.  1.
    9900012    2    1    2    0    0 -0.39368063491E+02  0.12177555744E+02  0.13619312608E+02  0.47787274628E+02  0.20000016338E+02 0.  0.
        -12    1    1    2    0    0  0.39368063491E+02 -0.12177555744E+02 -0.13619312608E+02  0.43400725372E+02  0.00000000000E+00 0.  1.
         11    1    3    3    0    0 -0.54428230579E+01  0.61519891948E+00  0.23686440621E+01  0.59676852719E+01  0.51100000000E-03 0. -1.
        -11    1    3    3    0    0 -0.23026961633E+02  0.11905958126E+02 -0.31462056114E+00  0.25924733120E+02  0.51100000000E-03 0.  1.
         12    1    3    3    0    0 -0.10898278799E+02 -0.34360130128E+00  0.11565289107E+02  0.15894856236E+02  0.00000000000E+00 0. -1.
</event>
<event>
 7    1  0.5541017E-010  0.4778726E+02  0.7816164E-02  0.1312668E+00
        -11   -1    0    0    0    0  0.00000000000E+00  0.00000000000E+00  0.45593999997E+02  0.45594000000E+02  0.51100000000E-03 0. -1.
         11   -1    0    0    0    0 -0.00000000000E+00 -0.00000000000E+00 -0.45593999997E+02  0.45594000000E+02  0.51100000000E-03 0.  1.
    9900012    2    1    2    0    0 -0.12354482887E+02 -0.33051449359E+02  0.25270386553E+02  0.47787262809E+02  0.19999962453E+02 0.  0.
        -12    1    1    2    0    0  0.12354482887E+02  0.33051449359E+02 -0.25270386553E+02  0.43400737191E+02  0.00000000000E+00 0.  1.
         11    1    3    3    0    0 -0.13788642282E+02 -0.16169039602E+02  0.17245145916E+02  0.27367125453E+02  0.51100000000E-03 0. -1.
        -11    1    3    3    0    0 -0.19895721277E+01 -0.69712615879E+00  0.19494994371E+00  0.21171650560E+01  0.51100000000E-03 0.  1.
        -12    1    3    3    0    0  0.34237315226E+01 -0.16185283598E+02  0.78302906934E+01  0.18302972301E+02  0.00000000000E+00 0.  1.
</event>
<event>
 7    1  0.5541017E-010  0.4778728E+02  0.7816164E-02  0.1312668E+00
        -11   -1    0    0    0    0  0.00000000000E+00  0.00000000000E+00  0.45593999997E+02  0.45594000000E+02  0.51100000000E-03 0.  1.
         11   -1    0    0    0    0 -0.00000000000E+00 -0.00000000000E+00 -0.45593999997E+02  0.45594000000E+02  0.51100000000E-03 0. -1.
    9900012    2    1    2    0    0 -0.23395086680E+02  0.30738638263E+02 -0.19784558324E+02  0.47787277528E+02  0.20000029563E+02 0.  0.
        -12    1    1    2    0    0  0.23395086680E+02 -0.30738638263E+02  0.19784558324E+02  0.43400722472E+02  0.00000000000E+00 0.  1.
         11    1    3    3    0    0 -0.35186074035E+01 -0.63043013668E+00 -0.45804203935E+00  0.36038650069E+01  0.51100000000E-03 0. -1.
        -11    1    3    3    0    0  0.62074068957E+00 -0.35545880282E+00 -0.29156756257E+01  0.30021383345E+01  0.51100000000E-03 0.  1.
         12    1    3    3    0    0 -0.20497219966E+02  0.31724527202E+02 -0.16410840659E+02  0.41181274187E+02  0.00000000000E+00 0. -1.
</event>
<event>
 7    1  0.5541017E-010  0.4778727E+02  0.7816164E-02  0.1312668E+00
        -11   -1    0    0    0    0  0.00000000000E+00  0.00000000000E+00  0.45593999997E+02  0.45594000000E+02  0.51100000000E-03 0.  1.
         11   -1    0    0    0    0 -0.00000000000E+00 -0.00000000000E+00 -0.45593999997E+02  0.45594000000E+02  0.51100000000E-03 0. -1.
    9900012    2    1    2    0    0  0.19724310076E+01  0.41152089175E+02 -0.13646917738E+02  0.47787270843E+02  0.19999999084E+02 0.  0.
        -12    1    1    2    0    0 -0.19724310076E+01 -0.41152089175E+02  0.13646917738E+02  0.43400729157E+02  0.00000000000E+00 0.  1.
         11    1    3    3    0    0  0.34873432399E+01  0.10279088348E+02  0.18680941509E+01  0.11014127118E+02  0.51100000000E-03 0. -1.
        -11    1    3    3    0    0  0.95875437303E+00  0.16084532476E+01  0.18683831340E+01  0.26452197629E+01  0.51100000000E-03 0.  1.
         12    1    3    3    0    0 -0.24736666053E+01  0.29264547579E+02 -0.17383395023E+02  0.34127923963E+02  0.00000000000E+00 0. -1.
</event>
<event>
 7    1  0.5541017E-010  0.4778728E+02  0.7816164E-02  0.1312668E+00
        -11   -1    0    0    0    0  0.00000000000E+00  0.00000000000E+00  0.45593999997E+02  0.45594000000E+02  0.51100000000E-03 0.  1.
         11   -1    0    0    0    0 -0.00000000000E+00 -0.00000000000E+00 -0.45593999997E+02  0.45594000000E+02  0.51100000000E-03 0. -1.
    9900012    2    1    2    0    0 -0.34836168904E+02  0.18225604647E+02 -0.18381814318E+02  0.47787280809E+02  0.20000044522E+02 0.  0.
        -12    1    1    2    0    0  0.34836168904E+02 -0.18225604647E+02  0.18381814318E+02  0.43400719191E+02  0.00000000000E+00 0.  1.
         11    1    3    3    0    0 -0.17595498523E+02  0.12068939986E+02 -0.11507852156E+02  0.24242350178E+02  0.51100000000E-03 0. -1.
        -11    1    3    3    0    0 -0.59804048636E+01  0.88387131189E+01 -0.14778624080E+01  0.10773679478E+02  0.51100000000E-03 0.  1.
         12    1    3    3    0    0 -0.11260265518E+02 -0.26820484586E+01 -0.53960997539E+01  0.12771251153E+02  0.00000000000E+00 0. -1.
</event>
<event>
 7    1  0.5541017E-010  0.4778727E+02  0.7816164E-02  0.1312668E+00
        -11   -1    0    0    0    0  0.00000000000E+00  0.00000000000E+00  0.45593999997E+02  0.45594000000E+02  0.51100000000E-03 0.  1.
         11   -1    0    0    0    0 -0.00000000000E+00 -0.00000000000E+00 -0.45593999997E+02  0.45594000000E+02  0.51100000000E-03 0. -1.
    9900012    2    1    2    0    0 -0.39545658003E+02  0.10492458612E+02 -0.14480074526E+02  0.47787270595E+02  0.19999997950E+02 0.  0.
        -12    1    1    2    0    0  0.39545658003E+02 -0.10492458612E+02  0.14480074526E+02  0.43400729405E+02  0.00000000000E+00 0.  1.
         11    1    3    3    0    0 -0.22878523640E+02  0.13585685962E+02 -0.38568779951E+01  0.26886301627E+02  0.51100000000E-03 0. -1.
        -11    1    3    3    0    0 -0.37693881584E+00  0.68019279923E+00 -0.18737491771E+01  0.20287142122E+01  0.51100000000E-03 0.  1.
        -12    1    3    3    0    0 -0.16290195547E+02 -0.37734201494E+01 -0.87494473541E+01  0.18872254756E+02  0.00000000000E+00 0.  1.
</event>
<event>
 7    1  0.5541017E-010  0.4778726E+02  0.7816164E-02  0.1312668E+00
        -11   -1    0    0    0    0  0.00000000000E+00  0.00000000000E+00  0.45593999997E+02  0.45594000000E+02  0.51100000000E-03 0.  1.
         11   -1    0    0    0    0 -0.00000000000E+00 -0.00000000000E+00 -0.45593999997E+02  0.45594000000E+02  0.51100000000E-03 0. -1.
    9900012    2    1    2    0    0 -0.85014621073E+01 -0.34473357145E+02 -0.24958698344E+02  0.47787264593E+02  0.19999970587E+02 0.  0.
        -12    1    1    2    0    0  0.85014621073E+01  0.34473357145E+02  0.24958698344E+02  0.43400735407E+02  0.00000000000E+00 0.  1.
         11    1    3    3    0    0 -0.15561721994E+01 -0.95549290594E+01 -0.33005569650E+01  0.10228001652E+02  0.51100000000E-03 0. -1.
        -11    1    3    3    0    0  0.96957452823E+00  0.21633621742E+01 -0.91981426614E+00  0.25428859998E+01  0.51100000000E-03 0.  1.
        -12    1    3    3    0    0 -0.79148644361E+01 -0.27081790259E+02 -0.20738327113E+02  0.35016376942E+02  0.00000000000E+00 0.  1.
</event>
<event>
 7    1  0.5541017E-010  0.4778727E+02  0.7816164E-02  0.1312668E+00
        -11   -1    0    0    0    0  0.00000000000E+00  0.00000000000E+00  0.45593999997E+02  0.45594000000E+02  0.51100000000E-03 0.  1.
         11   -1    0    0    0    0 -0.00000000000E+00 -0.00000000000E+00 -0.45593999997E+02  0.45594000000E+02  0.51100000000E-03 0. -1.
    9900012    2    1    2    0    0 -0.94587469521E+00  0.11699871440E+00 -0.43390262745E+02  0.47787271104E+02  0.20000000272E+02 0.  0.
        -12    1    1    2    0    0  0.94587469521E+00 -0.11699871440E+00  0.43390262745E+02  0.43400728896E+02  0.00000000000E+00 0.  1.
         11    1    3    3    0    0  0.42280499962E+01  0.38846311516E+01 -0.11355218050E+02  0.12724297355E+02  0.51100000000E-03 0. -1.
        -11    1    3    3    0    0  0.26036515734E+01 -0.49049399782E+01 -0.77255556076E+01  0.95142864899E+01  0.51100000000E-03 0.  1.
         12    1    3    3    0    0 -0.77775762649E+01  0.11373075410E+01 -0.24309489087E+02  0.25548687259E+02  0.00000000000E+00 0. -1.
</event>
<event>
 7    1  0.5541017E-010  0.4778727E+02  0.7816164E-02  0.1312668E+00
        -11   -1    0    0    0    0  0.00000000000E+00  0.00000000000E+00  0.45593999997E+02  0.45594000000E+02  0.51100000000E-03 0. -1.
         11   -1    0    0    0    0 -0.00000000000E+00 -0.00000000000E+00 -0.45593999997E+02  0.45594000000E+02  0.51100000000E-03 0.  1.
    9900012    2    1    2    0    0  0.36187505702E+01  0.16158824660E+02  0.40117582388E+02  0.47787269744E+02  0.19999994070E+02 0.  0.
        -12    1    1    2    0    0 -0.36187505702E+01 -0.16158824660E+02 -0.40117582388E+02  0.43400730256E+02  0.00000000000E+00 0.  1.
         11    1    3    3    0    0  0.11440054803E+01  0.24736273168E+01  0.18600999680E+02  0.18799594943E+02  0.51100000000E-03 0. -1.
        -11    1    3    3    0    0  0.39203336520E+01  0.14982240131E+02  0.22076133034E+02  0.26966501169E+02  0.51100000000E-03 0.  1.
        -12    1    3    3    0    0 -0.14455885620E+01 -0.12970427883E+01 -0.55955032585E+00  0.20211736325E+01  0.00000000000E+00 0.  1.
</event>
<event>
 7    1  0.5541017E-010  0.4778727E+02  0.7816164E-02  0.1312668E+00
        -11   -1    0    0    0    0  0.00000000000E+00  0.00000000000E+00  0.45593999997E+02  0.45594000000E+02  0.51100000000E-03 0. -1.
         11   -1    0    0    0    0 -0.00000000000E+00 -0.00000000000E+00 -0.45593999997E+02  0.45594000000E+02  0.51100000000E-03 0.  1.
    9900012    2    1    2    0    0 -0.20259429913E+02  0.22806174931E+01  0.38314196585E+02  0.47787269862E+02  0.19999994611E+02 0.  0.
        -12    1    1    2    0    0  0.20259429913E+02 -0.22806174931E+01 -0.38314196585E+02  0.43400730138E+02  0.00000000000E+00 0.  1.
         11    1    3    3    0    0 -0.26691476257E+01 -0.48902809126E+01  0.15220966263E+02  0.16208547458E+02  0.51100000000E-03 0. -1.
        -11    1    3    3    0    0 -0.49459943605E+01 -0.21353899753E+01  0.33102898843E+01  0.63230348678E+01  0.51100000000E-03 0.  1.
        -12    1    3    3    0    0 -0.12644287927E+02  0.93062883810E+01  0.19782940437E+02  0.25255687537E+02  0.00000000000E+00 0.  1.
</event>
<event>
 7    1  0.5541017E-010  0.4778722E+02  0.7816164E-02  0.1312668E+00
        -11   -1    0    0    0    0  0.00000000000E+00  0.00000000000E+00  0.45593999997E+02  0.45594000000E+02  0.51100000000E-03 0.  1.
         11   -1    0    0    0    0 -0.00000000000E+00 -0.00000000000E+00 -0.45593999997E+02  0.45594000000E+02  0.51100000000E-03 0. -1.
    9900012    2    1    2    0    0 -0.32804452117E+02 -0.21647621389E+02 -0.18408578802E+02  0.47787223924E+02  0.19999785158E+02 0.  0.
        -12    1    1    2    0    0  0.32804452117E+02  0.21647621389E+02  0.18408578802E+02  0.43400776076E+02  0.00000000000E+00 0.  1.
         11    1    3    3    0    0 -0.90510870713E+01 -0.34916231784E+01 -0.94077982978E+01  0.13513707066E+02  0.51100000000E-03 0. -1.
        -11    1    3    3    0    0 -0.14734654616E+02 -0.17404754272E+02 -0.10490953604E+02  0.25101705633E+02  0.51100000000E-03 0.  1.
        -12    1    3    3    0    0 -0.90187104299E+01 -0.75124393877E+00  0.14901731001E+01  0.91718112248E+01  0.00000000000E+00 0.  1.
</event>
<event>
 7    1  0.5541017E-010  0.4778727E+02  0.7816164E-02  0.1312668E+00
        -11   -1    0    0    0    0  0.00000000000E+00  0.00000000000E+00  0.45593999997E+02  0.45594000000E+02  0.51100000000E-03 0.  1.
         11   -1    0    0    0    0 -0.00000000000E+00 -0.00000000000E+00 -0.45593999997E+02  0.45594000000E+02  0.51100000000E-03 0. -1.
    9900012    2    1    2    0    0 -0.87807144599E+01 -0.28383341872E+02 -0.31637132504E+02  0.47787271950E+02  0.20000004127E+02 0.  0.
        -12    1    1    2    0    0  0.87807144599E+01  0.28383341872E+02  0.31637132504E+02  0.43400728050E+02  0.00000000000E+00 0.  1.
         11    1    3    3    0    0 -0.13284627495E+01 -0.78001850409E+01 -0.11293411789E+02  0.13789447054E+02  0.51100000000E-03 0. -1.
        -11    1    3    3    0    0 -0.12566605419E+01 -0.11778478343E+02 -0.19977866926E+02  0.23225565978E+02  0.51100000000E-03 0.  1.
        -12    1    3    3    0    0 -0.61955911685E+01 -0.88046784880E+01 -0.36585378821E+00  0.10772258918E+02  0.00000000000E+00 0.  1.
</event>
<event>
 7    1  0.5541017E-010  0.4778728E+02  0.7816164E-02  0.1312668E+00
        -11   -1    0    0    0    0  0.00000000000E+00  0.00000000000E+00  0.45593999997E+02  0.45594000000E+02  0.51100000000E-03 0. -1.
         11   -1    0    0    0    0 -0.00000000000E+00 -0.00000000000E+00 -0.45593999997E+02  0.45594000000E+02  0.51100000000E-03 0.  1.
    9900012    2    1    2    0    0  0.25804093883E+02  0.34779584340E+02  0.28551669210E+01  0.47787277355E+02  0.20000028772E+02 0.  0.
        -12    1    1    2    0    0 -0.25804093883E+02 -0.34779584340E+02 -0.28551669210E+01  0.43400722645E+02  0.00000000000E+00 0.  1.
         11    1    3    3    0    0  0.33483608294E+01  0.60123720955E+01  0.20388744591E+01  0.71775446902E+01  0.51100000000E-03 0. -1.
        -11    1    3    3    0    0  0.17564852133E+01  0.52398063391E+01 -0.63968595522E+01  0.84534385411E+01  0.51100000000E-03 0.  1.
        -12    1    3    3    0    0  0.20699247840E+02  0.23527405905E+02  0.72131520141E+01  0.32156294124E+02  0.00000000000E+00 0.  1.
</event>
<event>
 7    1  0.5541017E-010  0.4778727E+02  0.7816164E-02  0.1312668E+00
        -11   -1    0    0    0    0  0.00000000000E+00  0.00000000000E+00  0.45593999997E+02  0.45594000000E+02  0.51100000000E-03 0. -1.
         11   -1    0    0    0    0 -0.00000000000E+00 -0.00000000000E+00 -0.45593999997E+02  0.45594000000E+02  0.51100000000E-03 0.  1.
    9900012    2    1    2    0    0 -0.39210166315E+02  0.21589206019E+01  0.18480400201E+02  0.47787271064E+02  0.20000000088E+02 0.  0.
        -12    1    1    2    0    0  0.39210166315E+02 -0.21589206019E+01 -0.18480400201E+02  0.43400728936E+02  0.00000000000E+00 0.  1.
         11    1    3    3    0    0 -0.13664376685E+02 -0.13301410830E+01  0.73387085214E+01  0.15567308968E+02  0.51100000000E-03 0. -1.
        -11    1    3    3    0    0 -0.22882852575E+01 -0.90345306843E+00  0.79683804521E+01  0.83395182209E+01  0.51100000000E-03 0.  1.
         12    1    3    3    0    0 -0.23257504372E+02  0.43925147534E+01  0.31733112275E+01  0.23880443874E+02  0.00000000000E+00 0. -1.
</event>
<event>
 7    1  0.5541017E-010  0.4778727E+02  0.7816164E-02  0.1312668E+00
        -11   -1    0    0    0    0  0.00000000000E+00  0.00000000000E+00  0.45593999997E+02  0.45594000000E+02  0.51100000000E-03 0.  1.
         11   -1    0    0    0    0 -0.00000000000E+00 -0.00000000000E+00 -0.45593999997E+02  0.45594000000E+02  0.51100000000E-03 0. -1.
    9900012    2    1    2    0    0  0.37107788858E+01  0.39734977434E+02 -0.17058279813E+02  0.47787271644E+02  0.20000002733E+02 0.  0.
        -12    1    1    2    0    0 -0.37107788858E+01 -0.39734977434E+02  0.17058279813E+02  0.43400728356E+02  0.00000000000E+00 0.  1.
         11    1    3    3    0    0 -0.30133999639E+01  0.45212672089E+01 -0.62888372056E+01  0.83109512197E+01  0.51100000000E-03 0. -1.
        -11    1    3    3    0    0  0.17283684647E+01  0.26667852788E+01  0.24307047384E+01  0.40009157776E+01  0.51100000000E-03 0.  1.
         12    1    3    3    0    0  0.49958103849E+01  0.32546924947E+02 -0.13200147346E+02  0.35475404647E+02  0.00000000000E+00 0. -1.
</event>
<event>
 7    1  0.5541017E-010  0.4778727E+02  0.7816164E-02  0.1312668E+00
        -11   -1    0    0    0    0  0.00000000000E+00  0.00000000000E+00  0.45593999997E+02  0.45594000000E+02  0.51100000000E-03 0.  1.
         11   -1    0    0    0    0 -0.00000000000E+00 -0.00000000000E+00 -0.45593999997E+02  0.45594000000E+02  0.51100000000E-03 0. -1.
    9900012    2    1    2    0    0 -0.64154795494E+00  0.36835978631E+02 -0.22941711076E+02  0.47787274055E+02  0.20000013724E+02 0.  0.
        -12    1    1    2    0    0  0.64154795494E+00 -0.36835978631E+02  0.22941711076E+02  0.43400725945E+02  0.00000000000E+00 0.  1.
         11    1    3    3    0    0 -0.47667808305E+01  0.89862927924E+01 -0.11779208953E+02  0.15563592820E+02  0.51100000000E-03 0. -1.
        -11    1    3    3    0    0  0.17060428996E+01 -0.52031587175E-01  0.65221443238E+00  0.18272037621E+01  0.51100000000E-03 0.  1.
        -12    1    3    3    0    0  0.24191899760E+01  0.27901717426E+02 -0.11814716554E+02  0.30396477472E+02  0.00000000000E+00 0.  1.
</event>
<event>
 7    1  0.5541017E-010  0.4778727E+02  0.7816164E-02  0.1312668E+00
        -11   -1    0    0    0    0  0.00000000000E+00  0.00000000000E+00  0.45593999997E+02  0.45594000000E+02  0.51100000000E-03 0.  1.
         11   -1    0    0    0    0 -0.00000000000E+00 -0.00000000000E+00 -0.45593999997E+02  0.45594000000E+02  0.51100000000E-03 0. -1.
    9900012    2    1    2    0    0 -0.70725842561E+00  0.43195049054E+02 -0.41606578876E+01  0.47787267848E+02  0.19999985428E+02 0.  0.
        -12    1    1    2    0    0  0.70725842561E+00 -0.43195049054E+02  0.41606578876E+01  0.43400732152E+02  0.00000000000E+00 0.  1.
         11    1    3    3    0    0 -0.26916137566E+01  0.32263011504E+01 -0.61136747921E+01  0.74182763128E+01  0.51100000000E-03 0. -1.
        -11    1    3    3    0    0 -0.15723272814E+01  0.92567323515E+01 -0.12116461427E-01  0.93893265987E+01  0.51100000000E-03 0.  1.
         12    1    3    3    0    0  0.35566826123E+01  0.30712015552E+02  0.19651333659E+01  0.30979664937E+02  0.00000000000E+00 0. -1.
</event>
<event>
 7    1  0.5541017E-010  0.4778728E+02  0.7816164E-02  0.1312668E+00
        -11   -1    0    0    0    0  0.00000000000E+00  0.00000000000E+00  0.45593999997E+02  0.45594000000E+02  0.51100000000E-03 0. -1.
         11   -1    0    0    0    0 -0.00000000000E+00 -0.00000000000E+00 -0.45593999997E+02  0.45594000000E+02  0.51100000000E-03 0.  1.
    9900012    2    1    2    0    0 -0.30360331043E+02  0.13293249620E+02  0.28020747172E+02  0.47787280437E+02  0.20000042826E+02 0.  0.
        -12    1    1    2    0    0  0.30360331043E+02 -0.13293249620E+02 -0.28020747172E+02  0.43400719563E+02  0.00000000000E+00 0.  1.
         11    1    3    3    0    0 -0.46537109023E+01  0.81321752540E+01  0.82107825809E+01  0.12458180059E+02  0.51100000000E-03 0. -1.
        -11    1    3    3    0    0 -0.13696094083E+02  0.92220497054E+01  0.12344671198E+02  0.20616015647E+02  0.51100000000E-03 0.  1.
        -12    1    3    3    0    0 -0.12010526057E+02 -0.40609753395E+01  0.74652933934E+01  0.14713084732E+02  0.00000000000E+00 0.  1.
</event>
<event>
 7    1  0.5541017E-010  0.4778727E+02  0.7816164E-02  0.1312668E+00
        -11   -1    0    0    0    0  0.00000000000E+00  0.00000000000E+00  0.45593999997E+02  0.45594000000E+02  0.51100000000E-03 0.  1.
         11   -1    0    0    0    0 -0.00000000000E+00 -0.00000000000E+00 -0.45593999997E+02  0.45594000000E+02  0.51100000000E-03 0. -1.
    9900012    2    1    2    0    0 -0.20282909023E+02 -0.10726715699E+02 -0.36839708578E+02  0.47787274704E+02  0.20000016684E+02 0.  0.
        -12    1    1    2    0    0  0.20282909023E+02  0.10726715699E+02  0.36839708578E+02  0.43400725296E+02  0.00000000000E+00 0.  1.
         11    1    3    3    0    0 -0.11944820897E+02  0.32427578696E+01 -0.24105125448E+02  0.27097071760E+02  0.51100000000E-03 0. -1.
        -11    1    3    3    0    0 -0.15268458869E+01 -0.33140493072E+01 -0.31826518516E+01  0.48418440952E+01  0.51100000000E-03 0.  1.
         12    1    3    3    0    0 -0.68112422394E+01 -0.10655424262E+02 -0.95519312787E+01  0.15848358849E+02  0.00000000000E+00 0. -1.
</event>
<event>
 7    1  0.5541017E-010  0.4778728E+02  0.7816164E-02  0.1312668E+00
        -11   -1    0    0    0    0  0.00000000000E+00  0.00000000000E+00  0.45593999997E+02  0.45594000000E+02  0.51100000000E-03 0. -1.
         11   -1    0    0    0    0 -0.00000000000E+00 -0.00000000000E+00 -0.45593999997E+02  0.45594000000E+02  0.51100000000E-03 0.  1.
    9900012    2    1    2    0    0  0.29460327839E+02  0.23872768801E+02  0.21114032981E+02  0.47787281165E+02  0.20000046145E+02 0.  0.
        -12    1    1    2    0    0 -0.29460327839E+02 -0.23872768801E+02 -0.21114032981E+02  0.43400718835E+02  0.00000000000E+00 0.  1.
         11    1    3    3    0    0  0.11440926734E+02  0.13624270037E+02  0.28179319198E+01  0.18012669961E+02  0.51100000000E-03 0. -1.
        -11    1    3    3    0    0  0.68861069249E+00  0.46828278578E+01  0.13923728809E+01  0.49337373190E+01  0.51100000000E-03 0.  1.
        -12    1    3    3    0    0  0.17330790413E+02  0.55656709068E+01  0.16903728181E+02  0.24840873885E+02  0.00000000000E+00 0.  1.
</event>
<event>
 7    1  0.5541017E-010  0.4778726E+02  0.7816164E-02  0.1312668E+00
        -11   -1    0    0    0    0  0.00000000000E+00  0.00000000000E+00  0.45593999997E+02  0.45594000000E+02  0.51100000000E-03 0.  1.
         11   -1    0    0    0    0 -0.00000000000E+00 -0.00000000000E+00 -0.45593999997E+02  0.45594000000E+02  0.51100000000E-03 0. -1.
    9900012    2    1    2    0    0 -0.28815000221E+01  0.12839767483E+02 -0.41357724627E+02  0.47787262014E+02  0.19999958828E+02 0.  0.
        -12    1    1    2    0    0  0.28815000221E+01 -0.12839767483E+02  0.41357724627E+02  0.43400737986E+02  0.00000000000E+00 0.  1.
         11    1    3    3    0    0 -0.60501865941E+01  0.47192048966E+01 -0.20272699701E+02  0.21676208296E+02  0.51100000000E-03 0. -1.
        -11    1    3    3    0    0 -0.25280961097E+01 -0.15011291532E+01 -0.97715044306E+01  0.10204261746E+02  0.51100000000E-03 0.  1.
        -12    1    3    3    0    0  0.56967826817E+01  0.96216917399E+01 -0.11313520495E+02  0.15906791973E+02  0.00000000000E+00 0.  1.
</event>
<event>
 7    1  0.5541017E-010  0.4778727E+02  0.7816164E-02  0.1312668E+00
        -11   -1    0    0    0    0  0.00000000000E+00  0.00000000000E+00  0.45593999997E+02  0.45594000000E+02  0.51100000000E-03 0.  1.
         11   -1    0    0    0    0 -0.00000000000E+00 -0.00000000000E+00 -0.45593999997E+02  0.45594000000E+02  0.51100000000E-03 0. -1.
    9900012    2    1    2    0    0  0.10147932987E+02  0.21212236117E+02 -0.36478538444E+02  0.47787271066E+02  0.20000000097E+02 0.  0.
        -12    1    1    2    0    0 -0.10147932987E+02 -0.21212236117E+02  0.36478538444E+02  0.43400728934E+02  0.00000000000E+00 0.  1.
         11    1    3    3    0    0  0.78543741194E+01  0.82707215164E+01 -0.16658688613E+02  0.20189302459E+02  0.51100000000E-03 0. -1.
        -11    1    3    3    0    0  0.10605672554E+00  0.13015504383E+00 -0.12848413177E+02  0.12849510100E+02  0.51100000000E-03 0.  1.
        -12    1    3    3    0    0  0.21875021418E+01  0.12811359557E+02 -0.69714366536E+01  0.14748458507E+02  0.00000000000E+00 0.  1.
</event>
<event>
 7    1  0.5541017E-010  0.4778727E+02  0.7816164E-02  0.1312668E+00
        -11   -1    0    0    0    0  0.00000000000E+00  0.00000000000E+00  0.45593999997E+02  0.45594000000E+02  0.51100000000E-03 0. -1.
         11   -1    0    0    0    0 -0.00000000000E+00 -0.00000000000E+00 -0.45593999997E+02  0.45594000000E+02  0.51100000000E-03 0.  1.
    9900012    2    1    2    0    0 -0.41930387392E+02 -0.18297485740E+01 -0.11050692419E+02  0.47787272245E+02  0.20000005475E+02 0.  0.
        -12    1    1    2    0    0  0.41930387392E+02  0.18297485740E+01  0.11050692419E+02  0.43400727755E+02  0.00000000000E+00 0.  1.
         11    1    3    3    0    0 -0.28019859762E+02 -0.22977229938E+01 -0.38710677017E+01  0.28379169076E+02  0.51100000000E-03 0. -1.
        -11    1    3    3    0    0 -0.12090993200E+02  0.40052154435E+01 -0.20249300674E+01  0.12897062044E+02  0.51100000000E-03 0.  1.
        -12    1    3    3    0    0 -0.18195344296E+01 -0.35372410237E+01 -0.51546946497E+01  0.65110411250E+01  0.00000000000E+00 0.  1.
</event>
<event>
 7    1  0.5541017E-010  0.4778727E+02  0.7816164E-02  0.1312668E+00
        -11   -1    0    0    0    0  0.00000000000E+00  0.00000000000E+00  0.45593999997E+02  0.45594000000E+02  0.51100000000E-03 0. -1.
         11   -1    0    0    0    0 -0.00000000000E+00 -0.00000000000E+00 -0.45593999997E+02  0.45594000000E+02  0.51100000000E-03 0.  1.
    9900012    2    1    2    0    0 -0.11371083588E+02 -0.29029431279E+02  0.30192941690E+02  0.47787272468E+02  0.20000006492E+02 0.  0.
        -12    1    1    2    0    0  0.11371083588E+02  0.29029431279E+02 -0.30192941690E+02  0.43400727532E+02  0.00000000000E+00 0.  1.
         11    1    3    3    0    0 -0.13137353393E+01 -0.10329141161E+02  0.10932170589E+02  0.15097331278E+02  0.51100000000E-03 0. -1.
        -11    1    3    3    0    0  0.40780241635E+01 -0.46666294908E+01  0.67727819949E+01  0.91803206967E+01  0.51100000000E-03 0.  1.
        -12    1    3    3    0    0 -0.14135372412E+02 -0.14033660628E+02  0.12487989106E+02  0.23509620494E+02  0.00000000000E+00 0.  1.
</event>
<event>
 7    1  0.5541017E-010  0.4778729E+02  0.7816164E-02  0.1312668E+00
        -11   -1    0    0    0    0  0.00000000000E+00  0.00000000000E+00  0.45593999997E+02  0.45594000000E+02  0.51100000000E-03 0.  1.
         11   -1    0    0    0    0 -0.00000000000E+00 -0.00000000000E+00 -0.45593999997E+02  0.45594000000E+02  0.51100000000E-03 0. -1.
    9900012    2    1    2    0    0 -0.26520354113E+02  0.65162280073E+01 -0.33731757900E+02  0.47787286864E+02  0.20000072127E+02 0.  0.
        -12    1    1    2    0    0  0.26520354113E+02 -0.65162280073E+01  0.33731757900E+02  0.43400713136E+02  0.00000000000E+00 0.  1.
         11    1    3    3    0    0 -0.25289557729E+01  0.66534461717E+01 -0.14737656017E+02  0.16366504465E+02  0.51100000000E-03 0.  1.
        -11    1    3    3    0    0 -0.74103254976E+01  0.10436456220E+01 -0.10092774921E+02  0.12564482721E+02  0.51100000000E-03 0. -1.
        -12    1    3    3    0    0 -0.16581072842E+02 -0.11808637864E+01 -0.89013269612E+01  0.18856299678E+02  0.00000000000E+00 0.  1.
</event>
<event>
 7    1  0.5541017E-010  0.4778727E+02  0.7816164E-02  0.1312668E+00
        -11   -1    0    0    0    0  0.00000000000E+00  0.00000000000E+00  0.45593999997E+02  0.45594000000E+02  0.51100000000E-03 0. -1.
         11   -1    0    0    0    0 -0.00000000000E+00 -0.00000000000E+00 -0.45593999997E+02  0.45594000000E+02  0.51100000000E-03 0.  1.
    9900012    2    1    2    0    0  0.26762334829E+02 -0.29468861457E+02 -0.17291236157E+02  0.47787271793E+02  0.20000003413E+02 0.  0.
        -12    1    1    2    0    0 -0.26762334829E+02  0.29468861457E+02  0.17291236157E+02  0.43400728207E+02  0.00000000000E+00 0.  1.
         11    1    3    3    0    0  0.10535104838E+02 -0.16420353462E+02 -0.13895196146E+01  0.19558814043E+02  0.51100000000E-03 0. -1.
        -11    1    3    3    0    0  0.49288791352E+01 -0.10574631552E+02 -0.92271375922E+01  0.14874701691E+02  0.51100000000E-03 0.  1.
        -12    1    3    3    0    0  0.11298350856E+02 -0.24738764430E+01 -0.66745789499E+01  0.13353756059E+02  0.00000000000E+00 0.  1.
</event>
<event>
 7    1  0.5541017E-010  0.4778729E+02  0.7816164E-02  0.1312668E+00
        -11   -1    0    0    0    0  0.00000000000E+00  0.00000000000E+00  0.45593999997E+02  0.45594000000E+02  0.51100000000E-03 0.  1.
         11   -1    0    0    0    0 -0.00000000000E+00 -0.00000000000E+00 -0.45593999997E+02  0.45594000000E+02  0.51100000000E-03 0. -1.
    9900012    2    1    2    0    0 -0.25995201339E+02 -0.27294251930E+02 -0.21514997068E+02  0.47787288256E+02  0.20000078473E+02 0.  0.
        -12    1    1    2    0    0  0.25995201339E+02  0.27294251930E+02  0.21514997068E+02  0.43400711744E+02  0.00000000000E+00 0.  1.
         11    1    3    3    0    0 -0.13193126186E+02 -0.12774790735E+02 -0.18842277347E+02  0.26311314539E+02  0.51100000000E-03 0. -1.
        -11    1    3    3    0    0 -0.86743504456E+01 -0.33701076876E+01 -0.22767118560E+01  0.95804696449E+01  0.51100000000E-03 0.  1.
        -12    1    3    3    0    0 -0.41277247081E+01 -0.11149353508E+02 -0.39600786427E+00  0.11895504072E+02  0.00000000000E+00 0.  1.
</event>
<event>
 7    1  0.5541017E-010  0.4778730E+02  0.7816164E-02  0.1312668E+00
        -11   -1    0    0    0    0  0.00000000000E+00  0.00000000000E+00  0.45593999997E+02  0.45594000000E+02  0.51100000000E-03 0.  1.
         11   -1    0    0    0    0 -0.00000000000E+00 -0.00000000000E+00 -0.45593999997E+02  0.45594000000E+02  0.51100000000E-03 0. -1.
    9900012    2    1    2    0    0  0.25691966457E+02 -0.22661738990E+02 -0.26645622928E+02  0.47787299825E+02  0.20000131222E+02 0.  0.
        -12    1    1    2    0    0 -0.25691966457E+02  0.22661738990E+02  0.26645622928E+02  0.43400700175E+02  0.00000000000E+00 0.  1.
         11    1    3    3    0    0  0.81170513475E+01 -0.10408048134E+02 -0.17156606895E+02  0.21646319525E+02  0.51100000000E-03 0. -1.
        -11    1    3    3    0    0  0.12178990249E+02 -0.34522977941E+01 -0.94835370745E+01  0.15817194418E+02  0.51100000000E-03 0.  1.
         12    1    3    3    0    0  0.53959248602E+01 -0.88013930620E+01 -0.54789577602E-02  0.10323785883E+02  0.00000000000E+00 0. -1.
</event>
<event>
 7    1  0.5541017E-010  0.4778728E+02  0.7816164E-02  0.1312668E+00
        -11   -1    0    0    0    0  0.00000000000E+00  0.00000000000E+00  0.45593999997E+02  0.45594000000E+02  0.51100000000E-03 0.  1.
         11   -1    0    0    0    0 -0.00000000000E+00 -0.00000000000E+00 -0.45593999997E+02  0.45594000000E+02  0.51100000000E-03 0. -1.
    9900012    2    1    2    0    0  0.11679219952E+02  0.54857603610E+01 -0.41438209238E+02  0.47787275003E+02  0.20000018049E+02 0.  0.
        -12    1    1    2    0    0 -0.11679219952E+02 -0.54857603610E+01  0.41438209238E+02  0.43400724997E+02  0.00000000000E+00 0.  1.
         11    1    3    3    0    0  0.43641095751E+01  0.90975729505E+01 -0.20232825217E+02  0.22609257009E+02  0.51100000000E-03 0. -1.
        -11    1    3    3    0    0 -0.26444887107E+01 -0.66419168849E+00 -0.75088275653E+01  0.79885519843E+01  0.51100000000E-03 0.  1.
        -12    1    3    3    0    0  0.99595990878E+01 -0.29476209010E+01 -0.13696556456E+02  0.17189466010E+02  0.00000000000E+00 0.  1.
</event>
<event>
 7    1  0.5541017E-010  0.4778727E+02  0.7816164E-02  0.1312668E+00
        -11   -1    0    0    0    0  0.00000000000E+00  0.00000000000E+00  0.45593999997E+02  0.45594000000E+02  0.51100000000E-03 0.  1.
         11   -1    0    0    0    0 -0.00000000000E+00 -0.00000000000E+00 -0.45593999997E+02  0.45594000000E+02  0.51100000000E-03 0. -1.
    9900012    2    1    2    0    0 -0.20987596487E+02  0.17599534086E+02 -0.33666018251E+02  0.47787267388E+02  0.19999983330E+02 0.  0.
        -12    1    1    2    0    0  0.20987596487E+02 -0.17599534086E+02  0.33666018251E+02  0.43400732612E+02  0.00000000000E+00 0.  1.
         11    1    3    3    0    0 -0.17225799451E+02  0.43365438361E+01 -0.24758304289E+02  0.30471419571E+02  0.51100000000E-03 0. -1.
        -11    1    3    3    0    0 -0.39065655850E+01  0.44215484687E+01 -0.25644198882E+01  0.64333191398E+01  0.51100000000E-03 0.  1.
         12    1    3    3    0    0  0.14476854844E+00  0.88414417811E+01 -0.63432940736E+01  0.10882528677E+02  0.00000000000E+00 0. -1.
</event>
<event>
 7    1  0.5541017E-010  0.4778728E+02  0.7816164E-02  0.1312668E+00
        -11   -1    0    0    0    0  0.00000000000E+00  0.00000000000E+00  0.45593999997E+02  0.45594000000E+02  0.51100000000E-03 0. -1.
         11   -1    0    0    0    0 -0.00000000000E+00 -0.00000000000E+00 -0.45593999997E+02  0.45594000000E+02  0.51100000000E-03 0.  1.
    9900012    2    1    2    0    0 -0.34131906811E+02 -0.25782385783E+02  0.73419429594E+01  0.47787278743E+02  0.20000035100E+02 0.  0.
        -12    1    1    2    0    0  0.34131906811E+02  0.25782385783E+02 -0.73419429594E+01  0.43400721257E+02  0.00000000000E+00 0.  1.
         11    1    3    3    0    0 -0.20509483901E+01 -0.28950374377E+01  0.58452923090E+01  0.68377681668E+01  0.51100000000E-03 0. -1.
        -11    1    3    3    0    0 -0.87456478841E+01 -0.82871202868E+00 -0.28062516265E+00  0.87893043685E+01  0.51100000000E-03 0.  1.
         12    1    3    3    0    0 -0.23335310537E+02 -0.22058636316E+02  0.17772758130E+01  0.32160206208E+02  0.00000000000E+00 0. -1.
</event>
<event>
 7    1  0.5541017E-010  0.4778727E+02  0.7816164E-02  0.1312668E+00
        -11   -1    0    0    0    0  0.00000000000E+00  0.00000000000E+00  0.45593999997E+02  0.45594000000E+02  0.51100000000E-03 0.  1.
         11   -1    0    0    0    0 -0.00000000000E+00 -0.00000000000E+00 -0.45593999997E+02  0.45594000000E+02  0.51100000000E-03 0. -1.
    9900012    2    1    2    0    0  0.54167755589E+01 -0.17686680109E+02 -0.39261471678E+02  0.47787271100E+02  0.20000000252E+02 0.  0.
        -12    1    1    2    0    0 -0.54167755589E+01  0.17686680109E+02  0.39261471678E+02  0.43400728900E+02  0.00000000000E+00 0.  1.
         11    1    3    3    0    0 -0.21366548183E+01 -0.62568342717E+01 -0.73298497188E+01  0.98711684252E+01  0.51100000000E-03 0. -1.
        -11    1    3    3    0    0  0.36566105603E+01 -0.13354073402E+02 -0.14905004045E+02  0.20343579406E+02  0.51100000000E-03 0.  1.
        -12    1    3    3    0    0  0.38968198170E+01  0.19242275644E+01 -0.17026617915E+02  0.17572523269E+02  0.00000000000E+00 0.  1.
</event>
<event>
 7    1  0.5541017E-010  0.4778727E+02  0.7816164E-02  0.1312668E+00
        -11   -1    0    0    0    0  0.00000000000E+00  0.00000000000E+00  0.45593999997E+02  0.45594000000E+02  0.51100000000E-03 0. -1.
         11   -1    0    0    0    0 -0.00000000000E+00 -0.00000000000E+00 -0.45593999997E+02  0.45594000000E+02  0.51100000000E-03 0.  1.
    9900012    2    1    2    0    0 -0.98215970610E+01  0.24060984389E+02  0.34759582713E+02  0.47787270409E+02  0.19999997104E+02 0.  0.
        -12    1    1    2    0    0  0.98215970610E+01 -0.24060984389E+02 -0.34759582713E+02  0.43400729591E+02  0.00000000000E+00 0.  1.
         11    1    3    3    0    0 -0.61529139819E+01  0.57148718371E+01  0.22416561899E+02  0.23937843642E+02  0.51100000000E-03 0. -1.
        -11    1    3    3    0    0  0.24060398996E+01  0.47515537404E+01  0.47437078398E+01  0.71322545718E+01  0.51100000000E-03 0.  1.
        -12    1    3    3    0    0 -0.60747229786E+01  0.13594558811E+02  0.75993129748E+01  0.16717172196E+02  0.00000000000E+00 0.  1.
</event>
<event>
 7    1  0.5541017E-010  0.4778726E+02  0.7816164E-02  0.1312668E+00
        -11   -1    0    0    0    0  0.00000000000E+00  0.00000000000E+00  0.45593999997E+02  0.45594000000E+02  0.51100000000E-03 0.  1.
         11   -1    0    0    0    0 -0.00000000000E+00 -0.00000000000E+00 -0.45593999997E+02  0.45594000000E+02  0.51100000000E-03 0. -1.
    9900012    2    1    2    0    0 -0.25066557473E+02 -0.22786190470E+02 -0.27130813212E+02  0.47787264923E+02  0.19999972091E+02 0.  0.
        -12    1    1    2    0    0  0.25066557473E+02  0.22786190470E+02  0.27130813212E+02  0.43400735077E+02  0.00000000000E+00 0.  1.
         11    1    3    3    0    0 -0.36727363376E-04 -0.42446443258E+01 -0.23589560907E+01  0.48560971523E+01  0.51100000000E-03 0. -1.
        -11    1    3    3    0    0 -0.10295895005E+02  0.38210652948E+00 -0.35724631895E+01  0.10904767437E+02  0.51100000000E-03 0.  1.
         12    1    3    3    0    0 -0.14770625741E+02 -0.18923652674E+02 -0.21199393932E+02  0.32026400334E+02  0.00000000000E+00 0. -1.
</event>
<event>
 7    1  0.5541017E-010  0.4778727E+02  0.7816164E-02  0.1312668E+00
        -11   -1    0    0    0    0  0.00000000000E+00  0.00000000000E+00  0.45593999997E+02  0.45594000000E+02  0.51100000000E-03 0.  1.
         11   -1    0    0    0    0 -0.00000000000E+00 -0.00000000000E+00 -0.45593999997E+02  0.45594000000E+02  0.51100000000E-03 0. -1.
    9900012    2    1    2    0    0  0.96855765249E+00  0.36437322816E+02 -0.23558579874E+02  0.47787270932E+02  0.19999999489E+02 0.  0.
        -12    1    1    2    0    0 -0.96855765249E+00 -0.36437322816E+02  0.23558579874E+02  0.43400729068E+02  0.00000000000E+00 0.  1.
         11    1    3    3    0    0 -0.14440798561E+01  0.72077357768E+01 -0.11224086171E+02  0.13417038880E+02  0.51100000000E-03 0. -1.
        -11    1    3    3    0    0  0.10548884875E+01  0.26308461872E+01 -0.65201146110E+01  0.71095735585E+01  0.51100000000E-03 0.  1.
         12    1    3    3    0    0  0.13577490211E+01  0.26598740852E+02 -0.58143790915E+01  0.27260658494E+02  0.00000000000E+00 0. -1.
</event>
<event>
 7    1  0.5541017E-010  0.4778727E+02  0.7816164E-02  0.1312668E+00
        -11   -1    0    0    0    0  0.00000000000E+00  0.00000000000E+00  0.45593999997E+02  0.45594000000E+02  0.51100000000E-03 0.  1.
         11   -1    0    0    0    0 -0.00000000000E+00 -0.00000000000E+00 -0.45593999997E+02  0.45594000000E+02  0.51100000000E-03 0. -1.
    9900012    2    1    2    0    0  0.22080678328E+01  0.14338597480E+02 -0.40904184344E+02  0.47787271456E+02  0.20000001878E+02 0.  0.
        -12    1    1    2    0    0 -0.22080678328E+01 -0.14338597480E+02  0.40904184344E+02  0.43400728544E+02  0.00000000000E+00 0.  1.
         11    1    3    3    0    0  0.42353923659E+01  0.91654414883E+01 -0.20003335877E+02  0.22407081752E+02  0.51100000000E-03 0. -1.
        -11    1    3    3    0    0  0.55162187143E+01  0.83582121302E+00 -0.97817183144E+01  0.11260962634E+02  0.51100000000E-03 0.  1.
        -12    1    3    3    0    0 -0.75435432474E+01  0.43373347788E+01 -0.11119130153E+02  0.14119227071E+02  0.00000000000E+00 0.  1.
</event>
<event>
 7    1  0.5541017E-010  0.4778728E+02  0.7816164E-02  0.1312668E+00
        -11   -1    0    0    0    0  0.00000000000E+00  0.00000000000E+00  0.45593999997E+02  0.45594000000E+02  0.51100000000E-03 0.  1.
         11   -1    0    0    0    0 -0.00000000000E+00 -0.00000000000E+00 -0.45593999997E+02  0.45594000000E+02  0.51100000000E-03 0. -1.
    9900012    2    1    2    0    0  0.21927745198E+02 -0.36619996789E+02 -0.78595333609E+01  0.47787280664E+02  0.20000043857E+02 0.  0.
        -12    1    1    2    0    0 -0.21927745198E+02  0.36619996789E+02  0.78595333609E+01  0.43400719336E+02  0.00000000000E+00 0.  1.
         11    1    3    3    0    0  0.99074622020E+01 -0.27013180398E+02 -0.76067039161E+01  0.29761244383E+02  0.51100000000E-03 0. -1.
        -11    1    3    3    0    0  0.10787801634E+02 -0.11470296357E+02  0.19479668550E+00  0.15747454036E+02  0.51100000000E-03 0.  1.
        -12    1    3    3    0    0  0.12324813618E+01  0.18634799662E+01 -0.44762613033E+00  0.22785822443E+01  0.00000000000E+00 0.  1.
</event>
<event>
 7    1  0.5541017E-010  0.4778727E+02  0.7816164E-02  0.1312668E+00
        -11   -1    0    0    0    0  0.00000000000E+00  0.00000000000E+00  0.45593999997E+02  0.45594000000E+02  0.51100000000E-03 0.  1.
         11   -1    0    0    0    0 -0.00000000000E+00 -0.00000000000E+00 -0.45593999997E+02  0.45594000000E+02  0.51100000000E-03 0. -1.
    9900012    2    1    2    0    0  0.36300761251E+02  0.23781936223E+02  0.54518994684E+00  0.47787274315E+02  0.20000014912E+02 0.  0.
        -12    1    1    2    0    0 -0.36300761251E+02 -0.23781936223E+02 -0.54518994684E+00  0.43400725685E+02  0.00000000000E+00 0.  1.
         11    1    3    3    0    0  0.11341253768E+01 -0.67602893242E+00  0.30034576960E+00  0.13540544045E+01  0.51100000000E-03 0.  1.
        -11    1    3    3    0    0  0.21620212532E+02  0.13075947271E+02  0.88321584444E+01  0.26766042106E+02  0.51100000000E-03 0. -1.
         12    1    3    3    0    0  0.13546423342E+02  0.11382017884E+02 -0.85873142671E+01  0.19667177805E+02  0.00000000000E+00 0. -1.
</event>
<event>
 7    1  0.5541017E-010  0.4778727E+02  0.7816164E-02  0.1312668E+00
        -11   -1    0    0    0    0  0.00000000000E+00  0.00000000000E+00  0.45593999997E+02  0.45594000000E+02  0.51100000000E-03 0.  1.
         11   -1    0    0    0    0 -0.00000000000E+00 -0.00000000000E+00 -0.45593999997E+02  0.45594000000E+02  0.51100000000E-03 0. -1.
    9900012    2    1    2    0    0 -0.32554548657E+02 -0.13681799285E+02 -0.25231586095E+02  0.47787271817E+02  0.20000003524E+02 0.  0.
        -12    1    1    2    0    0  0.32554548657E+02  0.13681799285E+02  0.25231586095E+02  0.43400728183E+02  0.00000000000E+00 0.  1.
         11    1    3    3    0    0 -0.17820537035E+02 -0.66909792439E+01 -0.56992948113E+01  0.19870146076E+02  0.51100000000E-03 0. -1.
        -11    1    3    3    0    0 -0.15551369939E+02 -0.33584326274E+01 -0.13688665307E+02  0.20988180837E+02  0.51100000000E-03 0.  1.
        -12    1    3    3    0    0  0.81735831695E+00 -0.36323874140E+01 -0.58436259763E+01  0.69289449048E+01  0.00000000000E+00 0.  1.
</event>
<event>
 7    1  0.5541017E-010  0.4778727E+02  0.7816164E-02  0.1312668E+00
        -11   -1    0    0    0    0  0.00000000000E+00  0.00000000000E+00  0.45593999997E+02  0.45594000000E+02  0.51100000000E-03 0.  1.
         11   -1    0    0    0    0 -0.00000000000E+00 -0.00000000000E+00 -0.45593999997E+02  0.45594000000E+02  0.51100000000E-03 0. -1.
    9900012    2    1    2    0    0 -0.30530578847E+02  0.30471482366E+02  0.47953956042E+01  0.47787270728E+02  0.19999998558E+02 0.  0.
        -12    1    1    2    0    0  0.30530578847E+02 -0.30471482366E+02 -0.47953956042E+01  0.43400729272E+02  0.00000000000E+00 0.  1.
         11    1    3    3    0    0 -0.30353011271E+02  0.27743854496E+02 -0.96897382574E+00  0.41133510257E+02  0.51100000000E-03 0. -1.
        -11    1    3    3    0    0 -0.21845774959E+00 -0.19634388276E+00  0.11810311712E+01  0.12170084622E+01  0.51100000000E-03 0.  1.
         12    1    3    3    0    0  0.40890173248E-01  0.29239717528E+01  0.45833382588E+01  0.54367520094E+01  0.00000000000E+00 0. -1.
</event>
<event>
 7    1  0.9368514E-010  0.4778727E+02  0.7816164E-02  0.1312668E+00
        -11   -1    0    0    0    0  0.00000000000E+00  0.00000000000E+00  0.45593999997E+02  0.45594000000E+02  0.51100000000E-03 0. -1.
         11   -1    0    0    0    0 -0.00000000000E+00 -0.00000000000E+00 -0.45593999997E+02  0.45594000000E+02  0.51100000000E-03 0.  1.
    9900012    2    1    2    0    0  0.34599167709E+02  0.22687705486E+02  0.13106822916E+02  0.47787271972E+02  0.20000004231E+02 0.  0.
        -12    1    1    2    0    0 -0.34599167709E+02 -0.22687705486E+02 -0.13106822916E+02  0.43400728028E+02  0.00000000000E+00 0.  1.
         11    1    3    3    0    0  0.14651746164E+02  0.99421617567E+01  0.10496712958E+02  0.20584004208E+02  0.51100000000E-03 0. -1.
        -11    1    3    3    0    0  0.20912686638E+02  0.90107589696E+01  0.39665313678E+01  0.23114229621E+02  0.51100000000E-03 0.  1.
        -12    1    3    3    0    0 -0.96526509248E+00  0.37347847594E+01 -0.13564214098E+01  0.40890381435E+01  0.00000000000E+00 0.  1.
</event>
<event>
 7    1  0.5598509E-010  0.4778727E+02  0.7816164E-02  0.1312668E+00
        -11   -1    0    0    0    0  0.00000000000E+00  0.00000000000E+00  0.45593999997E+02  0.45594000000E+02  0.51100000000E-03 0. -1.
         11   -1    0    0    0    0 -0.00000000000E+00 -0.00000000000E+00 -0.45593999997E+02  0.45594000000E+02  0.51100000000E-03 0.  1.
    9900012    2    1    2    0    0 -0.22884237529E+02 -0.11810488530E+02  0.34934900051E+02  0.47787271801E+02  0.20000003450E+02 0.  0.
        -12    1    1    2    0    0  0.22884237529E+02  0.11810488530E+02 -0.34934900051E+02  0.43400728199E+02  0.00000000000E+00 0.  1.
         11    1    3    3    0    0 -0.11236487743E+02 -0.45969033379E+01  0.20215632899E+02  0.23580966707E+02  0.51100000000E-03 0. -1.
        -11    1    3    3    0    0 -0.19896913314E+01  0.38894950865E+01  0.46182346779E+01  0.63572899433E+01  0.51100000000E-03 0.  1.
        -12    1    3    3    0    0 -0.96580584547E+01 -0.11103080279E+02  0.10101032475E+02  0.17849015151E+02  0.00000000000E+00 0.  1.
</event>
<event>
 7    1  0.5541017E-010  0.4778729E+02  0.7816164E-02  0.1312668E+00
        -11   -1    0    0    0    0  0.00000000000E+00  0.00000000000E+00  0.45593999997E+02  0.45594000000E+02  0.51100000000E-03 0. -1.
         11   -1    0    0    0    0 -0.00000000000E+00 -0.00000000000E+00 -0.45593999997E+02  0.45594000000E+02  0.51100000000E-03 0.  1.
    9900012    2    1    2    0    0 -0.19437686066E+00  0.17464256227E+01  0.43365119233E+02  0.47787293198E+02  0.20000101008E+02 0.  0.
        -12    1    1    2    0    0  0.19437686066E+00 -0.17464256227E+01 -0.43365119233E+02  0.43400706802E+02  0.00000000000E+00 0.  1.
         11    1    3    3    0    0 -0.60226967731E+00 -0.58088131270E+01  0.18090148629E+02  0.19009432300E+02  0.51100000000E-03 0. -1.
        -11    1    3    3    0    0 -0.39673867892E+01 -0.10001068003E+01  0.88154267988E+01  0.97186481289E+01  0.51100000000E-03 0.  1.
        -12    1    3    3    0    0  0.43752796058E+01  0.85553455500E+01  0.16459543805E+02  0.19059212769E+02  0.00000000000E+00 0.  1.
</event>
<event>
 7    1  0.5541017E-010  0.4778727E+02  0.7816164E-02  0.1312668E+00
        -11   -1    0    0    0    0  0.00000000000E+00  0.00000000000E+00  0.45593999997E+02  0.45594000000E+02  0.51100000000E-03 0.  1.
         11   -1    0    0    0    0 -0.00000000000E+00 -0.00000000000E+00 -0.45593999997E+02  0.45594000000E+02  0.51100000000E-03 0. -1.
    9900012    2    1    2    0    0 -0.41312830767E+01  0.81012165211E+01 -0.42437319325E+02  0.47787270968E+02  0.19999999652E+02 0.  0.
        -12    1    1    2    0    0  0.41312830767E+01 -0.81012165211E+01  0.42437319325E+02  0.43400729032E+02  0.00000000000E+00 0.  1.
         11    1    3    3    0    0 -0.94472621168E+01  0.44540867707E+01 -0.36010632505E+02  0.37494737019E+02  0.51100000000E-03 0. -1.
        -11    1    3    3    0    0 -0.46078534079E+00  0.20928299039E+00  0.44908395629E+00  0.67660857316E+00  0.51100000000E-03 0.  1.
        -12    1    3    3    0    0  0.57767643810E+01  0.34378467600E+01 -0.68757707769E+01  0.96159253759E+01  0.00000000000E+00 0.  1.
</event>
<event>
 7    1  0.5541017E-010  0.4778727E+02  0.7816164E-02  0.1312668E+00
        -11   -1    0    0    0    0  0.00000000000E+00  0.00000000000E+00  0.45593999997E+02  0.45594000000E+02  0.51100000000E-03 0.  1.
         11   -1    0    0    0    0 -0.00000000000E+00 -0.00000000000E+00 -0.45593999997E+02  0.45594000000E+02  0.51100000000E-03 0. -1.
    9900012    2    1    2    0    0  0.61923468710E+01  0.14513269129E+02 -0.40430721926E+02  0.47787269407E+02  0.19999992534E+02 0.  0.
        -12    1    1    2    0    0 -0.61923468710E+01 -0.14513269129E+02  0.40430721926E+02  0.43400730593E+02  0.00000000000E+00 0.  1.
         11    1    3    3    0    0  0.21692845506E+01  0.10251718145E+02 -0.12052786584E+02  0.15971010772E+02  0.51100000000E-03 0.  1.
        -11    1    3    3    0    0  0.78574069860E+01  0.12945529823E+01 -0.98598946441E+01  0.12674077269E+02  0.51100000000E-03 0. -1.
         12    1    3    3    0    0 -0.38343446657E+01  0.29669980018E+01 -0.18518040697E+02  0.19142181365E+02  0.00000000000E+00 0. -1.
</event>
<event>
 7    1  0.5541017E-010  0.4778728E+02  0.7816164E-02  0.1312668E+00
        -11   -1    0    0    0    0  0.00000000000E+00  0.00000000000E+00  0.45593999997E+02  0.45594000000E+02  0.51100000000E-03 0.  1.
         11   -1    0    0    0    0 -0.00000000000E+00 -0.00000000000E+00 -0.45593999997E+02  0.45594000000E+02  0.51100000000E-03 0. -1.
    9900012    2    1    2    0    0  0.18256307793E+02  0.37557394780E+02 -0.11822503657E+02  0.47787282614E+02  0.20000052749E+02 0.  0.
        -12    1    1    2    0    0 -0.18256307793E+02 -0.37557394780E+02  0.11822503657E+02  0.43400717386E+02  0.00000000000E+00 0.  1.
         11    1    3    3    0    0  0.15902494671E+02  0.17715772260E+02 -0.12055838811E+02  0.26684849132E+02  0.51100000000E-03 0. -1.
        -11    1    3    3    0    0  0.14671600327E+01  0.48617331020E+01 -0.27908311724E+01  0.57946308089E+01  0.51100000000E-03 0.  1.
        -12    1    3    3    0    0  0.88665308935E+00  0.14979889418E+02  0.30241663267E+01  0.15307802673E+02  0.00000000000E+00 0.  1.
</event>
<event>
 7    1  0.5541017E-010  0.4778726E+02  0.7816164E-02  0.1312668E+00
        -11   -1    0    0    0    0  0.00000000000E+00  0.00000000000E+00  0.45593999997E+02  0.45594000000E+02  0.51100000000E-03 0.  1.
         11   -1    0    0    0    0 -0.00000000000E+00 -0.00000000000E+00 -0.45593999997E+02  0.45594000000E+02  0.51100000000E-03 0. -1.
    9900012    2    1    2    0    0  0.10835585772E+02  0.40336114524E+02 -0.11798831342E+02  0.47787257208E+02  0.19999936913E+02 0.  0.
        -12    1    1    2    0    0 -0.10835585772E+02 -0.40336114524E+02  0.11798831342E+02  0.43400742792E+02  0.00000000000E+00 0.  1.
         11    1    3    3    0    0  0.38711226172E+01  0.23988781054E+02 -0.95204006365E+01  0.26097609763E+02  0.51100000000E-03 0. -1.
        -11    1    3    3    0    0 -0.24486355408E+01  0.95522324964E+01 -0.20822007890E+01  0.10078517851E+02  0.51100000000E-03 0.  1.
        -12    1    3    3    0    0  0.94130986953E+01  0.67951009732E+01 -0.19622991685E+00  0.11611129595E+02  0.00000000000E+00 0.  1.
</event>
<event>
 7    1  0.5541017E-010  0.4778727E+02  0.7816164E-02  0.1312668E+00
        -11   -1    0    0    0    0  0.00000000000E+00  0.00000000000E+00  0.45593999997E+02  0.45594000000E+02  0.51100000000E-03 0.  1.
         11   -1    0    0    0    0 -0.00000000000E+00 -0.00000000000E+00 -0.45593999997E+02  0.45594000000E+02  0.51100000000E-03 0. -1.
    9900012    2    1    2    0    0  0.86403877768E+01 -0.35954951264E+02 -0.22720218725E+02  0.47787272353E+02  0.20000005967E+02 0.  0.
        -12    1    1    2    0    0 -0.86403877768E+01  0.35954951264E+02  0.22720218725E+02  0.43400727647E+02  0.00000000000E+00 0.  1.
         11    1    3    3    0    0  0.32063604776E+01 -0.16844286254E+02 -0.36895990941E+01  0.17539209465E+02  0.51100000000E-03 0. -1.
        -11    1    3    3    0    0  0.60316703903E+01 -0.92430144608E+01 -0.30392745550E+01  0.11447775072E+02  0.51100000000E-03 0.  1.
         12    1    3    3    0    0 -0.59764309108E+00 -0.98676505496E+01 -0.15991345076E+02  0.18800287816E+02  0.00000000000E+00 0. -1.
</event>
<event>
 7    1  0.5541017E-010  0.4778727E+02  0.7816164E-02  0.1312668E+00
        -11   -1    0    0    0    0  0.00000000000E+00  0.00000000000E+00  0.45593999997E+02  0.45594000000E+02  0.51100000000E-03 0.  1.
         11   -1    0    0    0    0 -0.00000000000E+00 -0.00000000000E+00 -0.45593999997E+02  0.45594000000E+02  0.51100000000E-03 0. -1.
    9900012    2    1    2    0    0  0.22114065390E+02  0.12686221977E+02 -0.35123366806E+02  0.47787274062E+02  0.20000013759E+02 0.  0.
        -12    1    1    2    0    0 -0.22114065390E+02 -0.12686221977E+02  0.35123366806E+02  0.43400725938E+02  0.00000000000E+00 0.  1.
         11    1    3    3    0    0  0.57666233132E+01 -0.11860771612E+01 -0.68549262392E+01  0.90360797625E+01  0.51100000000E-03 0. -1.
        -11    1    3    3    0    0 -0.30308489360E+01  0.30763898698E+01 -0.43480917718E+01  0.61283050039E+01  0.51100000000E-03 0.  1.
         12    1    3    3    0    0  0.19378291012E+02  0.10795909269E+02 -0.23920348795E+02  0.32622889296E+02  0.00000000000E+00 0. -1.
</event>
<event>
 7    1  0.5541017E-010  0.4778726E+02  0.7816164E-02  0.1312668E+00
        -11   -1    0    0    0    0  0.00000000000E+00  0.00000000000E+00  0.45593999997E+02  0.45594000000E+02  0.51100000000E-03 0. -1.
         11   -1    0    0    0    0 -0.00000000000E+00 -0.00000000000E+00 -0.45593999997E+02  0.45594000000E+02  0.51100000000E-03 0.  1.
    9900012    2    1    2    0    0  0.24529156050E+02 -0.12656506204E+02  0.33492644654E+02  0.47787263927E+02  0.19999967548E+02 0.  0.
        -12    1    1    2    0    0 -0.24529156050E+02  0.12656506204E+02 -0.33492644654E+02  0.43400736073E+02  0.00000000000E+00 0.  1.
         11    1    3    3    0    0  0.26199478242E+01 -0.30060801442E+01  0.13438059138E+02  0.14017206501E+02  0.51100000000E-03 0.  1.
        -11    1    3    3    0    0  0.78189379227E+01 -0.86666766424E+01  0.14446734102E+02  0.18572969626E+02  0.51100000000E-03 0. -1.
         12    1    3    3    0    0  0.14090270303E+02 -0.98374941701E+00  0.56078514147E+01  0.15197087800E+02  0.00000000000E+00 0. -1.
</event>
<event>
 7    1  0.5541017E-010  0.4778727E+02  0.7816164E-02  0.1312668E+00
        -11   -1    0    0    0    0  0.00000000000E+00  0.00000000000E+00  0.45593999997E+02  0.45594000000E+02  0.51100000000E-03 0.  1.
         11   -1    0    0    0    0 -0.00000000000E+00 -0.00000000000E+00 -0.45593999997E+02  0.45594000000E+02  0.51100000000E-03 0. -1.
    9900012    2    1    2    0    0  0.28373730730E+02 -0.16746847918E+02 -0.28250628101E+02  0.47787268453E+02  0.19999988186E+02 0.  0.
        -12    1    1    2    0    0 -0.28373730730E+02  0.16746847918E+02  0.28250628101E+02  0.43400731547E+02  0.00000000000E+00 0.  1.
         11    1    3    3    0    0  0.15886299512E+01  0.15461538122E+00  0.10078014248E+01  0.18876744981E+01  0.51100000000E-03 0. -1.
        -11    1    3    3    0    0  0.23464590074E+02 -0.16339006338E+02 -0.17172784069E+02  0.33353480005E+02  0.51100000000E-03 0.  1.
         12    1    3    3    0    0  0.33205107040E+01 -0.56245696166E+00 -0.12085645456E+02  0.12546113951E+02  0.00000000000E+00 0. -1.
</event>
<event>
 7    1  0.5541017E-010  0.4778727E+02  0.7816164E-02  0.1312668E+00
        -11   -1    0    0    0    0  0.00000000000E+00  0.00000000000E+00  0.45593999997E+02  0.45594000000E+02  0.51100000000E-03 0.  1.
         11   -1    0    0    0    0 -0.00000000000E+00 -0.00000000000E+00 -0.45593999997E+02  0.45594000000E+02  0.51100000000E-03 0. -1.
    9900012    2    1    2    0    0 -0.29077385634E+02 -0.21015793008E+02 -0.24422639518E+02  0.47787271526E+02  0.20000002196E+02 0.  0.
        -12    1    1    2    0    0  0.29077385634E+02  0.21015793008E+02  0.24422639518E+02  0.43400728474E+02  0.00000000000E+00 0.  1.
         11    1    3    3    0    0 -0.68299078851E+01 -0.10329178364E+02 -0.85572829439E+01  0.15052131378E+02  0.51100000000E-03 0. -1.
        -11    1    3    3    0    0 -0.63317055684E+01 -0.41896184958E+01  0.20924839205E+01  0.78753976257E+01  0.51100000000E-03 0.  1.
         12    1    3    3    0    0 -0.15915772180E+02 -0.64969961487E+01 -0.17957840494E+02  0.24859742522E+02  0.00000000000E+00 0. -1.
</event>
<event>
 7    1  0.5541017E-010  0.4778727E+02  0.7816164E-02  0.1312668E+00
        -11   -1    0    0    0    0  0.00000000000E+00  0.00000000000E+00  0.45593999997E+02  0.45594000000E+02  0.51100000000E-03 0.  1.
         11   -1    0    0    0    0 -0.00000000000E+00 -0.00000000000E+00 -0.45593999997E+02  0.45594000000E+02  0.51100000000E-03 0. -1.
    9900012    2    1    2    0    0 -0.26322478949E+02 -0.31434324940E+02  0.14234945474E+02  0.47787270109E+02  0.19999995734E+02 0.  0.
        -12    1    1    2    0    0  0.26322478949E+02  0.31434324940E+02 -0.14234945474E+02  0.43400729891E+02  0.00000000000E+00 0.  1.
         11    1    3    3    0    0 -0.12288329001E+02 -0.81049982321E+01  0.47878504064E+01  0.15479584548E+02  0.51100000000E-03 0. -1.
        -11    1    3    3    0    0 -0.11667100504E+02 -0.11020485413E+02  0.11312452758E+02  0.19635272358E+02  0.51100000000E-03 0.  1.
        -12    1    3    3    0    0 -0.23670494434E+01 -0.12308841295E+02 -0.18653576900E+01  0.12672413203E+02  0.00000000000E+00 0.  1.
</event>
<event>
 7    1  0.5541017E-010  0.4778727E+02  0.7816164E-02  0.1312668E+00
        -11   -1    0    0    0    0  0.00000000000E+00  0.00000000000E+00  0.45593999997E+02  0.45594000000E+02  0.51100000000E-03 0. -1.
         11   -1    0    0    0    0 -0.00000000000E+00 -0.00000000000E+00 -0.45593999997E+02  0.45594000000E+02  0.51100000000E-03 0.  1.
    9900012    2    1    2    0    0  0.15054886802E+02 -0.36266052437E+02  0.18486407523E+02  0.47787269141E+02  0.19999991321E+02 0.  0.
        -12    1    1    2    0    0 -0.15054886802E+02  0.36266052437E+02 -0.18486407523E+02  0.43400730859E+02  0.00000000000E+00 0.  1.
         11    1    3    3    0    0  0.37313090180E+01 -0.70947399815E-01  0.27771303405E+01  0.46518978611E+01  0.51100000000E-03 0. -1.
        -11    1    3    3    0    0 -0.28229717903E+01 -0.37867807322E+01  0.28031766309E+01  0.54924200065E+01  0.51100000000E-03 0.  1.
        -12    1    3    3    0    0  0.14146549575E+02 -0.32408324305E+02  0.12906100552E+02  0.37642951273E+02  0.00000000000E+00 0.  1.
</event>
<event>
 7    1  0.5541017E-010  0.4778731E+02  0.7816164E-02  0.1312668E+00
        -11   -1    0    0    0    0  0.00000000000E+00  0.00000000000E+00  0.45593999997E+02  0.45594000000E+02  0.51100000000E-03 0.  1.
         11   -1    0    0    0    0 -0.00000000000E+00 -0.00000000000E+00 -0.45593999997E+02  0.45594000000E+02  0.51100000000E-03 0. -1.
    9900012    2    1    2    0    0  0.30728558234E+02  0.73090669803E+01 -0.29764957755E+02  0.47787314966E+02  0.20000200256E+02 0.  0.
        -12    1    1    2    0    0 -0.30728558234E+02 -0.73090669803E+01  0.29764957755E+02  0.43400685034E+02  0.00000000000E+00 0.  1.
         11    1    3    3    0    0  0.39943445420E+01  0.44033805343E+01 -0.85609666038E+00  0.60064507160E+01  0.51100000000E-03 0. -1.
        -11    1    3    3    0    0  0.52293724657E+01  0.52399800283E+00  0.49014726122E+00  0.52783666878E+01  0.51100000000E-03 0.  1.
         12    1    3    3    0    0  0.21504841226E+02  0.23816884431E+01 -0.29399008356E+02  0.36502497562E+02  0.00000000000E+00 0. -1.
</event>
<event>
 7    1  0.5541017E-010  0.4778727E+02  0.7816164E-02  0.1312668E+00
        -11   -1    0    0    0    0  0.00000000000E+00  0.00000000000E+00  0.45593999997E+02  0.45594000000E+02  0.51100000000E-03 0.  1.
         11   -1    0    0    0    0 -0.00000000000E+00 -0.00000000000E+00 -0.45593999997E+02  0.45594000000E+02  0.51100000000E-03 0. -1.
    9900012    2    1    2    0    0 -0.37372082848E+02 -0.15125058508E+02 -0.16068080083E+02  0.47787272254E+02  0.20000005517E+02 0.  0.
        -12    1    1    2    0    0  0.37372082848E+02  0.15125058508E+02  0.16068080083E+02  0.43400727746E+02  0.00000000000E+00 0.  1.
         11    1    3    3    0    0 -0.95641116339E+01 -0.62237383160E+00 -0.99795695797E+01  0.13836596033E+02  0.51100000000E-03 0. -1.
        -11    1    3    3    0    0 -0.39104720194E+00  0.14664904075E+01 -0.99770022678E+00  0.18162923864E+01  0.51100000000E-03 0.  1.
        -12    1    3    3    0    0 -0.27416924012E+02 -0.15969175084E+02 -0.50908102765E+01  0.32134383835E+02  0.00000000000E+00 0.  1.
</event>
<event>
 7    1  0.5541017E-010  0.4778727E+02  0.7816164E-02  0.1312668E+00
        -11   -1    0    0    0    0  0.00000000000E+00  0.00000000000E+00  0.45593999997E+02  0.45594000000E+02  0.51100000000E-03 0.  1.
         11   -1    0    0    0    0 -0.00000000000E+00 -0.00000000000E+00 -0.45593999997E+02  0.45594000000E+02  0.51100000000E-03 0. -1.
    9900012    2    1    2    0    0  0.32847262839E+01  0.38419654458E+01 -0.43105368871E+02  0.47787274767E+02  0.20000016973E+02 0.  0.
        -12    1    1    2    0    0 -0.32847262839E+01 -0.38419654458E+01  0.43105368871E+02  0.43400725233E+02  0.00000000000E+00 0.  1.
         11    1    3    3    0    0 -0.17981875892E+01  0.54237590599E+01 -0.22688491424E+02  0.23396971691E+02  0.51100000000E-03 0. -1.
        -11    1    3    3    0    0  0.20923356287E+01 -0.72672203850E+00 -0.21091567423E+02  0.21207550776E+02  0.51100000000E-03 0.  1.
        -12    1    3    3    0    0  0.29905782444E+01 -0.85507157560E+00  0.67468997660E+00  0.31827522994E+01  0.00000000000E+00 0.  1.
</event>
<event>
 7    1  0.5541017E-010  0.4778727E+02  0.7816164E-02  0.1312668E+00
        -11   -1    0    0    0    0  0.00000000000E+00  0.00000000000E+00  0.45593999997E+02  0.45594000000E+02  0.51100000000E-03 0.  1.
         11   -1    0    0    0    0 -0.00000000000E+00 -0.00000000000E+00 -0.45593999997E+02  0.45594000000E+02  0.51100000000E-03 0. -1.
    9900012    2    1    2    0    0  0.10595295469E+02  0.18799850946E+02 -0.37655392318E+02  0.47787271293E+02  0.20000001132E+02 0.  0.
        -12    1    1    2    0    0 -0.10595295469E+02 -0.18799850946E+02  0.37655392318E+02  0.43400728707E+02  0.00000000000E+00 0.  1.
         11    1    3    3    0    0  0.87511578480E+00 -0.70831410752E+00 -0.11783518112E+00  0.11319990736E+01  0.51100000000E-03 0. -1.
        -11    1    3    3    0    0  0.11908497295E+02  0.16706375978E+02 -0.19617379005E+02  0.28385856785E+02  0.51100000000E-03 0.  1.
         12    1    3    3    0    0 -0.21883176115E+01  0.28017890758E+01 -0.17920178133E+02  0.18269415434E+02  0.00000000000E+00 0. -1.
</event>
<event>
 7    1  0.5541017E-010  0.4778728E+02  0.7816164E-02  0.1312668E+00
        -11   -1    0    0    0    0  0.00000000000E+00  0.00000000000E+00  0.45593999997E+02  0.45594000000E+02  0.51100000000E-03 0.  1.
         11   -1    0    0    0    0 -0.00000000000E+00 -0.00000000000E+00 -0.45593999997E+02  0.45594000000E+02  0.51100000000E-03 0. -1.
    9900012    2    1    2    0    0 -0.12703299093E+01  0.41684198309E+02 -0.12018158002E+02  0.47787282857E+02  0.20000053860E+02 0.  0.
        -12    1    1    2    0    0  0.12703299093E+01 -0.41684198309E+02  0.12018158002E+02  0.43400717143E+02  0.00000000000E+00 0.  1.
         11    1    3    3    0    0  0.16206015238E+01  0.55714976950E+01 -0.73082173270E+01  0.93315581027E+01  0.51100000000E-03 0. -1.
        -11    1    3    3    0    0  0.19336498863E+01  0.78594451181E+00  0.10537592304E+01  0.23381872113E+01  0.51100000000E-03 0.  1.
        -12    1    3    3    0    0 -0.48245813194E+01  0.35326756102E+02 -0.57636999052E+01  0.36117537543E+02  0.00000000000E+00 0.  1.
</event>
<event>
 7    1  0.5541017E-010  0.4778727E+02  0.7816164E-02  0.1312668E+00
        -11   -1    0    0    0    0  0.00000000000E+00  0.00000000000E+00  0.45593999997E+02  0.45594000000E+02  0.51100000000E-03 0.  1.
         11   -1    0    0    0    0 -0.00000000000E+00 -0.00000000000E+00 -0.45593999997E+02  0.45594000000E+02  0.51100000000E-03 0. -1.
    9900012    2    1    2    0    0 -0.93366315345E+01 -0.87450652251E+00 -0.42375532474E+02  0.47787271866E+02  0.20000003748E+02 0.  0.
        -12    1    1    2    0    0  0.93366315345E+01  0.87450652251E+00  0.42375532474E+02  0.43400728134E+02  0.00000000000E+00 0.  1.
         11    1    3    3    0    0  0.36538355190E+01  0.14255632136E+01 -0.40789259848E+01  0.56586554875E+01  0.51100000000E-03 0. -1.
        -11    1    3    3    0    0 -0.27768391063E+01 -0.36277777478E+01 -0.32676725173E+01  0.56168755328E+01  0.51100000000E-03 0.  1.
         12    1    3    3    0    0 -0.10213627947E+02  0.13277080117E+01 -0.35028933972E+02  0.36511740846E+02  0.00000000000E+00 0. -1.
</event>
<event>
 7    1  0.5541017E-010  0.4778726E+02  0.7816164E-02  0.1312668E+00
        -11   -1    0    0    0    0  0.00000000000E+00  0.00000000000E+00  0.45593999997E+02  0.45594000000E+02  0.51100000000E-03 0. -1.
         11   -1    0    0    0    0 -0.00000000000E+00 -0.00000000000E+00 -0.45593999997E+02  0.45594000000E+02  0.51100000000E-03 0.  1.
    9900012    2    1    2    0    0 -0.24926550616E+02  0.34948153087E+02 -0.63966986672E+01  0.47787261715E+02  0.19999957463E+02 0.  0.
        -12    1    1    2    0    0  0.24926550616E+02 -0.34948153087E+02  0.63966986672E+01  0.43400738285E+02  0.00000000000E+00 0.  1.
         11    1    3    3    0    0 -0.34845307827E+00 -0.58601487643E+00 -0.12761467020E+01  0.14468530158E+01  0.51100000000E-03 0. -1.
        -11    1    3    3    0    0 -0.12110966859E+02  0.72197443588E+01 -0.61572138441E+01  0.15385431728E+02  0.51100000000E-03 0.  1.
         12    1    3    3    0    0 -0.12467130679E+02  0.28314423605E+02  0.10366618789E+01  0.30954976971E+02  0.00000000000E+00 0. -1.
</event>
<event>
 7    1  0.5541017E-010  0.4778727E+02  0.7816164E-02  0.1312668E+00
        -11   -1    0    0    0    0  0.00000000000E+00  0.00000000000E+00  0.45593999997E+02  0.45594000000E+02  0.51100000000E-03 0.  1.
         11   -1    0    0    0    0 -0.00000000000E+00 -0.00000000000E+00 -0.45593999997E+02  0.45594000000E+02  0.51100000000E-03 0. -1.
    9900012    2    1    2    0    0 -0.12939962132E+02 -0.29306941692E+02 -0.29279408198E+02  0.47787271944E+02  0.20000004102E+02 0.  0.
        -12    1    1    2    0    0  0.12939962132E+02  0.29306941692E+02  0.29279408198E+02  0.43400728056E+02  0.00000000000E+00 0.  1.
         11    1    3    3    0    0 -0.11112144397E+02 -0.87490968564E+01 -0.19135381392E+02  0.23794731984E+02  0.51100000000E-03 0. -1.
        -11    1    3    3    0    0  0.32809553114E+00 -0.45211046343E+00  0.81862300869E+00  0.99105723355E+00  0.51100000000E-03 0.  1.
        -12    1    3    3    0    0 -0.21559132668E+01 -0.20105734372E+02 -0.10962649815E+02  0.23001482727E+02  0.00000000000E+00 0.  1.
</event>
<event>
 7    1  0.5541017E-010  0.4778727E+02  0.7816164E-02  0.1312668E+00
        -11   -1    0    0    0    0  0.00000000000E+00  0.00000000000E+00  0.45593999997E+02  0.45594000000E+02  0.51100000000E-03 0. -1.
         11   -1    0    0    0    0 -0.00000000000E+00 -0.00000000000E+00 -0.45593999997E+02  0.45594000000E+02  0.51100000000E-03 0.  1.
    9900012    2    1    2    0    0 -0.21962181227E+02 -0.27153858129E+02  0.25767302620E+02  0.47787270745E+02  0.19999998634E+02 0.  0.
        -12    1    1    2    0    0  0.21962181227E+02  0.27153858129E+02 -0.25767302620E+02  0.43400729255E+02  0.00000000000E+00 0.  1.
         11    1    3    3    0    0 -0.52728118264E+01 -0.92235820697E+01  0.13032793604E+02  0.16814598424E+02  0.51100000000E-03 0. -1.
        -11    1    3    3    0    0  0.17249352015E+01  0.83812887942E+00  0.11865941815E+01  0.22551867950E+01  0.51100000000E-03 0.  1.
        -12    1    3    3    0    0 -0.18414304602E+02 -0.18768404939E+02  0.11547914835E+02  0.28717485526E+02  0.00000000000E+00 0.  1.
</event>
<event>
 7    1  0.5541017E-010  0.4778727E+02  0.7816164E-02  0.1312668E+00
        -11   -1    0    0    0    0  0.00000000000E+00  0.00000000000E+00  0.45593999997E+02  0.45594000000E+02  0.51100000000E-03 0. -1.
         11   -1    0    0    0    0 -0.00000000000E+00 -0.00000000000E+00 -0.45593999997E+02  0.45594000000E+02  0.51100000000E-03 0.  1.
    9900012    2    1    2    0    0 -0.21251950546E+02  0.37526145058E+02 -0.48750793039E+01  0.47787270016E+02  0.19999995309E+02 0.  0.
        -12    1    1    2    0    0  0.21251950546E+02 -0.37526145058E+02  0.48750793039E+01  0.43400729984E+02  0.00000000000E+00 0.  1.
         11    1    3    3    0    0 -0.15154361581E+02  0.13735481450E+02 -0.12774595328E+01  0.20492682321E+02  0.51100000000E-03 0. -1.
        -11    1    3    3    0    0  0.16970245682E+01  0.37842181462E+00 -0.18776547414E+01  0.25590394768E+01  0.51100000000E-03 0.  1.
        -12    1    3    3    0    0 -0.77946135339E+01  0.23412241794E+02 -0.17199650298E+01  0.24735548218E+02  0.00000000000E+00 0.  1.
</event>
<event>
 7    1  0.5541017E-010  0.4778727E+02  0.7816164E-02  0.1312668E+00
        -11   -1    0    0    0    0  0.00000000000E+00  0.00000000000E+00  0.45593999997E+02  0.45594000000E+02  0.51100000000E-03 0.  1.
         11   -1    0    0    0    0 -0.00000000000E+00 -0.00000000000E+00 -0.45593999997E+02  0.45594000000E+02  0.51100000000E-03 0. -1.
    9900012    2    1    2    0    0  0.26039347892E+02  0.16255175326E+02 -0.30681341162E+02  0.47787273520E+02  0.20000011286E+02 0.  0.
        -12    1    1    2    0    0 -0.26039347892E+02 -0.16255175326E+02  0.30681341162E+02  0.43400726480E+02  0.00000000000E+00 0.  1.
         11    1    3    3    0    0  0.99331834381E+01  0.12730736402E+02 -0.12014265415E+02  0.20126657851E+02  0.51100000000E-03 0. -1.
        -11    1    3    3    0    0  0.73120673938E+00  0.44811429383E+01 -0.69693486594E+01  0.83178799178E+01  0.51100000000E-03 0.  1.
         12    1    3    3    0    0  0.15374957715E+02 -0.95670401429E+00 -0.11697727088E+02  0.19342735751E+02  0.00000000000E+00 0. -1.
</event>
<event>
 7    1  0.5541017E-010  0.4778727E+02  0.7816164E-02  0.1312668E+00
        -11   -1    0    0    0    0  0.00000000000E+00  0.00000000000E+00  0.45593999997E+02  0.45594000000E+02  0.51100000000E-03 0.  1.
         11   -1    0    0    0    0 -0.00000000000E+00 -0.00000000000E+00 -0.45593999997E+02  0.45594000000E+02  0.51100000000E-03 0. -1.
    9900012    2    1    2    0    0 -0.19289375700E+02  0.40421165934E+01 -0.38667875155E+02  0.47787270854E+02  0.19999999130E+02 0.  0.
        -12    1    1    2    0    0  0.19289375700E+02 -0.40421165934E+01  0.38667875155E+02  0.43400729146E+02  0.00000000000E+00 0.  1.
         11    1    3    3    0    0 -0.13077967595E+02  0.71672058576E+01 -0.20034490399E+02  0.24975645779E+02  0.51100000000E-03 0. -1.
        -11    1    3    3    0    0  0.10382165736E+01  0.25628361152E+01 -0.10457445968E+01  0.29562822311E+01  0.51100000000E-03 0.  1.
        -12    1    3    3    0    0 -0.72496246783E+01 -0.56879253794E+01 -0.17587640159E+02  0.19855342844E+02  0.00000000000E+00 0.  1.
</event>
<event>
 7    1  0.5541017E-010  0.4778728E+02  0.7816164E-02  0.1312668E+00
        -11   -1    0    0    0    0  0.00000000000E+00  0.00000000000E+00  0.45593999997E+02  0.45594000000E+02  0.51100000000E-03 0.  1.
         11   -1    0    0    0    0 -0.00000000000E+00 -0.00000000000E+00 -0.45593999997E+02  0.45594000000E+02  0.51100000000E-03 0. -1.
    9900012    2    1    2    0    0  0.11782725340E+02 -0.56068138816E+01 -0.41392678378E+02  0.47787276485E+02  0.20000024804E+02 0.  0.
        -12    1    1    2    0    0 -0.11782725340E+02  0.56068138816E+01  0.41392678378E+02  0.43400723515E+02  0.00000000000E+00 0.  1.
         11    1    3    3    0    0  0.79278648568E+01 -0.71423819624E+01 -0.12628928627E+02  0.16533435814E+02  0.51100000000E-03 0. -1.
        -11    1    3    3    0    0 -0.12266164202E+01 -0.24845606195E+01 -0.13452550738E+01  0.30801527217E+01  0.51100000000E-03 0.  1.
         12    1    3    3    0    0  0.50814769030E+01  0.40201287003E+01 -0.27418494677E+02  0.28173687949E+02  0.00000000000E+00 0. -1.
</event>
<event>
 7    1  0.5541017E-010  0.4778727E+02  0.7816164E-02  0.1312668E+00
        -11   -1    0    0    0    0  0.00000000000E+00  0.00000000000E+00  0.45593999997E+02  0.45594000000E+02  0.51100000000E-03 0.  1.
         11   -1    0    0    0    0 -0.00000000000E+00 -0.00000000000E+00 -0.45593999997E+02  0.45594000000E+02  0.51100000000E-03 0. -1.
    9900012    2    1    2    0    0 -0.13622328850E+02  0.27099326447E+02 -0.31043226197E+02  0.47787271551E+02  0.20000002310E+02 0.  0.
        -12    1    1    2    0    0  0.13622328850E+02 -0.27099326447E+02  0.31043226197E+02  0.43400728449E+02  0.00000000000E+00 0.  1.
         11    1    3    3    0    0 -0.36159866897E+00 -0.18073185635E+01 -0.30575842147E-01  0.18433906614E+01  0.51100000000E-03 0. -1.
        -11    1    3    3    0    0  0.72828891834E+00  0.39052244413E+01 -0.36228196585E+00  0.39890388779E+01  0.51100000000E-03 0.  1.
         12    1    3    3    0    0 -0.13989019099E+02  0.25001420569E+02 -0.30650368389E+02  0.41954842012E+02  0.00000000000E+00 0. -1.
</event>
<event>
 7    1  0.5541017E-010  0.4778727E+02  0.7816164E-02  0.1312668E+00
        -11   -1    0    0    0    0  0.00000000000E+00  0.00000000000E+00  0.45593999997E+02  0.45594000000E+02  0.51100000000E-03 0.  1.
         11   -1    0    0    0    0 -0.00000000000E+00 -0.00000000000E+00 -0.45593999997E+02  0.45594000000E+02  0.51100000000E-03 0. -1.
    9900012    2    1    2    0    0  0.29459166300E+02  0.28838668065E+02  0.13568790590E+02  0.47787270364E+02  0.19999996899E+02 0.  0.
        -12    1    1    2    0    0 -0.29459166300E+02 -0.28838668065E+02 -0.13568790590E+02  0.43400729636E+02  0.00000000000E+00 0.  1.
         11    1    3    3    0    0  0.56413471634E+01  0.29582554085E+01 -0.49374547071E+00  0.63890420041E+01  0.51100000000E-03 0. -1.
        -11    1    3    3    0    0  0.20299780459E+02  0.27740396312E+02  0.10208482939E+02  0.35858385330E+02  0.51100000000E-03 0.  1.
        -12    1    3    3    0    0  0.35180386772E+01 -0.18599836563E+01  0.38540531218E+01  0.55398430304E+01  0.00000000000E+00 0.  1.
</event>
<event>
 7    1  0.5541017E-010  0.4778727E+02  0.7816164E-02  0.1312668E+00
        -11   -1    0    0    0    0  0.00000000000E+00  0.00000000000E+00  0.45593999997E+02  0.45594000000E+02  0.51100000000E-03 0.  1.
         11   -1    0    0    0    0 -0.00000000000E+00 -0.00000000000E+00 -0.45593999997E+02  0.45594000000E+02  0.51100000000E-03 0. -1.
    9900012    2    1    2    0    0  0.14251467580E+02 -0.40852858366E+02 -0.34004176629E+01  0.47787271836E+02  0.20000003611E+02 0.  0.
        -12    1    1    2    0    0 -0.14251467580E+02  0.40852858366E+02  0.34004176629E+01  0.43400728164E+02  0.00000000000E+00 0.  1.
         11    1    3    3    0    0  0.54378725955E+01 -0.16782521198E+02  0.76952550229E+01  0.19246828993E+02  0.51100000000E-03 0. -1.
        -11    1    3    3    0    0 -0.42251286613E+00 -0.57930908552E+01 -0.21533661625E+01  0.61947885250E+01  0.51100000000E-03 0.  1.
         12    1    3    3    0    0  0.92361078504E+01 -0.18277246312E+02 -0.89423065233E+01  0.22345654319E+02  0.00000000000E+00 0. -1.
</event>
<event>
 7    1  0.5541017E-010  0.4778727E+02  0.7816164E-02  0.1312668E+00
        -11   -1    0    0    0    0  0.00000000000E+00  0.00000000000E+00  0.45593999997E+02  0.45594000000E+02  0.51100000000E-03 0. -1.
         11   -1    0    0    0    0 -0.00000000000E+00 -0.00000000000E+00 -0.45593999997E+02  0.45594000000E+02  0.51100000000E-03 0.  1.
    9900012    2    1    2    0    0  0.38346691535E+01 -0.23499200070E+02  0.36286449601E+02  0.47787268254E+02  0.19999987277E+02 0.  0.
        -12    1    1    2    0    0 -0.38346691535E+01  0.23499200070E+02 -0.36286449601E+02  0.43400731746E+02  0.00000000000E+00 0.  1.
         11    1    3    3    0    0  0.15059036037E+01 -0.15814247648E+02  0.26806230181E+02  0.31159784195E+02  0.51100000000E-03 0. -1.
        -11    1    3    3    0    0  0.55538700256E+01 -0.70722100326E+01  0.98342021348E+01  0.13325657916E+02  0.51100000000E-03 0.  1.
         12    1    3    3    0    0 -0.32251044758E+01 -0.61274238972E+00 -0.35398271440E+00  0.33018261429E+01  0.00000000000E+00 0. -1.
</event>
<event>
 7    1  0.5541017E-010  0.4778728E+02  0.7816164E-02  0.1312668E+00
        -11   -1    0    0    0    0  0.00000000000E+00  0.00000000000E+00  0.45593999997E+02  0.45594000000E+02  0.51100000000E-03 0.  1.
         11   -1    0    0    0    0 -0.00000000000E+00 -0.00000000000E+00 -0.45593999997E+02  0.45594000000E+02  0.51100000000E-03 0. -1.
    9900012    2    1    2    0    0 -0.65995506794E+01  0.91270017477E+01 -0.41913800507E+02  0.47787275317E+02  0.20000019480E+02 0.  0.
        -12    1    1    2    0    0  0.65995506794E+01 -0.91270017477E+01  0.41913800507E+02  0.43400724683E+02  0.00000000000E+00 0.  1.
         11    1    3    3    0    0 -0.28662037284E+01  0.51008342993E+01 -0.32157917428E+01  0.66764474952E+01  0.51100000000E-03 0. -1.
        -11    1    3    3    0    0 -0.54922720829E+00  0.29608866360E+01 -0.87062257174E+00  0.31347223356E+01  0.51100000000E-03 0.  1.
         12    1    3    3    0    0 -0.31841197428E+01  0.10652808124E+01 -0.37827386192E+02  0.37976105486E+02  0.00000000000E+00 0. -1.
</event>
<event>
 7    1  0.5541017E-010  0.4778727E+02  0.7816164E-02  0.1312668E+00
        -11   -1    0    0    0    0  0.00000000000E+00  0.00000000000E+00  0.45593999997E+02  0.45594000000E+02  0.51100000000E-03 0.  1.
         11   -1    0    0    0    0 -0.00000000000E+00 -0.00000000000E+00 -0.45593999997E+02  0.45594000000E+02  0.51100000000E-03 0. -1.
    9900012    2    1    2    0    0 -0.32150997595E+02  0.15487486349E+02 -0.24699694072E+02  0.47787265363E+02  0.19999974095E+02 0.  0.
        -12    1    1    2    0    0  0.32150997595E+02 -0.15487486349E+02  0.24699694072E+02  0.43400734637E+02  0.00000000000E+00 0.  1.
         11    1    3    3    0    0 -0.95550039854E+01  0.17745980386E+01 -0.58019939866E+01  0.11318587979E+02  0.51100000000E-03 0. -1.
        -11    1    3    3    0    0 -0.57127426121E+01 -0.18857299587E+01  0.96102480862E+00  0.60922060514E+01  0.51100000000E-03 0.  1.
         12    1    3    3    0    0 -0.16883250998E+02  0.15598618269E+02 -0.19858724894E+02  0.30376471332E+02  0.00000000000E+00 0. -1.
</event>
<event>
 7    1  0.6560786E-010  0.4778727E+02  0.7816164E-02  0.1312668E+00
        -11   -1    0    0    0    0  0.00000000000E+00  0.00000000000E+00  0.45593999997E+02  0.45594000000E+02  0.51100000000E-03 0.  1.
         11   -1    0    0    0    0 -0.00000000000E+00 -0.00000000000E+00 -0.45593999997E+02  0.45594000000E+02  0.51100000000E-03 0. -1.
    9900012    2    1    2    0    0  0.18604393326E+02 -0.28983235963E+02 -0.26409693232E+02  0.47787270576E+02  0.19999997863E+02 0.  0.
        -12    1    1    2    0    0 -0.18604393326E+02  0.28983235963E+02  0.26409693232E+02  0.43400729424E+02  0.00000000000E+00 0.  1.
         11    1    3    3    0    0  0.43110225856E+01 -0.11881127259E+02 -0.11758502448E+02  0.17262922138E+02  0.51100000000E-03 0. -1.
        -11    1    3    3    0    0  0.15976441054E+02 -0.17706694368E+02 -0.10605019521E+02  0.26100577264E+02  0.51100000000E-03 0.  1.
        -12    1    3    3    0    0 -0.16830703140E+01  0.60458566335E+00 -0.40461712635E+01  0.44237711739E+01  0.00000000000E+00 0.  1.
</event>
<event>
 7    1  0.5541017E-010  0.4778727E+02  0.7816164E-02  0.1312668E+00
        -11   -1    0    0    0    0  0.00000000000E+00  0.00000000000E+00  0.45593999997E+02  0.45594000000E+02  0.51100000000E-03 0.  1.
         11   -1    0    0    0    0 -0.00000000000E+00 -0.00000000000E+00 -0.45593999997E+02  0.45594000000E+02  0.51100000000E-03 0. -1.
    9900012    2    1    2    0    0 -0.43080121406E+02 -0.45139243305E+01 -0.27112627480E+01  0.47787270525E+02  0.19999997633E+02 0.  0.
        -12    1    1    2    0    0  0.43080121406E+02  0.45139243305E+01  0.27112627480E+01  0.43400729475E+02  0.00000000000E+00 0.  1.
         11    1    3    3    0    0 -0.64483509147E+01 -0.44615768460E+01 -0.10934929807E+01  0.79172359212E+01  0.51100000000E-03 0. -1.
        -11    1    3    3    0    0 -0.64814030176E+01 -0.44653066928E+00 -0.66537045712E+01  0.92994494190E+01  0.51100000000E-03 0.  1.
         12    1    3    3    0    0 -0.30150367474E+02  0.39418318475E+00  0.50359348039E+01  0.30570585185E+02  0.00000000000E+00 0. -1.
</event>
<event>
 7    1  0.5541017E-010  0.4778727E+02  0.7816164E-02  0.1312668E+00
        -11   -1    0    0    0    0  0.00000000000E+00  0.00000000000E+00  0.45593999997E+02  0.45594000000E+02  0.51100000000E-03 0.  1.
         11   -1    0    0    0    0 -0.00000000000E+00 -0.00000000000E+00 -0.45593999997E+02  0.45594000000E+02  0.51100000000E-03 0. -1.
    9900012    2    1    2    0    0 -0.88349103944E+01 -0.12452279932E+02 -0.40626448519E+02  0.47787271475E+02  0.20000001965E+02 0.  0.
        -12    1    1    2    0    0  0.88349103944E+01  0.12452279932E+02  0.40626448519E+02  0.43400728525E+02  0.00000000000E+00 0.  1.
         11    1    3    3    0    0  0.33113782013E+01 -0.55112183156E+00 -0.11727883592E+02  0.12198861204E+02  0.51100000000E-03 0. -1.
        -11    1    3    3    0    0 -0.65742644734E+01 -0.83280192645E+01 -0.26504747572E+02  0.28549579723E+02  0.51100000000E-03 0.  1.
        -12    1    3    3    0    0 -0.55720241223E+01 -0.35731388356E+01 -0.23938173548E+01  0.70388305482E+01  0.00000000000E+00 0.  1.
</event>
<event>
 7    1  0.5541017E-010  0.4778728E+02  0.7816164E-02  0.1312668E+00
        -11   -1    0    0    0    0  0.00000000000E+00  0.00000000000E+00  0.45593999997E+02  0.45594000000E+02  0.51100000000E-03 0.  1.
         11   -1    0    0    0    0 -0.00000000000E+00 -0.00000000000E+00 -0.45593999997E+02  0.45594000000E+02  0.51100000000E-03 0. -1.
    9900012    2    1    2    0    0  0.24998340914E+02  0.21290086560E+02 -0.28380235318E+02  0.47787278913E+02  0.20000035876E+02 0.  0.
        -12    1    1    2    0    0 -0.24998340914E+02 -0.21290086560E+02  0.28380235318E+02  0.43400721087E+02  0.00000000000E+00 0.  1.
         11    1    3    3    0    0  0.10167306472E+02  0.31042092010E+01 -0.11406601192E+02  0.15592331021E+02  0.51100000000E-03 0. -1.
        -11    1    3    3    0    0  0.52961128214E+01  0.12811809877E+02 -0.16053860274E+02  0.21211263831E+02  0.51100000000E-03 0.  1.
         12    1    3    3    0    0  0.95349216203E+01  0.53740674829E+01 -0.91977385143E+00  0.10983684061E+02  0.00000000000E+00 0. -1.
</event>
<event>
 7    1  0.7218367E-010  0.4778727E+02  0.7816164E-02  0.1312668E+00
        -11   -1    0    0    0    0  0.00000000000E+00  0.00000000000E+00  0.45593999997E+02  0.45594000000E+02  0.51100000000E-03 0.  1.
         11   -1    0    0    0    0 -0.00000000000E+00 -0.00000000000E+00 -0.45593999997E+02  0.45594000000E+02  0.51100000000E-03 0. -1.
    9900012    2    1    2    0    0  0.40886404175E+02  0.13554112224E+02 -0.53114158806E+01  0.47787272550E+02  0.20000006866E+02 0.  0.
        -12    1    1    2    0    0 -0.40886404175E+02 -0.13554112224E+02  0.53114158806E+01  0.43400727450E+02  0.00000000000E+00 0.  1.
         11    1    3    3    0    0  0.26800422336E+02  0.59582738411E+01 -0.24651008695E+01  0.27565202468E+02  0.51100000000E-03 0. -1.
        -11    1    3    3    0    0  0.51432605354E+01 -0.29085037241E+01 -0.25177588923E+01  0.64227434130E+01  0.51100000000E-03 0.  1.
        -12    1    3    3    0    0  0.89427213033E+01  0.10504342107E+02 -0.32855611871E+00  0.13799326669E+02  0.00000000000E+00 0.  1.
</event>
<event>
 7    1  0.5541017E-010  0.4778727E+02  0.7816164E-02  0.1312668E+00
        -11   -1    0    0    0    0  0.00000000000E+00  0.00000000000E+00  0.45593999997E+02  0.45594000000E+02  0.51100000000E-03 0.  1.
         11   -1    0    0    0    0 -0.00000000000E+00 -0.00000000000E+00 -0.45593999997E+02  0.45594000000E+02  0.51100000000E-03 0. -1.
    9900012    2    1    2    0    0  0.11844739841E+01  0.30856881891E+02 -0.30497102192E+02  0.47787269813E+02  0.19999994386E+02 0.  0.
        -12    1    1    2    0    0 -0.11844739841E+01 -0.30856881891E+02  0.30497102192E+02  0.43400730187E+02  0.00000000000E+00 0.  1.
         11    1    3    3    0    0 -0.29175667259E+01  0.22278231671E+02 -0.20665155016E+02  0.30526716727E+02  0.51100000000E-03 0.  1.
        -11    1    3    3    0    0  0.26186937818E+01  0.93367253451E+01 -0.28855910240E+01  0.10117244344E+02  0.51100000000E-03 0. -1.
        -12    1    3    3    0    0  0.14833469283E+01 -0.75807512598E+00 -0.69463561517E+01  0.71433087426E+01  0.00000000000E+00 0.  1.
</event>
<event>
 7    1  0.5541017E-010  0.4778727E+02  0.7816164E-02  0.1312668E+00
        -11   -1    0    0    0    0  0.00000000000E+00  0.00000000000E+00  0.45593999997E+02  0.45594000000E+02  0.51100000000E-03 0. -1.
         11   -1    0    0    0    0 -0.00000000000E+00 -0.00000000000E+00 -0.45593999997E+02  0.45594000000E+02  0.51100000000E-03 0.  1.
    9900012    2    1    2    0    0  0.42255816006E+02  0.12078161496E+01 -0.98290629419E+01  0.47787270922E+02  0.19999999442E+02 0.  0.
        -12    1    1    2    0    0 -0.42255816006E+02 -0.12078161496E+01  0.98290629419E+01  0.43400729078E+02  0.00000000000E+00 0.  1.
         11    1    3    3    0    0  0.63913598485E+01 -0.39177352537E+01  0.65224013376E+00  0.75248619711E+01  0.51100000000E-03 0. -1.
        -11    1    3    3    0    0  0.65546485897E+01  0.45676432665E+01  0.22531814752E+01  0.83008198490E+01  0.51100000000E-03 0.  1.
         12    1    3    3    0    0  0.29309807568E+02  0.55790813681E+00 -0.12734484551E+02  0.31961589102E+02  0.00000000000E+00 0. -1.
</event>
<event>
 7    1  0.5541017E-010  0.4778726E+02  0.7816164E-02  0.1312668E+00
        -11   -1    0    0    0    0  0.00000000000E+00  0.00000000000E+00  0.45593999997E+02  0.45594000000E+02  0.51100000000E-03 0.  1.
         11   -1    0    0    0    0 -0.00000000000E+00 -0.00000000000E+00 -0.45593999997E+02  0.45594000000E+02  0.51100000000E-03 0. -1.
    9900012    2    1    2    0    0  0.75974296908E+01 -0.86773647772E+01 -0.41840246949E+02  0.47787264267E+02  0.19999969101E+02 0.  0.
        -12    1    1    2    0    0 -0.75974296908E+01  0.86773647772E+01  0.41840246949E+02  0.43400735733E+02  0.00000000000E+00 0.  1.
         11    1    3    3    0    0  0.25247776713E+01 -0.28924852518E+01 -0.18800512017E+01  0.42749930999E+01  0.51100000000E-03 0. -1.
        -11    1    3    3    0    0 -0.16738857540E+00 -0.92093164049E+01 -0.13645428281E+02  0.16463208703E+02  0.51100000000E-03 0.  1.
         12    1    3    3    0    0  0.52400405948E+01  0.34244368795E+01 -0.26314767467E+02  0.27049062464E+02  0.00000000000E+00 0. -1.
</event>
<event>
 7    1  0.5541017E-010  0.4778727E+02  0.7816164E-02  0.1312668E+00
        -11   -1    0    0    0    0  0.00000000000E+00  0.00000000000E+00  0.45593999997E+02  0.45594000000E+02  0.51100000000E-03 0.  1.
         11   -1    0    0    0    0 -0.00000000000E+00 -0.00000000000E+00 -0.45593999997E+02  0.45594000000E+02  0.51100000000E-03 0. -1.
    9900012    2    1    2    0    0  0.20421617371E+02 -0.86405564161E+01 -0.37308467826E+02  0.47787269099E+02  0.19999991129E+02 0.  0.
        -12    1    1    2    0    0 -0.20421617371E+02  0.86405564161E+01  0.37308467826E+02  0.43400730901E+02  0.00000000000E+00 0.  1.
         11    1    3    3    0    0  0.34464999405E+00  0.23479095070E+01 -0.79310409495E+00  0.25020945302E+01  0.51100000000E-03 0. -1.
        -11    1    3    3    0    0 -0.81402070838E+00  0.17367830742E+01 -0.10062453085E+01  0.21660043958E+01  0.51100000000E-03 0.  1.
         12    1    3    3    0    0  0.20890988086E+02 -0.12725248997E+02 -0.35509118423E+02  0.43119170173E+02  0.00000000000E+00 0. -1.
</event>
<event>
 7    1  0.5541017E-010  0.4778727E+02  0.7816164E-02  0.1312668E+00
        -11   -1    0    0    0    0  0.00000000000E+00  0.00000000000E+00  0.45593999997E+02  0.45594000000E+02  0.51100000000E-03 0.  1.
         11   -1    0    0    0    0 -0.00000000000E+00 -0.00000000000E+00 -0.45593999997E+02  0.45594000000E+02  0.51100000000E-03 0. -1.
    9900012    2    1    2    0    0 -0.13775547385E+02 -0.14950712705E+02 -0.38344928442E+02  0.47787273585E+02  0.20000011581E+02 0.  0.
        -12    1    1    2    0    0  0.13775547385E+02  0.14950712705E+02  0.38344928442E+02  0.43400726415E+02  0.00000000000E+00 0.  1.
         11    1    3    3    0    0 -0.14623126683E+02 -0.88987051791E+01 -0.25045926187E+02  0.30336796250E+02  0.51100000000E-03 0. -1.
        -11    1    3    3    0    0 -0.28377579732E+01  0.10707227900E+01 -0.21543764486E+01  0.37203031800E+01  0.51100000000E-03 0.  1.
        -12    1    3    3    0    0  0.36853372713E+01 -0.71227303162E+01 -0.11144625806E+02  0.13730174155E+02  0.00000000000E+00 0.  1.
</event>
<event>
 7    1  0.5541017E-010  0.4778728E+02  0.7816164E-02  0.1312668E+00
        -11   -1    0    0    0    0  0.00000000000E+00  0.00000000000E+00  0.45593999997E+02  0.45594000000E+02  0.51100000000E-03 0. -1.
         11   -1    0    0    0    0 -0.00000000000E+00 -0.00000000000E+00 -0.45593999997E+02  0.45594000000E+02  0.51100000000E-03 0.  1.
    9900012    2    1    2    0    0  0.61841144419E+01 -0.42916708632E+02  0.18802217407E+01  0.47787281284E+02  0.20000046686E+02 0.  0.
        -12    1    1    2    0    0 -0.61841144419E+01  0.42916708632E+02 -0.18802217407E+01  0.43400718716E+02  0.00000000000E+00 0.  1.
         11    1    3    3    0    0 -0.24996558923E+01 -0.33962392543E+01  0.17133522398E+01  0.45517355823E+01  0.51100000000E-03 0. -1.
        -11    1    3    3    0    0  0.31861622699E+01 -0.52406829806E+01 -0.52801896149E+01  0.80930087572E+01  0.51100000000E-03 0.  1.
         12    1    3    3    0    0  0.54976080642E+01 -0.34279786397E+02  0.54470591158E+01  0.35142536945E+02  0.00000000000E+00 0. -1.
</event>
<event>
 7    1  0.5541017E-010  0.4778727E+02  0.7816164E-02  0.1312668E+00
        -11   -1    0    0    0    0  0.00000000000E+00  0.00000000000E+00  0.45593999997E+02  0.45594000000E+02  0.51100000000E-03 0. -1.
         11   -1    0    0    0    0 -0.00000000000E+00 -0.00000000000E+00 -0.45593999997E+02  0.45594000000E+02  0.51100000000E-03 0.  1.
    9900012    2    1    2    0    0  0.51550106410E+01 -0.31486752303E+00  0.43092343145E+02  0.47787270582E+02  0.19999997891E+02 0.  0.
        -12    1    1    2    0    0 -0.51550106410E+01  0.31486752303E+00 -0.43092343145E+02  0.43400729418E+02  0.00000000000E+00 0.  1.
         11    1    3    3    0    0  0.13890341216E+01  0.28535747492E+00  0.17350483376E+02  0.17408334737E+02  0.51100000000E-03 0. -1.
        -11    1    3    3    0    0  0.47631229939E+01  0.35647891042E-03  0.27696961460E+02  0.28103540972E+02  0.51100000000E-03 0.  1.
        -12    1    3    3    0    0 -0.99714647447E+00 -0.60058147685E+00 -0.19551016912E+01  0.22753948723E+01  0.00000000000E+00 0.  1.
</event>
<event>
 7    1  0.5541017E-010  0.4778727E+02  0.7816164E-02  0.1312668E+00
        -11   -1    0    0    0    0  0.00000000000E+00  0.00000000000E+00  0.45593999997E+02  0.45594000000E+02  0.51100000000E-03 0.  1.
         11   -1    0    0    0    0 -0.00000000000E+00 -0.00000000000E+00 -0.45593999997E+02  0.45594000000E+02  0.51100000000E-03 0. -1.
    9900012    2    1    2    0    0 -0.36451791759E+02  0.22929592730E+02 -0.53966474462E+01  0.47787272485E+02  0.20000006566E+02 0.  0.
        -12    1    1    2    0    0  0.36451791759E+02 -0.22929592730E+02  0.53966474462E+01  0.43400727515E+02  0.00000000000E+00 0.  1.
         11    1    3    3    0    0 -0.18948643421E+02  0.16841881476E+02 -0.34568419539E+01  0.25586125453E+02  0.51100000000E-03 0. -1.
        -11    1    3    3    0    0 -0.15364065556E+02  0.90947449468E+01  0.35123508931E+00  0.17857554771E+02  0.51100000000E-03 0.  1.
        -12    1    3    3    0    0 -0.21390827817E+01 -0.30070336927E+01 -0.22910405815E+01  0.43435922602E+01  0.00000000000E+00 0.  1.
</event>
<event>
 7    1  0.5541017E-010  0.4778726E+02  0.7816164E-02  0.1312668E+00
        -11   -1    0    0    0    0  0.00000000000E+00  0.00000000000E+00  0.45593999997E+02  0.45594000000E+02  0.51100000000E-03 0.  1.
         11   -1    0    0    0    0 -0.00000000000E+00 -0.00000000000E+00 -0.45593999997E+02  0.45594000000E+02  0.51100000000E-03 0. -1.
    9900012    2    1    2    0    0  0.19184456590E+02 -0.22894946721E+02 -0.31486536456E+02  0.47787263394E+02  0.19999965119E+02 0.  0.
        -12    1    1    2    0    0 -0.19184456590E+02  0.22894946721E+02  0.31486536456E+02  0.43400736606E+02  0.00000000000E+00 0.  1.
         11    1    3    3    0    0  0.94645573888E+01 -0.12994356740E+02 -0.29045266193E+02  0.33197268594E+02  0.51100000000E-03 0. -1.
        -11    1    3    3    0    0  0.78556002930E+00 -0.29342034779E+01 -0.22420401851E+00  0.30458040502E+01  0.51100000000E-03 0.  1.
         12    1    3    3    0    0  0.89343391715E+01 -0.69663865023E+01 -0.22170662446E+01  0.11544190750E+02  0.00000000000E+00 0. -1.
</event>
<event>
 7    1  0.5541017E-010  0.4778727E+02  0.7816164E-02  0.1312668E+00
        -11   -1    0    0    0    0  0.00000000000E+00  0.00000000000E+00  0.45593999997E+02  0.45594000000E+02  0.51100000000E-03 0. -1.
         11   -1    0    0    0    0 -0.00000000000E+00 -0.00000000000E+00 -0.45593999997E+02  0.45594000000E+02  0.51100000000E-03 0.  1.
    9900012    2    1    2    0    0  0.23732144272E+02  0.31206672252E+02  0.18615921880E+02  0.47787267146E+02  0.19999982227E+02 0.  0.
        -12    1    1    2    0    0 -0.23732144272E+02 -0.31206672252E+02 -0.18615921880E+02  0.43400732854E+02  0.00000000000E+00 0.  1.
         11    1    3    3    0    0  0.51362969565E+01  0.39423385516E+01  0.33501285522E+01  0.72901948711E+01  0.51100000000E-03 0. -1.
        -11    1    3    3    0    0  0.11339612187E+01  0.12236638503E+01 -0.35561048087E+01  0.39279896812E+01  0.51100000000E-03 0.  1.
        -12    1    3    3    0    0  0.17461886097E+02  0.26040669850E+02  0.18821898137E+02  0.36569082594E+02  0.00000000000E+00 0.  1.
</event>
<event>
 7    1  0.5541017E-010  0.4778727E+02  0.7816164E-02  0.1312668E+00
        -11   -1    0    0    0    0  0.00000000000E+00  0.00000000000E+00  0.45593999997E+02  0.45594000000E+02  0.51100000000E-03 0.  1.
         11   -1    0    0    0    0 -0.00000000000E+00 -0.00000000000E+00 -0.45593999997E+02  0.45594000000E+02  0.51100000000E-03 0. -1.
    9900012    2    1    2    0    0 -0.21845582589E+02  0.31661861338E+02 -0.20097769717E+02  0.47787270863E+02  0.19999999171E+02 0.  0.
        -12    1    1    2    0    0  0.21845582589E+02 -0.31661861338E+02  0.20097769717E+02  0.43400729137E+02  0.00000000000E+00 0.  1.
         11    1    3    3    0    0 -0.11582489348E+02  0.28275933495E+02 -0.15249382408E+02  0.34150053273E+02  0.51100000000E-03 0. -1.
        -11    1    3    3    0    0 -0.74319206177E+01  0.52640793970E+01 -0.46703826059E+01  0.10235059839E+02  0.51100000000E-03 0.  1.
         12    1    3    3    0    0 -0.28311726233E+01 -0.18781515538E+01 -0.17800470360E+00  0.34021577501E+01  0.00000000000E+00 0. -1.
</event>
<event>
 7    1  0.5541017E-010  0.4778727E+02  0.7816164E-02  0.1312668E+00
        -11   -1    0    0    0    0  0.00000000000E+00  0.00000000000E+00  0.45593999997E+02  0.45594000000E+02  0.51100000000E-03 0.  1.
         11   -1    0    0    0    0 -0.00000000000E+00 -0.00000000000E+00 -0.45593999997E+02  0.45594000000E+02  0.51100000000E-03 0. -1.
    9900012    2    1    2    0    0 -0.23431863064E+02 -0.22077500638E+02 -0.29105924081E+02  0.47787273535E+02  0.20000011356E+02 0.  0.
        -12    1    1    2    0    0  0.23431863064E+02  0.22077500638E+02  0.29105924081E+02  0.43400726465E+02  0.00000000000E+00 0.  1.
         11    1    3    3    0    0 -0.50783005533E+01 -0.11128935538E+02 -0.72859637725E+01  0.14238244662E+02  0.51100000000E-03 0. -1.
        -11    1    3    3    0    0 -0.67858507583E+01 -0.90188487702E+01 -0.35366735572E+01  0.11827741279E+02  0.51100000000E-03 0.  1.
        -12    1    3    3    0    0 -0.11567711752E+02 -0.19297163301E+01 -0.18283286752E+02  0.21721287594E+02  0.00000000000E+00 0.  1.
</event>
<event>
 7    1  0.5541017E-010  0.4778727E+02  0.7816164E-02  0.1312668E+00
        -11   -1    0    0    0    0  0.00000000000E+00  0.00000000000E+00  0.45593999997E+02  0.45594000000E+02  0.51100000000E-03 0.  1.
         11   -1    0    0    0    0 -0.00000000000E+00 -0.00000000000E+00 -0.45593999997E+02  0.45594000000E+02  0.51100000000E-03 0. -1.
    9900012    2    1    2    0    0  0.15416871747E+02 -0.63035030969E+01 -0.40077541054E+02  0.47787269790E+02  0.19999994283E+02 0.  0.
        -12    1    1    2    0    0 -0.15416871747E+02  0.63035030969E+01  0.40077541054E+02  0.43400730210E+02  0.00000000000E+00 0.  1.
         11    1    3    3    0    0  0.12757384387E+02 -0.14310486988E+01 -0.18870259718E+02  0.22822915214E+02  0.51100000000E-03 0. -1.
        -11    1    3    3    0    0  0.38078144657E+01  0.32237475642E+01 -0.83504386732E+01  0.97273750652E+01  0.51100000000E-03 0.  1.
        -12    1    3    3    0    0 -0.11483271059E+01 -0.80962019623E+01 -0.12856842663E+02  0.15236979511E+02  0.00000000000E+00 0.  1.
</event>
<event>
 7    1  0.5541017E-010  0.4778727E+02  0.7816164E-02  0.1312668E+00
        -11   -1    0    0    0    0  0.00000000000E+00  0.00000000000E+00  0.45593999997E+02  0.45594000000E+02  0.51100000000E-03 0.  1.
         11   -1    0    0    0    0 -0.00000000000E+00 -0.00000000000E+00 -0.45593999997E+02  0.45594000000E+02  0.51100000000E-03 0. -1.
    9900012    2    1    2    0    0 -0.50764685868E+01 -0.21569527596E+02 -0.37317666772E+02  0.47787270659E+02  0.19999998244E+02 0.  0.
        -12    1    1    2    0    0  0.50764685868E+01  0.21569527596E+02  0.37317666772E+02  0.43400729341E+02  0.00000000000E+00 0.  1.
         11    1    3    3    0    0  0.75209653687E+00 -0.12590447114E+02 -0.12202103415E+02  0.17549254564E+02  0.51100000000E-03 0. -1.
        -11    1    3    3    0    0  0.11757528292E+01 -0.85989146878E+01 -0.19168254132E+02  0.21041523121E+02  0.51100000000E-03 0.  1.
        -12    1    3    3    0    0 -0.70043179529E+01 -0.38016579379E+00 -0.59473092256E+01  0.91964929751E+01  0.00000000000E+00 0.  1.
</event>
<event>
 7    1  0.5541017E-010  0.4778727E+02  0.7816164E-02  0.1312668E+00
        -11   -1    0    0    0    0  0.00000000000E+00  0.00000000000E+00  0.45593999997E+02  0.45594000000E+02  0.51100000000E-03 0. -1.
         11   -1    0    0    0    0 -0.00000000000E+00 -0.00000000000E+00 -0.45593999997E+02  0.45594000000E+02  0.51100000000E-03 0.  1.
    9900012    2    1    2    0    0  0.70715331099E+01 -0.39744448549E+02 -0.15937235475E+02  0.47787271370E+02  0.20000001486E+02 0.  0.
        -12    1    1    2    0    0 -0.70715331099E+01  0.39744448549E+02  0.15937235475E+02  0.43400728630E+02  0.00000000000E+00 0.  1.
         11    1    3    3    0    0  0.36837834492E+01 -0.28655363356E+02 -0.97229457605E+01  0.30483368976E+02  0.51100000000E-03 0. -1.
        -11    1    3    3    0    0 -0.37246744548E+01 -0.31681409758E+01  0.16626003396E+00  0.48926434263E+01  0.51100000000E-03 0.  1.
        -12    1    3    3    0    0  0.71124241154E+01 -0.79209442172E+01 -0.63805497482E+01  0.12411258968E+02  0.00000000000E+00 0.  1.
</event>
<event>
 7    1  0.7272038E-010  0.4778727E+02  0.7816164E-02  0.1312668E+00
        -11   -1    0    0    0    0  0.00000000000E+00  0.00000000000E+00  0.45593999997E+02  0.45594000000E+02  0.51100000000E-03 0.  1.
         11   -1    0    0    0    0 -0.00000000000E+00 -0.00000000000E+00 -0.45593999997E+02  0.45594000000E+02  0.51100000000E-03 0. -1.
    9900012    2    1    2    0    0  0.12369215133E+02  0.41474018146E+02 -0.32452453608E+01  0.47787270955E+02  0.19999999594E+02 0.  0.
        -12    1    1    2    0    0 -0.12369215133E+02 -0.41474018146E+02  0.32452453608E+01  0.43400729045E+02  0.00000000000E+00 0.  1.
         11    1    3    3    0    0  0.12820264868E+01  0.98966106892E+01 -0.17237139486E+01  0.10127076828E+02  0.51100000000E-03 0. -1.
        -11    1    3    3    0    0  0.13559704908E+01  0.18085798387E+01  0.51626771335E+01  0.56358541900E+01  0.51100000000E-03 0.  1.
        -12    1    3    3    0    0  0.97312181551E+01  0.29768827618E+02 -0.66842085457E+01  0.32024339937E+02  0.00000000000E+00 0.  1.
</event>
<event>
 7    1  0.5541017E-010  0.4778727E+02  0.7816164E-02  0.1312668E+00
        -11   -1    0    0    0    0  0.00000000000E+00  0.00000000000E+00  0.45593999997E+02  0.45594000000E+02  0.51100000000E-03 0.  1.
         11   -1    0    0    0    0 -0.00000000000E+00 -0.00000000000E+00 -0.45593999997E+02  0.45594000000E+02  0.51100000000E-03 0. -1.
    9900012    2    1    2    0    0 -0.26782685447E+02 -0.34067228859E+02  0.23948680495E+01  0.47787265964E+02  0.19999976836E+02 0.  0.
        -12    1    1    2    0    0  0.26782685447E+02  0.34067228859E+02 -0.23948680495E+01  0.43400734036E+02  0.00000000000E+00 0.  1.
         11    1    3    3    0    0 -0.64746739536E+00 -0.28651136689E+01 -0.30835583800E+01  0.42586879327E+01  0.51100000000E-03 0. -1.
        -11    1    3    3    0    0 -0.50890341463E+01 -0.11263920778E+01 -0.27736953927E+01  0.59042708312E+01  0.51100000000E-03 0.  1.
         12    1    3    3    0    0 -0.21046183905E+02 -0.30075723113E+02  0.82521218222E+01  0.37624307200E+02  0.00000000000E+00 0. -1.
</event>
<event>
 7    1  0.5541017E-010  0.4778726E+02  0.7816164E-02  0.1312668E+00
        -11   -1    0    0    0    0  0.00000000000E+00  0.00000000000E+00  0.45593999997E+02  0.45594000000E+02  0.51100000000E-03 0.  1.
         11   -1    0    0    0    0 -0.00000000000E+00 -0.00000000000E+00 -0.45593999997E+02  0.45594000000E+02  0.51100000000E-03 0. -1.
    9900012    2    1    2    0    0 -0.14741265419E+02  0.33713755372E+02 -0.23015249455E+02  0.47787263660E+02  0.19999966329E+02 0.  0.
        -12    1    1    2    0    0  0.14741265419E+02 -0.33713755372E+02  0.23015249455E+02  0.43400736340E+02  0.00000000000E+00 0.  1.
         11    1    3    3    0    0  0.26054349258E+00  0.67322612675E+00 -0.46226281079E+00  0.85720679922E+00  0.51100000000E-03 0. -1.
        -11    1    3    3    0    0 -0.55376813870E+01  0.19685428950E+01  0.20051317961E+01  0.62098011284E+01  0.51100000000E-03 0.  1.
        -12    1    3    3    0    0 -0.94641275242E+01  0.31071986350E+02 -0.24558118441E+02  0.40720255732E+02  0.00000000000E+00 0.  1.
</event>
<event>
 7    1  0.5541017E-010  0.4778726E+02  0.7816164E-02  0.1312668E+00
        -11   -1    0    0    0    0  0.00000000000E+00  0.00000000000E+00  0.45593999997E+02  0.45594000000E+02  0.51100000000E-03 0.  1.
         11   -1    0    0    0    0 -0.00000000000E+00 -0.00000000000E+00 -0.45593999997E+02  0.45594000000E+02  0.51100000000E-03 0. -1.
    9900012    2    1    2    0    0  0.65447506321E+01  0.11496686950E+02 -0.41335415603E+02  0.47787260897E+02  0.19999953732E+02 0.  0.
        -12    1    1    2    0    0 -0.65447506321E+01 -0.11496686950E+02  0.41335415603E+02  0.43400739103E+02  0.00000000000E+00 0.  1.
         11    1    3    3    0    0  0.69356399008E+01  0.86991558969E+01 -0.38338366916E+02  0.39920029963E+02  0.51100000000E-03 0. -1.
        -11    1    3    3    0    0 -0.78153060285E-01 -0.15822088682E+01 -0.30932380218E+01  0.34752862506E+01  0.51100000000E-03 0.  1.
        -12    1    3    3    0    0 -0.31273620840E+00  0.43797399211E+01  0.96189335131E-01  0.43919446832E+01  0.00000000000E+00 0.  1.
</event>
<event>
 7    1  0.5541017E-010  0.4778728E+02  0.7816164E-02  0.1312668E+00
        -11   -1    0    0    0    0  0.00000000000E+00  0.00000000000E+00  0.45593999997E+02  0.45594000000E+02  0.51100000000E-03 0. -1.
         11   -1    0    0    0    0 -0.00000000000E+00 -0.00000000000E+00 -0.45593999997E+02  0.45594000000E+02  0.51100000000E-03 0.  1.
    9900012    2    1    2    0    0 -0.20842469617E+02 -0.34852064820E+02  0.15314953314E+02  0.47787277000E+02  0.20000027152E+02 0.  0.
        -12    1    1    2    0    0  0.20842469617E+02  0.34852064820E+02 -0.15314953314E+02  0.43400723000E+02  0.00000000000E+00 0.  1.
         11    1    3    3    0    0 -0.21589569925E+01 -0.83208654904E+01  0.75373654889E+01  0.11432837643E+02  0.51100000000E-03 0. -1.
        -11    1    3    3    0    0  0.10749377506E+01 -0.61927367302E+01 -0.16044040786E+01  0.64868784547E+01  0.51100000000E-03 0.  1.
         12    1    3    3    0    0 -0.19758450375E+02 -0.20338462599E+02  0.93819919037E+01  0.29867560902E+02  0.00000000000E+00 0. -1.
</event>
<event>
 7    1  0.5541017E-010  0.4778727E+02  0.7816164E-02  0.1312668E+00
        -11   -1    0    0    0    0  0.00000000000E+00  0.00000000000E+00  0.45593999997E+02  0.45594000000E+02  0.51100000000E-03 0. -1.
         11   -1    0    0    0    0 -0.00000000000E+00 -0.00000000000E+00 -0.45593999997E+02  0.45594000000E+02  0.51100000000E-03 0.  1.
    9900012    2    1    2    0    0  0.30189248469E+02 -0.12259786666E+02  0.28669321020E+02  0.47787273509E+02  0.20000011236E+02 0.  0.
        -12    1    1    2    0    0 -0.30189248469E+02  0.12259786666E+02 -0.28669321020E+02  0.43400726491E+02  0.00000000000E+00 0.  1.
         11    1    3    3    0    0  0.54726233248E+00  0.26926790276E+01  0.26574220733E+01  0.38225526475E+01  0.51100000000E-03 0. -1.
        -11    1    3    3    0    0  0.32556907362E+01  0.15873435840E+01  0.40036935435E+00  0.36441017693E+01  0.51100000000E-03 0.  1.
         12    1    3    3    0    0  0.26386295400E+02 -0.16539809277E+02  0.25611529593E+02  0.40320619092E+02  0.00000000000E+00 0. -1.
</event>
<event>
 7    1  0.5541017E-010  0.4778726E+02  0.7816164E-02  0.1312668E+00
        -11   -1    0    0    0    0  0.00000000000E+00  0.00000000000E+00  0.45593999997E+02  0.45594000000E+02  0.51100000000E-03 0. -1.
         11   -1    0    0    0    0 -0.00000000000E+00 -0.00000000000E+00 -0.45593999997E+02  0.45594000000E+02  0.51100000000E-03 0.  1.
    9900012    2    1    2    0    0 -0.12264823012E+02 -0.41484754843E+02  0.34947251769E+01  0.47787264154E+02  0.19999968584E+02 0.  0.
        -12    1    1    2    0    0  0.12264823012E+02  0.41484754843E+02 -0.34947251769E+01  0.43400735846E+02  0.00000000000E+00 0.  1.
         11    1    3    3    0    0 -0.82526152574E+01 -0.20668535081E+02  0.98554794432E+01  0.24339771492E+02  0.51100000000E-03 0. -1.
        -11    1    3    3    0    0  0.16017755202E+01 -0.84742240398E+00 -0.73220277281E+00  0.19544643025E+01  0.51100000000E-03 0.  1.
         12    1    3    3    0    0 -0.56139832746E+01 -0.19968797358E+02 -0.56285514935E+01  0.21493028359E+02  0.00000000000E+00 0. -1.
</event>
<event>
 7    1  0.5541017E-010  0.4778728E+02  0.7816164E-02  0.1312668E+00
        -11   -1    0    0    0    0  0.00000000000E+00  0.00000000000E+00  0.45593999997E+02  0.45594000000E+02  0.51100000000E-03 0.  1.
         11   -1    0    0    0    0 -0.00000000000E+00 -0.00000000000E+00 -0.45593999997E+02  0.45594000000E+02  0.51100000000E-03 0. -1.
    9900012    2    1    2    0    0 -0.95523633425E+01  0.27878332630E+02 -0.31861790000E+02  0.47787277221E+02  0.20000028163E+02 0.  0.
        -12    1    1    2    0    0  0.95523633425E+01 -0.27878332630E+02  0.31861790000E+02  0.43400722779E+02  0.00000000000E+00 0.  1.
         11    1    3    3    0    0 -0.21437815495E+01  0.16579758010E+02 -0.62763120037E+01  0.17857106922E+02  0.51100000000E-03 0. -1.
        -11    1    3    3    0    0  0.13697186729E+01  0.16265957484E+01 -0.17646330606E+01  0.27633083561E+01  0.51100000000E-03 0.  1.
        -12    1    3    3    0    0 -0.87783004659E+01  0.96719788720E+01 -0.23820844936E+02  0.27166861943E+02  0.00000000000E+00 0.  1.
</event>
<event>
 7    1  0.5541017E-010  0.4778727E+02  0.7816164E-02  0.1312668E+00
        -11   -1    0    0    0    0  0.00000000000E+00  0.00000000000E+00  0.45593999997E+02  0.45594000000E+02  0.51100000000E-03 0.  1.
         11   -1    0    0    0    0 -0.00000000000E+00 -0.00000000000E+00 -0.45593999997E+02  0.45594000000E+02  0.51100000000E-03 0. -1.
    9900012    2    1    2    0    0 -0.27129281170E+02 -0.23697922666E+02 -0.24208136681E+02  0.47787270547E+02  0.19999997732E+02 0.  0.
        -12    1    1    2    0    0  0.27129281170E+02  0.23697922666E+02  0.24208136681E+02  0.43400729453E+02  0.00000000000E+00 0.  1.
         11    1    3    3    0    0 -0.94453870265E+01 -0.16456569806E+02 -0.71769715779E+01  0.20286521317E+02  0.51100000000E-03 0. -1.
        -11    1    3    3    0    0 -0.77652137132E+01 -0.37971854735E+01 -0.15298971130E+01  0.87782542097E+01  0.51100000000E-03 0.  1.
         12    1    3    3    0    0 -0.99186804303E+01 -0.34441673862E+01 -0.15501267991E+02  0.18722495020E+02  0.00000000000E+00 0. -1.
</event>
<event>
 7    1  0.5541017E-010  0.4778727E+02  0.7816164E-02  0.1312668E+00
        -11   -1    0    0    0    0  0.00000000000E+00  0.00000000000E+00  0.45593999997E+02  0.45594000000E+02  0.51100000000E-03 0.  1.
         11   -1    0    0    0    0 -0.00000000000E+00 -0.00000000000E+00 -0.45593999997E+02  0.45594000000E+02  0.51100000000E-03 0. -1.
    9900012    2    1    2    0    0  0.38649963792E+02 -0.94560703575E+01  0.17331654430E+02  0.47787271746E+02  0.20000003200E+02 0.  0.
        -12    1    1    2    0    0 -0.38649963792E+02  0.94560703575E+01 -0.17331654430E+02  0.43400728254E+02  0.00000000000E+00 0.  1.
         11    1    3    3    0    0  0.57305121124E+01 -0.62298868161E-01  0.27865139324E+01  0.63723865526E+01  0.51100000000E-03 0. -1.
        -11    1    3    3    0    0  0.16465718036E+02 -0.13846366335E+02  0.10280841538E+02  0.23844023027E+02  0.51100000000E-03 0.  1.
        -12    1    3    3    0    0  0.16453733643E+02  0.44525948457E+01  0.42642989592E+01  0.17570862166E+02  0.00000000000E+00 0.  1.
</event>
<event>
 7    1  0.6321512E-010  0.4778727E+02  0.7816164E-02  0.1312668E+00
        -11   -1    0    0    0    0  0.00000000000E+00  0.00000000000E+00  0.45593999997E+02  0.45594000000E+02  0.51100000000E-03 0.  1.
         11   -1    0    0    0    0 -0.00000000000E+00 -0.00000000000E+00 -0.45593999997E+02  0.45594000000E+02  0.51100000000E-03 0. -1.
    9900012    2    1    2    0    0 -0.25969817969E+02  0.27914059940E+02 -0.20736369776E+02  0.47787271675E+02  0.20000002873E+02 0.  0.
        -12    1    1    2    0    0  0.25969817969E+02 -0.27914059940E+02  0.20736369776E+02  0.43400728325E+02  0.00000000000E+00 0.  1.
         11    1    3    3    0    0 -0.13900212320E+02  0.17478899640E+02 -0.10804923986E+02  0.24808752846E+02  0.51100000000E-03 0. -1.
        -11    1    3    3    0    0 -0.72834639583E+01  0.86839976283E+01  0.52499209133E+00  0.11346201082E+02  0.51100000000E-03 0.  1.
        -12    1    3    3    0    0 -0.47861416898E+01  0.17511626719E+01 -0.10456437882E+02  0.11632317746E+02  0.00000000000E+00 0.  1.
</event>
<event>
 7    1  0.5541017E-010  0.4778727E+02  0.7816164E-02  0.1312668E+00
        -11   -1    0    0    0    0  0.00000000000E+00  0.00000000000E+00  0.45593999997E+02  0.45594000000E+02  0.51100000000E-03 0.  1.
         11   -1    0    0    0    0 -0.00000000000E+00 -0.00000000000E+00 -0.45593999997E+02  0.45594000000E+02  0.51100000000E-03 0. -1.
    9900012    2    1    2    0    0  0.26537692005E+02  0.66765841207E+01 -0.33686760868E+02  0.47787265787E+02  0.19999976029E+02 0.  0.
        -12    1    1    2    0    0 -0.26537692005E+02 -0.66765841207E+01  0.33686760868E+02  0.43400734213E+02  0.00000000000E+00 0.  1.
         11    1    3    3    0    0  0.12260066862E+02  0.10590921823E+02 -0.13814101145E+02  0.21290990001E+02  0.51100000000E-03 0. -1.
        -11    1    3    3    0    0  0.35312049502E+00  0.13110988011E+01 -0.60211972627E+01  0.61723974991E+01  0.51100000000E-03 0.  1.
        -12    1    3    3    0    0  0.13924504648E+02 -0.52254365030E+01 -0.13851462460E+02  0.20323878287E+02  0.00000000000E+00 0.  1.
</event>
<event>
 7    1  0.5541017E-010  0.4778727E+02  0.7816164E-02  0.1312668E+00
        -11   -1    0    0    0    0  0.00000000000E+00  0.00000000000E+00  0.45593999997E+02  0.45594000000E+02  0.51100000000E-03 0. -1.
         11   -1    0    0    0    0 -0.00000000000E+00 -0.00000000000E+00 -0.45593999997E+02  0.45594000000E+02  0.51100000000E-03 0.  1.
    9900012    2    1    2    0    0 -0.17460459664E+02 -0.18662896282E+02  0.35077797943E+02  0.47787271229E+02  0.20000000843E+02 0.  0.
        -12    1    1    2    0    0  0.17460459664E+02  0.18662896282E+02 -0.35077797943E+02  0.43400728771E+02  0.00000000000E+00 0.  1.
         11    1    3    3    0    0 -0.47044924730E+01 -0.75438004299E+00  0.12864751492E+02  0.13718716044E+02  0.51100000000E-03 0. -1.
        -11    1    3    3    0    0 -0.30301138279E-01 -0.54859856104E+01  0.12846666452E+02  0.13969029868E+02  0.51100000000E-03 0.  1.
         12    1    3    3    0    0 -0.12725666052E+02 -0.12422530628E+02  0.93663799990E+01  0.20099525317E+02  0.00000000000E+00 0. -1.
</event>
<event>
 7    1  0.5541017E-010  0.4778728E+02  0.7816164E-02  0.1312668E+00
        -11   -1    0    0    0    0  0.00000000000E+00  0.00000000000E+00  0.45593999997E+02  0.45594000000E+02  0.51100000000E-03 0.  1.
         11   -1    0    0    0    0 -0.00000000000E+00 -0.00000000000E+00 -0.45593999997E+02  0.45594000000E+02  0.51100000000E-03 0. -1.
    9900012    2    1    2    0    0 -0.22915186609E+02 -0.26775431022E+02 -0.25329679546E+02  0.47787283996E+02  0.20000059050E+02 0.  0.
        -12    1    1    2    0    0  0.22915186609E+02  0.26775431022E+02  0.25329679546E+02  0.43400716004E+02  0.00000000000E+00 0.  1.
         11    1    3    3    0    0 -0.29210500357E+01 -0.19558650452E+01 -0.63933268177E+00  0.35730502271E+01  0.51100000000E-03 0. -1.
        -11    1    3    3    0    0  0.61276178175E+00 -0.23817736136E+01  0.24076646554E+01  0.34416815514E+01  0.51100000000E-03 0.  1.
        -12    1    3    3    0    0 -0.20606898355E+02 -0.22437792364E+02 -0.27098011520E+02  0.40772552217E+02  0.00000000000E+00 0.  1.
</event>
<event>
 7    1  0.5541017E-010  0.4778727E+02  0.7816164E-02  0.1312668E+00
        -11   -1    0    0    0    0  0.00000000000E+00  0.00000000000E+00  0.45593999997E+02  0.45594000000E+02  0.51100000000E-03 0.  1.
         11   -1    0    0    0    0 -0.00000000000E+00 -0.00000000000E+00 -0.45593999997E+02  0.45594000000E+02  0.51100000000E-03 0. -1.
    9900012    2    1    2    0    0 -0.30669118466E+02 -0.30689695467E+02  0.10820226118E+01  0.47787274105E+02  0.20000013952E+02 0.  0.
        -12    1    1    2    0    0  0.30669118466E+02  0.30689695467E+02 -0.10820226118E+01  0.43400725895E+02  0.00000000000E+00 0.  1.
         11    1    3    3    0    0 -0.79650568572E+01 -0.57863999403E+01 -0.43606242086E+01  0.10767525192E+02  0.51100000000E-03 0. -1.
        -11    1    3    3    0    0 -0.29837182674E+01 -0.11066697036E+02  0.59704581397E+01  0.12923649973E+02  0.51100000000E-03 0.  1.
        -12    1    3    3    0    0 -0.19720343341E+02 -0.13836598491E+02 -0.52781131922E+00  0.24096098939E+02  0.00000000000E+00 0.  1.
</event>
<event>
 7    1  0.5541017E-010  0.4778727E+02  0.7816164E-02  0.1312668E+00
        -11   -1    0    0    0    0  0.00000000000E+00  0.00000000000E+00  0.45593999997E+02  0.45594000000E+02  0.51100000000E-03 0.  1.
         11   -1    0    0    0    0 -0.00000000000E+00 -0.00000000000E+00 -0.45593999997E+02  0.45594000000E+02  0.51100000000E-03 0. -1.
    9900012    2    1    2    0    0  0.67044465613E+01  0.83280607897E-01 -0.42879680576E+02  0.47787267913E+02  0.19999985722E+02 0.  0.
        -12    1    1    2    0    0 -0.67044465613E+01 -0.83280607897E-01  0.42879680576E+02  0.43400732087E+02  0.00000000000E+00 0.  1.
         11    1    3    3    0    0  0.77537359893E+01  0.73086100116E+01 -0.27543657121E+02  0.29532850352E+02  0.51100000000E-03 0. -1.
        -11    1    3    3    0    0  0.32595070626E+00 -0.40747114550E+00  0.64254887941E+00  0.82773541719E+00  0.51100000000E-03 0.  1.
         12    1    3    3    0    0 -0.13752401343E+01 -0.68178582582E+01 -0.15978572335E+02  0.17426682143E+02  0.00000000000E+00 0. -1.
</event>
<event>
 7    1  0.5541017E-010  0.4778726E+02  0.7816164E-02  0.1312668E+00
        -11   -1    0    0    0    0  0.00000000000E+00  0.00000000000E+00  0.45593999997E+02  0.45594000000E+02  0.51100000000E-03 0. -1.
         11   -1    0    0    0    0 -0.00000000000E+00 -0.00000000000E+00 -0.45593999997E+02  0.45594000000E+02  0.51100000000E-03 0.  1.
    9900012    2    1    2    0    0  0.22999365617E+02 -0.35608122974E+02 -0.93120733461E+01  0.47787263249E+02  0.19999964458E+02 0.  0.
        -12    1    1    2    0    0 -0.22999365617E+02  0.35608122974E+02  0.93120733461E+01  0.43400736751E+02  0.00000000000E+00 0.  1.
         11    1    3    3    0    0  0.69263949195E+01 -0.22238108939E+02 -0.37997355854E+01  0.23599712425E+02  0.51100000000E-03 0. -1.
        -11    1    3    3    0    0  0.11470811588E+02 -0.14800533377E+02 -0.46110954303E+01  0.19284644360E+02  0.51100000000E-03 0.  1.
         12    1    3    3    0    0  0.46021591096E+01  0.14305193426E+01 -0.90124233037E+00  0.49029064643E+01  0.00000000000E+00 0. -1.
</event>
<event>
 7    1  0.5541017E-010  0.4778726E+02  0.7816164E-02  0.1312668E+00
        -11   -1    0    0    0    0  0.00000000000E+00  0.00000000000E+00  0.45593999997E+02  0.45594000000E+02  0.51100000000E-03 0. -1.
         11   -1    0    0    0    0 -0.00000000000E+00 -0.00000000000E+00 -0.45593999997E+02  0.45594000000E+02  0.51100000000E-03 0.  1.
    9900012    2    1    2    0    0  0.32332396497E+02 -0.10070719921E+02  0.27144452172E+02  0.47787256381E+02  0.19999933142E+02 0.  0.
        -12    1    1    2    0    0 -0.32332396497E+02  0.10070719921E+02 -0.27144452172E+02  0.43400743619E+02  0.00000000000E+00 0.  1.
         11    1    3    3    0    0  0.92675588831E+00  0.21774348122E+01 -0.84500913097E+00  0.25127951629E+01  0.51100000000E-03 0. -1.
        -11    1    3    3    0    0  0.52863941521E+01 -0.38242548900E+01  0.68370338333E+00  0.65603612075E+01  0.51100000000E-03 0.  1.
         12    1    3    3    0    0  0.26119246457E+02 -0.84238998432E+01  0.27305757920E+02  0.38714100010E+02  0.00000000000E+00 0. -1.
</event>
<event>
 7    1  0.5541017E-010  0.4778727E+02  0.7816164E-02  0.1312668E+00
        -11   -1    0    0    0    0  0.00000000000E+00  0.00000000000E+00  0.45593999997E+02  0.45594000000E+02  0.51100000000E-03 0.  1.
         11   -1    0    0    0    0 -0.00000000000E+00 -0.00000000000E+00 -0.45593999997E+02  0.45594000000E+02  0.51100000000E-03 0. -1.
    9900012    2    1    2    0    0 -0.26407612691E+02  0.57578113493E+01 -0.33957454515E+02  0.47787272855E+02  0.20000008256E+02 0.  0.
        -12    1    1    2    0    0  0.26407612691E+02 -0.57578113493E+01  0.33957454515E+02  0.43400727145E+02  0.00000000000E+00 0.  1.
         11    1    3    3    0    0 -0.25304176518E+02  0.43988033795E+01 -0.25265421764E+02  0.36027661006E+02  0.51100000000E-03 0. -1.
        -11    1    3    3    0    0 -0.22750330099E+01  0.26494239810E+01 -0.67690129497E+00  0.35571643555E+01  0.51100000000E-03 0.  1.
         12    1    3    3    0    0  0.11715968366E+01 -0.12904160112E+01 -0.80151314557E+01  0.82024474933E+01  0.00000000000E+00 0. -1.
</event>
<event>
 7    1  0.5541017E-010  0.4778727E+02  0.7816164E-02  0.1312668E+00
        -11   -1    0    0    0    0  0.00000000000E+00  0.00000000000E+00  0.45593999997E+02  0.45594000000E+02  0.51100000000E-03 0.  1.
         11   -1    0    0    0    0 -0.00000000000E+00 -0.00000000000E+00 -0.45593999997E+02  0.45594000000E+02  0.51100000000E-03 0. -1.
    9900012    2    1    2    0    0 -0.89529205376E+01  0.42031245079E+02  0.60698651202E+01  0.47787267154E+02  0.19999982261E+02 0.  0.
        -12    1    1    2    0    0  0.89529205376E+01 -0.42031245079E+02 -0.60698651202E+01  0.43400732846E+02  0.00000000000E+00 0.  1.
         11    1    3    3    0    0  0.30253569183E+00  0.14523956459E+02  0.49659544303E+01  0.15352444194E+02  0.51100000000E-03 0. -1.
        -11    1    3    3    0    0  0.29178918960E+01  0.13209351173E+02 -0.85456324516E+00  0.13554753046E+02  0.51100000000E-03 0.  1.
        -12    1    3    3    0    0 -0.12173348125E+02  0.14297937447E+02  0.19584739351E+01  0.18880069914E+02  0.00000000000E+00 0.  1.
</event>
<event>
 7    1  0.5541017E-010  0.4778727E+02  0.7816164E-02  0.1312668E+00
        -11   -1    0    0    0    0  0.00000000000E+00  0.00000000000E+00  0.45593999997E+02  0.45594000000E+02  0.51100000000E-03 0.  1.
         11   -1    0    0    0    0 -0.00000000000E+00 -0.00000000000E+00 -0.45593999997E+02  0.45594000000E+02  0.51100000000E-03 0. -1.
    9900012    2    1    2    0    0  0.42218690894E+02 -0.41298476642E+01 -0.91733176105E+01  0.47787271222E+02  0.20000000809E+02 0.  0.
        -12    1    1    2    0    0 -0.42218690894E+02  0.41298476642E+01  0.91733176105E+01  0.43400728778E+02  0.00000000000E+00 0.  1.
         11    1    3    3    0    0  0.17943415611E+02 -0.64723250145E+01 -0.25404705385E+01  0.19243470209E+02  0.51100000000E-03 0. -1.
        -11    1    3    3    0    0  0.13688351123E+02 -0.43449597494E+01  0.25624802347E-01  0.14361416663E+02  0.51100000000E-03 0.  1.
        -12    1    3    3    0    0  0.10586924160E+02  0.66874370996E+01 -0.66584718744E+01  0.14182384350E+02  0.00000000000E+00 0.  1.
</event>
<event>
 7    1  0.5541017E-010  0.4778727E+02  0.7816164E-02  0.1312668E+00
        -11   -1    0    0    0    0  0.00000000000E+00  0.00000000000E+00  0.45593999997E+02  0.45594000000E+02  0.51100000000E-03 0. -1.
         11   -1    0    0    0    0 -0.00000000000E+00 -0.00000000000E+00 -0.45593999997E+02  0.45594000000E+02  0.51100000000E-03 0.  1.
    9900012    2    1    2    0    0 -0.64369568472E+01  0.14215323223E+02  0.40498310939E+02  0.47787274007E+02  0.20000013506E+02 0.  0.
        -12    1    1    2    0    0  0.64369568472E+01 -0.14215323223E+02 -0.40498310939E+02  0.43400725993E+02  0.00000000000E+00 0.  1.
         11    1    3    3    0    0 -0.10298829611E+02  0.53685324459E+01  0.24907238345E+02  0.27481949607E+02  0.51100000000E-03 0.  1.
        -11    1    3    3    0    0 -0.22221707279E+01  0.39068763513E+01  0.90209381088E+01  0.10078643271E+02  0.51100000000E-03 0. -1.
        -12    1    3    3    0    0  0.60840434913E+01  0.49399144262E+01  0.65701344860E+01  0.10226681129E+02  0.00000000000E+00 0.  1.
</event>
<event>
 7    1  0.5541017E-010  0.4778727E+02  0.7816164E-02  0.1312668E+00
        -11   -1    0    0    0    0  0.00000000000E+00  0.00000000000E+00  0.45593999997E+02  0.45594000000E+02  0.51100000000E-03 0. -1.
         11   -1    0    0    0    0 -0.00000000000E+00 -0.00000000000E+00 -0.45593999997E+02  0.45594000000E+02  0.51100000000E-03 0.  1.
    9900012    2    1    2    0    0 -0.27618709937E+02 -0.20658661114E+02  0.26344827033E+02  0.47787270409E+02  0.19999997104E+02 0.  0.
        -12    1    1    2    0    0  0.27618709937E+02  0.20658661114E+02 -0.26344827033E+02  0.43400729591E+02  0.00000000000E+00 0.  1.
         11    1    3    3    0    0 -0.98652615793E+01 -0.67543048721E+01  0.50374601671E+01  0.12973820776E+02  0.51100000000E-03 0. -1.
        -11    1    3    3    0    0 -0.12299077011E+02 -0.14028510700E+00  0.12736818845E+02  0.17706313275E+02  0.51100000000E-03 0.  1.
        -12    1    3    3    0    0 -0.54543713466E+01 -0.13764071135E+02  0.85705480206E+01  0.17107136358E+02  0.00000000000E+00 0.  1.
</event>
<event>
 7    1  0.5541017E-010  0.4778728E+02  0.7816164E-02  0.1312668E+00
        -11   -1    0    0    0    0  0.00000000000E+00  0.00000000000E+00  0.45593999997E+02  0.45594000000E+02  0.51100000000E-03 0.  1.
         11   -1    0    0    0    0 -0.00000000000E+00 -0.00000000000E+00 -0.45593999997E+02  0.45594000000E+02  0.51100000000E-03 0. -1.
    9900012    2    1    2    0    0  0.39356223622E+02  0.12566294509E+02 -0.13296552179E+02  0.47787281166E+02  0.20000046149E+02 0.  0.
        -12    1    1    2    0    0 -0.39356223622E+02 -0.12566294509E+02  0.13296552179E+02  0.43400718834E+02  0.00000000000E+00 0.  1.
         11    1    3    3    0    0  0.27710687467E+02  0.11897876700E+02 -0.87003565187E+00  0.30169498374E+02  0.51100000000E-03 0. -1.
        -11    1    3    3    0    0  0.53325401788E+01  0.99822604850E+00 -0.28104987401E+01  0.61099380874E+01  0.51100000000E-03 0.  1.
         12    1    3    3    0    0  0.63129959767E+01 -0.32980824030E+00 -0.96160177866E+01  0.11507844705E+02  0.00000000000E+00 0. -1.
</event>
<event>
 7    1  0.5541017E-010  0.4778727E+02  0.7816164E-02  0.1312668E+00
        -11   -1    0    0    0    0  0.00000000000E+00  0.00000000000E+00  0.45593999997E+02  0.45594000000E+02  0.51100000000E-03 0.  1.
         11   -1    0    0    0    0 -0.00000000000E+00 -0.00000000000E+00 -0.45593999997E+02  0.45594000000E+02  0.51100000000E-03 0. -1.
    9900012    2    1    2    0    0  0.44330852876E+01 -0.10252358119E+02 -0.41938764745E+02  0.47787273272E+02  0.20000010156E+02 0.  0.
        -12    1    1    2    0    0 -0.44330852876E+01  0.10252358119E+02  0.41938764745E+02  0.43400726728E+02  0.00000000000E+00 0.  1.
         11    1    3    3    0    0  0.29024667075E+01 -0.70942584506E+01 -0.82994162565E+01  0.11297483189E+02  0.51100000000E-03 0. -1.
        -11    1    3    3    0    0 -0.50898234562E+01 -0.12022447784E+01 -0.58106004609E+01  0.78175938306E+01  0.51100000000E-03 0.  1.
         12    1    3    3    0    0  0.66204420364E+01 -0.19558548903E+01 -0.27828748028E+02  0.28672196252E+02  0.00000000000E+00 0. -1.
</event>
<event>
 7    1  0.5541017E-010  0.4778727E+02  0.7816164E-02  0.1312668E+00
        -11   -1    0    0    0    0  0.00000000000E+00  0.00000000000E+00  0.45593999997E+02  0.45594000000E+02  0.51100000000E-03 0. -1.
         11   -1    0    0    0    0 -0.00000000000E+00 -0.00000000000E+00 -0.45593999997E+02  0.45594000000E+02  0.51100000000E-03 0.  1.
    9900012    2    1    2    0    0 -0.88169765285E+01  0.77809931347E+01  0.41777269978E+02  0.47787271710E+02  0.20000003035E+02 0.  0.
        -12    1    1    2    0    0  0.88169765285E+01 -0.77809931347E+01 -0.41777269978E+02  0.43400728290E+02  0.00000000000E+00 0.  1.
         11    1    3    3    0    0 -0.44919901941E+01 -0.33004368386E+01  0.10681498890E+02  0.12048455421E+02  0.51100000000E-03 0. -1.
        -11    1    3    3    0    0 -0.29451657829E+00 -0.29702373450E+01  0.47778716925E+01  0.56335697450E+01  0.51100000000E-03 0.  1.
         12    1    3    3    0    0 -0.40304697561E+01  0.14051667318E+02  0.26317899396E+02  0.30105246544E+02  0.00000000000E+00 0. -1.
</event>
<event>
 7    1  0.5541017E-010  0.4778727E+02  0.7816164E-02  0.1312668E+00
        -11   -1    0    0    0    0  0.00000000000E+00  0.00000000000E+00  0.45593999997E+02  0.45594000000E+02  0.51100000000E-03 0.  1.
         11   -1    0    0    0    0 -0.00000000000E+00 -0.00000000000E+00 -0.45593999997E+02  0.45594000000E+02  0.51100000000E-03 0. -1.
    9900012    2    1    2    0    0 -0.34241810722E+02 -0.39131068735E+01 -0.26378194734E+02  0.47787272306E+02  0.20000005754E+02 0.  0.
        -12    1    1    2    0    0  0.34241810722E+02  0.39131068735E+01  0.26378194734E+02  0.43400727694E+02  0.00000000000E+00 0.  1.
         11    1    3    3    0    0 -0.24219531538E+02 -0.48821374388E+01 -0.73161467866E+01  0.25767168605E+02  0.51100000000E-03 0. -1.
        -11    1    3    3    0    0 -0.47134655730E+01  0.17678665639E+01 -0.56163714407E+01  0.75422634744E+01  0.51100000000E-03 0.  1.
         12    1    3    3    0    0 -0.53088136114E+01 -0.79883599863E+00 -0.13445676506E+02  0.14477840227E+02  0.00000000000E+00 0. -1.
</event>
<event>
 7    1  0.5650210E-010  0.4778728E+02  0.7816164E-02  0.1312668E+00
        -11   -1    0    0    0    0  0.00000000000E+00  0.00000000000E+00  0.45593999997E+02  0.45594000000E+02  0.51100000000E-03 0.  1.
         11   -1    0    0    0    0 -0.00000000000E+00 -0.00000000000E+00 -0.45593999997E+02  0.45594000000E+02  0.51100000000E-03 0. -1.
    9900012    2    1    2    0    0 -0.61848419096E+01 -0.21963646921E+02 -0.36918401726E+02  0.47787280633E+02  0.20000043720E+02 0.  0.
        -12    1    1    2    0    0  0.61848419096E+01  0.21963646921E+02  0.36918401726E+02  0.43400719367E+02  0.00000000000E+00 0.  1.
         11    1    3    3    0    0 -0.39467815972E+01 -0.16028943359E+02 -0.24599544831E+02  0.29625018419E+02  0.51100000000E-03 0. -1.
        -11    1    3    3    0    0 -0.28677082782E+01 -0.98349600825E+00 -0.12794305707E+02  0.13148584485E+02  0.51100000000E-03 0.  1.
        -12    1    3    3    0    0  0.62964796581E+00 -0.49512075532E+01  0.47544881228E+00  0.50136777288E+01  0.00000000000E+00 0.  1.
</event>
<event>
 7    1  0.5541017E-010  0.4778727E+02  0.7816164E-02  0.1312668E+00
        -11   -1    0    0    0    0  0.00000000000E+00  0.00000000000E+00  0.45593999997E+02  0.45594000000E+02  0.51100000000E-03 0. -1.
         11   -1    0    0    0    0 -0.00000000000E+00 -0.00000000000E+00 -0.45593999997E+02  0.45594000000E+02  0.51100000000E-03 0.  1.
    9900012    2    1    2    0    0 -0.82738023049E+01  0.98099979195E+01  0.41459998611E+02  0.47787270184E+02  0.19999996075E+02 0.  0.
        -12    1    1    2    0    0  0.82738023049E+01 -0.98099979195E+01 -0.41459998611E+02  0.43400729816E+02  0.00000000000E+00 0.  1.
         11    1    3    3    0    0  0.39151479770E+01  0.34762978108E+01  0.91976570009E+01  0.10583474133E+02  0.51100000000E-03 0. -1.
        -11    1    3    3    0    0 -0.46281277023E+00 -0.11945549612E+01 -0.66924400377E+00  0.14453529027E+01  0.51100000000E-03 0.  1.
         12    1    3    3    0    0 -0.11726137512E+02  0.75282550699E+01  0.32931585614E+02  0.35758443148E+02  0.00000000000E+00 0. -1.
</event>
<event>
 7    1  0.5541017E-010  0.4778727E+02  0.7816164E-02  0.1312668E+00
        -11   -1    0    0    0    0  0.00000000000E+00  0.00000000000E+00  0.45593999997E+02  0.45594000000E+02  0.51100000000E-03 0.  1.
         11   -1    0    0    0    0 -0.00000000000E+00 -0.00000000000E+00 -0.45593999997E+02  0.45594000000E+02  0.51100000000E-03 0. -1.
    9900012    2    1    2    0    0  0.36499539927E+02  0.92337651673E+01 -0.21590376023E+02  0.47787272231E+02  0.20000005410E+02 0.  0.
        -12    1    1    2    0    0 -0.36499539927E+02 -0.92337651673E+01  0.21590376023E+02  0.43400727769E+02  0.00000000000E+00 0.  1.
         11    1    3    3    0    0  0.31516428596E+02  0.48810521261E+01 -0.12551558117E+02  0.34273189999E+02  0.51100000000E-03 0. -1.
        -11    1    3    3    0    0  0.38353173217E+01 -0.14536901173E+01 -0.41825011026E+01  0.58580021892E+01  0.51100000000E-03 0.  1.
        -12    1    3    3    0    0  0.11477940100E+01  0.58064031585E+01 -0.48563168029E+01  0.76560800426E+01  0.00000000000E+00 0.  1.
</event>
<event>
 7    1  0.5541017E-010  0.4778727E+02  0.7816164E-02  0.1312668E+00
        -11   -1    0    0    0    0  0.00000000000E+00  0.00000000000E+00  0.45593999997E+02  0.45594000000E+02  0.51100000000E-03 0.  1.
         11   -1    0    0    0    0 -0.00000000000E+00 -0.00000000000E+00 -0.45593999997E+02  0.45594000000E+02  0.51100000000E-03 0. -1.
    9900012    2    1    2    0    0  0.26458542424E+02 -0.20540482602E+02 -0.27598138650E+02  0.47787272475E+02  0.20000006523E+02 0.  0.
        -12    1    1    2    0    0 -0.26458542424E+02  0.20540482602E+02  0.27598138650E+02  0.43400727525E+02  0.00000000000E+00 0.  1.
         11    1    3    3    0    0  0.34863917446E+01 -0.83572647142E+01 -0.78115904941E+01  0.11959086387E+02  0.51100000000E-03 0. -1.
        -11    1    3    3    0    0  0.62938973111E+01 -0.38644750658E+01  0.14989311204E+01  0.75361864137E+01  0.51100000000E-03 0.  1.
         12    1    3    3    0    0  0.16678253368E+02 -0.83187428216E+01 -0.21285479277E+02  0.28291999675E+02  0.00000000000E+00 0. -1.
</event>
<event>
 7    1  0.5541017E-010  0.4778727E+02  0.7816164E-02  0.1312668E+00
        -11   -1    0    0    0    0  0.00000000000E+00  0.00000000000E+00  0.45593999997E+02  0.45594000000E+02  0.51100000000E-03 0. -1.
         11   -1    0    0    0    0 -0.00000000000E+00 -0.00000000000E+00 -0.45593999997E+02  0.45594000000E+02  0.51100000000E-03 0.  1.
    9900012    2    1    2    0    0 -0.39797181773E+02  0.62462223669E+01  0.16149064284E+02  0.47787271340E+02  0.20000001348E+02 0.  0.
        -12    1    1    2    0    0  0.39797181773E+02 -0.62462223669E+01 -0.16149064284E+02  0.43400728660E+02  0.00000000000E+00 0.  1.
         11    1    3    3    0    0 -0.14038805972E+02 -0.27803176603E+01  0.67458160323E+01  0.15821639410E+02  0.51100000000E-03 0. -1.
        -11    1    3    3    0    0 -0.26256440629E+02  0.81246009171E+01  0.11371309882E+02  0.29744184360E+02  0.51100000000E-03 0.  1.
         12    1    3    3    0    0  0.49806482707E+00  0.90193911014E+00 -0.19680616297E+01  0.22214475706E+01  0.00000000000E+00 0. -1.
</event>
<event>
 7    1  0.5541017E-010  0.4778728E+02  0.7816164E-02  0.1312668E+00
        -11   -1    0    0    0    0  0.00000000000E+00  0.00000000000E+00  0.45593999997E+02  0.45594000000E+02  0.51100000000E-03 0.  1.
         11   -1    0    0    0    0 -0.00000000000E+00 -0.00000000000E+00 -0.45593999997E+02  0.45594000000E+02  0.51100000000E-03 0. -1.
    9900012    2    1    2    0    0  0.10742185182E+02  0.58290000202E+01 -0.41644337634E+02  0.47787278339E+02  0.20000033261E+02 0.  0.
        -12    1    1    2    0    0 -0.10742185182E+02 -0.58290000202E+01  0.41644337634E+02  0.43400721661E+02  0.00000000000E+00 0.  1.
         11    1    3    3    0    0  0.35442598993E+01  0.40578045631E+01 -0.25627671718E+02  0.26187881053E+02  0.51100000000E-03 0.  1.
        -11    1    3    3    0    0  0.39065960133E+01  0.60678905475E+01 -0.14132345904E+02  0.15868332903E+02  0.51100000000E-03 0. -1.
        -12    1    3    3    0    0  0.32913292696E+01 -0.42966950903E+01 -0.18843200115E+01  0.57310643833E+01  0.00000000000E+00 0.  1.
</event>
<event>
 7    1  0.5541017E-010  0.4778727E+02  0.7816164E-02  0.1312668E+00
        -11   -1    0    0    0    0  0.00000000000E+00  0.00000000000E+00  0.45593999997E+02  0.45594000000E+02  0.51100000000E-03 0.  1.
         11   -1    0    0    0    0 -0.00000000000E+00 -0.00000000000E+00 -0.45593999997E+02  0.45594000000E+02  0.51100000000E-03 0. -1.
    9900012    2    1    2    0    0 -0.65270058518E+01  0.32221357842E+02 -0.28333818746E+02  0.47787274299E+02  0.20000014840E+02 0.  0.
        -12    1    1    2    0    0  0.65270058518E+01 -0.32221357842E+02  0.28333818746E+02  0.43400725701E+02  0.00000000000E+00 0.  1.
         11    1    3    3    0    0 -0.56505837266E+01  0.11447197754E+02 -0.15955511580E+02  0.20433937039E+02  0.51100000000E-03 0. -1.
        -11    1    3    3    0    0  0.13850376260E+01  0.25097354460E+01 -0.79119592313E+01  0.84152362043E+01  0.51100000000E-03 0.  1.
         12    1    3    3    0    0 -0.22614597512E+01  0.18264424643E+02 -0.44663479347E+01  0.18938101056E+02  0.00000000000E+00 0. -1.
</event>
<event>
 7    1  0.5541017E-010  0.4778727E+02  0.7816164E-02  0.1312668E+00
        -11   -1    0    0    0    0  0.00000000000E+00  0.00000000000E+00  0.45593999997E+02  0.45594000000E+02  0.51100000000E-03 0.  1.
         11   -1    0    0    0    0 -0.00000000000E+00 -0.00000000000E+00 -0.45593999997E+02  0.45594000000E+02  0.51100000000E-03 0. -1.
    9900012    2    1    2    0    0  0.37475098637E+02 -0.17893268944E+02 -0.12612335703E+02  0.47787273011E+02  0.20000008965E+02 0.  0.
        -12    1    1    2    0    0 -0.37475098637E+02  0.17893268944E+02  0.12612335703E+02  0.43400726989E+02  0.00000000000E+00 0.  1.
         11    1    3    3    0    0  0.12018964260E+02 -0.70038070480E+01 -0.13530377879E+00  0.13911402605E+02  0.51100000000E-03 0. -1.
        -11    1    3    3    0    0  0.28239787865E+01 -0.79661777173E+01 -0.16246893174E+01  0.86066520349E+01  0.51100000000E-03 0.  1.
         12    1    3    3    0    0  0.22632155590E+02 -0.29232841785E+01 -0.10852342607E+02  0.25269218371E+02  0.00000000000E+00 0. -1.
</event>
<event>
 7    1  0.5541017E-010  0.4778727E+02  0.7816164E-02  0.1312668E+00
        -11   -1    0    0    0    0  0.00000000000E+00  0.00000000000E+00  0.45593999997E+02  0.45594000000E+02  0.51100000000E-03 0.  1.
         11   -1    0    0    0    0 -0.00000000000E+00 -0.00000000000E+00 -0.45593999997E+02  0.45594000000E+02  0.51100000000E-03 0. -1.
    9900012    2    1    2    0    0 -0.47068451001E+01 -0.29423688882E+02 -0.31554962353E+02  0.47787268355E+02  0.19999987736E+02 0.  0.
        -12    1    1    2    0    0  0.47068451001E+01  0.29423688882E+02  0.31554962353E+02  0.43400731645E+02  0.00000000000E+00 0.  1.
         11    1    3    3    0    0 -0.33005067623E+01 -0.17606721326E+02 -0.75246657873E+01  0.19429631397E+02  0.51100000000E-03 0. -1.
        -11    1    3    3    0    0 -0.33253451002E+01 -0.21567742255E+01 -0.25120692363E+01  0.46925565745E+01  0.51100000000E-03 0.  1.
        -12    1    3    3    0    0  0.19190067625E+01 -0.96601933309E+01 -0.21518227330E+02  0.23665080384E+02  0.00000000000E+00 0.  1.
</event>
<event>
 7    1  0.5541017E-010  0.4778727E+02  0.7816164E-02  0.1312668E+00
        -11   -1    0    0    0    0  0.00000000000E+00  0.00000000000E+00  0.45593999997E+02  0.45594000000E+02  0.51100000000E-03 0.  1.
         11   -1    0    0    0    0 -0.00000000000E+00 -0.00000000000E+00 -0.45593999997E+02  0.45594000000E+02  0.51100000000E-03 0. -1.
    9900012    2    1    2    0    0 -0.75660259876E+01 -0.10031735414E+02 -0.41542064460E+02  0.47787267468E+02  0.19999983694E+02 0.  0.
        -12    1    1    2    0    0  0.75660259876E+01  0.10031735414E+02  0.41542064460E+02  0.43400732532E+02  0.00000000000E+00 0.  1.
         11    1    3    3    0    0 -0.72673946528E+01 -0.70649881457E+01 -0.29327754660E+02  0.31029764360E+02  0.51100000000E-03 0. -1.
        -11    1    3    3    0    0 -0.27146141863E+00 -0.14857240262E+01  0.19776740220E+01  0.24884256031E+01  0.51100000000E-03 0.  1.
        -12    1    3    3    0    0 -0.27169916173E-01 -0.14810232419E+01 -0.14191983822E+02  0.14269077506E+02  0.00000000000E+00 0.  1.
</event>
<event>
 7    1  0.5541017E-010  0.4778727E+02  0.7816164E-02  0.1312668E+00
        -11   -1    0    0    0    0  0.00000000000E+00  0.00000000000E+00  0.45593999997E+02  0.45594000000E+02  0.51100000000E-03 0. -1.
         11   -1    0    0    0    0 -0.00000000000E+00 -0.00000000000E+00 -0.45593999997E+02  0.45594000000E+02  0.51100000000E-03 0.  1.
    9900012    2    1    2    0    0 -0.34251940700E+02  0.24160069329E+02  0.11256960799E+02  0.47787267770E+02  0.19999985070E+02 0.  0.
        -12    1    1    2    0    0  0.34251940700E+02 -0.24160069329E+02 -0.11256960799E+02  0.43400732230E+02  0.00000000000E+00 0.  1.
         11    1    3    3    0    0 -0.75579850192E+01  0.10174218719E+02  0.77652818902E+01  0.14863965392E+02  0.51100000000E-03 0. -1.
        -11    1    3    3    0    0 -0.88519013921E+01  0.10588827082E+02 -0.20070817238E+01  0.13946605126E+02  0.51100000000E-03 0.  1.
         12    1    3    3    0    0 -0.17842054288E+02  0.33970235283E+01  0.54987606325E+01  0.18976697251E+02  0.00000000000E+00 0. -1.
</event>
<event>
 7    1  0.5541017E-010  0.4778727E+02  0.7816164E-02  0.1312668E+00
        -11   -1    0    0    0    0  0.00000000000E+00  0.00000000000E+00  0.45593999997E+02  0.45594000000E+02  0.51100000000E-03 0. -1.
         11   -1    0    0    0    0 -0.00000000000E+00 -0.00000000000E+00 -0.45593999997E+02  0.45594000000E+02  0.51100000000E-03 0.  1.
    9900012    2    1    2    0    0  0.36598347239E+02 -0.23311576213E+02  0.86866722177E+00  0.47787272023E+02  0.20000004463E+02 0.  0.
        -12    1    1    2    0    0 -0.36598347239E+02  0.23311576213E+02 -0.86866722177E+00  0.43400727977E+02  0.00000000000E+00 0.  1.
         11    1    3    3    0    0  0.83017898145E+01 -0.44836300185E+01 -0.45588151960E+01  0.10478809499E+02  0.51100000000E-03 0. -1.
        -11    1    3    3    0    0  0.23052979801E+02 -0.12860697369E+02 -0.19469690598E+01  0.26469380486E+02  0.51100000000E-03 0.  1.
        -12    1    3    3    0    0  0.52435776241E+01 -0.59672488251E+01  0.73744514776E+01  0.10839082038E+02  0.00000000000E+00 0.  1.
</event>
<event>
 7    1  0.5541017E-010  0.4778726E+02  0.7816164E-02  0.1312668E+00
        -11   -1    0    0    0    0  0.00000000000E+00  0.00000000000E+00  0.45593999997E+02  0.45594000000E+02  0.51100000000E-03 0. -1.
         11   -1    0    0    0    0 -0.00000000000E+00 -0.00000000000E+00 -0.45593999997E+02  0.45594000000E+02  0.51100000000E-03 0.  1.
    9900012    2    1    2    0    0 -0.31528513103E+02  0.29716620637E+02 -0.25493823584E+01  0.47787262322E+02  0.19999960230E+02 0.  0.
        -12    1    1    2    0    0  0.31528513103E+02 -0.29716620637E+02  0.25493823584E+01  0.43400737678E+02  0.00000000000E+00 0.  1.
         11    1    3    3    0    0 -0.12918797495E+02  0.92677216835E+01 -0.43400335721E+01  0.16480955239E+02  0.51100000000E-03 0. -1.
        -11    1    3    3    0    0 -0.32196905157E+01 -0.85892715634E+00 -0.31223835910E+01  0.45665569554E+01  0.51100000000E-03 0.  1.
         12    1    3    3    0    0 -0.15390025092E+02  0.21307826110E+02  0.49130348047E+01  0.26739750127E+02  0.00000000000E+00 0. -1.
</event>
<event>
 7    1  0.5541017E-010  0.4778727E+02  0.7816164E-02  0.1312668E+00
        -11   -1    0    0    0    0  0.00000000000E+00  0.00000000000E+00  0.45593999997E+02  0.45594000000E+02  0.51100000000E-03 0.  1.
         11   -1    0    0    0    0 -0.00000000000E+00 -0.00000000000E+00 -0.45593999997E+02  0.45594000000E+02  0.51100000000E-03 0. -1.
    9900012    2    1    2    0    0 -0.41283822280E+02  0.12218667805E+02 -0.54747849034E+01  0.47787273109E+02  0.20000009412E+02 0.  0.
        -12    1    1    2    0    0  0.41283822280E+02 -0.12218667805E+02  0.54747849034E+01  0.43400726891E+02  0.00000000000E+00 0.  1.
         11    1    3    3    0    0 -0.17091493389E+02  0.42651062764E+00 -0.58305142013E+01  0.18063663905E+02  0.51100000000E-03 0. -1.
        -11    1    3    3    0    0 -0.12901434491E+02  0.12874975816E+02  0.16796285275E+01  0.18303911234E+02  0.51100000000E-03 0.  1.
        -12    1    3    3    0    0 -0.11290894400E+02 -0.10828186388E+01 -0.13238992296E+01  0.11419697970E+02  0.00000000000E+00 0.  1.
</event>
<event>
 7    1  0.5541017E-010  0.4778727E+02  0.7816164E-02  0.1312668E+00
        -11   -1    0    0    0    0  0.00000000000E+00  0.00000000000E+00  0.45593999997E+02  0.45594000000E+02  0.51100000000E-03 0.  1.
         11   -1    0    0    0    0 -0.00000000000E+00 -0.00000000000E+00 -0.45593999997E+02  0.45594000000E+02  0.51100000000E-03 0. -1.
    9900012    2    1    2    0    0  0.33430263343E+02 -0.27666131360E+02  0.79113254264E+00  0.47787271638E+02  0.20000002706E+02 0.  0.
        -12    1    1    2    0    0 -0.33430263343E+02  0.27666131360E+02 -0.79113254264E+00  0.43400728362E+02  0.00000000000E+00 0.  1.
         11    1    3    3    0    0  0.11956260807E+02 -0.57764090103E+01 -0.35714362046E+01  0.13750426552E+02  0.51100000000E-03 0. -1.
        -11    1    3    3    0    0  0.77199006224E+01  0.21129271331E+00  0.84320759548E+00  0.77686877618E+01  0.51100000000E-03 0.  1.
         12    1    3    3    0    0  0.13754101914E+02 -0.22101015063E+02  0.35193611517E+01  0.26268157324E+02  0.00000000000E+00 0. -1.
</event>
<event>
 7    1  0.5541017E-010  0.4778727E+02  0.7816164E-02  0.1312668E+00
        -11   -1    0    0    0    0  0.00000000000E+00  0.00000000000E+00  0.45593999997E+02  0.45594000000E+02  0.51100000000E-03 0.  1.
         11   -1    0    0    0    0 -0.00000000000E+00 -0.00000000000E+00 -0.45593999997E+02  0.45594000000E+02  0.51100000000E-03 0. -1.
    9900012    2    1    2    0    0 -0.19800193991E+02 -0.19322050467E+02 -0.33440003038E+02  0.47787272823E+02  0.20000008109E+02 0.  0.
        -12    1    1    2    0    0  0.19800193991E+02  0.19322050467E+02  0.33440003038E+02  0.43400727177E+02  0.00000000000E+00 0.  1.
         11    1    3    3    0    0 -0.32941100010E+00  0.68679998838E+00 -0.36925865607E+01  0.37703317627E+01  0.51100000000E-03 0. -1.
        -11    1    3    3    0    0 -0.42244562236E+01 -0.11345418075E+02 -0.37794796011E+01  0.12682626227E+02  0.51100000000E-03 0.  1.
        -12    1    3    3    0    0 -0.15246326767E+02 -0.86634323801E+01 -0.25967936876E+02  0.31334314833E+02  0.00000000000E+00 0.  1.
</event>
<event>
 7    1  0.5541017E-010  0.4778726E+02  0.7816164E-02  0.1312668E+00
        -11   -1    0    0    0    0  0.00000000000E+00  0.00000000000E+00  0.45593999997E+02  0.45594000000E+02  0.51100000000E-03 0. -1.
         11   -1    0    0    0    0 -0.00000000000E+00 -0.00000000000E+00 -0.45593999997E+02  0.45594000000E+02  0.51100000000E-03 0.  1.
    9900012    2    1    2    0    0 -0.35179789190E+02 -0.21939354561E+02 -0.12832431341E+02  0.47787261065E+02  0.19999954501E+02 0.  0.
        -12    1    1    2    0    0  0.35179789190E+02  0.21939354561E+02  0.12832431341E+02  0.43400738935E+02  0.00000000000E+00 0.  1.
         11    1    3    3    0    0 -0.42609751458E+01 -0.10054887974E+02 -0.35800106870E+01  0.11492308652E+02  0.51100000000E-03 0. -1.
        -11    1    3    3    0    0 -0.50862521479E+00  0.24618544843E+00 -0.28866805042E+01  0.29414675723E+01  0.51100000000E-03 0.  1.
         12    1    3    3    0    0 -0.30410188829E+02 -0.12130652035E+02 -0.63657401493E+01  0.33353484841E+02  0.00000000000E+00 0. -1.
</event>
<event>
 7    1  0.5541017E-010  0.4778727E+02  0.7816164E-02  0.1312668E+00
        -11   -1    0    0    0    0  0.00000000000E+00  0.00000000000E+00  0.45593999997E+02  0.45594000000E+02  0.51100000000E-03 0.  1.
         11   -1    0    0    0    0 -0.00000000000E+00 -0.00000000000E+00 -0.45593999997E+02  0.45594000000E+02  0.51100000000E-03 0. -1.
    9900012    2    1    2    0    0  0.25428367007E+02  0.79428240862E+01 -0.34262709467E+02  0.47787267712E+02  0.19999984807E+02 0.  0.
        -12    1    1    2    0    0 -0.25428367007E+02 -0.79428240862E+01  0.34262709467E+02  0.43400732288E+02  0.00000000000E+00 0.  1.
         11    1    3    3    0    0  0.68867675444E+01  0.43853747478E+01 -0.11672347590E+02  0.14244394596E+02  0.51100000000E-03 0. -1.
        -11    1    3    3    0    0  0.40927778008E+01 -0.26924692834E+01 -0.15539407421E+02  0.16293354603E+02  0.51100000000E-03 0.  1.
        -12    1    3    3    0    0  0.14448821662E+02  0.62499186218E+01 -0.70509544566E+01  0.17249518513E+02  0.00000000000E+00 0.  1.
</event>
<event>
 7    1 -0.5541017E-010  0.4778725E+02  0.7816164E-02  0.1312668E+00
        -11   -1    0    0    0    0  0.00000000000E+00  0.00000000000E+00  0.45593999997E+02  0.45594000000E+02  0.51100000000E-03 0.  1.
         11   -1    0    0    0    0 -0.00000000000E+00 -0.00000000000E+00 -0.45593999997E+02  0.45594000000E+02  0.51100000000E-03 0. -1.
    9900012    2    1    2    0    0  0.17208674633E+02 -0.19595840011E+02 -0.34691346597E+02  0.47787251653E+02  0.19999911587E+02 0.  0.
        -12    1    1    2    0    0 -0.17208674633E+02  0.19595840011E+02  0.34691346597E+02  0.43400748347E+02  0.00000000000E+00 0.  1.
         11    1    3    3    0    0  0.11409272009E+02 -0.14160149906E+02 -0.10470263051E+02  0.20983511187E+02  0.51100000000E-03 0. -1.
        -11    1    3    3    0    0  0.66486924775E+01 -0.21122160225E+01 -0.10120511638E+02  0.12291921097E+02  0.51100000000E-03 0.  1.
         12    1    3    3    0    0 -0.84928985398E+00 -0.33234740825E+01 -0.14100571909E+02  0.14511819369E+02  0.00000000000E+00 0. -1.
</event>
<event>
 7    1  0.5541017E-010  0.4778727E+02  0.7816164E-02  0.1312668E+00
        -11   -1    0    0    0    0  0.00000000000E+00  0.00000000000E+00  0.45593999997E+02  0.45594000000E+02  0.51100000000E-03 0. -1.
         11   -1    0    0    0    0 -0.00000000000E+00 -0.00000000000E+00 -0.45593999997E+02  0.45594000000E+02  0.51100000000E-03 0.  1.
    9900012    2    1    2    0    0  0.16624351895E+02  0.28631447959E+01  0.39988208746E+02  0.47787268292E+02  0.19999987450E+02 0.  0.
        -12    1    1    2    0    0 -0.16624351895E+02 -0.28631447959E+01 -0.39988208746E+02  0.43400731708E+02  0.00000000000E+00 0.  1.
         11    1    3    3    0    0  0.56124830652E+01  0.76470363860E+01  0.98020786991E+01  0.13640303469E+02  0.51100000000E-03 0. -1.
        -11    1    3    3    0    0  0.27797527274E+01 -0.17542283778E+01  0.66952697650E+00  0.33544908795E+01  0.51100000000E-03 0.  1.
         12    1    3    3    0    0  0.82321161028E+01 -0.30296632123E+01  0.29516603071E+02  0.30792473943E+02  0.00000000000E+00 0. -1.
</event>
<event>
 7    1  0.5541017E-010  0.4778728E+02  0.7816164E-02  0.1312668E+00
        -11   -1    0    0    0    0  0.00000000000E+00  0.00000000000E+00  0.45593999997E+02  0.45594000000E+02  0.51100000000E-03 0.  1.
         11   -1    0    0    0    0 -0.00000000000E+00 -0.00000000000E+00 -0.45593999997E+02  0.45594000000E+02  0.51100000000E-03 0. -1.
    9900012    2    1    2    0    0  0.35780263587E+02  0.22827155468E+02  0.90728135487E+01  0.47787283014E+02  0.20000054576E+02 0.  0.
        -12    1    1    2    0    0 -0.35780263587E+02 -0.22827155468E+02 -0.90728135487E+01  0.43400716986E+02  0.00000000000E+00 0.  1.
         11    1    3    3    0    0  0.10699040701E+02  0.10784321041E+02  0.17009173342E+01  0.15286077727E+02  0.51100000000E-03 0. -1.
        -11    1    3    3    0    0  0.17524938824E+02  0.13129320367E+02  0.10458399869E+02  0.24266863460E+02  0.51100000000E-03 0.  1.
         12    1    3    3    0    0  0.75562840618E+01 -0.10864859395E+01 -0.30865036548E+01  0.82343418274E+01  0.00000000000E+00 0. -1.
</event>
<event>
 7    1  0.5541017E-010  0.4778727E+02  0.7816164E-02  0.1312668E+00
        -11   -1    0    0    0    0  0.00000000000E+00  0.00000000000E+00  0.45593999997E+02  0.45594000000E+02  0.51100000000E-03 0.  1.
         11   -1    0    0    0    0 -0.00000000000E+00 -0.00000000000E+00 -0.45593999997E+02  0.45594000000E+02  0.51100000000E-03 0. -1.
    9900012    2    1    2    0    0  0.25835658681E+02 -0.13875510926E+02 -0.31993939818E+02  0.47787271343E+02  0.20000001359E+02 0.  0.
        -12    1    1    2    0    0 -0.25835658681E+02  0.13875510926E+02  0.31993939818E+02  0.43400728657E+02  0.00000000000E+00 0.  1.
         11    1    3    3    0    0  0.25352637547E+02 -0.14447687295E+02 -0.28896348506E+02  0.41066907067E+02  0.51100000000E-03 0. -1.
        -11    1    3    3    0    0  0.25658152025E+00  0.10132245329E+00 -0.48673154372E+01  0.48751266796E+01  0.51100000000E-03 0.  1.
         12    1    3    3    0    0  0.22643961311E+00  0.47085391533E+00  0.17697241253E+01  0.18452375965E+01  0.00000000000E+00 0. -1.
</event>
<event>
 7    1  0.5541017E-010  0.4778727E+02  0.7816164E-02  0.1312668E+00
        -11   -1    0    0    0    0  0.00000000000E+00  0.00000000000E+00  0.45593999997E+02  0.45594000000E+02  0.51100000000E-03 0.  1.
         11   -1    0    0    0    0 -0.00000000000E+00 -0.00000000000E+00 -0.45593999997E+02  0.45594000000E+02  0.51100000000E-03 0. -1.
    9900012    2    1    2    0    0 -0.32495195353E+02  0.26448330370E+02  0.11321288834E+02  0.47787268655E+02  0.19999989107E+02 0.  0.
        -12    1    1    2    0    0  0.32495195353E+02 -0.26448330370E+02 -0.11321288834E+02  0.43400731345E+02  0.00000000000E+00 0.  1.
         11    1    3    3    0    0 -0.13549406970E+02  0.13118583062E+02  0.89641061779E+01  0.20881543301E+02  0.51100000000E-03 0. -1.
        -11    1    3    3    0    0 -0.73406044749E+01 -0.83949140667E+00  0.41987260588E+01  0.84981480722E+01  0.51100000000E-03 0.  1.
         12    1    3    3    0    0 -0.11605183908E+02  0.14169238715E+02 -0.18415434030E+01  0.18407577282E+02  0.00000000000E+00 0. -1.
</event>
<event>
 7    1  0.5541017E-010  0.4778727E+02  0.7816164E-02  0.1312668E+00
        -11   -1    0    0    0    0  0.00000000000E+00  0.00000000000E+00  0.45593999997E+02  0.45594000000E+02  0.51100000000E-03 0.  1.
         11   -1    0    0    0    0 -0.00000000000E+00 -0.00000000000E+00 -0.45593999997E+02  0.45594000000E+02  0.51100000000E-03 0. -1.
    9900012    2    1    2    0    0  0.33238472961E+02 -0.17466134272E+02 -0.21766062744E+02  0.47787269377E+02  0.19999992399E+02 0.  0.
        -12    1    1    2    0    0 -0.33238472961E+02  0.17466134272E+02  0.21766062744E+02  0.43400730623E+02  0.00000000000E+00 0.  1.
         11    1    3    3    0    0  0.16854267635E+02 -0.53568087823E+01 -0.11025665136E+02  0.20840514144E+02  0.51100000000E-03 0. -1.
        -11    1    3    3    0    0  0.73837342215E+01 -0.79234351649E+01 -0.12843189262E+02  0.16800234122E+02  0.51100000000E-03 0.  1.
        -12    1    3    3    0    0  0.90004711048E+01 -0.41858903250E+01  0.21027916544E+01  0.10146521111E+02  0.00000000000E+00 0.  1.
</event>
<event>
 7    1  0.5541017E-010  0.4778731E+02  0.7816164E-02  0.1312668E+00
        -11   -1    0    0    0    0  0.00000000000E+00  0.00000000000E+00  0.45593999997E+02  0.45594000000E+02  0.51100000000E-03 0. -1.
         11   -1    0    0    0    0 -0.00000000000E+00 -0.00000000000E+00 -0.45593999997E+02  0.45594000000E+02  0.51100000000E-03 0.  1.
    9900012    2    1    2    0    0  0.37157217789E+02  0.78393128589E+00  0.22413091284E+02  0.47787308266E+02  0.20000169709E+02 0.  0.
        -12    1    1    2    0    0 -0.37157217789E+02 -0.78393128589E+00 -0.22413091284E+02  0.43400691734E+02  0.00000000000E+00 0.  1.
         11    1    3    3    0    0  0.17321586596E+02  0.50759475510E+01  0.19568983224E+02  0.26622316023E+02  0.51100000000E-03 0.  1.
        -11    1    3    3    0    0  0.71874207599E+01  0.15300398296E+00 -0.90071155940E+00  0.72452542379E+01  0.51100000000E-03 0. -1.
        -12    1    3    3    0    0  0.12648210433E+02 -0.44450202480E+01  0.37448196188E+01  0.13919738005E+02  0.00000000000E+00 0.  1.
</event>
<event>
 7    1  0.5541017E-010  0.4778727E+02  0.7816164E-02  0.1312668E+00
        -11   -1    0    0    0    0  0.00000000000E+00  0.00000000000E+00  0.45593999997E+02  0.45594000000E+02  0.51100000000E-03 0. -1.
         11   -1    0    0    0    0 -0.00000000000E+00 -0.00000000000E+00 -0.45593999997E+02  0.45594000000E+02  0.51100000000E-03 0.  1.
    9900012    2    1    2    0    0 -0.43060495416E+02 -0.46836922348E+01  0.27349931322E+01  0.47787269294E+02  0.19999992019E+02 0.  0.
        -12    1    1    2    0    0  0.43060495416E+02  0.46836922348E+01 -0.27349931322E+01  0.43400730706E+02  0.00000000000E+00 0.  1.
         11    1    3    3    0    0 -0.12412296136E+02 -0.44738029339E+01  0.83730595964E+01  0.15626520257E+02  0.51100000000E-03 0.  1.
        -11    1    3    3    0    0 -0.11868790813E+02  0.13714568778E+01  0.14300197279E+01  0.12033039766E+02  0.51100000000E-03 0. -1.
        -12    1    3    3    0    0 -0.18779408466E+02 -0.15813461787E+01 -0.70680861921E+01  0.20127709271E+02  0.00000000000E+00 0.  1.
</event>
<event>
 7    1  0.5541017E-010  0.4778727E+02  0.7816164E-02  0.1312668E+00
        -11   -1    0    0    0    0  0.00000000000E+00  0.00000000000E+00  0.45593999997E+02  0.45594000000E+02  0.51100000000E-03 0. -1.
         11   -1    0    0    0    0 -0.00000000000E+00 -0.00000000000E+00 -0.45593999997E+02  0.45594000000E+02  0.51100000000E-03 0.  1.
    9900012    2    1    2    0    0 -0.12367828648E+02 -0.23945723381E+02  0.34018559427E+02  0.47787271443E+02  0.20000001819E+02 0.  0.
        -12    1    1    2    0    0  0.12367828648E+02  0.23945723381E+02 -0.34018559427E+02  0.43400728557E+02  0.00000000000E+00 0.  1.
         11    1    3    3    0    0 -0.19988475772E+01 -0.13278815180E+02  0.21088337770E+02  0.25000806275E+02  0.51100000000E-03 0. -1.
        -11    1    3    3    0    0 -0.10617846438E+02 -0.95341062898E+01  0.14817220008E+02  0.20571530199E+02  0.51100000000E-03 0.  1.
         12    1    3    3    0    0  0.24886536727E+00 -0.11328019116E+01 -0.18869983506E+01  0.22149349691E+01  0.00000000000E+00 0. -1.
</event>
<event>
 7    1  0.5541017E-010  0.4778727E+02  0.7816164E-02  0.1312668E+00
        -11   -1    0    0    0    0  0.00000000000E+00  0.00000000000E+00  0.45593999997E+02  0.45594000000E+02  0.51100000000E-03 0.  1.
         11   -1    0    0    0    0 -0.00000000000E+00 -0.00000000000E+00 -0.45593999997E+02  0.45594000000E+02  0.51100000000E-03 0. -1.
    9900012    2    1    2    0    0 -0.32871664266E+02  0.24187151397E+02 -0.14766806521E+02  0.47787272136E+02  0.20000004976E+02 0.  0.
        -12    1    1    2    0    0  0.32871664266E+02 -0.24187151397E+02  0.14766806521E+02  0.43400727864E+02  0.00000000000E+00 0.  1.
         11    1    3    3    0    0 -0.66120760252E+01  0.87655229630E+01 -0.64134532482E+01  0.12715593773E+02  0.51100000000E-03 0. -1.
        -11    1    3    3    0    0 -0.14512651870E+02  0.73644617489E+01  0.33743886916E+01  0.16620435026E+02  0.51100000000E-03 0.  1.
        -12    1    3    3    0    0 -0.11746936371E+02  0.80571666848E+01 -0.11727741964E+02  0.18451243337E+02  0.00000000000E+00 0.  1.
</event>
<event>
 7    1  0.5541017E-010  0.4778727E+02  0.7816164E-02  0.1312668E+00
        -11   -1    0    0    0    0  0.00000000000E+00  0.00000000000E+00  0.45593999997E+02  0.45594000000E+02  0.51100000000E-03 0.  1.
         11   -1    0    0    0    0 -0.00000000000E+00 -0.00000000000E+00 -0.45593999997E+02  0.45594000000E+02  0.51100000000E-03 0. -1.
    9900012    2    1    2    0    0  0.27746976869E+02 -0.30664875411E+02  0.13167909863E+02  0.47787272362E+02  0.20000006007E+02 0.  0.
        -12    1    1    2    0    0 -0.27746976869E+02  0.30664875411E+02 -0.13167909863E+02  0.43400727638E+02  0.00000000000E+00 0.  1.
         11    1    3    3    0    0  0.12644734450E+02 -0.16216944082E+02  0.28299689677E+01  0.20757825255E+02  0.51100000000E-03 0. -1.
        -11    1    3    3    0    0  0.12496154569E+01 -0.24978662131E+01 -0.32169891975E+01  0.42602692599E+01  0.51100000000E-03 0.  1.
         12    1    3    3    0    0  0.13852626962E+02 -0.11950065115E+02  0.13554930093E+02  0.22769177847E+02  0.00000000000E+00 0. -1.
</event>
<event>
 7    1  0.5541017E-010  0.4778729E+02  0.7816164E-02  0.1312668E+00
        -11   -1    0    0    0    0  0.00000000000E+00  0.00000000000E+00  0.45593999997E+02  0.45594000000E+02  0.51100000000E-03 0. -1.
         11   -1    0    0    0    0 -0.00000000000E+00 -0.00000000000E+00 -0.45593999997E+02  0.45594000000E+02  0.51100000000E-03 0.  1.
    9900012    2    1    2    0    0 -0.25277852476E+02  0.33390198507E+02 -0.11390628874E+02  0.47787290232E+02  0.20000087486E+02 0.  0.
        -12    1    1    2    0    0  0.25277852476E+02 -0.33390198507E+02  0.11390628874E+02  0.43400709768E+02  0.00000000000E+00 0.  1.
         11    1    3    3    0    0 -0.16696537421E+02  0.21062401541E+02 -0.58138678164E+01  0.27499094163E+02  0.51100000000E-03 0. -1.
        -11    1    3    3    0    0 -0.11819476860E+02  0.10263582235E+02 -0.47678047554E+01  0.16363774503E+02  0.51100000000E-03 0.  1.
        -12    1    3    3    0    0  0.32381618049E+01  0.20642147314E+01 -0.80895630259E+00  0.39244215665E+01  0.00000000000E+00 0.  1.
</event>
<event>
 7    1  0.5541017E-010  0.4778727E+02  0.7816164E-02  0.1312668E+00
        -11   -1    0    0    0    0  0.00000000000E+00  0.00000000000E+00  0.45593999997E+02  0.45594000000E+02  0.51100000000E-03 0.  1.
         11   -1    0    0    0    0 -0.00000000000E+00 -0.00000000000E+00 -0.45593999997E+02  0.45594000000E+02  0.51100000000E-03 0. -1.
    9900012    2    1    2    0    0  0.38367372398E+02 -0.15730004357E+02 -0.12811519662E+02  0.47787270307E+02  0.19999996640E+02 0.  0.
        -12    1    1    2    0    0 -0.38367372398E+02  0.15730004357E+02  0.12811519662E+02  0.43400729693E+02  0.00000000000E+00 0.  1.
         11    1    3    3    0    0  0.21506813668E+02 -0.98012668130E+01 -0.12437607789E+02  0.26707713363E+02  0.51100000000E-03 0. -1.
        -11    1    3    3    0    0  0.14246594037E+02 -0.84507066049E+01 -0.26760833778E+01  0.16779192659E+02  0.51100000000E-03 0.  1.
         12    1    3    3    0    0  0.26139646925E+01  0.25219690605E+01  0.23021715043E+01  0.43003642859E+01  0.00000000000E+00 0. -1.
</event>
<event>
 7    1  0.5541017E-010  0.4778727E+02  0.7816164E-02  0.1312668E+00
        -11   -1    0    0    0    0  0.00000000000E+00  0.00000000000E+00  0.45593999997E+02  0.45594000000E+02  0.51100000000E-03 0.  1.
         11   -1    0    0    0    0 -0.00000000000E+00 -0.00000000000E+00 -0.45593999997E+02  0.45594000000E+02  0.51100000000E-03 0. -1.
    9900012    2    1    2    0    0 -0.80309101603E+01  0.26187005036E+02 -0.33665543708E+02  0.47787267472E+02  0.19999983713E+02 0.  0.
        -12    1    1    2    0    0  0.80309101603E+01 -0.26187005036E+02  0.33665543708E+02  0.43400732528E+02  0.00000000000E+00 0.  1.
         11    1    3    3    0    0  0.98894349647E+00  0.21798402027E+02 -0.29586204521E+02  0.36762641885E+02  0.51100000000E-03 0. -1.
        -11    1    3    3    0    0 -0.14354143821E+01 -0.79744017408E-01 -0.50385024169E+00  0.15233643306E+01  0.51100000000E-03 0.  1.
         12    1    3    3    0    0 -0.75844392747E+01  0.44683470263E+01 -0.35754889458E+01  0.95012612563E+01  0.00000000000E+00 0. -1.
</event>
<event>
 7    1  0.5541017E-010  0.4778728E+02  0.7816164E-02  0.1312668E+00
        -11   -1    0    0    0    0  0.00000000000E+00  0.00000000000E+00  0.45593999997E+02  0.45594000000E+02  0.51100000000E-03 0. -1.
         11   -1    0    0    0    0 -0.00000000000E+00 -0.00000000000E+00 -0.45593999997E+02  0.45594000000E+02  0.51100000000E-03 0.  1.
    9900012    2    1    2    0    0 -0.41636873124E+02 -0.54255793655E+01  0.10979835034E+02  0.47787275440E+02  0.20000020040E+02 0.  0.
        -12    1    1    2    0    0  0.41636873124E+02  0.54255793655E+01 -0.10979835034E+02  0.43400724560E+02  0.00000000000E+00 0.  1.
         11    1    3    3    0    0 -0.13569812454E+02  0.23414418193E+01  0.38311862500E+01  0.14293360283E+02  0.51100000000E-03 0. -1.
        -11    1    3    3    0    0 -0.17266269930E+02 -0.43123519821E+01  0.11674659476E+02  0.21284222585E+02  0.51100000000E-03 0.  1.
        -12    1    3    3    0    0 -0.10800790740E+02 -0.34546692027E+01 -0.45260106926E+01  0.12209692572E+02  0.00000000000E+00 0.  1.
</event>
<event>
 7    1  0.5541017E-010  0.4778727E+02  0.7816164E-02  0.1312668E+00
        -11   -1    0    0    0    0  0.00000000000E+00  0.00000000000E+00  0.45593999997E+02  0.45594000000E+02  0.51100000000E-03 0. -1.
         11   -1    0    0    0    0 -0.00000000000E+00 -0.00000000000E+00 -0.45593999997E+02  0.45594000000E+02  0.51100000000E-03 0.  1.
    9900012    2    1    2    0    0 -0.33248394835E+02 -0.24098867929E+02 -0.14050337620E+02  0.47787272105E+02  0.20000004835E+02 0.  0.
        -12    1    1    2    0    0  0.33248394835E+02  0.24098867929E+02  0.14050337620E+02  0.43400727895E+02  0.00000000000E+00 0.  1.
         11    1    3    3    0    0 -0.65072286832E+01 -0.14003641950E+00  0.32341074195E+00  0.65167653098E+01  0.51100000000E-03 0. -1.
        -11    1    3    3    0    0  0.17492740743E+00 -0.52796300410E+01  0.46743752193E+00  0.53031680217E+01  0.51100000000E-03 0.  1.
         12    1    3    3    0    0 -0.26916093560E+02 -0.18679201469E+02 -0.14841185884E+02  0.35967338773E+02  0.00000000000E+00 0. -1.
</event>
<event>
 7    1  0.5541017E-010  0.4778727E+02  0.7816164E-02  0.1312668E+00
        -11   -1    0    0    0    0  0.00000000000E+00  0.00000000000E+00  0.45593999997E+02  0.45594000000E+02  0.51100000000E-03 0.  1.
         11   -1    0    0    0    0 -0.00000000000E+00 -0.00000000000E+00 -0.45593999997E+02  0.45594000000E+02  0.51100000000E-03 0. -1.
    9900012    2    1    2    0    0  0.43031539312E+02 -0.72959832453E+00 -0.56015809385E+01  0.47787269611E+02  0.19999993466E+02 0.  0.
        -12    1    1    2    0    0 -0.43031539312E+02  0.72959832453E+00  0.56015809385E+01  0.43400730389E+02  0.00000000000E+00 0.  1.
         11    1    3    3    0    0  0.25961484872E+02  0.75594510755E+01 -0.48539136818E+01  0.27471885185E+02  0.51100000000E-03 0. -1.
        -11    1    3    3    0    0  0.32889408202E-01 -0.17954786661E+01  0.89943593749E+00  0.20084348683E+01  0.51100000000E-03 0.  1.
        -12    1    3    3    0    0  0.17037165031E+02 -0.64935707340E+01 -0.16471031942E+01  0.18306949558E+02  0.00000000000E+00 0.  1.
</event>
<event>
 7    1  0.5541017E-010  0.4778727E+02  0.7816164E-02  0.1312668E+00
        -11   -1    0    0    0    0  0.00000000000E+00  0.00000000000E+00  0.45593999997E+02  0.45594000000E+02  0.51100000000E-03 0. -1.
         11   -1    0    0    0    0 -0.00000000000E+00 -0.00000000000E+00 -0.45593999997E+02  0.45594000000E+02  0.51100000000E-03 0.  1.
    9900012    2    1    2    0    0  0.38354141201E+02 -0.17357396177E+02 -0.10550052213E+02  0.47787274764E+02  0.20000016957E+02 0.  0.
        -12    1    1    2    0    0 -0.38354141201E+02  0.17357396177E+02  0.10550052213E+02  0.43400725236E+02  0.00000000000E+00 0.  1.
         11    1    3    3    0    0 -0.12738257968E+01 -0.11293639917E+01  0.12445036581E+01  0.21087638091E+01  0.51100000000E-03 0. -1.
        -11    1    3    3    0    0  0.67318967903E+01 -0.10460426722E+01 -0.58170732513E+01  0.89582911952E+01  0.51100000000E-03 0.  1.
         12    1    3    3    0    0  0.32896070208E+02 -0.15181989514E+02 -0.59774826200E+01  0.36720219759E+02  0.00000000000E+00 0. -1.
</event>
<event>
 7    1  0.5541017E-010  0.4778733E+02  0.7816164E-02  0.1312667E+00
        -11   -1    0    0    0    0  0.00000000000E+00  0.00000000000E+00  0.45593999997E+02  0.45594000000E+02  0.51100000000E-03 0.  1.
         11   -1    0    0    0    0 -0.00000000000E+00 -0.00000000000E+00 -0.45593999997E+02  0.45594000000E+02  0.51100000000E-03 0. -1.
    9900012    2    1    2    0    0  0.23281796412E+02  0.16256914144E+02 -0.32822076808E+02  0.47787331484E+02  0.20000275566E+02 0.  0.
        -12    1    1    2    0    0 -0.23281796412E+02 -0.16256914144E+02  0.32822076808E+02  0.43400668516E+02  0.00000000000E+00 0.  1.
         11    1    3    3    0    0  0.11365408975E+02  0.72927087162E+01 -0.24424380887E+02  0.27908896495E+02  0.51100000000E-03 0. -1.
        -11    1    3    3    0    0  0.11196382785E+02  0.88078027584E+01 -0.10469841197E+02  0.17679195452E+02  0.51100000000E-03 0.  1.
         12    1    3    3    0    0  0.72000465213E+00  0.15640266949E+00  0.20721452761E+01  0.21992395366E+01  0.00000000000E+00 0. -1.
</event>
<event>
 7    1  0.5541017E-010  0.4778728E+02  0.7816164E-02  0.1312668E+00
        -11   -1    0    0    0    0  0.00000000000E+00  0.00000000000E+00  0.45593999997E+02  0.45594000000E+02  0.51100000000E-03 0. -1.
         11   -1    0    0    0    0 -0.00000000000E+00 -0.00000000000E+00 -0.45593999997E+02  0.45594000000E+02  0.51100000000E-03 0.  1.
    9900012    2    1    2    0    0  0.24292487689E+02  0.35656132705E+02  0.47051088076E+01  0.47787276429E+02  0.20000024552E+02 0.  0.
        -12    1    1    2    0    0 -0.24292487689E+02 -0.35656132705E+02 -0.47051088076E+01  0.43400723571E+02  0.00000000000E+00 0.  1.
         11    1    3    3    0    0  0.19537148622E+02  0.12602756193E+02  0.32878239385E+01  0.23480618102E+02  0.51100000000E-03 0. -1.
        -11    1    3    3    0    0  0.48378828173E+01  0.10182643880E+02 -0.54646461572E+00  0.11286716545E+02  0.51100000000E-03 0.  1.
        -12    1    3    3    0    0 -0.82543750904E-01  0.12870732632E+02  0.19637494848E+01  0.13019941782E+02  0.00000000000E+00 0.  1.
</event>
<event>
 7    1  0.5541017E-010  0.4778727E+02  0.7816164E-02  0.1312668E+00
        -11   -1    0    0    0    0  0.00000000000E+00  0.00000000000E+00  0.45593999997E+02  0.45594000000E+02  0.51100000000E-03 0.  1.
         11   -1    0    0    0    0 -0.00000000000E+00 -0.00000000000E+00 -0.45593999997E+02  0.45594000000E+02  0.51100000000E-03 0. -1.
    9900012    2    1    2    0    0 -0.10393224465E+02 -0.31570084981E+02 -0.27909389007E+02  0.47787269877E+02  0.19999994676E+02 0.  0.
        -12    1    1    2    0    0  0.10393224465E+02  0.31570084981E+02  0.27909389007E+02  0.43400730123E+02  0.00000000000E+00 0.  1.
         11    1    3    3    0    0  0.89667441232E+00 -0.89954405602E+01 -0.11872763076E+02  0.14922616366E+02  0.51100000000E-03 0. -1.
        -11    1    3    3    0    0  0.67806565331E+00 -0.11304609848E+02 -0.25675931191E+01  0.11612343068E+02  0.51100000000E-03 0.  1.
        -12    1    3    3    0    0 -0.11967964531E+02 -0.11270034573E+02 -0.13469032812E+02  0.21252310443E+02  0.00000000000E+00 0.  1.
</event>
<event>
 7    1  0.5541017E-010  0.4778727E+02  0.7816164E-02  0.1312668E+00
        -11   -1    0    0    0    0  0.00000000000E+00  0.00000000000E+00  0.45593999997E+02  0.45594000000E+02  0.51100000000E-03 0.  1.
         11   -1    0    0    0    0 -0.00000000000E+00 -0.00000000000E+00 -0.45593999997E+02  0.45594000000E+02  0.51100000000E-03 0. -1.
    9900012    2    1    2    0    0 -0.17472524645E+02 -0.39347365445E+02 -0.54880747570E+01  0.47787271325E+02  0.20000001281E+02 0.  0.
        -12    1    1    2    0    0  0.17472524645E+02  0.39347365445E+02  0.54880747570E+01  0.43400728675E+02  0.00000000000E+00 0.  1.
         11    1    3    3    0    0  0.17816017960E+01 -0.11733615944E+02  0.95324351575E+00  0.11906322755E+02  0.51100000000E-03 0.  1.
        -11    1    3    3    0    0 -0.61117047211E+01 -0.45920838128E+01  0.22748305312E+01  0.79759026166E+01  0.51100000000E-03 0. -1.
         12    1    3    3    0    0 -0.13142421720E+02 -0.23021665689E+02 -0.87161488040E+01  0.27905045954E+02  0.00000000000E+00 0. -1.
</event>
<event>
 7    1  0.5541017E-010  0.4778724E+02  0.7816164E-02  0.1312668E+00
        -11   -1    0    0    0    0  0.00000000000E+00  0.00000000000E+00  0.45593999997E+02  0.45594000000E+02  0.51100000000E-03 0.  1.
         11   -1    0    0    0    0 -0.00000000000E+00 -0.00000000000E+00 -0.45593999997E+02  0.45594000000E+02  0.51100000000E-03 0. -1.
    9900012    2    1    2    0    0 -0.14980126841E+01 -0.38934647610E+02 -0.19117396390E+02  0.47787243425E+02  0.19999874073E+02 0.  0.
        -12    1    1    2    0    0  0.14980126841E+01  0.38934647610E+02  0.19117396390E+02  0.43400756575E+02  0.00000000000E+00 0.  1.
         11    1    3    3    0    0 -0.68309567436E+01 -0.15253294550E+02 -0.47037356630E+01  0.17362318224E+02  0.51100000000E-03 0. -1.
        -11    1    3    3    0    0  0.66327494197E+01 -0.10863610927E+02 -0.26981192366E+01  0.13011197289E+02  0.51100000000E-03 0.  1.
         12    1    3    3    0    0 -0.12998053602E+01 -0.12817742134E+02 -0.11715541491E+02  0.17413727912E+02  0.00000000000E+00 0. -1.
</event>
<event>
 7    1  0.5541017E-010  0.4778727E+02  0.7816164E-02  0.1312668E+00
        -11   -1    0    0    0    0  0.00000000000E+00  0.00000000000E+00  0.45593999997E+02  0.45594000000E+02  0.51100000000E-03 0.  1.
         11   -1    0    0    0    0 -0.00000000000E+00 -0.00000000000E+00 -0.45593999997E+02  0.45594000000E+02  0.51100000000E-03 0. -1.
    9900012    2    1    2    0    0  0.37676872735E+02  0.21486593158E+02 -0.15501512462E+01  0.47787269666E+02  0.19999993716E+02 0.  0.
        -12    1    1    2    0    0 -0.37676872735E+02 -0.21486593158E+02  0.15501512462E+01  0.43400730334E+02  0.00000000000E+00 0.  1.
         11    1    3    3    0    0  0.83206943861E+01  0.83090031624E+00 -0.19573832034E+01  0.85881138598E+01  0.51100000000E-03 0. -1.
        -11    1    3    3    0    0  0.62820302481E+01 -0.13348542412E+01  0.32501546411E+01  0.71978639425E+01  0.51100000000E-03 0.  1.
         12    1    3    3    0    0  0.23074148101E+02  0.21990547083E+02 -0.28429226839E+01  0.32001291864E+02  0.00000000000E+00 0. -1.
</event>
<event>
 7    1  0.5541017E-010  0.4778727E+02  0.7816164E-02  0.1312668E+00
        -11   -1    0    0    0    0  0.00000000000E+00  0.00000000000E+00  0.45593999997E+02  0.45594000000E+02  0.51100000000E-03 0.  1.
         11   -1    0    0    0    0 -0.00000000000E+00 -0.00000000000E+00 -0.45593999997E+02  0.45594000000E+02  0.51100000000E-03 0. -1.
    9900012    2    1    2    0    0 -0.33556633862E+02 -0.13444725215E+02 -0.24016969645E+02  0.47787272550E+02  0.20000006864E+02 0.  0.
        -12    1    1    2    0    0  0.33556633862E+02  0.13444725215E+02  0.24016969645E+02  0.43400727450E+02  0.00000000000E+00 0.  1.
         11    1    3    3    0    0 -0.18669330932E+01 -0.17180227667E+01  0.22921859286E+01  0.34192335389E+01  0.51100000000E-03 0. -1.
        -11    1    3    3    0    0 -0.87812069193E+01 -0.70370982191E+01 -0.37105421213E+01  0.11848986007E+02  0.51100000000E-03 0.  1.
         12    1    3    3    0    0 -0.22908493850E+02 -0.46896042291E+01 -0.22598613452E+02  0.32519053004E+02  0.00000000000E+00 0. -1.
</event>
<event>
 7    1  0.5541017E-010  0.4778727E+02  0.7816164E-02  0.1312668E+00
        -11   -1    0    0    0    0  0.00000000000E+00  0.00000000000E+00  0.45593999997E+02  0.45594000000E+02  0.51100000000E-03 0.  1.
         11   -1    0    0    0    0 -0.00000000000E+00 -0.00000000000E+00 -0.45593999997E+02  0.45594000000E+02  0.51100000000E-03 0. -1.
    9900012    2    1    2    0    0 -0.11291842689E+02 -0.35441830059E+02 -0.22360554279E+02  0.47787269397E+02  0.19999992488E+02 0.  0.
        -12    1    1    2    0    0  0.11291842689E+02  0.35441830059E+02  0.22360554279E+02  0.43400730603E+02  0.00000000000E+00 0.  1.
         11    1    3    3    0    0 -0.55655612862E+01 -0.23786184769E+02 -0.13232712868E+02  0.27782417973E+02  0.51100000000E-03 0. -1.
        -11    1    3    3    0    0 -0.89592181598E+00 -0.11342357721E+02 -0.99260787042E+01  0.15098966630E+02  0.51100000000E-03 0.  1.
        -12    1    3    3    0    0 -0.48303595868E+01 -0.31328756835E+00  0.79823729394E+00  0.49058847944E+01  0.00000000000E+00 0.  1.
</event>
<event>
 7    1  0.5541017E-010  0.4778727E+02  0.7816164E-02  0.1312668E+00
        -11   -1    0    0    0    0  0.00000000000E+00  0.00000000000E+00  0.45593999997E+02  0.45594000000E+02  0.51100000000E-03 0.  1.
         11   -1    0    0    0    0 -0.00000000000E+00 -0.00000000000E+00 -0.45593999997E+02  0.45594000000E+02  0.51100000000E-03 0. -1.
    9900012    2    1    2    0    0 -0.30077670514E+01 -0.36112387387E+02 -0.23884553610E+02  0.47787273202E+02  0.20000009838E+02 0.  0.
        -12    1    1    2    0    0  0.30077670514E+01  0.36112387387E+02  0.23884553610E+02  0.43400726798E+02  0.00000000000E+00 0.  1.
         11    1    3    3    0    0  0.29378010884E+01 -0.18451173464E+02 -0.10307143280E+02  0.21338080520E+02  0.51100000000E-03 0. -1.
        -11    1    3    3    0    0  0.29697952458E+01 -0.42768071155E+01  0.28884897436E+00  0.52148055473E+01  0.51100000000E-03 0.  1.
         12    1    3    3    0    0 -0.89153633856E+01 -0.13384406808E+02 -0.13866259304E+02  0.21234387135E+02  0.00000000000E+00 0. -1.
</event>
<event>
 7    1  0.5541017E-010  0.4778727E+02  0.7816164E-02  0.1312668E+00
        -11   -1    0    0    0    0  0.00000000000E+00  0.00000000000E+00  0.45593999997E+02  0.45594000000E+02  0.51100000000E-03 0.  1.
         11   -1    0    0    0    0 -0.00000000000E+00 -0.00000000000E+00 -0.45593999997E+02  0.45594000000E+02  0.51100000000E-03 0. -1.
    9900012    2    1    2    0    0  0.34089608759E+01  0.39651985644E+02 -0.17312484690E+02  0.47787272980E+02  0.20000008825E+02 0.  0.
        -12    1    1    2    0    0 -0.34089608759E+01 -0.39651985644E+02  0.17312484690E+02  0.43400727020E+02  0.00000000000E+00 0.  1.
         11    1    3    3    0    0  0.18108222387E+01  0.23496699742E+02 -0.19811712842E+02  0.30787626442E+02  0.51100000000E-03 0. -1.
        -11    1    3    3    0    0  0.35972482525E+00  0.49671729369E+00 -0.74056611623E+00  0.96154482650E+00  0.51100000000E-03 0.  1.
         12    1    3    3    0    0  0.12384138119E+01  0.15658568608E+02  0.32397942678E+01  0.16038101712E+02  0.00000000000E+00 0. -1.
</event>
<event>
 7    1  0.5541017E-010  0.4778726E+02  0.7816164E-02  0.1312668E+00
        -11   -1    0    0    0    0  0.00000000000E+00  0.00000000000E+00  0.45593999997E+02  0.45594000000E+02  0.51100000000E-03 0. -1.
         11   -1    0    0    0    0 -0.00000000000E+00 -0.00000000000E+00 -0.45593999997E+02  0.45594000000E+02  0.51100000000E-03 0.  1.
    9900012    2    1    2    0    0  0.12836438698E+02  0.40488859828E+02 -0.89163875772E+01  0.47787263876E+02  0.19999967318E+02 0.  0.
        -12    1    1    2    0    0 -0.12836438698E+02 -0.40488859828E+02  0.89163875772E+01  0.43400736124E+02  0.00000000000E+00 0.  1.
         11    1    3    3    0    0  0.55089932937E+01  0.19298823864E+02 -0.14131534132E+01  0.20119408850E+02  0.51100000000E-03 0. -1.
        -11    1    3    3    0    0 -0.11860170452E+01  0.14843722532E+02 -0.40744894710E+00  0.14896601960E+02  0.51100000000E-03 0.  1.
         12    1    3    3    0    0  0.85134624491E+01  0.63463134326E+01 -0.70957852169E+01  0.12771253067E+02  0.00000000000E+00 0. -1.
</event>
<event>
 7    1  0.5541017E-010  0.4778729E+02  0.7816164E-02  0.1312668E+00
        -11   -1    0    0    0    0  0.00000000000E+00  0.00000000000E+00  0.45593999997E+02  0.45594000000E+02  0.51100000000E-03 0. -1.
         11   -1    0    0    0    0 -0.00000000000E+00 -0.00000000000E+00 -0.45593999997E+02  0.45594000000E+02  0.51100000000E-03 0.  1.
    9900012    2    1    2    0    0  0.41994946445E+02 -0.10682706583E+02  0.24343709615E+01  0.47787286770E+02  0.20000071699E+02 0.  0.
        -12    1    1    2    0    0 -0.41994946445E+02  0.10682706583E+02 -0.24343709615E+01  0.43400713230E+02  0.00000000000E+00 0.  1.
         11    1    3    3    0    0  0.20149092532E+02 -0.10483447941E+02 -0.59752573142E+00  0.22721039762E+02  0.51100000000E-03 0. -1.
        -11    1    3    3    0    0  0.19349599617E+02 -0.14898172477E+01 -0.17858209729E+01  0.19488861372E+02  0.51100000000E-03 0.  1.
        -12    1    3    3    0    0  0.24962542960E+01  0.12905586056E+01  0.48177176659E+01  0.55773856360E+01  0.00000000000E+00 0.  1.
</event>
<event>
 7    1  0.5541017E-010  0.4778727E+02  0.7816164E-02  0.1312668E+00
        -11   -1    0    0    0    0  0.00000000000E+00  0.00000000000E+00  0.45593999997E+02  0.45594000000E+02  0.51100000000E-03 0. -1.
         11   -1    0    0    0    0 -0.00000000000E+00 -0.00000000000E+00 -0.45593999997E+02  0.45594000000E+02  0.51100000000E-03 0.  1.
    9900012    2    1    2    0    0  0.36020259159E+02 -0.12384632191E+02  0.20803487350E+02  0.47787271085E+02  0.20000000185E+02 0.  0.
        -12    1    1    2    0    0 -0.36020259159E+02  0.12384632191E+02 -0.20803487350E+02  0.43400728915E+02  0.00000000000E+00 0.  1.
         11    1    3    3    0    0  0.24082531467E+01 -0.51688408039E+01  0.99010807766E+01  0.11425760337E+02  0.51100000000E-03 0.  1.
        -11    1    3    3    0    0  0.42059746157E+01 -0.15887763394E+01  0.29716287884E+01  0.53893423199E+01  0.51100000000E-03 0. -1.
        -12    1    3    3    0    0  0.29406031397E+02 -0.56270150481E+01  0.79307777854E+01  0.30972168428E+02  0.00000000000E+00 0.  1.
</event>
<event>
 7    1  0.5541017E-010  0.4778727E+02  0.7816164E-02  0.1312668E+00
        -11   -1    0    0    0    0  0.00000000000E+00  0.00000000000E+00  0.45593999997E+02  0.45594000000E+02  0.51100000000E-03 0. -1.
         11   -1    0    0    0    0 -0.00000000000E+00 -0.00000000000E+00 -0.45593999997E+02  0.45594000000E+02  0.51100000000E-03 0.  1.
    9900012    2    1    2    0    0  0.35309876068E+02 -0.18182230609E+02  0.17499782756E+02  0.47787271269E+02  0.20000001026E+02 0.  0.
        -12    1    1    2    0    0 -0.35309876068E+02  0.18182230609E+02 -0.17499782756E+02  0.43400728731E+02  0.00000000000E+00 0.  1.
         11    1    3    3    0    0  0.26246166352E+02 -0.91773928124E+01  0.18183094564E+02  0.33222141942E+02  0.51100000000E-03 0. -1.
        -11    1    3    3    0    0  0.13752874343E+01 -0.17481073885E+01  0.26688408764E+01  0.34741915395E+01  0.51100000000E-03 0.  1.
         12    1    3    3    0    0  0.76884222816E+01 -0.72567304084E+01 -0.33521526846E+01  0.11090937788E+02  0.00000000000E+00 0. -1.
</event>
<event>
 7    1  0.5541017E-010  0.4778727E+02  0.7816164E-02  0.1312668E+00
        -11   -1    0    0    0    0  0.00000000000E+00  0.00000000000E+00  0.45593999997E+02  0.45594000000E+02  0.51100000000E-03 0.  1.
         11   -1    0    0    0    0 -0.00000000000E+00 -0.00000000000E+00 -0.45593999997E+02  0.45594000000E+02  0.51100000000E-03 0. -1.
    9900012    2    1    2    0    0 -0.26555808813E+02 -0.22047275207E+02 -0.26312164712E+02  0.47787270310E+02  0.19999996653E+02 0.  0.
        -12    1    1    2    0    0  0.26555808813E+02  0.22047275207E+02  0.26312164712E+02  0.43400729690E+02  0.00000000000E+00 0.  1.
         11    1    3    3    0    0 -0.12667128036E+02 -0.44968835207E+01 -0.59927596434E+01  0.14717039868E+02  0.51100000000E-03 0. -1.
        -11    1    3    3    0    0 -0.21127827110E+01 -0.38279410497E+01  0.15990372648E+01  0.46555240198E+01  0.51100000000E-03 0.  1.
         12    1    3    3    0    0 -0.11775898066E+02 -0.13722450637E+02 -0.21918442333E+02  0.28414706422E+02  0.00000000000E+00 0. -1.
</event>
<event>
 7    1  0.5541017E-010  0.4778728E+02  0.7816164E-02  0.1312668E+00
        -11   -1    0    0    0    0  0.00000000000E+00  0.00000000000E+00  0.45593999997E+02  0.45594000000E+02  0.51100000000E-03 0.  1.
         11   -1    0    0    0    0 -0.00000000000E+00 -0.00000000000E+00 -0.45593999997E+02  0.45594000000E+02  0.51100000000E-03 0. -1.
    9900012    2    1    2    0    0 -0.12911852387E+02  0.32818877903E+02 -0.25294822868E+02  0.47787277163E+02  0.20000027897E+02 0.  0.
        -12    1    1    2    0    0  0.12911852387E+02 -0.32818877903E+02  0.25294822868E+02  0.43400722837E+02  0.00000000000E+00 0.  1.
         11    1    3    3    0    0 -0.44083819765E+01  0.28439669108E+01 -0.51123952327E+01  0.73252006605E+01  0.51100000000E-03 0. -1.
        -11    1    3    3    0    0  0.42576024802E+01  0.58842210157E+01 -0.15089719349E+01  0.74181016711E+01  0.51100000000E-03 0.  1.
         12    1    3    3    0    0 -0.12761072891E+02  0.24090689976E+02 -0.18673455700E+02  0.33043974831E+02  0.00000000000E+00 0. -1.
</event>
<event>
 7    1  0.5541017E-010  0.4778727E+02  0.7816164E-02  0.1312668E+00
        -11   -1    0    0    0    0  0.00000000000E+00  0.00000000000E+00  0.45593999997E+02  0.45594000000E+02  0.51100000000E-03 0. -1.
         11   -1    0    0    0    0 -0.00000000000E+00 -0.00000000000E+00 -0.45593999997E+02  0.45594000000E+02  0.51100000000E-03 0.  1.
    9900012    2    1    2    0    0  0.24311848799E+02  0.31350116090E+02 -0.17599075850E+02  0.47787271416E+02  0.20000001693E+02 0.  0.
        -12    1    1    2    0    0 -0.24311848799E+02 -0.31350116090E+02  0.17599075850E+02  0.43400728584E+02  0.00000000000E+00 0.  1.
         11    1    3    3    0    0  0.18121077211E+02  0.25903102694E+02 -0.10390127496E+02  0.33276101306E+02  0.51100000000E-03 0. -1.
        -11    1    3    3    0    0  0.24470804897E+01  0.43187907182E+01  0.13133818014E+01  0.51346984534E+01  0.51100000000E-03 0.  1.
        -12    1    3    3    0    0  0.37436910985E+01  0.11282226776E+01 -0.85223301555E+01  0.93764716568E+01  0.00000000000E+00 0.  1.
</event>
<event>
 7    1  0.5541017E-010  0.4778729E+02  0.7816164E-02  0.1312668E+00
        -11   -1    0    0    0    0  0.00000000000E+00  0.00000000000E+00  0.45593999997E+02  0.45594000000E+02  0.51100000000E-03 0.  1.
         11   -1    0    0    0    0 -0.00000000000E+00 -0.00000000000E+00 -0.45593999997E+02  0.45594000000E+02  0.51100000000E-03 0. -1.
    9900012    2    1    2    0    0 -0.32158688727E+01  0.37739452341E+02 -0.21189949271E+02  0.47787285424E+02  0.20000065560E+02 0.  0.
        -12    1    1    2    0    0  0.32158688727E+01 -0.37739452341E+02  0.21189949271E+02  0.43400714576E+02  0.00000000000E+00 0.  1.
         11    1    3    3    0    0 -0.19607652690E+01  0.16899242281E+01 -0.11095355847E+01  0.28162943404E+01  0.51100000000E-03 0. -1.
        -11    1    3    3    0    0  0.46806081376E+01  0.64073401274E+01  0.11672748242E+01  0.80202637626E+01  0.51100000000E-03 0.  1.
         12    1    3    3    0    0 -0.59357117413E+01  0.29642187986E+02 -0.21247688511E+02  0.36950727321E+02  0.00000000000E+00 0. -1.
</event>
<event>
 7    1  0.5541017E-010  0.4778727E+02  0.7816164E-02  0.1312668E+00
        -11   -1    0    0    0    0  0.00000000000E+00  0.00000000000E+00  0.45593999997E+02  0.45594000000E+02  0.51100000000E-03 0. -1.
         11   -1    0    0    0    0 -0.00000000000E+00 -0.00000000000E+00 -0.45593999997E+02  0.45594000000E+02  0.51100000000E-03 0.  1.
    9900012    2    1    2    0    0 -0.24197634915E+02 -0.18010428756E+02  0.31204526560E+02  0.47787267779E+02  0.19999985112E+02 0.  0.
        -12    1    1    2    0    0  0.24197634915E+02  0.18010428756E+02 -0.31204526560E+02  0.43400732221E+02  0.00000000000E+00 0.  1.
         11    1    3    3    0    0 -0.35009607968E+01  0.98972194996E+00  0.76444273403E+01  0.84660230133E+01  0.51100000000E-03 0. -1.
        -11    1    3    3    0    0  0.84288890686E+00  0.13747592513E+01  0.30813230764E+00  0.16417583526E+01  0.51100000000E-03 0.  1.
         12    1    3    3    0    0 -0.21539563025E+02 -0.20374909957E+02  0.23251966913E+02  0.37679486413E+02  0.00000000000E+00 0. -1.
</event>
<event>
 7    1  0.5541017E-010  0.4778727E+02  0.7816164E-02  0.1312668E+00
        -11   -1    0    0    0    0  0.00000000000E+00  0.00000000000E+00  0.45593999997E+02  0.45594000000E+02  0.51100000000E-03 0. -1.
         11   -1    0    0    0    0 -0.00000000000E+00 -0.00000000000E+00 -0.45593999997E+02  0.45594000000E+02  0.51100000000E-03 0.  1.
    9900012    2    1    2    0    0  0.40480000067E+02 -0.15543886883E+02  0.18385555157E+01  0.47787272918E+02  0.20000008541E+02 0.  0.
        -12    1    1    2    0    0 -0.40480000067E+02  0.15543886883E+02 -0.18385555157E+01  0.43400727082E+02  0.00000000000E+00 0.  1.
         11    1    3    3    0    0  0.71573364319E+01 -0.49241282509E+01  0.39481430159E+01  0.95426588206E+01  0.51100000000E-03 0. -1.
        -11    1    3    3    0    0 -0.14427451472E+01 -0.17279911647E+01 -0.59386199746E+00  0.23281192749E+01  0.51100000000E-03 0.  1.
         12    1    3    3    0    0  0.34765408783E+02 -0.88917674670E+01 -0.15157255027E+01  0.35916494822E+02  0.00000000000E+00 0. -1.
</event>
<event>
 7    1  0.5541017E-010  0.4778727E+02  0.7816164E-02  0.1312668E+00
        -11   -1    0    0    0    0  0.00000000000E+00  0.00000000000E+00  0.45593999997E+02  0.45594000000E+02  0.51100000000E-03 0.  1.
         11   -1    0    0    0    0 -0.00000000000E+00 -0.00000000000E+00 -0.45593999997E+02  0.45594000000E+02  0.51100000000E-03 0. -1.
    9900012    2    1    2    0    0 -0.24439605365E+02  0.22166278969E+01 -0.35796865017E+02  0.47787270805E+02  0.19999998909E+02 0.  0.
        -12    1    1    2    0    0  0.24439605365E+02 -0.22166278969E+01  0.35796865017E+02  0.43400729195E+02  0.00000000000E+00 0.  1.
         11    1    3    3    0    0 -0.67211194189E+01  0.20617506417E+01 -0.14638812085E+01  0.71810312912E+01  0.51100000000E-03 0. -1.
        -11    1    3    3    0    0 -0.22227925159E+01 -0.49012883933E+01 -0.86513938836E+01  0.10188721749E+02  0.51100000000E-03 0.  1.
        -12    1    3    3    0    0 -0.15495693430E+02  0.50561656484E+01 -0.25681589925E+02  0.30417517765E+02  0.00000000000E+00 0.  1.
</event>
<event>
 7    1  0.5541017E-010  0.4778727E+02  0.7816164E-02  0.1312668E+00
        -11   -1    0    0    0    0  0.00000000000E+00  0.00000000000E+00  0.45593999997E+02  0.45594000000E+02  0.51100000000E-03 0. -1.
         11   -1    0    0    0    0 -0.00000000000E+00 -0.00000000000E+00 -0.45593999997E+02  0.45594000000E+02  0.51100000000E-03 0.  1.
    9900012    2    1    2    0    0 -0.14441298202E+02 -0.13996073620E+02 -0.38460136065E+02  0.47787271473E+02  0.20000001952E+02 0.  0.
        -12    1    1    2    0    0  0.14441298202E+02  0.13996073620E+02  0.38460136065E+02  0.43400728527E+02  0.00000000000E+00 0.  1.
         11    1    3    3    0    0  0.20599799223E+01 -0.16164076436E+01 -0.10979224779E+02  0.11287146139E+02  0.51100000000E-03 0. -1.
        -11    1    3    3    0    0  0.39201761613E+00 -0.55029143478E+01 -0.88405503131E+01  0.10420704114E+02  0.51100000000E-03 0.  1.
         12    1    3    3    0    0 -0.16893295741E+02 -0.68767516289E+01 -0.18640360973E+02  0.26079421219E+02  0.00000000000E+00 0. -1.
</event>
<event>
 7    1  0.5541017E-010  0.4778727E+02  0.7816164E-02  0.1312668E+00
        -11   -1    0    0    0    0  0.00000000000E+00  0.00000000000E+00  0.45593999997E+02  0.45594000000E+02  0.51100000000E-03 0. -1.
         11   -1    0    0    0    0 -0.00000000000E+00 -0.00000000000E+00 -0.45593999997E+02  0.45594000000E+02  0.51100000000E-03 0.  1.
    9900012    2    1    2    0    0 -0.30767407443E+02  0.10694027699E+02  0.28681484172E+02  0.47787272777E+02  0.20000007898E+02 0.  0.
        -12    1    1    2    0    0  0.30767407443E+02 -0.10694027699E+02 -0.28681484172E+02  0.43400727223E+02  0.00000000000E+00 0.  1.
         11    1    3    3    0    0 -0.55358517673E+01  0.96463403042E+00  0.54199721138E+01  0.78071935789E+01  0.51100000000E-03 0. -1.
        -11    1    3    3    0    0  0.11835497386E+01 -0.16216189395E+01  0.62704166839E+01  0.65839626077E+01  0.51100000000E-03 0.  1.
        -12    1    3    3    0    0 -0.26415105415E+02  0.11351012608E+02  0.16991095374E+02  0.33396116590E+02  0.00000000000E+00 0.  1.
</event>
<event>
 7    1  0.5541017E-010  0.4778727E+02  0.7816164E-02  0.1312668E+00
        -11   -1    0    0    0    0  0.00000000000E+00  0.00000000000E+00  0.45593999997E+02  0.45594000000E+02  0.51100000000E-03 0.  1.
         11   -1    0    0    0    0 -0.00000000000E+00 -0.00000000000E+00 -0.45593999997E+02  0.45594000000E+02  0.51100000000E-03 0. -1.
    9900012    2    1    2    0    0 -0.12310803355E+02 -0.37760681098E+02 -0.17498527590E+02  0.47787269776E+02  0.19999994215E+02 0.  0.
        -12    1    1    2    0    0  0.12310803355E+02  0.37760681098E+02  0.17498527590E+02  0.43400730224E+02  0.00000000000E+00 0.  1.
         11    1    3    3    0    0 -0.41277583695E+01 -0.93051199677E+00  0.86644350476E+00  0.43191395371E+01  0.51100000000E-03 0. -1.
        -11    1    3    3    0    0 -0.93774564561E+01 -0.17753447862E+02 -0.71865161812E+01  0.21325281139E+02  0.51100000000E-03 0.  1.
         12    1    3    3    0    0  0.11944114711E+01 -0.19076721239E+02 -0.11178454913E+02  0.22142849099E+02  0.00000000000E+00 0. -1.
</event>
<event>
 7    1  0.5541017E-010  0.4778727E+02  0.7816164E-02  0.1312668E+00
        -11   -1    0    0    0    0  0.00000000000E+00  0.00000000000E+00  0.45593999997E+02  0.45594000000E+02  0.51100000000E-03 0.  1.
         11   -1    0    0    0    0 -0.00000000000E+00 -0.00000000000E+00 -0.45593999997E+02  0.45594000000E+02  0.51100000000E-03 0. -1.
    9900012    2    1    2    0    0  0.17993969812E+02  0.15641528829E+01 -0.39463832426E+02  0.47787267362E+02  0.19999983208E+02 0.  0.
        -12    1    1    2    0    0 -0.17993969812E+02 -0.15641528829E+01  0.39463832426E+02  0.43400732638E+02  0.00000000000E+00 0.  1.
         11    1    3    3    0    0 -0.55219600688E+00 -0.21625672606E+00 -0.37807460706E-01  0.59423654110E+00  0.51100000000E-03 0. -1.
        -11    1    3    3    0    0 -0.25630269381E+01  0.30906041971E+01 -0.11370788890E+02  0.12058846613E+02  0.51100000000E-03 0.  1.
         12    1    3    3    0    0  0.21109192757E+02 -0.13101945881E+01 -0.28055236075E+02  0.35134184207E+02  0.00000000000E+00 0. -1.
</event>
<event>
 7    1  0.5541017E-010  0.4778728E+02  0.7816164E-02  0.1312668E+00
        -11   -1    0    0    0    0  0.00000000000E+00  0.00000000000E+00  0.45593999997E+02  0.45594000000E+02  0.51100000000E-03 0.  1.
         11   -1    0    0    0    0 -0.00000000000E+00 -0.00000000000E+00 -0.45593999997E+02  0.45594000000E+02  0.51100000000E-03 0. -1.
    9900012    2    1    2    0    0 -0.19165644718E+02 -0.18976142089E+00 -0.38939246268E+02  0.47787275965E+02  0.20000022435E+02 0.  0.
        -12    1    1    2    0    0  0.19165644718E+02  0.18976142089E+00  0.38939246268E+02  0.43400724035E+02  0.00000000000E+00 0.  1.
         11    1    3    3    0    0 -0.11433327159E+02 -0.13758751337E+01 -0.16243355046E+02  0.19911318031E+02  0.51100000000E-03 0. -1.
        -11    1    3    3    0    0 -0.79913150259E+01  0.66441760944E+01 -0.12071852485E+02  0.15929087058E+02  0.51100000000E-03 0.  1.
         12    1    3    3    0    0  0.25899746776E+00 -0.54580623816E+01 -0.10624038736E+02  0.11946870876E+02  0.00000000000E+00 0. -1.
</event>
<event>
 7    1  0.5541017E-010  0.4778728E+02  0.7816164E-02  0.1312668E+00
        -11   -1    0    0    0    0  0.00000000000E+00  0.00000000000E+00  0.45593999997E+02  0.45594000000E+02  0.51100000000E-03 0.  1.
         11   -1    0    0    0    0 -0.00000000000E+00 -0.00000000000E+00 -0.45593999997E+02  0.45594000000E+02  0.51100000000E-03 0. -1.
    9900012    2    1    2    0    0 -0.34332690162E+02  0.26526915002E+02  0.11009458974E+01  0.47787275177E+02  0.20000018841E+02 0.  0.
        -12    1    1    2    0    0  0.34332690162E+02 -0.26526915002E+02 -0.11009458974E+01  0.43400724823E+02  0.00000000000E+00 0.  1.
         11    1    3    3    0    0 -0.20973490203E+02  0.18255361450E+02 -0.62084378763E+01  0.28490177502E+02  0.51100000000E-03 0. -1.
        -11    1    3    3    0    0  0.42835994188E+00  0.29325671038E+01  0.44784307902E+00  0.29973331051E+01  0.51100000000E-03 0.  1.
         12    1    3    3    0    0 -0.13787559901E+02  0.53389864481E+01  0.68615406946E+01  0.16299764569E+02  0.00000000000E+00 0. -1.
</event>
<event>
 7    1  0.5541017E-010  0.4778728E+02  0.7816164E-02  0.1312668E+00
        -11   -1    0    0    0    0  0.00000000000E+00  0.00000000000E+00  0.45593999997E+02  0.45594000000E+02  0.51100000000E-03 0. -1.
         11   -1    0    0    0    0 -0.00000000000E+00 -0.00000000000E+00 -0.45593999997E+02  0.45594000000E+02  0.51100000000E-03 0.  1.
    9900012    2    1    2    0    0 -0.14329982553E+02  0.21288842975E+02  0.35000840556E+02  0.47787284859E+02  0.20000062984E+02 0.  0.
        -12    1    1    2    0    0  0.14329982553E+02 -0.21288842975E+02 -0.35000840556E+02  0.43400715141E+02  0.00000000000E+00 0.  1.
         11    1    3    3    0    0 -0.19877754771E+01  0.10132457750E+02  0.10729051737E+02  0.14890617947E+02  0.51100000000E-03 0. -1.
        -11    1    3    3    0    0 -0.14247490709E+02  0.92373833900E+01  0.13221804430E+02  0.21520603059E+02  0.51100000000E-03 0.  1.
         12    1    3    3    0    0  0.19052836332E+01  0.19190018341E+01  0.11049984389E+02  0.11376063852E+02  0.00000000000E+00 0. -1.
</event>
<event>
 7    1  0.5541017E-010  0.4778725E+02  0.7816164E-02  0.1312668E+00
        -11   -1    0    0    0    0  0.00000000000E+00  0.00000000000E+00  0.45593999997E+02  0.45594000000E+02  0.51100000000E-03 0.  1.
         11   -1    0    0    0    0 -0.00000000000E+00 -0.00000000000E+00 -0.45593999997E+02  0.45594000000E+02  0.51100000000E-03 0. -1.
    9900012    2    1    2    0    0 -0.12146153240E+02 -0.34785612996E+01 -0.41521024068E+02  0.47787252692E+02  0.19999916325E+02 0.  0.
        -12    1    1    2    0    0  0.12146153240E+02  0.34785612996E+01  0.41521024068E+02  0.43400747308E+02  0.00000000000E+00 0.  1.
         11    1    3    3    0    0 -0.28592596102E+01  0.16271695396E+01 -0.18578175623E+02  0.18867211133E+02  0.51100000000E-03 0. -1.
        -11    1    3    3    0    0 -0.10271302315E+02 -0.73957040472E+01 -0.23185960101E+02  0.26415617268E+02  0.51100000000E-03 0.  1.
        -12    1    3    3    0    0  0.98440868431E+00  0.22899732080E+01  0.24311165584E+00  0.25044242908E+01  0.00000000000E+00 0.  1.
</event>
<event>
 7    1  0.5541017E-010  0.4778727E+02  0.7816164E-02  0.1312668E+00
        -11   -1    0    0    0    0  0.00000000000E+00  0.00000000000E+00  0.45593999997E+02  0.45594000000E+02  0.51100000000E-03 0. -1.
         11   -1    0    0    0    0 -0.00000000000E+00 -0.00000000000E+00 -0.45593999997E+02  0.45594000000E+02  0.51100000000E-03 0.  1.
    9900012    2    1    2    0    0 -0.35296068264E+02 -0.13965788202E+02  0.21042041629E+02  0.47787272001E+02  0.20000004361E+02 0.  0.
        -12    1    1    2    0    0  0.35296068264E+02  0.13965788202E+02 -0.21042041629E+02  0.43400727999E+02  0.00000000000E+00 0.  1.
         11    1    3    3    0    0 -0.52065668593E+01 -0.81391669711E+01  0.22424044677E+01  0.99188081694E+01  0.51100000000E-03 0. -1.
        -11    1    3    3    0    0 -0.19684297799E+02 -0.91099507167E+01  0.14750054242E+02  0.26230266532E+02  0.51100000000E-03 0.  1.
        -12    1    3    3    0    0 -0.10405203605E+02  0.32833294861E+01  0.40495829187E+01  0.11638197300E+02  0.00000000000E+00 0.  1.
</event>
<event>
 7    1  0.5541017E-010  0.4778727E+02  0.7816164E-02  0.1312668E+00
        -11   -1    0    0    0    0  0.00000000000E+00  0.00000000000E+00  0.45593999997E+02  0.45594000000E+02  0.51100000000E-03 0.  1.
         11   -1    0    0    0    0 -0.00000000000E+00 -0.00000000000E+00 -0.45593999997E+02  0.45594000000E+02  0.51100000000E-03 0. -1.
    9900012    2    1    2    0    0  0.20855257258E+02 -0.41839330713E+01 -0.37830891112E+02  0.47787269896E+02  0.19999994764E+02 0.  0.
        -12    1    1    2    0    0 -0.20855257258E+02  0.41839330713E+01  0.37830891112E+02  0.43400730104E+02  0.00000000000E+00 0.  1.
         11    1    3    3    0    0  0.15510384245E+01 -0.16712104345E+01  0.44839074030E+00  0.23237295513E+01  0.51100000000E-03 0.  1.
        -11    1    3    3    0    0  0.13892771702E+02  0.19982275482E+01 -0.12689027697E+02  0.18921243169E+02  0.51100000000E-03 0. -1.
         12    1    3    3    0    0  0.54114471307E+01 -0.45109501850E+01 -0.25590254155E+02  0.26542297176E+02  0.00000000000E+00 0. -1.
</event>
<event>
 7    1  0.5541017E-010  0.4778727E+02  0.7816164E-02  0.1312668E+00
        -11   -1    0    0    0    0  0.00000000000E+00  0.00000000000E+00  0.45593999997E+02  0.45594000000E+02  0.51100000000E-03 0.  1.
         11   -1    0    0    0    0 -0.00000000000E+00 -0.00000000000E+00 -0.45593999997E+02  0.45594000000E+02  0.51100000000E-03 0. -1.
    9900012    2    1    2    0    0  0.31978849651E+02 -0.18626784124E+02 -0.22671994749E+02  0.47787271231E+02  0.20000000850E+02 0.  0.
        -12    1    1    2    0    0 -0.31978849651E+02  0.18626784124E+02  0.22671994749E+02  0.43400728769E+02  0.00000000000E+00 0.  1.
         11    1    3    3    0    0  0.50261342404E+01 -0.19307878736E+01 -0.99164216912E+01  0.11283855132E+02  0.51100000000E-03 0. -1.
        -11    1    3    3    0    0  0.16724623787E+02 -0.14909539171E+02 -0.36650346645E+01  0.22703301048E+02  0.51100000000E-03 0.  1.
        -12    1    3    3    0    0  0.10228091623E+02 -0.17864570793E+01 -0.90905383935E+01  0.13800115052E+02  0.00000000000E+00 0.  1.
</event>
<event>
 7    1  0.5541017E-010  0.4778724E+02  0.7816164E-02  0.1312668E+00
        -11   -1    0    0    0    0  0.00000000000E+00  0.00000000000E+00  0.45593999997E+02  0.45594000000E+02  0.51100000000E-03 0.  1.
         11   -1    0    0    0    0 -0.00000000000E+00 -0.00000000000E+00 -0.45593999997E+02  0.45594000000E+02  0.51100000000E-03 0. -1.
    9900012    2    1    2    0    0  0.40188344463E+01 -0.51019557851E+01 -0.42912057686E+02  0.47787243348E+02  0.19999873721E+02 0.  0.
        -12    1    1    2    0    0 -0.40188344463E+01  0.51019557851E+01  0.42912057686E+02  0.43400756652E+02  0.00000000000E+00 0.  1.
         11    1    3    3    0    0  0.11889168985E+01 -0.55647652599E+01 -0.87455017500E+01  0.10433788234E+02  0.51100000000E-03 0. -1.
        -11    1    3    3    0    0 -0.53625000814E+01 -0.41706613523E+00 -0.62471916317E+01  0.82436493635E+01  0.51100000000E-03 0.  1.
        -12    1    3    3    0    0  0.81924176292E+01  0.87987561002E+00 -0.27919364304E+02  0.29109805751E+02  0.00000000000E+00 0.  1.
</event>
<event>
 7    1  0.5541017E-010  0.4778727E+02  0.7816164E-02  0.1312668E+00
        -11   -1    0    0    0    0  0.00000000000E+00  0.00000000000E+00  0.45593999997E+02  0.45594000000E+02  0.51100000000E-03 0.  1.
         11   -1    0    0    0    0 -0.00000000000E+00 -0.00000000000E+00 -0.45593999997E+02  0.45594000000E+02  0.51100000000E-03 0. -1.
    9900012    2    1    2    0    0  0.29472586895E+02 -0.95054777859E+01 -0.30407819006E+02  0.47787274857E+02  0.20000017383E+02 0.  0.
        -12    1    1    2    0    0 -0.29472586895E+02  0.95054777859E+01  0.30407819006E+02  0.43400725143E+02  0.00000000000E+00 0.  1.
         11    1    3    3    0    0  0.44063347715E+01  0.89766733895E+00 -0.89344017751E+01  0.10002256151E+02  0.51100000000E-03 0. -1.
        -11    1    3    3    0    0  0.18450503808E+02 -0.78498217848E+00 -0.17531881896E+02  0.25463781551E+02  0.51100000000E-03 0.  1.
         12    1    3    3    0    0  0.66157483151E+01 -0.96181629464E+01 -0.39415353352E+01  0.12321237155E+02  0.00000000000E+00 0. -1.
</event>
<event>
 7    1  0.5541017E-010  0.4778727E+02  0.7816164E-02  0.1312668E+00
        -11   -1    0    0    0    0  0.00000000000E+00  0.00000000000E+00  0.45593999997E+02  0.45594000000E+02  0.51100000000E-03 0.  1.
         11   -1    0    0    0    0 -0.00000000000E+00 -0.00000000000E+00 -0.45593999997E+02  0.45594000000E+02  0.51100000000E-03 0. -1.
    9900012    2    1    2    0    0 -0.20092103926E+02  0.26349836173E+02 -0.28028859921E+02  0.47787268497E+02  0.19999988384E+02 0.  0.
        -12    1    1    2    0    0  0.20092103926E+02 -0.26349836173E+02  0.28028859921E+02  0.43400731503E+02  0.00000000000E+00 0.  1.
         11    1    3    3    0    0 -0.11637793863E+02  0.12777447531E+02 -0.19423710346E+02  0.25999652599E+02  0.51100000000E-03 0. -1.
        -11    1    3    3    0    0 -0.10363082138E+02  0.59582813798E+01 -0.67257095205E+01  0.13716040144E+02  0.51100000000E-03 0.  1.
        -12    1    3    3    0    0  0.19087720745E+01  0.76141072624E+01 -0.18794400544E+01  0.80715757541E+01  0.00000000000E+00 0.  1.
</event>
<event>
 7    1  0.5541017E-010  0.4778727E+02  0.7816164E-02  0.1312668E+00
        -11   -1    0    0    0    0  0.00000000000E+00  0.00000000000E+00  0.45593999997E+02  0.45594000000E+02  0.51100000000E-03 0. -1.
         11   -1    0    0    0    0 -0.00000000000E+00 -0.00000000000E+00 -0.45593999997E+02  0.45594000000E+02  0.51100000000E-03 0.  1.
    9900012    2    1    2    0    0  0.35516063416E+02 -0.95039297107E+00  0.24926485591E+02  0.47787266236E+02  0.19999978077E+02 0.  0.
        -12    1    1    2    0    0 -0.35516063416E+02  0.95039297107E+00 -0.24926485591E+02  0.43400733764E+02  0.00000000000E+00 0.  1.
         11    1    3    3    0    0  0.73760005524E+01 -0.18228999915E+01 -0.30058755917E+00  0.76038609713E+01  0.51100000000E-03 0. -1.
        -11    1    3    3    0    0  0.81928553022E-01  0.31100343647E+01  0.29483574710E+01  0.42862382196E+01  0.51100000000E-03 0.  1.
         12    1    3    3    0    0  0.28058134310E+02 -0.22375273443E+01  0.22278715679E+02  0.35897167045E+02  0.00000000000E+00 0. -1.
</event>
<event>
 7    1  0.5541017E-010  0.4778727E+02  0.7816164E-02  0.1312668E+00
        -11   -1    0    0    0    0  0.00000000000E+00  0.00000000000E+00  0.45593999997E+02  0.45594000000E+02  0.51100000000E-03 0.  1.
         11   -1    0    0    0    0 -0.00000000000E+00 -0.00000000000E+00 -0.45593999997E+02  0.45594000000E+02  0.51100000000E-03 0. -1.
    9900012    2    1    2    0    0  0.23823979115E+02  0.20888714218E+02 -0.29659787275E+02  0.47787270240E+02  0.19999996330E+02 0.  0.
        -12    1    1    2    0    0 -0.23823979115E+02 -0.20888714218E+02  0.29659787275E+02  0.43400729760E+02  0.00000000000E+00 0.  1.
         11    1    3    3    0    0  0.53978819566E+01 -0.23033084471E+00 -0.46874987522E+01  0.71528194950E+01  0.51100000000E-03 0.  1.
        -11    1    3    3    0    0  0.19575797599E+02  0.13671226113E+02 -0.15242487908E+02  0.28327508061E+02  0.51100000000E-03 0. -1.
        -12    1    3    3    0    0 -0.11497004406E+01  0.74478189490E+01 -0.97298006151E+01  0.12306942683E+02  0.00000000000E+00 0.  1.
</event>
<event>
 7    1  0.5541017E-010  0.4778727E+02  0.7816164E-02  0.1312668E+00
        -11   -1    0    0    0    0  0.00000000000E+00  0.00000000000E+00  0.45593999997E+02  0.45594000000E+02  0.51100000000E-03 0. -1.
         11   -1    0    0    0    0 -0.00000000000E+00 -0.00000000000E+00 -0.45593999997E+02  0.45594000000E+02  0.51100000000E-03 0.  1.
    9900012    2    1    2    0    0 -0.23762443978E+02  0.36314480321E+02  0.47762696640E+00  0.47787270141E+02  0.19999995882E+02 0.  0.
        -12    1    1    2    0    0  0.23762443978E+02 -0.36314480321E+02 -0.47762696640E+00  0.43400729859E+02  0.00000000000E+00 0.  1.
         11    1    3    3    0    0 -0.80937758427E+01  0.20049667668E+02  0.91294532975E+00  0.21640976189E+02  0.51100000000E-03 0. -1.
        -11    1    3    3    0    0  0.87381241945E+00  0.36636494761E+01  0.33127108633E+01  0.50159674195E+01  0.51100000000E-03 0.  1.
         12    1    3    3    0    0 -0.16542480554E+02  0.12601163177E+02 -0.37480292267E+01  0.21130326533E+02  0.00000000000E+00 0. -1.
</event>
<event>
 7    1  0.5541017E-010  0.4778727E+02  0.7816164E-02  0.1312668E+00
        -11   -1    0    0    0    0  0.00000000000E+00  0.00000000000E+00  0.45593999997E+02  0.45594000000E+02  0.51100000000E-03 0.  1.
         11   -1    0    0    0    0 -0.00000000000E+00 -0.00000000000E+00 -0.45593999997E+02  0.45594000000E+02  0.51100000000E-03 0. -1.
    9900012    2    1    2    0    0  0.71223357926E+01  0.79043840497E+01 -0.42076315556E+02  0.47787270915E+02  0.19999999410E+02 0.  0.
        -12    1    1    2    0    0 -0.71223357926E+01 -0.79043840497E+01  0.42076315556E+02  0.43400729085E+02  0.00000000000E+00 0.  1.
         11    1    3    3    0    0 -0.25284888699E+01 -0.14968477659E+01 -0.26308349959E+01  0.39439957196E+01  0.51100000000E-03 0. -1.
        -11    1    3    3    0    0  0.91859739966E+00 -0.48578460923E+00 -0.21736462158E+02  0.21761286618E+02  0.51100000000E-03 0.  1.
         12    1    3    3    0    0  0.87322272628E+01  0.98870164248E+01 -0.17709018402E+02  0.22081988577E+02  0.00000000000E+00 0. -1.
</event>
<event>
 7    1  0.5541017E-010  0.4778729E+02  0.7816164E-02  0.1312668E+00
        -11   -1    0    0    0    0  0.00000000000E+00  0.00000000000E+00  0.45593999997E+02  0.45594000000E+02  0.51100000000E-03 0. -1.
         11   -1    0    0    0    0 -0.00000000000E+00 -0.00000000000E+00 -0.45593999997E+02  0.45594000000E+02  0.51100000000E-03 0.  1.
    9900012    2    1    2    0    0 -0.11903109975E+02  0.21050444479E+02  0.36039094386E+02  0.47787290743E+02  0.20000089812E+02 0.  0.
        -12    1    1    2    0    0  0.11903109975E+02 -0.21050444479E+02 -0.36039094386E+02  0.43400709257E+02  0.00000000000E+00 0.  1.
         11    1    3    3    0    0  0.98473275937E+00  0.62852027795E+01  0.12318097085E+02  0.13863945638E+02  0.51100000000E-03 0. -1.
        -11    1    3    3    0    0 -0.11862782938E+00  0.95385558564E+01  0.53149956216E+01  0.10920041168E+02  0.51100000000E-03 0.  1.
         12    1    3    3    0    0 -0.12769214905E+02  0.52266858434E+01  0.18406001680E+02  0.23003303937E+02  0.00000000000E+00 0. -1.
</event>
<event>
 7    1  0.5541017E-010  0.4778727E+02  0.7816164E-02  0.1312668E+00
        -11   -1    0    0    0    0  0.00000000000E+00  0.00000000000E+00  0.45593999997E+02  0.45594000000E+02  0.51100000000E-03 0.  1.
         11   -1    0    0    0    0 -0.00000000000E+00 -0.00000000000E+00 -0.45593999997E+02  0.45594000000E+02  0.51100000000E-03 0. -1.
    9900012    2    1    2    0    0 -0.20751098577E+00 -0.17606535715E+02 -0.39668503812E+02  0.47787270105E+02  0.19999995717E+02 0.  0.
        -12    1    1    2    0    0  0.20751098577E+00  0.17606535715E+02  0.39668503812E+02  0.43400729895E+02  0.00000000000E+00 0.  1.
         11    1    3    3    0    0 -0.25917700752E+01 -0.49950422062E+01 -0.11021223856E+02  0.12374776535E+02  0.51100000000E-03 0. -1.
        -11    1    3    3    0    0 -0.35991469706E+01 -0.13991115919E+02 -0.17564999021E+02  0.22742787306E+02  0.51100000000E-03 0.  1.
         12    1    3    3    0    0  0.59834060600E+01  0.13796224099E+01 -0.11082280936E+02  0.12669706264E+02  0.00000000000E+00 0. -1.
</event>
<event>
 7    1  0.5541017E-010  0.4778726E+02  0.7816164E-02  0.1312668E+00
        -11   -1    0    0    0    0  0.00000000000E+00  0.00000000000E+00  0.45593999997E+02  0.45594000000E+02  0.51100000000E-03 0. -1.
         11   -1    0    0    0    0 -0.00000000000E+00 -0.00000000000E+00 -0.45593999997E+02  0.45594000000E+02  0.51100000000E-03 0.  1.
    9900012    2    1    2    0    0 -0.82857557133E+01  0.13853552679E+01  0.42579938875E+02  0.47787260933E+02  0.19999953899E+02 0.  0.
        -12    1    1    2    0    0  0.82857557133E+01 -0.13853552679E+01 -0.42579938875E+02  0.43400739067E+02  0.00000000000E+00 0.  1.
         11    1    3    3    0    0 -0.15688509487E+01 -0.32825602233E+01  0.16073524242E+02  0.16480129755E+02  0.51100000000E-03 0. -1.
        -11    1    3    3    0    0 -0.60370743465E+01 -0.43478154698E+01  0.14268502763E+02  0.16091610777E+02  0.51100000000E-03 0.  1.
        -12    1    3    3    0    0 -0.67983041804E+00  0.90157309610E+01  0.12237911869E+02  0.15215520401E+02  0.00000000000E+00 0.  1.
</event>
<event>
 7    1  0.5541017E-010  0.4778727E+02  0.7816164E-02  0.1312668E+00
        -11   -1    0    0    0    0  0.00000000000E+00  0.00000000000E+00  0.45593999997E+02  0.45594000000E+02  0.51100000000E-03 0. -1.
         11   -1    0    0    0    0 -0.00000000000E+00 -0.00000000000E+00 -0.45593999997E+02  0.45594000000E+02  0.51100000000E-03 0.  1.
    9900012    2    1    2    0    0 -0.40056624292E+02 -0.11483154915E+02 -0.12133722866E+02  0.47787271584E+02  0.20000002458E+02 0.  0.
        -12    1    1    2    0    0  0.40056624292E+02  0.11483154915E+02  0.12133722866E+02  0.43400728416E+02  0.00000000000E+00 0.  1.
         11    1    3    3    0    0 -0.63482665336E+01  0.20092670297E+01 -0.64934449204E+01  0.93006703615E+01  0.51100000000E-03 0.  1.
        -11    1    3    3    0    0 -0.17679842692E+01 -0.29222452836E+01 -0.33193097352E+01  0.47626781597E+01  0.51100000000E-03 0. -1.
         12    1    3    3    0    0 -0.31940373489E+02 -0.10570176662E+02 -0.23209682104E+01  0.33723923062E+02  0.00000000000E+00 0. -1.
</event>
<event>
 7    1  0.5541017E-010  0.4778727E+02  0.7816164E-02  0.1312668E+00
        -11   -1    0    0    0    0  0.00000000000E+00  0.00000000000E+00  0.45593999997E+02  0.45594000000E+02  0.51100000000E-03 0.  1.
         11   -1    0    0    0    0 -0.00000000000E+00 -0.00000000000E+00 -0.45593999997E+02  0.45594000000E+02  0.51100000000E-03 0. -1.
    9900012    2    1    2    0    0  0.11384464772E+01 -0.33305947487E+02 -0.27803612951E+02  0.47787273145E+02  0.20000009579E+02 0.  0.
        -12    1    1    2    0    0 -0.11384464772E+01  0.33305947487E+02  0.27803612951E+02  0.43400726855E+02  0.00000000000E+00 0.  1.
         11    1    3    3    0    0 -0.65832051893E+01 -0.63080394719E+01 -0.26249709634E+01  0.94879094306E+01  0.51100000000E-03 0. -1.
        -11    1    3    3    0    0  0.29656336439E+01 -0.87239415193E+01 -0.43625976376E+01  0.10194822066E+02  0.51100000000E-03 0.  1.
         12    1    3    3    0    0  0.47560180226E+01 -0.18273966496E+02 -0.20816044350E+02  0.28104541649E+02  0.00000000000E+00 0. -1.
</event>
<event>
 7    1  0.5541017E-010  0.4778725E+02  0.7816164E-02  0.1312668E+00
        -11   -1    0    0    0    0  0.00000000000E+00  0.00000000000E+00  0.45593999997E+02  0.45594000000E+02  0.51100000000E-03 0. -1.
         11   -1    0    0    0    0 -0.00000000000E+00 -0.00000000000E+00 -0.45593999997E+02  0.45594000000E+02  0.51100000000E-03 0.  1.
    9900012    2    1    2    0    0  0.24283279988E+02  0.22844068731E+02  0.27786609855E+02  0.47787252882E+02  0.19999917192E+02 0.  0.
        -12    1    1    2    0    0 -0.24283279988E+02 -0.22844068731E+02 -0.27786609855E+02  0.43400747118E+02  0.00000000000E+00 0.  1.
         11    1    3    3    0    0 -0.68742480426E-01 -0.13604492335E+01  0.26213217798E+01  0.29541285990E+01  0.51100000000E-03 0. -1.
        -11    1    3    3    0    0 -0.77017685391E+00  0.52000852011E+01  0.16050125954E+01  0.54963737298E+01  0.51100000000E-03 0.  1.
         12    1    3    3    0    0  0.25122199322E+02  0.19004432763E+02  0.23560275479E+02  0.39336750554E+02  0.00000000000E+00 0. -1.
</event>
<event>
 7    1  0.5541017E-010  0.4778727E+02  0.7816164E-02  0.1312668E+00
        -11   -1    0    0    0    0  0.00000000000E+00  0.00000000000E+00  0.45593999997E+02  0.45594000000E+02  0.51100000000E-03 0. -1.
         11   -1    0    0    0    0 -0.00000000000E+00 -0.00000000000E+00 -0.45593999997E+02  0.45594000000E+02  0.51100000000E-03 0.  1.
    9900012    2    1    2    0    0  0.24037145888E+02 -0.21150728351E+02  0.29299924899E+02  0.47787270843E+02  0.19999999084E+02 0.  0.
        -12    1    1    2    0    0 -0.24037145888E+02  0.21150728351E+02 -0.29299924899E+02  0.43400729157E+02  0.00000000000E+00 0.  1.
         11    1    3    3    0    0  0.16292194752E+02 -0.21300320120E+02  0.21028610514E+02  0.34078463984E+02  0.51100000000E-03 0. -1.
        -11    1    3    3    0    0  0.21931925405E+01 -0.26609619137E+01  0.11552167772E+00  0.34502401865E+01  0.51100000000E-03 0.  1.
        -12    1    3    3    0    0  0.55517585955E+01  0.28105536829E+01  0.81557927074E+01  0.10258566673E+02  0.00000000000E+00 0.  1.
</event>
<event>
 7    1  0.5541017E-010  0.4778727E+02  0.7816164E-02  0.1312668E+00
        -11   -1    0    0    0    0  0.00000000000E+00  0.00000000000E+00  0.45593999997E+02  0.45594000000E+02  0.51100000000E-03 0.  1.
         11   -1    0    0    0    0 -0.00000000000E+00 -0.00000000000E+00 -0.45593999997E+02  0.45594000000E+02  0.51100000000E-03 0. -1.
    9900012    2    1    2    0    0  0.26992661049E+02  0.16749180314E+01 -0.33944278956E+02  0.47787272187E+02  0.20000005208E+02 0.  0.
        -12    1    1    2    0    0 -0.26992661049E+02 -0.16749180314E+01  0.33944278956E+02  0.43400727813E+02  0.00000000000E+00 0.  1.
         11    1    3    3    0    0  0.21608482112E+01 -0.32061020435E+01 -0.90885560091E+01  0.98767507763E+01  0.51100000000E-03 0. -1.
        -11    1    3    3    0    0  0.15062939475E+02 -0.32978228065E+01 -0.10185060766E+02  0.18479806384E+02  0.51100000000E-03 0.  1.
        -12    1    3    3    0    0  0.97688733621E+01  0.81788428815E+01 -0.14670662180E+02  0.19430715027E+02  0.00000000000E+00 0.  1.
</event>
<event>
 7    1  0.5541017E-010  0.4778728E+02  0.7816164E-02  0.1312668E+00
        -11   -1    0    0    0    0  0.00000000000E+00  0.00000000000E+00  0.45593999997E+02  0.45594000000E+02  0.51100000000E-03 0. -1.
         11   -1    0    0    0    0 -0.00000000000E+00 -0.00000000000E+00 -0.45593999997E+02  0.45594000000E+02  0.51100000000E-03 0.  1.
    9900012    2    1    2    0    0 -0.36444816563E+02 -0.23202573318E+02  0.41278012224E+01  0.47787276436E+02  0.20000024584E+02 0.  0.
        -12    1    1    2    0    0  0.36444816563E+02  0.23202573318E+02 -0.41278012224E+01  0.43400723564E+02  0.00000000000E+00 0.  1.
         11    1    3    3    0    0 -0.19974783376E+02 -0.10261141973E+02  0.29301187998E+01  0.22646602437E+02  0.51100000000E-03 0. -1.
        -11    1    3    3    0    0 -0.13734037267E+02 -0.32174209035E+01  0.39917427686E+01  0.14659794935E+02  0.51100000000E-03 0.  1.
         12    1    3    3    0    0 -0.27359959197E+01 -0.97240104420E+01 -0.27940603460E+01  0.10480879065E+02  0.00000000000E+00 0. -1.
</event>
<event>
 7    1  0.5541017E-010  0.4778727E+02  0.7816164E-02  0.1312668E+00
        -11   -1    0    0    0    0  0.00000000000E+00  0.00000000000E+00  0.45593999997E+02  0.45594000000E+02  0.51100000000E-03 0.  1.
         11   -1    0    0    0    0 -0.00000000000E+00 -0.00000000000E+00 -0.45593999997E+02  0.45594000000E+02  0.51100000000E-03 0. -1.
    9900012    2    1    2    0    0  0.20781569583E+00  0.34724463184E+02 -0.26034436768E+02  0.47787269261E+02  0.19999991870E+02 0.  0.
        -12    1    1    2    0    0 -0.20781569583E+00 -0.34724463184E+02  0.26034436768E+02  0.43400730739E+02  0.00000000000E+00 0.  1.
         11    1    3    3    0    0  0.68578993652E+00  0.14745152874E+02 -0.42837689170E+01  0.15370117680E+02  0.51100000000E-03 0. -1.
        -11    1    3    3    0    0 -0.47640425583E+01  0.17777866048E+01 -0.67124977616E+01  0.84210600978E+01  0.51100000000E-03 0.  1.
         12    1    3    3    0    0  0.42860683176E+01  0.18201523706E+02 -0.15038170090E+02  0.23996091484E+02  0.00000000000E+00 0. -1.
</event>
<event>
 7    1  0.5541017E-010  0.4778727E+02  0.7816164E-02  0.1312668E+00
        -11   -1    0    0    0    0  0.00000000000E+00  0.00000000000E+00  0.45593999997E+02  0.45594000000E+02  0.51100000000E-03 0.  1.
         11   -1    0    0    0    0 -0.00000000000E+00 -0.00000000000E+00 -0.45593999997E+02  0.45594000000E+02  0.51100000000E-03 0. -1.
    9900012    2    1    2    0    0 -0.41708261668E+01 -0.27124858128E+02 -0.33622458063E+02  0.47787269528E+02  0.19999993085E+02 0.  0.
        -12    1    1    2    0    0  0.41708261668E+01  0.27124858128E+02  0.33622458063E+02  0.43400730472E+02  0.00000000000E+00 0.  1.
         11    1    3    3    0    0 -0.69415924579E+01 -0.12003738410E+02 -0.12133199336E+02  0.18425253541E+02  0.51100000000E-03 0. -1.
        -11    1    3    3    0    0 -0.45238515305E+01 -0.31623758201E+01 -0.33985875085E+01  0.64819943544E+01  0.51100000000E-03 0.  1.
        -12    1    3    3    0    0  0.72946178216E+01 -0.11958743898E+02 -0.18090671218E+02  0.22880021632E+02  0.00000000000E+00 0.  1.
</event>
<event>
 7    1  0.5541017E-010  0.4778727E+02  0.7816164E-02  0.1312668E+00
        -11   -1    0    0    0    0  0.00000000000E+00  0.00000000000E+00  0.45593999997E+02  0.45594000000E+02  0.51100000000E-03 0. -1.
         11   -1    0    0    0    0 -0.00000000000E+00 -0.00000000000E+00 -0.45593999997E+02  0.45594000000E+02  0.51100000000E-03 0.  1.
    9900012    2    1    2    0    0 -0.19653896057E+02 -0.67429927219E+01  0.38103537568E+02  0.47787272399E+02  0.20000006176E+02 0.  0.
        -12    1    1    2    0    0  0.19653896057E+02  0.67429927219E+01 -0.38103537568E+02  0.43400727601E+02  0.00000000000E+00 0.  1.
         11    1    3    3    0    0 -0.27152992389E+01 -0.22654670635E+01  0.13262893895E+02  0.13726235671E+02  0.51100000000E-03 0. -1.
        -11    1    3    3    0    0 -0.64242453193E+01 -0.51347052204E+01  0.21484044991E+02  0.23004354263E+02  0.51100000000E-03 0.  1.
        -12    1    3    3    0    0 -0.10514351499E+02  0.65717956196E+00  0.33565986830E+01  0.11056682465E+02  0.00000000000E+00 0.  1.
</event>
<event>
 7    1  0.5541017E-010  0.4778726E+02  0.7816164E-02  0.1312668E+00
        -11   -1    0    0    0    0  0.00000000000E+00  0.00000000000E+00  0.45593999997E+02  0.45594000000E+02  0.51100000000E-03 0.  1.
         11   -1    0    0    0    0 -0.00000000000E+00 -0.00000000000E+00 -0.45593999997E+02  0.45594000000E+02  0.51100000000E-03 0. -1.
    9900012    2    1    2    0    0  0.51135023890E+01  0.29260467405E+02 -0.31643348672E+02  0.47787258363E+02  0.19999942181E+02 0.  0.
        -12    1    1    2    0    0 -0.51135023890E+01 -0.29260467405E+02  0.31643348672E+02  0.43400741637E+02  0.00000000000E+00 0.  1.
         11    1    3    3    0    0 -0.13715716751E+01  0.42766472949E+01 -0.48309577060E+01  0.65961408083E+01  0.51100000000E-03 0.  1.
        -11    1    3    3    0    0  0.11222811941E+02  0.21125164618E+02 -0.16023024867E+02  0.28791690019E+02  0.51100000000E-03 0. -1.
         12    1    3    3    0    0 -0.47377378770E+01  0.38586554921E+01 -0.10789366100E+02  0.12399427536E+02  0.00000000000E+00 0. -1.
</event>
<event>
 7    1  0.5541017E-010  0.4778727E+02  0.7816164E-02  0.1312668E+00
        -11   -1    0    0    0    0  0.00000000000E+00  0.00000000000E+00  0.45593999997E+02  0.45594000000E+02  0.51100000000E-03 0.  1.
         11   -1    0    0    0    0 -0.00000000000E+00 -0.00000000000E+00 -0.45593999997E+02  0.45594000000E+02  0.51100000000E-03 0. -1.
    9900012    2    1    2    0    0  0.11448224239E+02  0.37161226969E+02 -0.19277050233E+02  0.47787270815E+02  0.19999998955E+02 0.  0.
        -12    1    1    2    0    0 -0.11448224239E+02 -0.37161226969E+02  0.19277050233E+02  0.43400729185E+02  0.00000000000E+00 0.  1.
         11    1    3    3    0    0 -0.25653753061E+01  0.13251594366E+02 -0.12480949048E+02  0.18383688235E+02  0.51100000000E-03 0. -1.
        -11    1    3    3    0    0  0.17173207728E+01  0.70880369482E+01  0.54042453355E+00  0.73131058623E+01  0.51100000000E-03 0.  1.
        -12    1    3    3    0    0  0.12296278773E+02  0.16821595655E+02 -0.73365257178E+01  0.22090476718E+02  0.00000000000E+00 0.  1.
</event>
<event>
 7    1  0.5541017E-010  0.4778727E+02  0.7816164E-02  0.1312668E+00
        -11   -1    0    0    0    0  0.00000000000E+00  0.00000000000E+00  0.45593999997E+02  0.45594000000E+02  0.51100000000E-03 0. -1.
         11   -1    0    0    0    0 -0.00000000000E+00 -0.00000000000E+00 -0.45593999997E+02  0.45594000000E+02  0.51100000000E-03 0.  1.
    9900012    2    1    2    0    0  0.32266736319E+01 -0.40993406843E+02  0.13883528846E+02  0.47787271889E+02  0.20000003852E+02 0.  0.
        -12    1    1    2    0    0 -0.32266736319E+01  0.40993406843E+02 -0.13883528846E+02  0.43400728111E+02  0.00000000000E+00 0.  1.
         11    1    3    3    0    0  0.27552682132E+01 -0.96420790868E+01 -0.34414464729E+01  0.10602110456E+02  0.51100000000E-03 0.  1.
        -11    1    3    3    0    0  0.46968072554E+01 -0.94354607872E+01  0.46749323868E+01  0.11530087239E+02  0.51100000000E-03 0. -1.
         12    1    3    3    0    0 -0.42254018367E+01 -0.21915866969E+02  0.12650042932E+02  0.25655074194E+02  0.00000000000E+00 0. -1.
</event>
<event>
 7    1  0.5541017E-010  0.4778727E+02  0.7816164E-02  0.1312668E+00
        -11   -1    0    0    0    0  0.00000000000E+00  0.00000000000E+00  0.45593999997E+02  0.45594000000E+02  0.51100000000E-03 0. -1.
         11   -1    0    0    0    0 -0.00000000000E+00 -0.00000000000E+00 -0.45593999997E+02  0.45594000000E+02  0.51100000000E-03 0.  1.
    9900012    2    1    2    0    0  0.18699047143E+02  0.82107504247E+01  0.38295591577E+02  0.47787272808E+02  0.20000008039E+02 0.  0.
        -12    1    1    2    0    0 -0.18699047143E+02 -0.82107504247E+01 -0.38295591577E+02  0.43400727192E+02  0.00000000000E+00 0.  1.
         11    1    3    3    0    0  0.43910187552E+01  0.95935378902E+01  0.12876318897E+02  0.16646819623E+02  0.51100000000E-03 0. -1.
        -11    1    3    3    0    0  0.69149887381E+01  0.38842201697E+01  0.17002692117E+02  0.18761550444E+02  0.51100000000E-03 0.  1.
        -12    1    3    3    0    0  0.73930396496E+01 -0.52670076352E+01  0.84165805634E+01  0.12378902741E+02  0.00000000000E+00 0.  1.
</event>
<event>
 7    1  0.5541017E-010  0.4778727E+02  0.7816164E-02  0.1312668E+00
        -11   -1    0    0    0    0  0.00000000000E+00  0.00000000000E+00  0.45593999997E+02  0.45594000000E+02  0.51100000000E-03 0.  1.
         11   -1    0    0    0    0 -0.00000000000E+00 -0.00000000000E+00 -0.45593999997E+02  0.45594000000E+02  0.51100000000E-03 0. -1.
    9900012    2    1    2    0    0  0.26266999528E+01 -0.68172180594E+01 -0.42781412459E+02  0.47787271127E+02  0.20000000375E+02 0.  0.
        -12    1    1    2    0    0 -0.26266999528E+01  0.68172180594E+01  0.42781412459E+02  0.43400728873E+02  0.00000000000E+00 0.  1.
         11    1    3    3    0    0 -0.11958431796E+01 -0.56802492790E+00 -0.10419031909E+01  0.16847123640E+01  0.51100000000E-03 0.  1.
        -11    1    3    3    0    0  0.14126051129E+01  0.24754559426E+00 -0.38371135345E+02  0.38397926506E+02  0.51100000000E-03 0. -1.
         12    1    3    3    0    0  0.24099380195E+01 -0.64967387258E+01 -0.33683739237E+01  0.77046322572E+01  0.00000000000E+00 0. -1.
</event>
<event>
 7    1  0.5541017E-010  0.4778727E+02  0.7816164E-02  0.1312668E+00
        -11   -1    0    0    0    0  0.00000000000E+00  0.00000000000E+00  0.45593999997E+02  0.45594000000E+02  0.51100000000E-03 0. -1.
         11   -1    0    0    0    0 -0.00000000000E+00 -0.00000000000E+00 -0.45593999997E+02  0.45594000000E+02  0.51100000000E-03 0.  1.
    9900012    2    1    2    0    0 -0.32870063061E+02 -0.25972448065E+02  0.11340830388E+02  0.47787268001E+02  0.19999986126E+02 0.  0.
        -12    1    1    2    0    0  0.32870063061E+02  0.25972448065E+02 -0.11340830388E+02  0.43400731999E+02  0.00000000000E+00 0.  1.
         11    1    3    3    0    0 -0.64368544340E+01 -0.14402673051E+01  0.45321875893E+01  0.80030112783E+01  0.51100000000E-03 0. -1.
        -11    1    3    3    0    0 -0.19403985391E+02 -0.11277236420E+02 -0.17502673911E+01  0.22511200468E+02  0.51100000000E-03 0.  1.
         12    1    3    3    0    0 -0.70292232366E+01 -0.13254944340E+02  0.85589101894E+01  0.17273056255E+02  0.00000000000E+00 0. -1.
</event>
<event>
 7    1  0.5541017E-010  0.4778727E+02  0.7816164E-02  0.1312668E+00
        -11   -1    0    0    0    0  0.00000000000E+00  0.00000000000E+00  0.45593999997E+02  0.45594000000E+02  0.51100000000E-03 0.  1.
         11   -1    0    0    0    0 -0.00000000000E+00 -0.00000000000E+00 -0.45593999997E+02  0.45594000000E+02  0.51100000000E-03 0. -1.
    9900012    2    1    2    0    0 -0.28162790092E+02  0.26979600468E+02 -0.19041578836E+02  0.47787270608E+02  0.19999998011E+02 0.  0.
        -12    1    1    2    0    0  0.28162790092E+02 -0.26979600468E+02  0.19041578836E+02  0.43400729392E+02  0.00000000000E+00 0.  1.
         11    1    3    3    0    0  0.60079752235E+00  0.12756650716E+01 -0.72830235703E+01  0.74182687754E+01  0.51100000000E-03 0. -1.
        -11    1    3    3    0    0 -0.68893325570E+01  0.51392824344E+01 -0.25440627154E+01  0.89636701402E+01  0.51100000000E-03 0.  1.
         12    1    3    3    0    0 -0.21874255057E+02  0.20564652962E+02 -0.92144925508E+01  0.31405331692E+02  0.00000000000E+00 0. -1.
</event>
<event>
 7    1  0.5541017E-010  0.4778727E+02  0.7816164E-02  0.1312668E+00
        -11   -1    0    0    0    0  0.00000000000E+00  0.00000000000E+00  0.45593999997E+02  0.45594000000E+02  0.51100000000E-03 0.  1.
         11   -1    0    0    0    0 -0.00000000000E+00 -0.00000000000E+00 -0.45593999997E+02  0.45594000000E+02  0.51100000000E-03 0. -1.
    9900012    2    1    2    0    0  0.24482811367E+02  0.35664149495E+02 -0.35047994343E+01  0.47787271542E+02  0.20000002268E+02 0.  0.
        -12    1    1    2    0    0 -0.24482811367E+02 -0.35664149495E+02  0.35047994343E+01  0.43400728458E+02  0.00000000000E+00 0.  1.
         11    1    3    3    0    0  0.21250432977E+02  0.31860766564E+02 -0.21415184652E+01  0.38357208571E+02  0.51100000000E-03 0. -1.
        -11    1    3    3    0    0  0.49122004623E+01  0.31070200775E+01 -0.33726934698E+01  0.67199961790E+01  0.51100000000E-03 0.  1.
        -12    1    3    3    0    0 -0.16798220726E+01  0.69636285371E+00  0.20094125007E+01  0.27100667920E+01  0.00000000000E+00 0.  1.
</event>
<event>
 7    1  0.5541017E-010  0.4778727E+02  0.7816164E-02  0.1312668E+00
        -11   -1    0    0    0    0  0.00000000000E+00  0.00000000000E+00  0.45593999997E+02  0.45594000000E+02  0.51100000000E-03 0.  1.
         11   -1    0    0    0    0 -0.00000000000E+00 -0.00000000000E+00 -0.45593999997E+02  0.45594000000E+02  0.51100000000E-03 0. -1.
    9900012    2    1    2    0    0  0.28588398286E+02 -0.30195332343E+02 -0.12432565792E+02  0.47787270697E+02  0.19999998417E+02 0.  0.
        -12    1    1    2    0    0 -0.28588398286E+02  0.30195332343E+02  0.12432565792E+02  0.43400729303E+02  0.00000000000E+00 0.  1.
         11    1    3    3    0    0 -0.65237797737E+00 -0.74003182772E+01  0.23837078784E+01  0.78020747971E+01  0.51100000000E-03 0. -1.
        -11    1    3    3    0    0  0.61521356178E+01 -0.38242431935E+01 -0.24862307132E+01  0.76586521062E+01  0.51100000000E-03 0.  1.
         12    1    3    3    0    0  0.23088640645E+02 -0.18970770872E+02 -0.12330042957E+02  0.32326543794E+02  0.00000000000E+00 0. -1.
</event>
<event>
 7    1  0.5541017E-010  0.4778727E+02  0.7816164E-02  0.1312668E+00
        -11   -1    0    0    0    0  0.00000000000E+00  0.00000000000E+00  0.45593999997E+02  0.45594000000E+02  0.51100000000E-03 0.  1.
         11   -1    0    0    0    0 -0.00000000000E+00 -0.00000000000E+00 -0.45593999997E+02  0.45594000000E+02  0.51100000000E-03 0. -1.
    9900012    2    1    2    0    0 -0.15096050814E+02 -0.66638618146E+01 -0.40141322111E+02  0.47787267918E+02  0.19999985745E+02 0.  0.
        -12    1    1    2    0    0  0.15096050814E+02  0.66638618146E+01  0.40141322111E+02  0.43400732082E+02  0.00000000000E+00 0.  1.
         11    1    3    3    0    0  0.13384678301E+00 -0.43414578892E+01 -0.14383479169E+02  0.15025000660E+02  0.51100000000E-03 0.  1.
        -11    1    3    3    0    0 -0.86386785927E+01 -0.86123147700E+00 -0.24369587211E+02  0.25869775193E+02  0.51100000000E-03 0. -1.
         12    1    3    3    0    0 -0.65912190042E+01 -0.14611724483E+01 -0.13882557312E+01  0.68924920645E+01  0.00000000000E+00 0. -1.
</event>
<event>
 7    1  0.5541017E-010  0.4778727E+02  0.7816164E-02  0.1312668E+00
        -11   -1    0    0    0    0  0.00000000000E+00  0.00000000000E+00  0.45593999997E+02  0.45594000000E+02  0.51100000000E-03 0. -1.
         11   -1    0    0    0    0 -0.00000000000E+00 -0.00000000000E+00 -0.45593999997E+02  0.45594000000E+02  0.51100000000E-03 0.  1.
    9900012    2    1    2    0    0  0.24739264459E+02 -0.83242829528E+01  0.34674172480E+02  0.47787272704E+02  0.20000007567E+02 0.  0.
        -12    1    1    2    0    0 -0.24739264459E+02  0.83242829528E+01 -0.34674172480E+02  0.43400727296E+02  0.00000000000E+00 0.  1.
         11    1    3    3    0    0  0.14434395420E+02 -0.71934958566E+01  0.96680312962E+01  0.18803430091E+02  0.51100000000E-03 0. -1.
        -11    1    3    3    0    0  0.59456862325E+01 -0.30448219122E+01  0.48033145049E+01  0.82276336662E+01  0.51100000000E-03 0.  1.
        -12    1    3    3    0    0  0.43591828059E+01  0.19140348161E+01  0.20202826679E+02  0.20756208947E+02  0.00000000000E+00 0.  1.
</event>
<event>
 7    1  0.5541017E-010  0.4778727E+02  0.7816164E-02  0.1312668E+00
        -11   -1    0    0    0    0  0.00000000000E+00  0.00000000000E+00  0.45593999997E+02  0.45594000000E+02  0.51100000000E-03 0.  1.
         11   -1    0    0    0    0 -0.00000000000E+00 -0.00000000000E+00 -0.45593999997E+02  0.45594000000E+02  0.51100000000E-03 0. -1.
    9900012    2    1    2    0    0 -0.43354056189E+02 -0.14765958687E+01  0.13669594886E+01  0.47787273029E+02  0.20000009047E+02 0.  0.
        -12    1    1    2    0    0  0.43354056189E+02  0.14765958687E+01 -0.13669594886E+01  0.43400726971E+02  0.00000000000E+00 0.  1.
         11    1    3    3    0    0 -0.27896945177E+01 -0.32217237126E+01 -0.26670796541E+01  0.50274460041E+01  0.51100000000E-03 0. -1.
        -11    1    3    3    0    0 -0.76784203058E+01 -0.31152225218E+01  0.46678801463E+01  0.95106180175E+01  0.51100000000E-03 0.  1.
         12    1    3    3    0    0 -0.32885941366E+02  0.48603503657E+01 -0.63384100358E+00  0.33249209007E+02  0.00000000000E+00 0. -1.
</event>
<event>
 7    1  0.5541017E-010  0.4778727E+02  0.7816164E-02  0.1312668E+00
        -11   -1    0    0    0    0  0.00000000000E+00  0.00000000000E+00  0.45593999997E+02  0.45594000000E+02  0.51100000000E-03 0.  1.
         11   -1    0    0    0    0 -0.00000000000E+00 -0.00000000000E+00 -0.45593999997E+02  0.45594000000E+02  0.51100000000E-03 0. -1.
    9900012    2    1    2    0    0  0.84316223900E+01  0.15360481513E+02 -0.39706250534E+02  0.47787274431E+02  0.20000015441E+02 0.  0.
        -12    1    1    2    0    0 -0.84316223900E+01 -0.15360481513E+02  0.39706250534E+02  0.43400725569E+02  0.00000000000E+00 0.  1.
         11    1    3    3    0    0 -0.70293516685E+00  0.11718185405E+02 -0.33661314645E+02  0.35649601554E+02  0.51100000000E-03 0.  1.
        -11    1    3    3    0    0  0.73819476983E+00  0.59912988061E+00 -0.22336978782E+01  0.24276108840E+01  0.51100000000E-03 0. -1.
        -12    1    3    3    0    0  0.83963627870E+01  0.30431662277E+01 -0.38112380104E+01  0.97100619932E+01  0.00000000000E+00 0.  1.
</event>
<event>
 7    1  0.5541017E-010  0.4778727E+02  0.7816164E-02  0.1312668E+00
        -11   -1    0    0    0    0  0.00000000000E+00  0.00000000000E+00  0.45593999997E+02  0.45594000000E+02  0.51100000000E-03 0.  1.
         11   -1    0    0    0    0 -0.00000000000E+00 -0.00000000000E+00 -0.45593999997E+02  0.45594000000E+02  0.51100000000E-03 0. -1.
    9900012    2    1    2    0    0 -0.16818350094E+02 -0.32062517436E+02 -0.23932433283E+02  0.47787270892E+02  0.19999999304E+02 0.  0.
        -12    1    1    2    0    0  0.16818350094E+02  0.32062517436E+02  0.23932433283E+02  0.43400729108E+02  0.00000000000E+00 0.  1.
         11    1    3    3    0    0 -0.17077825927E+02 -0.22680090556E+02 -0.24450119406E+02  0.37467946104E+02  0.51100000000E-03 0. -1.
        -11    1    3    3    0    0 -0.90549480770E+00 -0.56407035445E+01 -0.15069625518E+01  0.59083325666E+01  0.51100000000E-03 0.  1.
         12    1    3    3    0    0  0.11649706406E+01 -0.37417233364E+01  0.20246486749E+01  0.44109922213E+01  0.00000000000E+00 0. -1.
</event>
<event>
 7    1  0.5541017E-010  0.4778727E+02  0.7816164E-02  0.1312668E+00
        -11   -1    0    0    0    0  0.00000000000E+00  0.00000000000E+00  0.45593999997E+02  0.45594000000E+02  0.51100000000E-03 0. -1.
         11   -1    0    0    0    0 -0.00000000000E+00 -0.00000000000E+00 -0.45593999997E+02  0.45594000000E+02  0.51100000000E-03 0.  1.
    9900012    2    1    2    0    0 -0.39809554136E+02  0.12393933880E+02 -0.12050430889E+02  0.47787273253E+02  0.20000010072E+02 0.  0.
        -12    1    1    2    0    0  0.39809554136E+02 -0.12393933880E+02  0.12050430889E+02  0.43400726747E+02  0.00000000000E+00 0.  1.
         11    1    3    3    0    0 -0.17412183115E+02  0.25996365825E+01 -0.10013076110E+02  0.20253491665E+02  0.51100000000E-03 0.  1.
        -11    1    3    3    0    0 -0.54033884446E+01 -0.14501042227E+01 -0.42653503521E+01  0.70350993474E+01  0.51100000000E-03 0. -1.
         12    1    3    3    0    0 -0.16993982576E+02  0.11244401520E+02  0.22279955724E+01  0.20498682241E+02  0.00000000000E+00 0. -1.
</event>
<event>
 7    1  0.5541017E-010  0.4778727E+02  0.7816164E-02  0.1312668E+00
        -11   -1    0    0    0    0  0.00000000000E+00  0.00000000000E+00  0.45593999997E+02  0.45594000000E+02  0.51100000000E-03 0.  1.
         11   -1    0    0    0    0 -0.00000000000E+00 -0.00000000000E+00 -0.45593999997E+02  0.45594000000E+02  0.51100000000E-03 0. -1.
    9900012    2    1    2    0    0 -0.39821824077E+02  0.92946688778E+01  0.14541479839E+02  0.47787272146E+02  0.20000005021E+02 0.  0.
        -12    1    1    2    0    0  0.39821824077E+02 -0.92946688778E+01 -0.14541479839E+02  0.43400727854E+02  0.00000000000E+00 0.  1.
         11    1    3    3    0    0 -0.13577621477E+02  0.93477039944E+01  0.80367418562E+01  0.18339045636E+02  0.51100000000E-03 0. -1.
        -11    1    3    3    0    0 -0.22816068984E+02  0.41117727857E+01  0.41047362630E+01  0.23544182708E+02  0.51100000000E-03 0.  1.
        -12    1    3    3    0    0 -0.34281336164E+01 -0.41648079023E+01  0.24000017194E+01  0.59040438014E+01  0.00000000000E+00 0.  1.
</event>
<event>
 7    1  0.5541017E-010  0.4778727E+02  0.7816164E-02  0.1312668E+00
        -11   -1    0    0    0    0  0.00000000000E+00  0.00000000000E+00  0.45593999997E+02  0.45594000000E+02  0.51100000000E-03 0.  1.
         11   -1    0    0    0    0 -0.00000000000E+00 -0.00000000000E+00 -0.45593999997E+02  0.45594000000E+02  0.51100000000E-03 0. -1.
    9900012    2    1    2    0    0 -0.23672285494E+01 -0.91782959140E+01 -0.42353018938E+02  0.47787273047E+02  0.20000009132E+02 0.  0.
        -12    1    1    2    0    0  0.23672285494E+01  0.91782959140E+01  0.42353018938E+02  0.43400726953E+02  0.00000000000E+00 0.  1.
         11    1    3    3    0    0  0.95027817647E-01 -0.19058819222E+01 -0.15728610104E+01  0.24729149210E+01  0.51100000000E-03 0. -1.
        -11    1    3    3    0    0 -0.96552988492E+00  0.12908427593E+01  0.14685172107E+01  0.21806113930E+01  0.51100000000E-03 0.  1.
         12    1    3    3    0    0 -0.14967264821E+01 -0.85632567512E+01 -0.42248675138E+02  0.43133746733E+02  0.00000000000E+00 0. -1.
</event>
<event>
 7    1  0.5541017E-010  0.4778727E+02  0.7816164E-02  0.1312668E+00
        -11   -1    0    0    0    0  0.00000000000E+00  0.00000000000E+00  0.45593999997E+02  0.45594000000E+02  0.51100000000E-03 0. -1.
         11   -1    0    0    0    0 -0.00000000000E+00 -0.00000000000E+00 -0.45593999997E+02  0.45594000000E+02  0.51100000000E-03 0.  1.
    9900012    2    1    2    0    0 -0.36805789694E+02 -0.18871457778E+02 -0.13146297863E+02  0.47787271651E+02  0.20000002767E+02 0.  0.
        -12    1    1    2    0    0  0.36805789694E+02  0.18871457778E+02  0.13146297863E+02  0.43400728349E+02  0.00000000000E+00 0.  1.
         11    1    3    3    0    0 -0.99452207647E+01 -0.14826087939E+02 -0.50593498720E+01  0.18555789421E+02  0.51100000000E-03 0. -1.
        -11    1    3    3    0    0 -0.98393709764E+01 -0.37542835158E+01 -0.58903859707E+01  0.12066669510E+02  0.51100000000E-03 0.  1.
         12    1    3    3    0    0 -0.17021197953E+02 -0.29108632310E+00 -0.21965620205E+01  0.17164812720E+02  0.00000000000E+00 0. -1.
</event>
<event>
 7    1  0.5541017E-010  0.4778728E+02  0.7816164E-02  0.1312668E+00
        -11   -1    0    0    0    0  0.00000000000E+00  0.00000000000E+00  0.45593999997E+02  0.45594000000E+02  0.51100000000E-03 0.  1.
         11   -1    0    0    0    0 -0.00000000000E+00 -0.00000000000E+00 -0.45593999997E+02  0.45594000000E+02  0.51100000000E-03 0. -1.
    9900012    2    1    2    0    0  0.37024490807E+02  0.83471169558E+01 -0.21050777235E+02  0.47787279923E+02  0.20000040482E+02 0.  0.
        -12    1    1    2    0    0 -0.37024490807E+02 -0.83471169558E+01  0.21050777235E+02  0.43400720077E+02  0.00000000000E+00 0.  1.
         11    1    3    3    0    0  0.10268910272E+02  0.22995169351E+01  0.91687802588E+00  0.10563094332E+02  0.51100000000E-03 0.  1.
        -11    1    3    3    0    0  0.56782304887E+01  0.32513650414E+01  0.14895075542E+00  0.65449112067E+01  0.51100000000E-03 0. -1.
         12    1    3    3    0    0  0.21077350047E+02  0.27962349793E+01 -0.22116606016E+02  0.30679274384E+02  0.00000000000E+00 0. -1.
</event>
<event>
 7    1  0.5541017E-010  0.4778728E+02  0.7816164E-02  0.1312668E+00
        -11   -1    0    0    0    0  0.00000000000E+00  0.00000000000E+00  0.45593999997E+02  0.45594000000E+02  0.51100000000E-03 0. -1.
         11   -1    0    0    0    0 -0.00000000000E+00 -0.00000000000E+00 -0.45593999997E+02  0.45594000000E+02  0.51100000000E-03 0.  1.
    9900012    2    1    2    0    0  0.36647850491E+02  0.33390525411E+01  0.23008881979E+02  0.47787275727E+02  0.20000021350E+02 0.  0.
        -12    1    1    2    0    0 -0.36647850491E+02 -0.33390525411E+01 -0.23008881979E+02  0.43400724273E+02  0.00000000000E+00 0.  1.
         11    1    3    3    0    0  0.17646703929E+02  0.64291315342E+01  0.13614446672E+02  0.23196832764E+02  0.51100000000E-03 0. -1.
        -11    1    3    3    0    0 -0.95491995876E-01  0.24721306530E+01  0.25568007451E+01  0.35577772553E+01  0.51100000000E-03 0.  1.
        -12    1    3    3    0    0  0.19096638558E+02 -0.55622096462E+01  0.68376345617E+01  0.21032665708E+02  0.00000000000E+00 0.  1.
</event>
<event>
 7    1  0.5541017E-010  0.4778727E+02  0.7816164E-02  0.1312668E+00
        -11   -1    0    0    0    0  0.00000000000E+00  0.00000000000E+00  0.45593999997E+02  0.45594000000E+02  0.51100000000E-03 0.  1.
         11   -1    0    0    0    0 -0.00000000000E+00 -0.00000000000E+00 -0.45593999997E+02  0.45594000000E+02  0.51100000000E-03 0. -1.
    9900012    2    1    2    0    0 -0.20700907777E+02  0.11803657655E+02 -0.36273533248E+02  0.47787272689E+02  0.20000007500E+02 0.  0.
        -12    1    1    2    0    0  0.20700907777E+02 -0.11803657655E+02  0.36273533248E+02  0.43400727311E+02  0.00000000000E+00 0.  1.
         11    1    3    3    0    0 -0.66440198930E+01  0.51365715657E+01 -0.14864206547E+02  0.17072551196E+02  0.51100000000E-03 0. -1.
        -11    1    3    3    0    0 -0.15523790417E+02  0.64357915579E+01 -0.10742777738E+02  0.19945294073E+02  0.51100000000E-03 0.  1.
        -12    1    3    3    0    0  0.14669025326E+01  0.23129453122E+00 -0.10666548963E+02  0.10769427421E+02  0.00000000000E+00 0.  1.
</event>
<event>
 7    1  0.5541017E-010  0.4778727E+02  0.7816164E-02  0.1312668E+00
        -11   -1    0    0    0    0  0.00000000000E+00  0.00000000000E+00  0.45593999997E+02  0.45594000000E+02  0.51100000000E-03 0. -1.
         11   -1    0    0    0    0 -0.00000000000E+00 -0.00000000000E+00 -0.45593999997E+02  0.45594000000E+02  0.51100000000E-03 0.  1.
    9900012    2    1    2    0    0 -0.10309485915E+01  0.61245302556E+01  0.42954054917E+02  0.47787267752E+02  0.19999984988E+02 0.  0.
        -12    1    1    2    0    0  0.10309485915E+01 -0.61245302556E+01 -0.42954054917E+02  0.43400732248E+02  0.00000000000E+00 0.  1.
         11    1    3    3    0    0 -0.22078851155E+01  0.38100399383E+01  0.26950221150E+01  0.51627807891E+01  0.51100000000E-03 0. -1.
        -11    1    3    3    0    0 -0.38928204233E+01  0.59870921040E+01  0.27503829116E+02  0.28415839580E+02  0.51100000000E-03 0.  1.
        -12    1    3    3    0    0  0.50697569473E+01 -0.36726017867E+01  0.12755203686E+02  0.14208647383E+02  0.00000000000E+00 0.  1.
</event>
<event>
 7    1  0.5541017E-010  0.4778727E+02  0.7816164E-02  0.1312668E+00
        -11   -1    0    0    0    0  0.00000000000E+00  0.00000000000E+00  0.45593999997E+02  0.45594000000E+02  0.51100000000E-03 0. -1.
         11   -1    0    0    0    0 -0.00000000000E+00 -0.00000000000E+00 -0.45593999997E+02  0.45594000000E+02  0.51100000000E-03 0.  1.
    9900012    2    1    2    0    0 -0.92162878745E+01  0.41815216262E+02  0.70831346117E+01  0.47787273403E+02  0.20000010754E+02 0.  0.
        -12    1    1    2    0    0  0.92162878745E+01 -0.41815216262E+02 -0.70831346117E+01  0.43400726597E+02  0.00000000000E+00 0.  1.
         11    1    3    3    0    0  0.69723145566E-01  0.16222879883E+01 -0.12199053725E+01  0.20309724303E+01  0.51100000000E-03 0.  1.
        -11    1    3    3    0    0 -0.13674549986E+02  0.28426084696E+02  0.99822359291E+01  0.33085958394E+02  0.51100000000E-03 0. -1.
         12    1    3    3    0    0  0.43885389659E+01  0.11766843578E+02 -0.16791959449E+01  0.12670342579E+02  0.00000000000E+00 0. -1.
</event>
<event>
 7    1  0.5541017E-010  0.4778727E+02  0.7816164E-02  0.1312668E+00
        -11   -1    0    0    0    0  0.00000000000E+00  0.00000000000E+00  0.45593999997E+02  0.45594000000E+02  0.51100000000E-03 0.  1.
         11   -1    0    0    0    0 -0.00000000000E+00 -0.00000000000E+00 -0.45593999997E+02  0.45594000000E+02  0.51100000000E-03 0. -1.
    9900012    2    1    2    0    0  0.91822219383E+01  0.41085594151E+02 -0.10549121897E+02  0.47787271674E+02  0.20000002868E+02 0.  0.
        -12    1    1    2    0    0 -0.91822219383E+01 -0.41085594151E+02  0.10549121897E+02  0.43400728326E+02  0.00000000000E+00 0.  1.
         11    1    3    3    0    0 -0.14307449979E+01  0.16819090468E+02  0.32641621013E+00  0.16882990945E+02  0.51100000000E-03 0. -1.
        -11    1    3    3    0    0  0.83205809518E+01  0.19099262091E+02 -0.27614741906E+01  0.21015223524E+02  0.51100000000E-03 0.  1.
        -12    1    3    3    0    0  0.22923859844E+01  0.51672415921E+01 -0.81140639163E+01  0.98890572053E+01  0.00000000000E+00 0.  1.
</event>
<event>
 7    1  0.5541017E-010  0.4778727E+02  0.7816164E-02  0.1312668E+00
        -11   -1    0    0    0    0  0.00000000000E+00  0.00000000000E+00  0.45593999997E+02  0.45594000000E+02  0.51100000000E-03 0. -1.
         11   -1    0    0    0    0 -0.00000000000E+00 -0.00000000000E+00 -0.45593999997E+02  0.45594000000E+02  0.51100000000E-03 0.  1.
    9900012    2    1    2    0    0  0.43027578293E+02  0.56480341465E+01 -0.59194738536E+00  0.47787272066E+02  0.20000004658E+02 0.  0.
        -12    1    1    2    0    0 -0.43027578293E+02 -0.56480341465E+01  0.59194738536E+00  0.43400727934E+02  0.00000000000E+00 0.  1.
         11    1    3    3    0    0  0.38397037675E+02  0.23363299642E+01 -0.22150536641E+01  0.38531771345E+02  0.51100000000E-03 0. -1.
        -11    1    3    3    0    0  0.44938398041E+01 -0.65038214723E+00 -0.79796762844E+00  0.46102435640E+01  0.51100000000E-03 0.  1.
         12    1    3    3    0    0  0.13670081359E+00  0.39620863295E+01  0.24210739071E+01  0.46452571575E+01  0.00000000000E+00 0. -1.
</event>
<event>
 7    1  0.5541017E-010  0.4778727E+02  0.7816164E-02  0.1312668E+00
        -11   -1    0    0    0    0  0.00000000000E+00  0.00000000000E+00  0.45593999997E+02  0.45594000000E+02  0.51100000000E-03 0.  1.
         11   -1    0    0    0    0 -0.00000000000E+00 -0.00000000000E+00 -0.45593999997E+02  0.45594000000E+02  0.51100000000E-03 0. -1.
    9900012    2    1    2    0    0  0.24714676152E+02 -0.18202926586E+02 -0.30683241774E+02  0.47787273286E+02  0.20000010219E+02 0.  0.
        -12    1    1    2    0    0 -0.24714676152E+02  0.18202926586E+02  0.30683241774E+02  0.43400726714E+02  0.00000000000E+00 0.  1.
         11    1    3    3    0    0  0.10930901878E+02 -0.36342327099E+01 -0.74111668581E+01  0.13697359517E+02  0.51100000000E-03 0. -1.
        -11    1    3    3    0    0  0.36299868161E+01 -0.15600976804E+01  0.15822102684E+01  0.42560661005E+01  0.51100000000E-03 0.  1.
         12    1    3    3    0    0  0.10153787457E+02 -0.13008596196E+02 -0.24854285184E+02  0.29833847669E+02  0.00000000000E+00 0. -1.
</event>
<event>
 7    1  0.5541017E-010  0.4778727E+02  0.7816164E-02  0.1312668E+00
        -11   -1    0    0    0    0  0.00000000000E+00  0.00000000000E+00  0.45593999997E+02  0.45594000000E+02  0.51100000000E-03 0.  1.
         11   -1    0    0    0    0 -0.00000000000E+00 -0.00000000000E+00 -0.45593999997E+02  0.45594000000E+02  0.51100000000E-03 0. -1.
    9900012    2    1    2    0    0  0.12874233848E+02  0.29130748580E+02 -0.29483503024E+02  0.47787270046E+02  0.19999995449E+02 0.  0.
        -12    1    1    2    0    0 -0.12874233848E+02 -0.29130748580E+02  0.29483503024E+02  0.43400729954E+02  0.00000000000E+00 0.  1.
         11    1    3    3    0    0  0.38072314943E+01  0.86781254729E+01 -0.12157898103E+02  0.15414907068E+02  0.51100000000E-03 0. -1.
        -11    1    3    3    0    0 -0.28837920797E+01  0.63724336525E+01 -0.10636253206E+02  0.12730045166E+02  0.51100000000E-03 0.  1.
        -12    1    3    3    0    0  0.11950794433E+02  0.14080189454E+02 -0.66893517145E+01  0.19642317811E+02  0.00000000000E+00 0.  1.
</event>
<event>
 7    1  0.5541017E-010  0.4778727E+02  0.7816164E-02  0.1312668E+00
        -11   -1    0    0    0    0  0.00000000000E+00  0.00000000000E+00  0.45593999997E+02  0.45594000000E+02  0.51100000000E-03 0. -1.
         11   -1    0    0    0    0 -0.00000000000E+00 -0.00000000000E+00 -0.45593999997E+02  0.45594000000E+02  0.51100000000E-03 0.  1.
    9900012    2    1    2    0    0  0.35551158201E+02  0.23736324638E+02 -0.75050167100E+01  0.47787271520E+02  0.20000002168E+02 0.  0.
        -12    1    1    2    0    0 -0.35551158201E+02 -0.23736324638E+02  0.75050167100E+01  0.43400728480E+02  0.00000000000E+00 0.  1.
         11    1    3    3    0    0  0.13794886692E+02  0.42399280654E+01 -0.12965621027E+01  0.14489891732E+02  0.51100000000E-03 0. -1.
        -11    1    3    3    0    0  0.10335046075E+02  0.38206278391E+00 -0.73670746157E+00  0.10368311699E+02  0.51100000000E-03 0.  1.
        -12    1    3    3    0    0  0.11421225434E+02  0.19114333789E+02 -0.54717471457E+01  0.22929068089E+02  0.00000000000E+00 0.  1.
</event>
<event>
 7    1  0.5541017E-010  0.4778727E+02  0.7816164E-02  0.1312668E+00
        -11   -1    0    0    0    0  0.00000000000E+00  0.00000000000E+00  0.45593999997E+02  0.45594000000E+02  0.51100000000E-03 0. -1.
         11   -1    0    0    0    0 -0.00000000000E+00 -0.00000000000E+00 -0.45593999997E+02  0.45594000000E+02  0.51100000000E-03 0.  1.
    9900012    2    1    2    0    0 -0.32238875053E+02 -0.19808158650E+02 -0.21258292189E+02  0.47787271889E+02  0.20000003851E+02 0.  0.
        -12    1    1    2    0    0  0.32238875053E+02  0.19808158650E+02  0.21258292189E+02  0.43400728111E+02  0.00000000000E+00 0.  1.
         11    1    3    3    0    0 -0.16255403306E+02 -0.83110141082E+01 -0.12166889817E+02  0.21939560165E+02  0.51100000000E-03 0. -1.
        -11    1    3    3    0    0 -0.13788988747E+02 -0.15410035009E+01 -0.65359834254E+01  0.15337209070E+02  0.51100000000E-03 0.  1.
        -12    1    3    3    0    0 -0.21944830005E+01 -0.99561410406E+01 -0.25554189463E+01  0.10510502655E+02  0.00000000000E+00 0.  1.
</event>
<event>
 7    1  0.5541017E-010  0.4778727E+02  0.7816164E-02  0.1312668E+00
        -11   -1    0    0    0    0  0.00000000000E+00  0.00000000000E+00  0.45593999997E+02  0.45594000000E+02  0.51100000000E-03 0.  1.
         11   -1    0    0    0    0 -0.00000000000E+00 -0.00000000000E+00 -0.45593999997E+02  0.45594000000E+02  0.51100000000E-03 0. -1.
    9900012    2    1    2    0    0 -0.33353132839E+02  0.78477982218E+01 -0.26638391954E+02  0.47787270363E+02  0.19999996893E+02 0.  0.
        -12    1    1    2    0    0  0.33353132839E+02 -0.78477982218E+01  0.26638391954E+02  0.43400729637E+02  0.00000000000E+00 0.  1.
         11    1    3    3    0    0 -0.80201470382E+01  0.16302308949E+01 -0.46983095396E+01  0.94368704599E+01  0.51100000000E-03 0. -1.
        -11    1    3    3    0    0  0.11252246290E+01  0.47897131907E+01 -0.41368118762E+01  0.64281175841E+01  0.51100000000E-03 0.  1.
        -12    1    3    3    0    0 -0.26458210430E+02  0.14278541362E+01 -0.17803270538E+02  0.31922282319E+02  0.00000000000E+00 0.  1.
</event>
<event>
 7    1  0.5541017E-010  0.4778727E+02  0.7816164E-02  0.1312668E+00
        -11   -1    0    0    0    0  0.00000000000E+00  0.00000000000E+00  0.45593999997E+02  0.45594000000E+02  0.51100000000E-03 0.  1.
         11   -1    0    0    0    0 -0.00000000000E+00 -0.00000000000E+00 -0.45593999997E+02  0.45594000000E+02  0.51100000000E-03 0. -1.
    9900012    2    1    2    0    0 -0.27597132094E+02 -0.25758993571E+02 -0.21412516947E+02  0.47787270379E+02  0.19999996967E+02 0.  0.
        -12    1    1    2    0    0  0.27597132094E+02  0.25758993571E+02  0.21412516947E+02  0.43400729621E+02  0.00000000000E+00 0.  1.
         11    1    3    3    0    0  0.19118177037E+00  0.45972119375E+00 -0.16998207088E+01  0.17712381964E+01  0.51100000000E-03 0. -1.
        -11    1    3    3    0    0 -0.15078503818E+02 -0.37686951465E+01 -0.98285257940E+01  0.18389243053E+02  0.51100000000E-03 0.  1.
         12    1    3    3    0    0 -0.12709810046E+02 -0.22450019618E+02 -0.98841704445E+01  0.27626789130E+02  0.00000000000E+00 0. -1.
</event>
<event>
 7    1  0.5541017E-010  0.4778722E+02  0.7816164E-02  0.1312668E+00
        -11   -1    0    0    0    0  0.00000000000E+00  0.00000000000E+00  0.45593999997E+02  0.45594000000E+02  0.51100000000E-03 0. -1.
         11   -1    0    0    0    0 -0.00000000000E+00 -0.00000000000E+00 -0.45593999997E+02  0.45594000000E+02  0.51100000000E-03 0.  1.
    9900012    2    1    2    0    0 -0.31930697843E+02  0.86612691979E+01  0.28089874547E+02  0.47787215435E+02  0.19999746451E+02 0.  0.
        -12    1    1    2    0    0  0.31930697843E+02 -0.86612691979E+01 -0.28089874547E+02  0.43400784565E+02  0.00000000000E+00 0.  1.
         11    1    3    3    0    0 -0.47391060963E+01  0.32518430027E+00  0.10890618600E+02  0.11881516956E+02  0.51100000000E-03 0. -1.
        -11    1    3    3    0    0 -0.14992823866E+01  0.51432269096E+01  0.48281545861E+01  0.72119142873E+01  0.51100000000E-03 0.  1.
        -12    1    3    3    0    0 -0.25692309360E+02  0.31928579880E+01  0.12371101361E+02  0.28693784192E+02  0.00000000000E+00 0.  1.
</event>
<event>
 7    1  0.5541017E-010  0.4778727E+02  0.7816164E-02  0.1312668E+00
        -11   -1    0    0    0    0  0.00000000000E+00  0.00000000000E+00  0.45593999997E+02  0.45594000000E+02  0.51100000000E-03 0. -1.
         11   -1    0    0    0    0 -0.00000000000E+00 -0.00000000000E+00 -0.45593999997E+02  0.45594000000E+02  0.51100000000E-03 0.  1.
    9900012    2    1    2    0    0  0.31694648956E+02  0.28442583426E+02 -0.83721135146E+01  0.47787267182E+02  0.19999982391E+02 0.  0.
        -12    1    1    2    0    0 -0.31694648956E+02 -0.28442583426E+02  0.83721135146E+01  0.43400732818E+02  0.00000000000E+00 0.  1.
         11    1    3    3    0    0  0.28531191766E+01  0.21548956967E+01  0.40776884023E+01  0.54232285095E+01  0.51100000000E-03 0.  1.
        -11    1    3    3    0    0  0.13623736332E+02  0.54532956720E+01 -0.51310410242E+01  0.15545809969E+02  0.51100000000E-03 0. -1.
         12    1    3    3    0    0  0.15217793448E+02  0.20834392058E+02 -0.73187608926E+01  0.26818228704E+02  0.00000000000E+00 0. -1.
</event>
<event>
 7    1  0.5541017E-010  0.4778728E+02  0.7816164E-02  0.1312668E+00
        -11   -1    0    0    0    0  0.00000000000E+00  0.00000000000E+00  0.45593999997E+02  0.45594000000E+02  0.51100000000E-03 0. -1.
         11   -1    0    0    0    0 -0.00000000000E+00 -0.00000000000E+00 -0.45593999997E+02  0.45594000000E+02  0.51100000000E-03 0.  1.
    9900012    2    1    2    0    0  0.90021206426E+01  0.39997035632E+02  0.14241542661E+02  0.47787279122E+02  0.20000036828E+02 0.  0.
        -12    1    1    2    0    0 -0.90021206426E+01 -0.39997035632E+02 -0.14241542661E+02  0.43400720878E+02  0.00000000000E+00 0.  1.
         11    1    3    3    0    0  0.30429378551E+01  0.29526732304E+02  0.97559251340E+00  0.29699144304E+02  0.51100000000E-03 0. -1.
        -11    1    3    3    0    0  0.25465656920E+01  0.68520022864E+01  0.82919998817E+01  0.11054057828E+02  0.51100000000E-03 0.  1.
         12    1    3    3    0    0  0.34126170955E+01  0.36183010412E+01  0.49739502654E+01  0.70340769905E+01  0.00000000000E+00 0. -1.
</event>
<event>
 7    1  0.5541017E-010  0.4778725E+02  0.7816164E-02  0.1312668E+00
        -11   -1    0    0    0    0  0.00000000000E+00  0.00000000000E+00  0.45593999997E+02  0.45594000000E+02  0.51100000000E-03 0. -1.
         11   -1    0    0    0    0 -0.00000000000E+00 -0.00000000000E+00 -0.45593999997E+02  0.45594000000E+02  0.51100000000E-03 0.  1.
    9900012    2    1    2    0    0  0.58882492123E+01 -0.15801726731E+02  0.39990733216E+02  0.47787253582E+02  0.19999920382E+02 0.  0.
        -12    1    1    2    0    0 -0.58882492123E+01  0.15801726731E+02 -0.39990733216E+02  0.43400746418E+02  0.00000000000E+00 0.  1.
         11    1    3    3    0    0  0.85295594154E+01 -0.13772505312E+02  0.27067572276E+02  0.31545027430E+02  0.51100000000E-03 0. -1.
        -11    1    3    3    0    0  0.14093523726E+00 -0.50020622218E+01  0.10148104046E+02  0.11314791435E+02  0.51100000000E-03 0.  1.
        -12    1    3    3    0    0 -0.27822454404E+01  0.29728408032E+01  0.27750568942E+01  0.49274347178E+01  0.00000000000E+00 0.  1.
</event>
<event>
 7    1  0.5541017E-010  0.4778727E+02  0.7816164E-02  0.1312668E+00
        -11   -1    0    0    0    0  0.00000000000E+00  0.00000000000E+00  0.45593999997E+02  0.45594000000E+02  0.51100000000E-03 0.  1.
         11   -1    0    0    0    0 -0.00000000000E+00 -0.00000000000E+00 -0.45593999997E+02  0.45594000000E+02  0.51100000000E-03 0. -1.
    9900012    2    1    2    0    0 -0.32143435259E+02  0.72562997522E+01 -0.28244800898E+02  0.47787273115E+02  0.20000009442E+02 0.  0.
        -12    1    1    2    0    0  0.32143435259E+02 -0.72562997522E+01  0.28244800898E+02  0.43400726885E+02  0.00000000000E+00 0.  1.
         11    1    3    3    0    0 -0.27534965188E+02  0.66236651277E+01 -0.23966046567E+02  0.37100116387E+02  0.51100000000E-03 0. -1.
        -11    1    3    3    0    0 -0.65012579593E+01  0.22547919719E+01 -0.16741738776E+01  0.70818994856E+01  0.51100000000E-03 0.  1.
        -12    1    3    3    0    0  0.18927878879E+01 -0.16221573475E+01 -0.26045804532E+01  0.36052572426E+01  0.00000000000E+00 0.  1.
</event>
<event>
 7    1  0.5541017E-010  0.4778727E+02  0.7816164E-02  0.1312668E+00
        -11   -1    0    0    0    0  0.00000000000E+00  0.00000000000E+00  0.45593999997E+02  0.45594000000E+02  0.51100000000E-03 0.  1.
         11   -1    0    0    0    0 -0.00000000000E+00 -0.00000000000E+00 -0.45593999997E+02  0.45594000000E+02  0.51100000000E-03 0. -1.
    9900012    2    1    2    0    0  0.27386087560E+02 -0.29009543431E+01 -0.33544148068E+02  0.47787271924E+02  0.20000004009E+02 0.  0.
        -12    1    1    2    0    0 -0.27386087560E+02  0.29009543431E+01  0.33544148068E+02  0.43400728076E+02  0.00000000000E+00 0.  1.
         11    1    3    3    0    0  0.65778969177E+01 -0.42007781832E-03 -0.78953263804E+01  0.10276424814E+02  0.51100000000E-03 0. -1.
        -11    1    3    3    0    0  0.19541427125E+02  0.86872930440E+00 -0.11232990787E+02  0.22556643079E+02  0.51100000000E-03 0.  1.
         12    1    3    3    0    0  0.12667635173E+01 -0.37692635697E+01 -0.14415830900E+02  0.14954204031E+02  0.00000000000E+00 0. -1.
</event>
<event>
 7    1  0.5541017E-010  0.4778727E+02  0.7816164E-02  0.1312668E+00
        -11   -1    0    0    0    0  0.00000000000E+00  0.00000000000E+00  0.45593999997E+02  0.45594000000E+02  0.51100000000E-03 0.  1.
         11   -1    0    0    0    0 -0.00000000000E+00 -0.00000000000E+00 -0.45593999997E+02  0.45594000000E+02  0.51100000000E-03 0. -1.
    9900012    2    1    2    0    0 -0.28421289962E+02  0.63129006093E+01 -0.32186963394E+02  0.47787273627E+02  0.20000011774E+02 0.  0.
        -12    1    1    2    0    0  0.28421289962E+02 -0.63129006093E+01  0.32186963394E+02  0.43400726373E+02  0.00000000000E+00 0.  1.
         11    1    3    3    0    0  0.32899910625E+00 -0.43302391810E+00 -0.32920797826E+01  0.33366959229E+01  0.51100000000E-03 0.  1.
        -11    1    3    3    0    0 -0.18063617109E+02 -0.35140840379E+01 -0.19967222041E+02  0.27153876445E+02  0.51100000000E-03 0. -1.
         12    1    3    3    0    0 -0.10686671960E+02  0.10260008565E+02 -0.89276615698E+01  0.17296701259E+02  0.00000000000E+00 0. -1.
</event>
<event>
 7    1  0.5541017E-010  0.4778727E+02  0.7816164E-02  0.1312668E+00
        -11   -1    0    0    0    0  0.00000000000E+00  0.00000000000E+00  0.45593999997E+02  0.45594000000E+02  0.51100000000E-03 0.  1.
         11   -1    0    0    0    0 -0.00000000000E+00 -0.00000000000E+00 -0.45593999997E+02  0.45594000000E+02  0.51100000000E-03 0. -1.
    9900012    2    1    2    0    0  0.28478534662E+02  0.27428369196E+02 -0.17896391445E+02  0.47787271895E+02  0.20000003879E+02 0.  0.
        -12    1    1    2    0    0 -0.28478534662E+02 -0.27428369196E+02  0.17896391445E+02  0.43400728105E+02  0.00000000000E+00 0.  1.
         11    1    3    3    0    0  0.12846921590E+01 -0.11357925086E+00  0.11614849716E+01  0.17356214420E+01  0.51100000000E-03 0. -1.
        -11    1    3    3    0    0  0.10807843094E+02  0.50817103649E+01 -0.12892310407E+02  0.17573984194E+02  0.51100000000E-03 0.  1.
         12    1    3    3    0    0  0.16385999409E+02  0.22460238082E+02 -0.61655660105E+01  0.28477666259E+02  0.00000000000E+00 0. -1.
</event>
<event>
 7    1  0.5541017E-010  0.4778727E+02  0.7816164E-02  0.1312668E+00
        -11   -1    0    0    0    0  0.00000000000E+00  0.00000000000E+00  0.45593999997E+02  0.45594000000E+02  0.51100000000E-03 0. -1.
         11   -1    0    0    0    0 -0.00000000000E+00 -0.00000000000E+00 -0.45593999997E+02  0.45594000000E+02  0.51100000000E-03 0.  1.
    9900012    2    1    2    0    0 -0.26978936754E+02 -0.24497530789E+02  0.23571832665E+02  0.47787270302E+02  0.19999996616E+02 0.  0.
        -12    1    1    2    0    0  0.26978936754E+02  0.24497530789E+02 -0.23571832665E+02  0.43400729698E+02  0.00000000000E+00 0.  1.
         11    1    3    3    0    0  0.11975609623E+01 -0.31914510379E+01  0.49355264272E+01  0.59982441898E+01  0.51100000000E-03 0. -1.
        -11    1    3    3    0    0 -0.49745323447E+01 -0.64822336163E+01  0.10040629451E+02  0.12945252595E+02  0.51100000000E-03 0.  1.
        -12    1    3    3    0    0 -0.23201965371E+02 -0.14823846135E+02  0.85956767868E+01  0.28843773518E+02  0.00000000000E+00 0.  1.
</event>
<event>
 7    1  0.5541017E-010  0.4778727E+02  0.7816164E-02  0.1312668E+00
        -11   -1    0    0    0    0  0.00000000000E+00  0.00000000000E+00  0.45593999997E+02  0.45594000000E+02  0.51100000000E-03 0.  1.
         11   -1    0    0    0    0 -0.00000000000E+00 -0.00000000000E+00 -0.45593999997E+02  0.45594000000E+02  0.51100000000E-03 0. -1.
    9900012    2    1    2    0    0 -0.59896714305E+01 -0.14493933250E+02 -0.40468171958E+02  0.47787271820E+02  0.20000003536E+02 0.  0.
        -12    1    1    2    0    0  0.59896714305E+01  0.14493933250E+02  0.40468171958E+02  0.43400728180E+02  0.00000000000E+00 0.  1.
         11    1    3    3    0    0  0.41339670625E+01 -0.34652019043E+01 -0.38872366607E+01  0.66489034456E+01  0.51100000000E-03 0. -1.
        -11    1    3    3    0    0 -0.13057857933E+01 -0.40634064637E+00  0.58785401703E+00  0.14885435383E+01  0.51100000000E-03 0.  1.
         12    1    3    3    0    0 -0.88178526997E+01 -0.10622390700E+02 -0.37168789315E+02  0.39649824836E+02  0.00000000000E+00 0. -1.
</event>
<event>
 7    1  0.5541017E-010  0.4778727E+02  0.7816164E-02  0.1312668E+00
        -11   -1    0    0    0    0  0.00000000000E+00  0.00000000000E+00  0.45593999997E+02  0.45594000000E+02  0.51100000000E-03 0.  1.
         11   -1    0    0    0    0 -0.00000000000E+00 -0.00000000000E+00 -0.45593999997E+02  0.45594000000E+02  0.51100000000E-03 0. -1.
    9900012    2    1    2    0    0  0.23808931194E+02 -0.31739114939E+02  0.17589388097E+02  0.47787271949E+02  0.20000004125E+02 0.  0.
        -12    1    1    2    0    0 -0.23808931194E+02  0.31739114939E+02 -0.17589388097E+02  0.43400728051E+02  0.00000000000E+00 0.  1.
         11    1    3    3    0    0  0.42922757146E+01 -0.76880887986E+01  0.58005550899E+01  0.10544040013E+02  0.51100000000E-03 0. -1.
        -11    1    3    3    0    0  0.57114242344E+01 -0.22442433065E+01  0.95306111583E+01  0.11335322850E+02  0.51100000000E-03 0.  1.
         12    1    3    3    0    0  0.13805231245E+02 -0.21806782834E+02  0.22582218489E+01  0.25907909086E+02  0.00000000000E+00 0. -1.
</event>
<event>
 7    1  0.5541017E-010  0.4778726E+02  0.7816164E-02  0.1312668E+00
        -11   -1    0    0    0    0  0.00000000000E+00  0.00000000000E+00  0.45593999997E+02  0.45594000000E+02  0.51100000000E-03 0.  1.
         11   -1    0    0    0    0 -0.00000000000E+00 -0.00000000000E+00 -0.45593999997E+02  0.45594000000E+02  0.51100000000E-03 0. -1.
    9900012    2    1    2    0    0  0.18401016233E+02  0.33254083064E+02 -0.20956929690E+02  0.47787258752E+02  0.19999943952E+02 0.  0.
        -12    1    1    2    0    0 -0.18401016233E+02 -0.33254083064E+02  0.20956929690E+02  0.43400741248E+02  0.00000000000E+00 0.  1.
         11    1    3    3    0    0  0.12167515081E+02  0.14762944203E+02 -0.11199193863E+02  0.22167879651E+02  0.51100000000E-03 0. -1.
        -11    1    3    3    0    0  0.10377915872E+02  0.11400442028E+02 -0.72176714875E+01  0.17022514451E+02  0.51100000000E-03 0.  1.
        -12    1    3    3    0    0 -0.41444147192E+01  0.70906968338E+01 -0.25400643391E+01  0.85968646494E+01  0.00000000000E+00 0.  1.
</event>
<event>
 7    1  0.5541017E-010  0.4778727E+02  0.7816164E-02  0.1312668E+00
        -11   -1    0    0    0    0  0.00000000000E+00  0.00000000000E+00  0.45593999997E+02  0.45594000000E+02  0.51100000000E-03 0.  1.
         11   -1    0    0    0    0 -0.00000000000E+00 -0.00000000000E+00 -0.45593999997E+02  0.45594000000E+02  0.51100000000E-03 0. -1.
    9900012    2    1    2    0    0 -0.80723409731E+01 -0.23945337499E+02 -0.35285713831E+02  0.47787268701E+02  0.19999989317E+02 0.  0.
        -12    1    1    2    0    0  0.80723409731E+01  0.23945337499E+02  0.35285713831E+02  0.43400731299E+02  0.00000000000E+00 0.  1.
         11    1    3    3    0    0 -0.73513323300E+01 -0.13391860363E+02 -0.27276195995E+02  0.31262995366E+02  0.51100000000E-03 0. -1.
        -11    1    3    3    0    0 -0.49223314574E+01 -0.29763723399E+01 -0.26198742919E+01  0.63207500226E+01  0.51100000000E-03 0.  1.
         12    1    3    3    0    0  0.42013228143E+01 -0.75771047957E+01 -0.53896435435E+01  0.10203523313E+02  0.00000000000E+00 0. -1.
</event>
<event>
 7    1  0.5541017E-010  0.4778727E+02  0.7816164E-02  0.1312668E+00
        -11   -1    0    0    0    0  0.00000000000E+00  0.00000000000E+00  0.45593999997E+02  0.45594000000E+02  0.51100000000E-03 0.  1.
         11   -1    0    0    0    0 -0.00000000000E+00 -0.00000000000E+00 -0.45593999997E+02  0.45594000000E+02  0.51100000000E-03 0. -1.
    9900012    2    1    2    0    0 -0.32929792932E+02 -0.25098907429E+02 -0.13011408099E+02  0.47787272386E+02  0.20000006118E+02 0.  0.
        -12    1    1    2    0    0  0.32929792932E+02  0.25098907429E+02  0.13011408099E+02  0.43400727614E+02  0.00000000000E+00 0.  1.
         11    1    3    3    0    0 -0.11058459106E+01  0.76986649371E+00 -0.40963525008E+00  0.14083291147E+01  0.51100000000E-03 0. -1.
        -11    1    3    3    0    0 -0.33310156035E+00 -0.29420143257E+01  0.31851602488E+01  0.43487528113E+01  0.51100000000E-03 0.  1.
         12    1    3    3    0    0 -0.31490845461E+02 -0.22926759597E+02 -0.15786933098E+02  0.42030190460E+02  0.00000000000E+00 0. -1.
</event>
<event>
 7    1  0.5541017E-010  0.4778728E+02  0.7816164E-02  0.1312668E+00
        -11   -1    0    0    0    0  0.00000000000E+00  0.00000000000E+00  0.45593999997E+02  0.45594000000E+02  0.51100000000E-03 0. -1.
         11   -1    0    0    0    0 -0.00000000000E+00 -0.00000000000E+00 -0.45593999997E+02  0.45594000000E+02  0.51100000000E-03 0.  1.
    9900012    2    1    2    0    0 -0.26572691163E+02 -0.34276376873E+02  0.16262917046E+01  0.47787277058E+02  0.20000027420E+02 0.  0.
        -12    1    1    2    0    0  0.26572691163E+02  0.34276376873E+02 -0.16262917046E+01  0.43400722942E+02  0.00000000000E+00 0.  1.
         11    1    3    3    0    0 -0.11274321982E+02 -0.25422985202E+02 -0.33691092389E+00  0.27812803202E+02  0.51100000000E-03 0. -1.
        -11    1    3    3    0    0 -0.11517459840E+02 -0.70912893331E+01  0.54060372991E+01  0.14565833485E+02  0.51100000000E-03 0.  1.
        -12    1    3    3    0    0 -0.37809093415E+01 -0.17621023371E+01 -0.34428346706E+01  0.54086403711E+01  0.00000000000E+00 0.  1.
</event>
<event>
 7    1  0.6185409E-010  0.4778727E+02  0.7816164E-02  0.1312668E+00
        -11   -1    0    0    0    0  0.00000000000E+00  0.00000000000E+00  0.45593999997E+02  0.45594000000E+02  0.51100000000E-03 0.  1.
         11   -1    0    0    0    0 -0.00000000000E+00 -0.00000000000E+00 -0.45593999997E+02  0.45594000000E+02  0.51100000000E-03 0. -1.
    9900012    2    1    2    0    0  0.21828609771E+02  0.37444473413E+02 -0.22463810872E+01  0.47787273950E+02  0.20000013246E+02 0.  0.
        -12    1    1    2    0    0 -0.21828609771E+02 -0.37444473413E+02  0.22463810872E+01  0.43400726050E+02  0.00000000000E+00 0.  1.
         11    1    3    3    0    0  0.71805407482E+01  0.16533590368E+02  0.39202063234E+01  0.18446891169E+02  0.51100000000E-03 0. -1.
        -11    1    3    3    0    0  0.13951853559E+02  0.22629307664E+02 -0.47466238029E+01  0.27005003627E+02  0.51100000000E-03 0.  1.
        -12    1    3    3    0    0  0.69621546391E+00 -0.17184246199E+01 -0.14199636077E+01  0.23353791541E+01  0.00000000000E+00 0.  1.
</event>
<event>
 7    1  0.7740304E-010  0.4778727E+02  0.7816164E-02  0.1312668E+00
        -11   -1    0    0    0    0  0.00000000000E+00  0.00000000000E+00  0.45593999997E+02  0.45594000000E+02  0.51100000000E-03 0.  1.
         11   -1    0    0    0    0 -0.00000000000E+00 -0.00000000000E+00 -0.45593999997E+02  0.45594000000E+02  0.51100000000E-03 0. -1.
    9900012    2    1    2    0    0 -0.44006719713E+01  0.42236779595E+02 -0.89616857037E+01  0.47787271032E+02  0.19999999942E+02 0.  0.
        -12    1    1    2    0    0  0.44006719713E+01 -0.42236779595E+02  0.89616857037E+01  0.43400728968E+02  0.00000000000E+00 0.  1.
         11    1    3    3    0    0 -0.56028531082E+01  0.18566700262E+02 -0.57565417651E+00  0.19402208626E+02  0.51100000000E-03 0. -1.
        -11    1    3    3    0    0  0.18594000054E+01  0.30481375873E+01  0.31371160508E+01  0.47528947504E+01  0.51100000000E-03 0.  1.
        -12    1    3    3    0    0 -0.65721886852E+00  0.20621941745E+02 -0.11523147578E+02  0.23632167656E+02  0.00000000000E+00 0.  1.
</event>
<event>
 7    1  0.5541017E-010  0.4778727E+02  0.7816164E-02  0.1312668E+00
        -11   -1    0    0    0    0  0.00000000000E+00  0.00000000000E+00  0.45593999997E+02  0.45594000000E+02  0.51100000000E-03 0.  1.
         11   -1    0    0    0    0 -0.00000000000E+00 -0.00000000000E+00 -0.45593999997E+02  0.45594000000E+02  0.51100000000E-03 0. -1.
    9900012    2    1    2    0    0 -0.38977834603E+01  0.22107380774E+01 -0.43168774977E+02  0.47787271760E+02  0.20000003264E+02 0.  0.
        -12    1    1    2    0    0  0.38977834603E+01 -0.22107380774E+01  0.43168774977E+02  0.43400728240E+02  0.00000000000E+00 0.  1.
         11    1    3    3    0    0 -0.32250064359E+01  0.72413223392E+01 -0.22063776738E+02  0.23444565681E+02  0.51100000000E-03 0. -1.
        -11    1    3    3    0    0 -0.46504551169E+01 -0.15309713471E+01 -0.16851978502E+02  0.17548783027E+02  0.51100000000E-03 0.  1.
        -12    1    3    3    0    0  0.39776780924E+01 -0.34996129147E+01 -0.42530197366E+01  0.67939230522E+01  0.00000000000E+00 0.  1.
</event>
<event>
 7    1  0.5541017E-010  0.4778728E+02  0.7816164E-02  0.1312668E+00
        -11   -1    0    0    0    0  0.00000000000E+00  0.00000000000E+00  0.45593999997E+02  0.45594000000E+02  0.51100000000E-03 0.  1.
         11   -1    0    0    0    0 -0.00000000000E+00 -0.00000000000E+00 -0.45593999997E+02  0.45594000000E+02  0.51100000000E-03 0. -1.
    9900012    2    1    2    0    0  0.10315114018E+02  0.77204338982E+01 -0.41444132570E+02  0.47787276489E+02  0.20000024826E+02 0.  0.
        -12    1    1    2    0    0 -0.10315114018E+02 -0.77204338982E+01  0.41444132570E+02  0.43400723511E+02  0.00000000000E+00 0.  1.
         11    1    3    3    0    0  0.10519713881E+02 -0.68306222355E+00 -0.13789620051E+02  0.17357550967E+02  0.51100000000E-03 0. -1.
        -11    1    3    3    0    0  0.25574090875E+01  0.15053544080E+01 -0.16732444312E+01  0.34067844549E+01  0.51100000000E-03 0.  1.
        -12    1    3    3    0    0 -0.27620089503E+01  0.68981417137E+01 -0.25981268087E+02  0.27022941068E+02  0.00000000000E+00 0.  1.
</event>
<event>
 7    1  0.5541017E-010  0.4778727E+02  0.7816164E-02  0.1312668E+00
        -11   -1    0    0    0    0  0.00000000000E+00  0.00000000000E+00  0.45593999997E+02  0.45594000000E+02  0.51100000000E-03 0.  1.
         11   -1    0    0    0    0 -0.00000000000E+00 -0.00000000000E+00 -0.45593999997E+02  0.45594000000E+02  0.51100000000E-03 0. -1.
    9900012    2    1    2    0    0  0.34335180960E+02  0.14608040492E+02 -0.22165833437E+02  0.47787266475E+02  0.19999979164E+02 0.  0.
        -12    1    1    2    0    0 -0.34335180960E+02 -0.14608040492E+02  0.22165833437E+02  0.43400733525E+02  0.00000000000E+00 0.  1.
         11    1    3    3    0    0  0.87197554693E+01  0.61603610402E+01 -0.46790758776E+00  0.10686586048E+02  0.51100000000E-03 0. -1.
        -11    1    3    3    0    0 -0.72531972424E+00  0.15066171743E+01 -0.47091988500E+01  0.49972530536E+01  0.51100000000E-03 0.  1.
         12    1    3    3    0    0  0.26340745215E+02  0.69410622773E+01 -0.16988726999E+02  0.32103427373E+02  0.00000000000E+00 0. -1.
</event>
<event>
 7    1  0.5541017E-010  0.4778728E+02  0.7816164E-02  0.1312668E+00
        -11   -1    0    0    0    0  0.00000000000E+00  0.00000000000E+00  0.45593999997E+02  0.45594000000E+02  0.51100000000E-03 0. -1.
         11   -1    0    0    0    0 -0.00000000000E+00 -0.00000000000E+00 -0.45593999997E+02  0.45594000000E+02  0.51100000000E-03 0.  1.
    9900012    2    1    2    0    0  0.20097233710E+02 -0.17505766179E+02 -0.34253060753E+02  0.47787276236E+02  0.20000023669E+02 0.  0.
        -12    1    1    2    0    0 -0.20097233710E+02  0.17505766179E+02  0.34253060753E+02  0.43400723764E+02  0.00000000000E+00 0.  1.
         11    1    3    3    0    0  0.20344042860E+02 -0.11242747803E+02 -0.21063807312E+02  0.31368191481E+02  0.51100000000E-03 0.  1.
        -11    1    3    3    0    0  0.28135546027E+01 -0.48082645234E+01 -0.11149959734E+02  0.12464232811E+02  0.51100000000E-03 0. -1.
        -12    1    3    3    0    0 -0.30603637529E+01 -0.14547538523E+01 -0.20392937066E+01  0.39548519432E+01  0.00000000000E+00 0.  1.
</event>
<event>
 7    1  0.5541017E-010  0.4778727E+02  0.7816164E-02  0.1312668E+00
        -11   -1    0    0    0    0  0.00000000000E+00  0.00000000000E+00  0.45593999997E+02  0.45594000000E+02  0.51100000000E-03 0.  1.
         11   -1    0    0    0    0 -0.00000000000E+00 -0.00000000000E+00 -0.45593999997E+02  0.45594000000E+02  0.51100000000E-03 0. -1.
    9900012    2    1    2    0    0 -0.25018677693E+02 -0.16264748763E+02 -0.31514232779E+02  0.47787272432E+02  0.20000006326E+02 0.  0.
        -12    1    1    2    0    0  0.25018677693E+02  0.16264748763E+02  0.31514232779E+02  0.43400727568E+02  0.00000000000E+00 0.  1.
         11    1    3    3    0    0 -0.11279770487E+02 -0.10903292004E+02 -0.81311448699E+01  0.17670045725E+02  0.51100000000E-03 0.  1.
        -11    1    3    3    0    0  0.21377888997E+00  0.78469063816E+00  0.10434641854E+01  0.13229733855E+01  0.51100000000E-03 0. -1.
         12    1    3    3    0    0 -0.13952686095E+02 -0.61461473966E+01 -0.24426552095E+02  0.28794253321E+02  0.00000000000E+00 0. -1.
</event>
<event>
 7    1  0.5541017E-010  0.4778727E+02  0.7816164E-02  0.1312668E+00
        -11   -1    0    0    0    0  0.00000000000E+00  0.00000000000E+00  0.45593999997E+02  0.45594000000E+02  0.51100000000E-03 0. -1.
         11   -1    0    0    0    0 -0.00000000000E+00 -0.00000000000E+00 -0.45593999997E+02  0.45594000000E+02  0.51100000000E-03 0.  1.
    9900012    2    1    2    0    0  0.30796594558E+02  0.30401337462E+02  0.33094108016E+01  0.47787265494E+02  0.19999974691E+02 0.  0.
        -12    1    1    2    0    0 -0.30796594558E+02 -0.30401337462E+02 -0.33094108016E+01  0.43400734506E+02  0.00000000000E+00 0.  1.
         11    1    3    3    0    0  0.16008843592E+00  0.11386636965E+01 -0.30705257277E+01  0.32787668150E+01  0.51100000000E-03 0. -1.
        -11    1    3    3    0    0  0.35537170921E+01  0.22529398995E+01  0.45764278883E+01  0.62167785741E+01  0.51100000000E-03 0.  1.
         12    1    3    3    0    0  0.27082789030E+02  0.27009733866E+02  0.18035086410E+01  0.38291720105E+02  0.00000000000E+00 0. -1.
</event>
<event>
 7    1  0.5541017E-010  0.4778727E+02  0.7816164E-02  0.1312668E+00
        -11   -1    0    0    0    0  0.00000000000E+00  0.00000000000E+00  0.45593999997E+02  0.45594000000E+02  0.51100000000E-03 0. -1.
         11   -1    0    0    0    0 -0.00000000000E+00 -0.00000000000E+00 -0.45593999997E+02  0.45594000000E+02  0.51100000000E-03 0.  1.
    9900012    2    1    2    0    0 -0.13117593610E+02  0.41030702140E+02 -0.52946345570E+01  0.47787274945E+02  0.20000017784E+02 0.  0.
        -12    1    1    2    0    0  0.13117593610E+02 -0.41030702140E+02  0.52946345570E+01  0.43400725055E+02  0.00000000000E+00 0.  1.
         11    1    3    3    0    0 -0.13155938134E+02  0.23159226896E+02 -0.21430201078E+00  0.26635961109E+02  0.51100000000E-03 0. -1.
        -11    1    3    3    0    0 -0.39284447836E+01  0.27059707918E+01 -0.37641360424E+00  0.47850437622E+01  0.51100000000E-03 0.  1.
        -12    1    3    3    0    0  0.39667893074E+01  0.15165504452E+02 -0.47039189420E+01  0.16366270073E+02  0.00000000000E+00 0.  1.
</event>
<event>
 7    1  0.5541017E-010  0.4778727E+02  0.7816164E-02  0.1312668E+00
        -11   -1    0    0    0    0  0.00000000000E+00  0.00000000000E+00  0.45593999997E+02  0.45594000000E+02  0.51100000000E-03 0.  1.
         11   -1    0    0    0    0 -0.00000000000E+00 -0.00000000000E+00 -0.45593999997E+02  0.45594000000E+02  0.51100000000E-03 0. -1.
    9900012    2    1    2    0    0 -0.12553345628E+02 -0.40333723397E+02 -0.99612896985E+01  0.47787273946E+02  0.20000013230E+02 0.  0.
        -12    1    1    2    0    0  0.12553345628E+02  0.40333723397E+02  0.99612896985E+01  0.43400726054E+02  0.00000000000E+00 0.  1.
         11    1    3    3    0    0 -0.40130749616E+01 -0.66260454926E+01 -0.64599184005E+01  0.10086614671E+02  0.51100000000E-03 0. -1.
        -11    1    3    3    0    0 -0.98489406433E+01 -0.13125616257E+02 -0.46166452030E+01  0.17046901393E+02  0.51100000000E-03 0.  1.
        -12    1    3    3    0    0  0.13086699764E+01 -0.20582061647E+02  0.11152739050E+01  0.20653757882E+02  0.00000000000E+00 0.  1.
</event>
<event>
 7    1  0.5761998E-010  0.4778726E+02  0.7816164E-02  0.1312668E+00
        -11   -1    0    0    0    0  0.00000000000E+00  0.00000000000E+00  0.45593999997E+02  0.45594000000E+02  0.51100000000E-03 0. -1.
         11   -1    0    0    0    0 -0.00000000000E+00 -0.00000000000E+00 -0.45593999997E+02  0.45594000000E+02  0.51100000000E-03 0.  1.
    9900012    2    1    2    0    0 -0.26566136510E+02 -0.29515454498E+01  0.34192875622E+02  0.47787262991E+02  0.19999963282E+02 0.  0.
        -12    1    1    2    0    0  0.26566136510E+02  0.29515454498E+01 -0.34192875622E+02  0.43400737009E+02  0.00000000000E+00 0.  1.
         11    1    3    3    0    0 -0.13532624835E+02  0.32415322845E+01  0.14171011911E+02  0.19860942710E+02  0.51100000000E-03 0. -1.
        -11    1    3    3    0    0 -0.73978907821E+01 -0.13413138363E+01  0.11037057852E+01  0.75990839943E+01  0.51100000000E-03 0.  1.
        -12    1    3    3    0    0 -0.56356208924E+01 -0.48517638980E+01  0.18918157926E+02  0.20327236287E+02  0.00000000000E+00 0.  1.
</event>
<event>
 7    1  0.5541017E-010  0.4778727E+02  0.7816164E-02  0.1312668E+00
        -11   -1    0    0    0    0  0.00000000000E+00  0.00000000000E+00  0.45593999997E+02  0.45594000000E+02  0.51100000000E-03 0.  1.
         11   -1    0    0    0    0 -0.00000000000E+00 -0.00000000000E+00 -0.45593999997E+02  0.45594000000E+02  0.51100000000E-03 0. -1.
    9900012    2    1    2    0    0  0.14865788458E+02 -0.18768392855E+02 -0.36199157976E+02  0.47787271031E+02  0.19999999940E+02 0.  0.
        -12    1    1    2    0    0 -0.14865788458E+02  0.18768392855E+02  0.36199157976E+02  0.43400728969E+02  0.00000000000E+00 0.  1.
         11    1    3    3    0    0  0.27490220975E+01 -0.15064007690E+02 -0.19645407139E+02  0.24908301269E+02  0.51100000000E-03 0. -1.
        -11    1    3    3    0    0  0.29559604645E+01 -0.54415422654E+01 -0.45758739226E+01  0.76997861600E+01  0.51100000000E-03 0.  1.
        -12    1    3    3    0    0  0.91608058964E+01  0.17371571001E+01 -0.11977876914E+02  0.15179183602E+02  0.00000000000E+00 0.  1.
</event>
<event>
 7    1  0.5541017E-010  0.4778727E+02  0.7816164E-02  0.1312668E+00
        -11   -1    0    0    0    0  0.00000000000E+00  0.00000000000E+00  0.45593999997E+02  0.45594000000E+02  0.51100000000E-03 0.  1.
         11   -1    0    0    0    0 -0.00000000000E+00 -0.00000000000E+00 -0.45593999997E+02  0.45594000000E+02  0.51100000000E-03 0. -1.
    9900012    2    1    2    0    0 -0.54353888429E+01  0.34737272634E+02 -0.25444092520E+02  0.47787269521E+02  0.19999993053E+02 0.  0.
        -12    1    1    2    0    0  0.54353888429E+01 -0.34737272634E+02  0.25444092520E+02  0.43400730479E+02  0.00000000000E+00 0.  1.
         11    1    3    3    0    0 -0.59645952352E+01  0.55006079826E+01 -0.98458298435E+01  0.12758269870E+02  0.51100000000E-03 0. -1.
        -11    1    3    3    0    0 -0.37335890797E+00  0.90556683332E+00 -0.44720790464E+01  0.45780934266E+01  0.51100000000E-03 0.  1.
         12    1    3    3    0    0  0.90256530022E+00  0.28331097818E+02 -0.11126183631E+02  0.30450906225E+02  0.00000000000E+00 0. -1.
</event>
<event>
 7    1  0.5541017E-010  0.4778727E+02  0.7816164E-02  0.1312668E+00
        -11   -1    0    0    0    0  0.00000000000E+00  0.00000000000E+00  0.45593999997E+02  0.45594000000E+02  0.51100000000E-03 0. -1.
         11   -1    0    0    0    0 -0.00000000000E+00 -0.00000000000E+00 -0.45593999997E+02  0.45594000000E+02  0.51100000000E-03 0.  1.
    9900012    2    1    2    0    0  0.40494287301E+02  0.15518891647E+02  0.17320075686E+01  0.47787272447E+02  0.20000006394E+02 0.  0.
        -12    1    1    2    0    0 -0.40494287301E+02 -0.15518891647E+02 -0.17320075686E+01  0.43400727553E+02  0.00000000000E+00 0.  1.
         11    1    3    3    0    0  0.10439633525E+02 -0.33697397128E+01 -0.12651289828E+01  0.11042719116E+02  0.51100000000E-03 0. -1.
        -11    1    3    3    0    0  0.18717594762E+01  0.41866792530E+01 -0.10387738251E+01  0.47022141620E+01  0.51100000000E-03 0.  1.
        -12    1    3    3    0    0  0.28182894299E+02  0.14701952107E+02  0.40359103765E+01  0.32042339169E+02  0.00000000000E+00 0.  1.
</event>
<event>
 7    1  0.5541017E-010  0.4778726E+02  0.7816164E-02  0.1312668E+00
        -11   -1    0    0    0    0  0.00000000000E+00  0.00000000000E+00  0.45593999997E+02  0.45594000000E+02  0.51100000000E-03 0. -1.
         11   -1    0    0    0    0 -0.00000000000E+00 -0.00000000000E+00 -0.45593999997E+02  0.45594000000E+02  0.51100000000E-03 0.  1.
    9900012    2    1    2    0    0  0.30495339678E+02 -0.22612252076E+02  0.21031983751E+02  0.47787262373E+02  0.19999960465E+02 0.  0.
        -12    1    1    2    0    0 -0.30495339678E+02  0.22612252076E+02 -0.21031983751E+02  0.43400737627E+02  0.00000000000E+00 0.  1.
         11    1    3    3    0    0  0.92869066042E+01 -0.66933937254E+01  0.10580836450E+02  0.15588529568E+02  0.51100000000E-03 0. -1.
        -11    1    3    3    0    0  0.73029084755E+01 -0.13889972112E+02  0.89510631416E+01  0.18066137636E+02  0.51100000000E-03 0.  1.
         12    1    3    3    0    0  0.13905524599E+02 -0.20288862391E+01  0.15000841588E+01  0.14132595169E+02  0.00000000000E+00 0. -1.
</event>
<event>
 7    1  0.5541017E-010  0.4778727E+02  0.7816164E-02  0.1312668E+00
        -11   -1    0    0    0    0  0.00000000000E+00  0.00000000000E+00  0.45593999997E+02  0.45594000000E+02  0.51100000000E-03 0.  1.
         11   -1    0    0    0    0 -0.00000000000E+00 -0.00000000000E+00 -0.45593999997E+02  0.45594000000E+02  0.51100000000E-03 0. -1.
    9900012    2    1    2    0    0 -0.16416555104E+02 -0.10060907168E+01 -0.40163509766E+02  0.47787274007E+02  0.20000013507E+02 0.  0.
        -12    1    1    2    0    0  0.16416555104E+02  0.10060907168E+01  0.40163509766E+02  0.43400725993E+02  0.00000000000E+00 0.  1.
         11    1    3    3    0    0 -0.13302514339E+02 -0.81368477714E+01 -0.21782454357E+02  0.26788812917E+02  0.51100000000E-03 0. -1.
        -11    1    3    3    0    0 -0.34512339538E+01  0.69782386486E+00 -0.46616737273E+01  0.58420181574E+01  0.51100000000E-03 0.  1.
        -12    1    3    3    0    0  0.33719318839E+00  0.64329331897E+01 -0.13719381681E+02  0.15156442933E+02  0.00000000000E+00 0.  1.
</event>
<event>
 7    1  0.5541017E-010  0.4778728E+02  0.7816164E-02  0.1312668E+00
        -11   -1    0    0    0    0  0.00000000000E+00  0.00000000000E+00  0.45593999997E+02  0.45594000000E+02  0.51100000000E-03 0. -1.
         11   -1    0    0    0    0 -0.00000000000E+00 -0.00000000000E+00 -0.45593999997E+02  0.45594000000E+02  0.51100000000E-03 0.  1.
    9900012    2    1    2    0    0 -0.26363268379E+02  0.91445173828E+01  0.33241219601E+02  0.47787276523E+02  0.20000024979E+02 0.  0.
        -12    1    1    2    0    0  0.26363268379E+02 -0.91445173828E+01 -0.33241219601E+02  0.43400723477E+02  0.00000000000E+00 0.  1.
         11    1    3    3    0    0 -0.10523125740E+02  0.65620263394E+00  0.48660178298E+01  0.11612273982E+02  0.51100000000E-03 0. -1.
        -11    1    3    3    0    0 -0.14523338941E+02  0.29512275040E+01  0.12765402257E+02  0.19559974765E+02  0.51100000000E-03 0.  1.
        -12    1    3    3    0    0 -0.13168036975E+01  0.55370872448E+01  0.15609799514E+02  0.16615027776E+02  0.00000000000E+00 0.  1.
</event>
<event>
 7    1  0.5541017E-010  0.4778727E+02  0.7816164E-02  0.1312668E+00
        -11   -1    0    0    0    0  0.00000000000E+00  0.00000000000E+00  0.45593999997E+02  0.45594000000E+02  0.51100000000E-03 0. -1.
         11   -1    0    0    0    0 -0.00000000000E+00 -0.00000000000E+00 -0.45593999997E+02  0.45594000000E+02  0.51100000000E-03 0.  1.
    9900012    2    1    2    0    0 -0.35463581156E+02 -0.22311963511E+02  0.11319612716E+02  0.47787274935E+02  0.20000017738E+02 0.  0.
        -12    1    1    2    0    0  0.35463581156E+02  0.22311963511E+02 -0.11319612716E+02  0.43400725065E+02  0.00000000000E+00 0.  1.
         11    1    3    3    0    0 -0.37924612639E+01 -0.58264458310E+01 -0.30176225838E+01  0.75786726924E+01  0.51100000000E-03 0. -1.
        -11    1    3    3    0    0 -0.68084078941E+01 -0.37348029583E+00 -0.92587145957E+00  0.68812167387E+01  0.51100000000E-03 0.  1.
        -12    1    3    3    0    0 -0.24862711998E+02 -0.16112037384E+02  0.15263106760E+02  0.33327385504E+02  0.00000000000E+00 0.  1.
</event>
<event>
 7    1  0.5541017E-010  0.4778727E+02  0.7816164E-02  0.1312668E+00
        -11   -1    0    0    0    0  0.00000000000E+00  0.00000000000E+00  0.45593999997E+02  0.45594000000E+02  0.51100000000E-03 0. -1.
         11   -1    0    0    0    0 -0.00000000000E+00 -0.00000000000E+00 -0.45593999997E+02  0.45594000000E+02  0.51100000000E-03 0.  1.
    9900012    2    1    2    0    0  0.36692508611E+02  0.16352936470E+02  0.16427548176E+02  0.47787273526E+02  0.20000011314E+02 0.  0.
        -12    1    1    2    0    0 -0.36692508611E+02 -0.16352936470E+02 -0.16427548176E+02  0.43400726474E+02  0.00000000000E+00 0.  1.
         11    1    3    3    0    0  0.30854211726E+01  0.12870858127E+01  0.12758304019E+01  0.35782897000E+01  0.51100000000E-03 0. -1.
        -11    1    3    3    0    0  0.25797536698E+02  0.95652763405E+01  0.19490281348E+02  0.33717628601E+02  0.51100000000E-03 0.  1.
        -12    1    3    3    0    0  0.78095507403E+01  0.55005743172E+01 -0.43385635733E+01  0.10491355225E+02  0.00000000000E+00 0.  1.
</event>
<event>
 7    1  0.5541017E-010  0.4778727E+02  0.7816164E-02  0.1312668E+00
        -11   -1    0    0    0    0  0.00000000000E+00  0.00000000000E+00  0.45593999997E+02  0.45594000000E+02  0.51100000000E-03 0.  1.
         11   -1    0    0    0    0 -0.00000000000E+00 -0.00000000000E+00 -0.45593999997E+02  0.45594000000E+02  0.51100000000E-03 0. -1.
    9900012    2    1    2    0    0  0.82925758734E+01  0.25540135552E+02 -0.34096303868E+02  0.47787271019E+02  0.19999999882E+02 0.  0.
        -12    1    1    2    0    0 -0.82925758734E+01 -0.25540135552E+02  0.34096303868E+02  0.43400728981E+02  0.00000000000E+00 0.  1.
         11    1    3    3    0    0  0.22954084268E+00  0.28279828874E+00  0.13765658648E+00  0.38937574076E+00  0.51100000000E-03 0. -1.
        -11    1    3    3    0    0  0.91250107657E+01  0.73675117607E+01 -0.24118674409E+02  0.26818957969E+02  0.51100000000E-03 0.  1.
         12    1    3    3    0    0 -0.10619757350E+01  0.17889825503E+02 -0.10115286045E+02  0.20578937309E+02  0.00000000000E+00 0. -1.
</event>
<event>
 7    1  0.5541017E-010  0.4778727E+02  0.7816164E-02  0.1312668E+00
        -11   -1    0    0    0    0  0.00000000000E+00  0.00000000000E+00  0.45593999997E+02  0.45594000000E+02  0.51100000000E-03 0.  1.
         11   -1    0    0    0    0 -0.00000000000E+00 -0.00000000000E+00 -0.45593999997E+02  0.45594000000E+02  0.51100000000E-03 0. -1.
    9900012    2    1    2    0    0 -0.23413133720E+02 -0.33283275792E+02 -0.15088808808E+02  0.47787269254E+02  0.19999991838E+02 0.  0.
        -12    1    1    2    0    0  0.23413133720E+02  0.33283275792E+02  0.15088808808E+02  0.43400730746E+02  0.00000000000E+00 0.  1.
         11    1    3    3    0    0 -0.77745442156E+01 -0.15092515899E+02 -0.28482965875E+01  0.17214539426E+02  0.51100000000E-03 0. -1.
        -11    1    3    3    0    0 -0.13395797454E+02 -0.11084059910E+02 -0.14341477670E+01  0.17445932294E+02  0.51100000000E-03 0.  1.
         12    1    3    3    0    0 -0.22427920501E+01 -0.71066999823E+01 -0.10806364453E+02  0.13126797535E+02  0.00000000000E+00 0. -1.
</event>
<event>
 7    1  0.5541017E-010  0.4778727E+02  0.7816164E-02  0.1312668E+00
        -11   -1    0    0    0    0  0.00000000000E+00  0.00000000000E+00  0.45593999997E+02  0.45594000000E+02  0.51100000000E-03 0.  1.
         11   -1    0    0    0    0 -0.00000000000E+00 -0.00000000000E+00 -0.45593999997E+02  0.45594000000E+02  0.51100000000E-03 0. -1.
    9900012    2    1    2    0    0 -0.12123469652E+02 -0.96974362988E+01 -0.40529058611E+02  0.47787269833E+02  0.19999994475E+02 0.  0.
        -12    1    1    2    0    0  0.12123469652E+02  0.96974362988E+01  0.40529058611E+02  0.43400730167E+02  0.00000000000E+00 0.  1.
         11    1    3    3    0    0 -0.34365066080E+01 -0.47435022584E+01 -0.29647716679E+01  0.65650790281E+01  0.51100000000E-03 0. -1.
        -11    1    3    3    0    0  0.51589952601E+00 -0.20806842422E+01  0.28661277916E+00  0.21627635985E+01  0.51100000000E-03 0.  1.
         12    1    3    3    0    0 -0.92028625697E+01 -0.28732497982E+01 -0.37850899722E+02  0.39059427206E+02  0.00000000000E+00 0. -1.
</event>
<event>
 7    1  0.5541017E-010  0.4778727E+02  0.7816164E-02  0.1312668E+00
        -11   -1    0    0    0    0  0.00000000000E+00  0.00000000000E+00  0.45593999997E+02  0.45594000000E+02  0.51100000000E-03 0. -1.
         11   -1    0    0    0    0 -0.00000000000E+00 -0.00000000000E+00 -0.45593999997E+02  0.45594000000E+02  0.51100000000E-03 0.  1.
    9900012    2    1    2    0    0 -0.32202280703E+02  0.20416415331E+02  0.20731771341E+02  0.47787271430E+02  0.20000001759E+02 0.  0.
        -12    1    1    2    0    0  0.32202280703E+02 -0.20416415331E+02 -0.20731771341E+02  0.43400728570E+02  0.00000000000E+00 0.  1.
         11    1    3    3    0    0 -0.88003468168E+01  0.55231961268E+00  0.89439017882E+01  0.12559639346E+02  0.51100000000E-03 0. -1.
        -11    1    3    3    0    0 -0.23355678324E+01  0.34934464148E+01  0.69374168317E+01  0.81109060845E+01  0.51100000000E-03 0.  1.
         12    1    3    3    0    0 -0.21066366054E+02  0.16370649303E+02  0.48504527214E+01  0.27116725999E+02  0.00000000000E+00 0. -1.
</event>
<event>
 7    1  0.5541017E-010  0.4778728E+02  0.7816164E-02  0.1312668E+00
        -11   -1    0    0    0    0  0.00000000000E+00  0.00000000000E+00  0.45593999997E+02  0.45594000000E+02  0.51100000000E-03 0. -1.
         11   -1    0    0    0    0 -0.00000000000E+00 -0.00000000000E+00 -0.45593999997E+02  0.45594000000E+02  0.51100000000E-03 0.  1.
    9900012    2    1    2    0    0  0.38701514389E+02 -0.11645345206E+02  0.15817760385E+02  0.47787276221E+02  0.20000023601E+02 0.  0.
        -12    1    1    2    0    0 -0.38701514389E+02  0.11645345206E+02 -0.15817760385E+02  0.43400723779E+02  0.00000000000E+00 0.  1.
         11    1    3    3    0    0  0.19048740083E+02 -0.25278733623E+01  0.10092129697E+02  0.21704739680E+02  0.51100000000E-03 0. -1.
        -11    1    3    3    0    0  0.31445545547E+00  0.27011860096E+01  0.11942341697E+01  0.29700982484E+01  0.51100000000E-03 0.  1.
        -12    1    3    3    0    0  0.19338318850E+02 -0.11818657854E+02  0.45313965181E+01  0.23112438293E+02  0.00000000000E+00 0.  1.
</event>
<event>
 7    1  0.5541017E-010  0.4778727E+02  0.7816164E-02  0.1312668E+00
        -11   -1    0    0    0    0  0.00000000000E+00  0.00000000000E+00  0.45593999997E+02  0.45594000000E+02  0.51100000000E-03 0.  1.
         11   -1    0    0    0    0 -0.00000000000E+00 -0.00000000000E+00 -0.45593999997E+02  0.45594000000E+02  0.51100000000E-03 0. -1.
    9900012    2    1    2    0    0 -0.34210218934E+02  0.13131223371E+02 -0.23256297903E+02  0.47787268452E+02  0.19999988182E+02 0.  0.
        -12    1    1    2    0    0  0.34210218934E+02 -0.13131223371E+02  0.23256297903E+02  0.43400731548E+02  0.00000000000E+00 0.  1.
         11    1    3    3    0    0 -0.14688597882E+02 -0.53530874007E+00 -0.11240500266E+02  0.18503791765E+02  0.51100000000E-03 0. -1.
        -11    1    3    3    0    0 -0.16538540779E+02  0.71443002871E+01 -0.38633149221E+01  0.18425242472E+02  0.51100000000E-03 0.  1.
        -12    1    3    3    0    0 -0.29830802733E+01  0.65222318236E+01 -0.81524827147E+01  0.10858234216E+02  0.00000000000E+00 0.  1.
</event>
<event>
 7    1  0.5541017E-010  0.4778727E+02  0.7816164E-02  0.1312668E+00
        -11   -1    0    0    0    0  0.00000000000E+00  0.00000000000E+00  0.45593999997E+02  0.45594000000E+02  0.51100000000E-03 0. -1.
         11   -1    0    0    0    0 -0.00000000000E+00 -0.00000000000E+00 -0.45593999997E+02  0.45594000000E+02  0.51100000000E-03 0.  1.
    9900012    2    1    2    0    0  0.22286364909E+02 -0.28179751559E+02  0.24348362713E+02  0.47787271601E+02  0.20000002538E+02 0.  0.
        -12    1    1    2    0    0 -0.22286364909E+02  0.28179751559E+02 -0.24348362713E+02  0.43400728399E+02  0.00000000000E+00 0.  1.
         11    1    3    3    0    0 -0.17455231302E+00 -0.18999083158E+01 -0.20391004619E+01  0.27924990732E+01  0.51100000000E-03 0. -1.
        -11    1    3    3    0    0  0.31899560223E+01 -0.11992014867E+02  0.79347019690E+01  0.14729010000E+02  0.51100000000E-03 0.  1.
         12    1    3    3    0    0  0.19270961200E+02 -0.14287828376E+02  0.18452761206E+02  0.30265762528E+02  0.00000000000E+00 0. -1.
</event>
<event>
 7    1  0.5541017E-010  0.4778727E+02  0.7816164E-02  0.1312668E+00
        -11   -1    0    0    0    0  0.00000000000E+00  0.00000000000E+00  0.45593999997E+02  0.45594000000E+02  0.51100000000E-03 0.  1.
         11   -1    0    0    0    0 -0.00000000000E+00 -0.00000000000E+00 -0.45593999997E+02  0.45594000000E+02  0.51100000000E-03 0. -1.
    9900012    2    1    2    0    0 -0.25874250749E+02 -0.16607886740E+02 -0.30632079541E+02  0.47787273614E+02  0.20000011716E+02 0.  0.
        -12    1    1    2    0    0  0.25874250749E+02  0.16607886740E+02  0.30632079541E+02  0.43400726386E+02  0.00000000000E+00 0.  1.
         11    1    3    3    0    0  0.94850088761E+00  0.40846125192E+00 -0.43514369261E+01  0.44723034458E+01  0.51100000000E-03 0. -1.
        -11    1    3    3    0    0  0.18614934638E+00  0.27408636904E+00  0.10988578094E+01  0.11477210738E+01  0.51100000000E-03 0.  1.
         12    1    3    3    0    0 -0.27008900983E+02 -0.17290434361E+02 -0.27379500425E+02  0.42167249095E+02  0.00000000000E+00 0. -1.
</event>
<event>
 7    1  0.5541017E-010  0.4778727E+02  0.7816164E-02  0.1312668E+00
        -11   -1    0    0    0    0  0.00000000000E+00  0.00000000000E+00  0.45593999997E+02  0.45594000000E+02  0.51100000000E-03 0.  1.
         11   -1    0    0    0    0 -0.00000000000E+00 -0.00000000000E+00 -0.45593999997E+02  0.45594000000E+02  0.51100000000E-03 0. -1.
    9900012    2    1    2    0    0  0.24146172672E+02  0.31448419030E+02 -0.17651698573E+02  0.47787272164E+02  0.20000005104E+02 0.  0.
        -12    1    1    2    0    0 -0.24146172672E+02 -0.31448419030E+02  0.17651698573E+02  0.43400727836E+02  0.00000000000E+00 0.  1.
         11    1    3    3    0    0  0.24639257700E+01  0.47075199402E+01 -0.72436513108E+01  0.89834380257E+01  0.51100000000E-03 0. -1.
        -11    1    3    3    0    0  0.32063238719E+01  0.15318319225E+02 -0.39184738103E+01  0.16133377015E+02  0.51100000000E-03 0.  1.
         12    1    3    3    0    0  0.18475923030E+02  0.11422579864E+02 -0.64895734524E+01  0.22670457123E+02  0.00000000000E+00 0. -1.
</event>
<event>
 7    1  0.5541017E-010  0.4778727E+02  0.7816164E-02  0.1312668E+00
        -11   -1    0    0    0    0  0.00000000000E+00  0.00000000000E+00  0.45593999997E+02  0.45594000000E+02  0.51100000000E-03 0.  1.
         11   -1    0    0    0    0 -0.00000000000E+00 -0.00000000000E+00 -0.45593999997E+02  0.45594000000E+02  0.51100000000E-03 0. -1.
    9900012    2    1    2    0    0 -0.25783864950E+02 -0.28151291424E+02 -0.20647529823E+02  0.47787269725E+02  0.19999993986E+02 0.  0.
        -12    1    1    2    0    0  0.25783864950E+02  0.28151291424E+02  0.20647529823E+02  0.43400730275E+02  0.00000000000E+00 0.  1.
         11    1    3    3    0    0 -0.22686569452E+02 -0.18980773627E+02 -0.93741281152E+01  0.31029413130E+02  0.51100000000E-03 0. -1.
        -11    1    3    3    0    0 -0.66667257011E-01 -0.34035026447E+01  0.36136161912E+00  0.34232816502E+01  0.51100000000E-03 0.  1.
         12    1    3    3    0    0 -0.30306282407E+01 -0.57670151515E+01 -0.11634763327E+02  0.13334574945E+02  0.00000000000E+00 0. -1.
</event>
<event>
 7    1  0.5541017E-010  0.4778730E+02  0.7816164E-02  0.1312668E+00
        -11   -1    0    0    0    0  0.00000000000E+00  0.00000000000E+00  0.45593999997E+02  0.45594000000E+02  0.51100000000E-03 0.  1.
         11   -1    0    0    0    0 -0.00000000000E+00 -0.00000000000E+00 -0.45593999997E+02  0.45594000000E+02  0.51100000000E-03 0. -1.
    9900012    2    1    2    0    0  0.32413713993E+02  0.13442783992E+02 -0.25539453346E+02  0.47787297546E+02  0.20000120832E+02 0.  0.
        -12    1    1    2    0    0 -0.32413713993E+02 -0.13442783992E+02  0.25539453346E+02  0.43400702454E+02  0.00000000000E+00 0.  1.
         11    1    3    3    0    0  0.46696560170E+01 -0.29109013880E+01 -0.53878093985E+01  0.77011378759E+01  0.51100000000E-03 0. -1.
        -11    1    3    3    0    0  0.75403886468E+01  0.62141951542E+00 -0.10002543578E+02  0.12541710468E+02  0.51100000000E-03 0.  1.
        -12    1    3    3    0    0  0.20203669329E+02  0.15732265864E+02 -0.10149100370E+02  0.27544449203E+02  0.00000000000E+00 0.  1.
</event>
<event>
 7    1  0.5541017E-010  0.4778727E+02  0.7816164E-02  0.1312668E+00
        -11   -1    0    0    0    0  0.00000000000E+00  0.00000000000E+00  0.45593999997E+02  0.45594000000E+02  0.51100000000E-03 0.  1.
         11   -1    0    0    0    0 -0.00000000000E+00 -0.00000000000E+00 -0.45593999997E+02  0.45594000000E+02  0.51100000000E-03 0. -1.
    9900012    2    1    2    0    0 -0.23617881154E+02 -0.34929008510E+02 -0.10285090762E+02  0.47787273766E+02  0.20000012407E+02 0.  0.
        -12    1    1    2    0    0  0.23617881154E+02  0.34929008510E+02  0.10285090762E+02  0.43400726234E+02  0.00000000000E+00 0.  1.
         11    1    3    3    0    0 -0.75441718914E+01 -0.14271333545E+02 -0.29861395126E+01  0.16416531916E+02  0.51100000000E-03 0.  1.
        -11    1    3    3    0    0 -0.15262640006E+02 -0.10263105860E+02 -0.95207344958E+01  0.20710478204E+02  0.51100000000E-03 0. -1.
        -12    1    3    3    0    0 -0.81106925740E+00 -0.10394569104E+02  0.22217832467E+01  0.10660263646E+02  0.00000000000E+00 0.  1.
</event>
<event>
 7    1  0.5541017E-010  0.4778728E+02  0.7816164E-02  0.1312668E+00
        -11   -1    0    0    0    0  0.00000000000E+00  0.00000000000E+00  0.45593999997E+02  0.45594000000E+02  0.51100000000E-03 0.  1.
         11   -1    0    0    0    0 -0.00000000000E+00 -0.00000000000E+00 -0.45593999997E+02  0.45594000000E+02  0.51100000000E-03 0. -1.
    9900012    2    1    2    0    0 -0.19247212958E+02 -0.22891484674E+02 -0.31450717659E+02  0.47787275138E+02  0.20000018666E+02 0.  0.
        -12    1    1    2    0    0  0.19247212958E+02  0.22891484674E+02  0.31450717659E+02  0.43400724862E+02  0.00000000000E+00 0.  1.
         11    1    3    3    0    0 -0.12540382958E+02 -0.34573549952E+01 -0.11458744198E+02  0.17335435592E+02  0.51100000000E-03 0. -1.
        -11    1    3    3    0    0  0.10084796098E+00  0.12066591798E+01 -0.75555520893E+00  0.14272563268E+01  0.51100000000E-03 0.  1.
        -12    1    3    3    0    0 -0.68076779613E+01 -0.20640788858E+02 -0.19236418252E+02  0.29024583220E+02  0.00000000000E+00 0.  1.
</event>
<event>
 7    1  0.5541017E-010  0.4778727E+02  0.7816164E-02  0.1312668E+00
        -11   -1    0    0    0    0  0.00000000000E+00  0.00000000000E+00  0.45593999997E+02  0.45594000000E+02  0.51100000000E-03 0. -1.
         11   -1    0    0    0    0 -0.00000000000E+00 -0.00000000000E+00 -0.45593999997E+02  0.45594000000E+02  0.51100000000E-03 0.  1.
    9900012    2    1    2    0    0  0.43182104672E+02  0.31864405818E+01 -0.29624047164E+01  0.47787269486E+02  0.19999992894E+02 0.  0.
        -12    1    1    2    0    0 -0.43182104672E+02 -0.31864405818E+01  0.29624047164E+01  0.43400730514E+02  0.00000000000E+00 0.  1.
         11    1    3    3    0    0  0.16217850875E+02  0.15424941451E+01 -0.17481183965E+01  0.16384562654E+02  0.51100000000E-03 0. -1.
        -11    1    3    3    0    0  0.37673907210E+01  0.35096638749E+01 -0.57228964426E+01  0.76982152031E+01  0.51100000000E-03 0.  1.
         12    1    3    3    0    0  0.23196863076E+02 -0.18657174382E+01  0.45086101228E+01  0.23704491628E+02  0.00000000000E+00 0. -1.
</event>
<event>
 7    1  0.5541017E-010  0.4778727E+02  0.7816164E-02  0.1312668E+00
        -11   -1    0    0    0    0  0.00000000000E+00  0.00000000000E+00  0.45593999997E+02  0.45594000000E+02  0.51100000000E-03 0. -1.
         11   -1    0    0    0    0 -0.00000000000E+00 -0.00000000000E+00 -0.45593999997E+02  0.45594000000E+02  0.51100000000E-03 0.  1.
    9900012    2    1    2    0    0  0.19559758558E+02  0.27065511110E+02  0.27721779138E+02  0.47787273219E+02  0.20000009917E+02 0.  0.
        -12    1    1    2    0    0 -0.19559758558E+02 -0.27065511110E+02 -0.27721779138E+02  0.43400726781E+02  0.00000000000E+00 0.  1.
         11    1    3    3    0    0  0.70453061149E+01  0.15584874585E+02  0.16175862044E+02  0.23541095285E+02  0.51100000000E-03 0. -1.
        -11    1    3    3    0    0  0.26931935570E+01  0.96484699601E+01  0.15916890811E+01  0.10142964976E+02  0.51100000000E-03 0.  1.
         12    1    3    3    0    0  0.98212588859E+01  0.18321665650E+01  0.99542280134E+01  0.14103212959E+02  0.00000000000E+00 0. -1.
</event>
<event>
 7    1  0.5541017E-010  0.4778727E+02  0.7816164E-02  0.1312668E+00
        -11   -1    0    0    0    0  0.00000000000E+00  0.00000000000E+00  0.45593999997E+02  0.45594000000E+02  0.51100000000E-03 0. -1.
         11   -1    0    0    0    0 -0.00000000000E+00 -0.00000000000E+00 -0.45593999997E+02  0.45594000000E+02  0.51100000000E-03 0.  1.
    9900012    2    1    2    0    0  0.44079833141E+01 -0.46485057908E+01  0.42925334517E+02  0.47787271131E+02  0.20000000396E+02 0.  0.
        -12    1    1    2    0    0 -0.44079833141E+01  0.46485057908E+01 -0.42925334517E+02  0.43400728869E+02  0.00000000000E+00 0.  1.
         11    1    3    3    0    0  0.53648787966E+01 -0.21039962653E+01  0.27075046007E+02  0.27681525271E+02  0.51100000000E-03 0. -1.
        -11    1    3    3    0    0 -0.10550071908E+01  0.43430834281E+01  0.10407728761E+02  0.11326792664E+02  0.51100000000E-03 0.  1.
         12    1    3    3    0    0  0.98111708253E-01 -0.68875929536E+01  0.54425597487E+01  0.87789531961E+01  0.00000000000E+00 0. -1.
</event>
<event>
 7    1  0.5541017E-010  0.4778728E+02  0.7816164E-02  0.1312668E+00
        -11   -1    0    0    0    0  0.00000000000E+00  0.00000000000E+00  0.45593999997E+02  0.45594000000E+02  0.51100000000E-03 0. -1.
         11   -1    0    0    0    0 -0.00000000000E+00 -0.00000000000E+00 -0.45593999997E+02  0.45594000000E+02  0.51100000000E-03 0.  1.
    9900012    2    1    2    0    0  0.23682471653E+02 -0.35415804789E+02  0.82755088068E+01  0.47787277212E+02  0.20000028122E+02 0.  0.
        -12    1    1    2    0    0 -0.23682471653E+02  0.35415804789E+02 -0.82755088068E+01  0.43400722788E+02  0.00000000000E+00 0.  1.
         11    1    3    3    0    0 -0.11783508219E+01 -0.58697837850E+00  0.47240965946E+00  0.13986512874E+01  0.51100000000E-03 0. -1.
        -11    1    3    3    0    0  0.10401534237E+02 -0.30928938165E+01  0.20041912553E+01  0.11035156976E+02  0.51100000000E-03 0.  1.
         12    1    3    3    0    0  0.14459288238E+02 -0.31735932594E+02  0.57989078920E+01  0.35353468949E+02  0.00000000000E+00 0. -1.
</event>
<event>
 7    1  0.5541017E-010  0.4778727E+02  0.7816164E-02  0.1312668E+00
        -11   -1    0    0    0    0  0.00000000000E+00  0.00000000000E+00  0.45593999997E+02  0.45594000000E+02  0.51100000000E-03 0.  1.
         11   -1    0    0    0    0 -0.00000000000E+00 -0.00000000000E+00 -0.45593999997E+02  0.45594000000E+02  0.51100000000E-03 0. -1.
    9900012    2    1    2    0    0 -0.27860241646E+02  0.16425381442E+02 -0.28941958968E+02  0.47787271792E+02  0.20000003410E+02 0.  0.
        -12    1    1    2    0    0  0.27860241646E+02 -0.16425381442E+02  0.28941958968E+02  0.43400728208E+02  0.00000000000E+00 0.  1.
         11    1    3    3    0    0 -0.56769404022E+01 -0.85351523297E+00 -0.87382938188E+00  0.58068682294E+01  0.51100000000E-03 0. -1.
        -11    1    3    3    0    0 -0.10814740065E+02  0.92947769560E+01 -0.51132783774E+01  0.15149161606E+02  0.51100000000E-03 0.  1.
         12    1    3    3    0    0 -0.11368561179E+02  0.79841197193E+01 -0.22954851208E+02  0.26831241957E+02  0.00000000000E+00 0. -1.
</event>
<event>
 7    1  0.5541017E-010  0.4778727E+02  0.7816164E-02  0.1312668E+00
        -11   -1    0    0    0    0  0.00000000000E+00  0.00000000000E+00  0.45593999997E+02  0.45594000000E+02  0.51100000000E-03 0.  1.
         11   -1    0    0    0    0 -0.00000000000E+00 -0.00000000000E+00 -0.45593999997E+02  0.45594000000E+02  0.51100000000E-03 0. -1.
    9900012    2    1    2    0    0 -0.31187689378E-01  0.14544113521E+02 -0.40891215953E+02  0.47787265526E+02  0.19999974837E+02 0.  0.
        -12    1    1    2    0    0  0.31187689378E-01 -0.14544113521E+02  0.40891215953E+02  0.43400734474E+02  0.00000000000E+00 0.  1.
         11    1    3    3    0    0  0.94275663683E+00  0.21489019744E+00 -0.13126961611E+02  0.13162525945E+02  0.51100000000E-03 0. -1.
        -11    1    3    3    0    0 -0.17305252776E+01  0.23728445675E+01  0.12822521641E+01  0.32045717267E+01  0.51100000000E-03 0.  1.
        -12    1    3    3    0    0  0.75658095135E+00  0.11956378756E+02 -0.29046506507E+02  0.31420167853E+02  0.00000000000E+00 0.  1.
</event>
<event>
 7    1  0.5541017E-010  0.4778727E+02  0.7816164E-02  0.1312668E+00
        -11   -1    0    0    0    0  0.00000000000E+00  0.00000000000E+00  0.45593999997E+02  0.45594000000E+02  0.51100000000E-03 0.  1.
         11   -1    0    0    0    0 -0.00000000000E+00 -0.00000000000E+00 -0.45593999997E+02  0.45594000000E+02  0.51100000000E-03 0. -1.
    9900012    2    1    2    0    0 -0.32748813475E+02  0.48490194291E+01 -0.28064665798E+02  0.47787271437E+02  0.20000001790E+02 0.  0.
        -12    1    1    2    0    0  0.32748813475E+02 -0.48490194291E+01  0.28064665798E+02  0.43400728563E+02  0.00000000000E+00 0.  1.
         11    1    3    3    0    0 -0.22216079995E+02  0.68662352887E+01 -0.15579253660E+02  0.27989507717E+02  0.51100000000E-03 0. -1.
        -11    1    3    3    0    0 -0.91888783750E+01  0.31635059708E+01 -0.98306695084E+01  0.13823361352E+02  0.51100000000E-03 0.  1.
        -12    1    3    3    0    0 -0.13438551052E+01 -0.51807218303E+01 -0.26547426297E+01  0.59744023682E+01  0.00000000000E+00 0.  1.
</event>
<event>
 7    1  0.5541017E-010  0.4778727E+02  0.7816164E-02  0.1312668E+00
        -11   -1    0    0    0    0  0.00000000000E+00  0.00000000000E+00  0.45593999997E+02  0.45594000000E+02  0.51100000000E-03 0. -1.
         11   -1    0    0    0    0 -0.00000000000E+00 -0.00000000000E+00 -0.45593999997E+02  0.45594000000E+02  0.51100000000E-03 0.  1.
    9900012    2    1    2    0    0  0.17975245412E+02 -0.38353156281E+02  0.94630623761E+01  0.47787267358E+02  0.19999983191E+02 0.  0.
        -12    1    1    2    0    0 -0.17975245412E+02  0.38353156281E+02 -0.94630623761E+01  0.43400732642E+02  0.00000000000E+00 0.  1.
         11    1    3    3    0    0  0.79710478623E+01 -0.27484305133E+02  0.79686953019E+01  0.29705634781E+02  0.51100000000E-03 0. -1.
        -11    1    3    3    0    0  0.69738422534E+00 -0.78280815690E+01 -0.11427711657E+01  0.79417335643E+01  0.51100000000E-03 0.  1.
        -12    1    3    3    0    0  0.93068133241E+01 -0.30407695791E+01  0.26371382400E+01  0.10139899012E+02  0.00000000000E+00 0.  1.
</event>
<event>
 7    1  0.5541017E-010  0.4778726E+02  0.7816164E-02  0.1312668E+00
        -11   -1    0    0    0    0  0.00000000000E+00  0.00000000000E+00  0.45593999997E+02  0.45594000000E+02  0.51100000000E-03 0. -1.
         11   -1    0    0    0    0 -0.00000000000E+00 -0.00000000000E+00 -0.45593999997E+02  0.45594000000E+02  0.51100000000E-03 0.  1.
    9900012    2    1    2    0    0 -0.17013350679E+02  0.34936218389E+02  0.19329521813E+02  0.47787264175E+02  0.19999968678E+02 0.  0.
        -12    1    1    2    0    0  0.17013350679E+02 -0.34936218389E+02 -0.19329521813E+02  0.43400735825E+02  0.00000000000E+00 0.  1.
         11    1    3    3    0    0 -0.61629876589E+01  0.54436417296E+01  0.32978775071E+01  0.88595512571E+01  0.51100000000E-03 0. -1.
        -11    1    3    3    0    0  0.25909939213E+01  0.42639721678E+01 -0.17209812348E+01  0.52779242908E+01  0.51100000000E-03 0.  1.
        -12    1    3    3    0    0 -0.13441356942E+02  0.25228604491E+02  0.17752625541E+02  0.33649788627E+02  0.00000000000E+00 0.  1.
</event>
<event>
 7    1  0.5541017E-010  0.4778727E+02  0.7816164E-02  0.1312668E+00
        -11   -1    0    0    0    0  0.00000000000E+00  0.00000000000E+00  0.45593999997E+02  0.45594000000E+02  0.51100000000E-03 0.  1.
         11   -1    0    0    0    0 -0.00000000000E+00 -0.00000000000E+00 -0.45593999997E+02  0.45594000000E+02  0.51100000000E-03 0. -1.
    9900012    2    1    2    0    0 -0.20962876477E+02  0.21807657638E+02 -0.31122449190E+02  0.47787274597E+02  0.20000016200E+02 0.  0.
        -12    1    1    2    0    0  0.20962876477E+02 -0.21807657638E+02  0.31122449190E+02  0.43400725403E+02  0.00000000000E+00 0.  1.
         11    1    3    3    0    0 -0.13877925283E+02  0.15963910010E+02 -0.10141898925E+02  0.23458502660E+02  0.51100000000E-03 0. -1.
        -11    1    3    3    0    0 -0.39918524269E+01  0.83697447165E+00 -0.21718730445E+01  0.46208705724E+01  0.51100000000E-03 0.  1.
        -12    1    3    3    0    0 -0.30930987668E+01  0.50067731567E+01 -0.18808677221E+02  0.19707901365E+02  0.00000000000E+00 0.  1.
</event>
<event>
 7    1  0.5541017E-010  0.4778727E+02  0.7816164E-02  0.1312668E+00
        -11   -1    0    0    0    0  0.00000000000E+00  0.00000000000E+00  0.45593999997E+02  0.45594000000E+02  0.51100000000E-03 0. -1.
         11   -1    0    0    0    0 -0.00000000000E+00 -0.00000000000E+00 -0.45593999997E+02  0.45594000000E+02  0.51100000000E-03 0.  1.
    9900012    2    1    2    0    0 -0.21427433319E+02 -0.11536003985E+02  0.35936179046E+02  0.47787271308E+02  0.20000001202E+02 0.  0.
        -12    1    1    2    0    0  0.21427433319E+02  0.11536003985E+02 -0.35936179046E+02  0.43400728692E+02  0.00000000000E+00 0.  1.
         11    1    3    3    0    0 -0.11444058883E+02 -0.31691386882E+01  0.24185197144E+02  0.26943156550E+02  0.51100000000E-03 0. -1.
        -11    1    3    3    0    0 -0.46880401098E+01  0.23444181994E+01  0.30653154440E+01  0.60720816692E+01  0.51100000000E-03 0.  1.
         12    1    3    3    0    0 -0.52953343265E+01 -0.10711283496E+02  0.86856664581E+01  0.14772033089E+02  0.00000000000E+00 0. -1.
</event>
<event>
 7    1  0.5541017E-010  0.4778727E+02  0.7816164E-02  0.1312668E+00
        -11   -1    0    0    0    0  0.00000000000E+00  0.00000000000E+00  0.45593999997E+02  0.45594000000E+02  0.51100000000E-03 0. -1.
         11   -1    0    0    0    0 -0.00000000000E+00 -0.00000000000E+00 -0.45593999997E+02  0.45594000000E+02  0.51100000000E-03 0.  1.
    9900012    2    1    2    0    0  0.37590554687E+02 -0.91034759894E+01  0.19690101485E+02  0.47787272204E+02  0.20000005287E+02 0.  0.
        -12    1    1    2    0    0 -0.37590554687E+02  0.91034759894E+01 -0.19690101485E+02  0.43400727796E+02  0.00000000000E+00 0.  1.
         11    1    3    3    0    0  0.10563604328E+02 -0.80664527025E+01  0.11192025190E+02  0.17375811455E+02  0.51100000000E-03 0. -1.
        -11    1    3    3    0    0 -0.72659553248E+00  0.84755998486E+00  0.12281546336E+01  0.16597177655E+01  0.51100000000E-03 0.  1.
         12    1    3    3    0    0  0.27753545891E+02 -0.18845832717E+01  0.72699216610E+01  0.28751742984E+02  0.00000000000E+00 0. -1.
</event>
<event>
 7    1  0.5541017E-010  0.4778727E+02  0.7816164E-02  0.1312668E+00
        -11   -1    0    0    0    0  0.00000000000E+00  0.00000000000E+00  0.45593999997E+02  0.45594000000E+02  0.51100000000E-03 0.  1.
         11   -1    0    0    0    0 -0.00000000000E+00 -0.00000000000E+00 -0.45593999997E+02  0.45594000000E+02  0.51100000000E-03 0. -1.
    9900012    2    1    2    0    0 -0.30091530987E+02  0.31274825039E+02 -0.90916541599E-01  0.47787272078E+02  0.20000004712E+02 0.  0.
        -12    1    1    2    0    0  0.30091530987E+02 -0.31274825039E+02  0.90916541599E-01  0.43400727922E+02  0.00000000000E+00 0.  1.
         11    1    3    3    0    0 -0.90812110640E+01  0.39660359324E+01  0.19763418111E+01  0.10104640648E+02  0.51100000000E-03 0. -1.
        -11    1    3    3    0    0 -0.22739332647E+02  0.20701074916E+02 -0.97966638930E+00  0.30766402104E+02  0.51100000000E-03 0.  1.
        -12    1    3    3    0    0  0.17290127236E+01  0.66077141901E+01 -0.10875919634E+01  0.69162293264E+01  0.00000000000E+00 0.  1.
</event>
<event>
 7    1  0.5541017E-010  0.4778727E+02  0.7816164E-02  0.1312668E+00
        -11   -1    0    0    0    0  0.00000000000E+00  0.00000000000E+00  0.45593999997E+02  0.45594000000E+02  0.51100000000E-03 0.  1.
         11   -1    0    0    0    0 -0.00000000000E+00 -0.00000000000E+00 -0.45593999997E+02  0.45594000000E+02  0.51100000000E-03 0. -1.
    9900012    2    1    2    0    0  0.42025882798E+02 -0.85061611719E+00  0.10803933665E+02  0.47787270105E+02  0.19999995719E+02 0.  0.
        -12    1    1    2    0    0 -0.42025882798E+02  0.85061611719E+00 -0.10803933665E+02  0.43400729895E+02  0.00000000000E+00 0.  1.
         11    1    3    3    0    0  0.20794455588E+02 -0.83401373904E+01  0.10528096880E+02  0.24754961100E+02  0.51100000000E-03 0. -1.
        -11    1    3    3    0    0  0.19593272244E+01  0.23615711065E+01  0.35899119268E+00  0.30894750688E+01  0.51100000000E-03 0.  1.
         12    1    3    3    0    0  0.19272099986E+02  0.51279501667E+01 -0.83154407718E-01  0.19942833937E+02  0.00000000000E+00 0. -1.
</event>
<event>
 7    1  0.5541017E-010  0.4778728E+02  0.7816164E-02  0.1312668E+00
        -11   -1    0    0    0    0  0.00000000000E+00  0.00000000000E+00  0.45593999997E+02  0.45594000000E+02  0.51100000000E-03 0.  1.
         11   -1    0    0    0    0 -0.00000000000E+00 -0.00000000000E+00 -0.45593999997E+02  0.45594000000E+02  0.51100000000E-03 0. -1.
    9900012    2    1    2    0    0 -0.16743695123E+02 -0.30456125306E+02 -0.25994145889E+02  0.47787279781E+02  0.20000039832E+02 0.  0.
        -12    1    1    2    0    0  0.16743695123E+02  0.30456125306E+02  0.25994145889E+02  0.43400720219E+02  0.00000000000E+00 0.  1.
         11    1    3    3    0    0  0.31043302219E+01 -0.70439475292E+01 -0.65092105622E+01  0.10080867290E+02  0.51100000000E-03 0. -1.
        -11    1    3    3    0    0 -0.37068103599E+01 -0.11760069389E+02 -0.84127116962E+01  0.14926935165E+02  0.51100000000E-03 0.  1.
        -12    1    3    3    0    0 -0.16141214985E+02 -0.11652108388E+02 -0.11072223631E+02  0.22779477325E+02  0.00000000000E+00 0.  1.
</event>
<event>
 7    1  0.5541017E-010  0.4778727E+02  0.7816164E-02  0.1312668E+00
        -11   -1    0    0    0    0  0.00000000000E+00  0.00000000000E+00  0.45593999997E+02  0.45594000000E+02  0.51100000000E-03 0.  1.
         11   -1    0    0    0    0 -0.00000000000E+00 -0.00000000000E+00 -0.45593999997E+02  0.45594000000E+02  0.51100000000E-03 0. -1.
    9900012    2    1    2    0    0 -0.14424604517E+02  0.13726249979E+02 -0.38563507192E+02  0.47787271424E+02  0.20000001732E+02 0.  0.
        -12    1    1    2    0    0  0.14424604517E+02 -0.13726249979E+02  0.38563507192E+02  0.43400728576E+02  0.00000000000E+00 0.  1.
         11    1    3    3    0    0 -0.36458310150E+01  0.12005117880E+02 -0.14259064063E+02  0.18993047341E+02  0.51100000000E-03 0. -1.
        -11    1    3    3    0    0  0.14436031254E+01  0.60698462313E+00  0.84922385902E-03  0.15660208488E+01  0.51100000000E-03 0.  1.
         12    1    3    3    0    0 -0.12222376627E+02  0.11141474764E+01 -0.24305292353E+02  0.27228203235E+02  0.00000000000E+00 0. -1.
</event>
<event>
 7    1  0.5541017E-010  0.4778727E+02  0.7816164E-02  0.1312668E+00
        -11   -1    0    0    0    0  0.00000000000E+00  0.00000000000E+00  0.45593999997E+02  0.45594000000E+02  0.51100000000E-03 0. -1.
         11   -1    0    0    0    0 -0.00000000000E+00 -0.00000000000E+00 -0.45593999997E+02  0.45594000000E+02  0.51100000000E-03 0.  1.
    9900012    2    1    2    0    0 -0.41757230263E+02  0.27770986828E+01 -0.11499775299E+02  0.47787269727E+02  0.19999993994E+02 0.  0.
        -12    1    1    2    0    0  0.41757230263E+02 -0.27770986828E+01  0.11499775299E+02  0.43400730273E+02  0.00000000000E+00 0.  1.
         11    1    3    3    0    0 -0.23177670363E+02 -0.16522538991E+01  0.78941777754E+00  0.23249893055E+02  0.51100000000E-03 0. -1.
        -11    1    3    3    0    0 -0.57736787775E+01  0.15505749763E+01  0.76317170868E+00  0.60267802931E+01  0.51100000000E-03 0.  1.
        -12    1    3    3    0    0 -0.12805881123E+02  0.28787776056E+01 -0.13052364785E+02  0.18510596379E+02  0.00000000000E+00 0.  1.
</event>
<event>
 7    1  0.5541017E-010  0.4778727E+02  0.7816164E-02  0.1312668E+00
        -11   -1    0    0    0    0  0.00000000000E+00  0.00000000000E+00  0.45593999997E+02  0.45594000000E+02  0.51100000000E-03 0.  1.
         11   -1    0    0    0    0 -0.00000000000E+00 -0.00000000000E+00 -0.45593999997E+02  0.45594000000E+02  0.51100000000E-03 0. -1.
    9900012    2    1    2    0    0 -0.65607075445E+01 -0.15683572905E+01 -0.42873310906E+02  0.47787269405E+02  0.19999992527E+02 0.  0.
        -12    1    1    2    0    0  0.65607075445E+01  0.15683572905E+01  0.42873310906E+02  0.43400730595E+02  0.00000000000E+00 0.  1.
         11    1    3    3    0    0  0.35114964473E+01  0.29360247159E+01 -0.74965729734E+01  0.87834762503E+01  0.51100000000E-03 0. -1.
        -11    1    3    3    0    0 -0.48746821025E+00 -0.65960269512E+01 -0.14426468641E+02  0.15870355841E+02  0.51100000000E-03 0.  1.
         12    1    3    3    0    0 -0.95847357815E+01  0.20916449447E+01 -0.20950269292E+02  0.23133437314E+02  0.00000000000E+00 0. -1.
</event>
<event>
 7    1  0.5541017E-010  0.4778726E+02  0.7816164E-02  0.1312668E+00
        -11   -1    0    0    0    0  0.00000000000E+00  0.00000000000E+00  0.45593999997E+02  0.45594000000E+02  0.51100000000E-03 0.  1.
         11   -1    0    0    0    0 -0.00000000000E+00 -0.00000000000E+00 -0.45593999997E+02  0.45594000000E+02  0.51100000000E-03 0. -1.
    9900012    2    1    2    0    0 -0.21479049691E+02  0.20713079692E+02 -0.31515752068E+02  0.47787264127E+02  0.19999968459E+02 0.  0.
        -12    1    1    2    0    0  0.21479049691E+02 -0.20713079692E+02  0.31515752068E+02  0.43400735873E+02  0.00000000000E+00 0.  1.
         11    1    3    3    0    0 -0.14530723542E+02  0.59613914754E+01 -0.15152575225E+02  0.21823855095E+02  0.51100000000E-03 0.  1.
        -11    1    3    3    0    0 -0.66217851541E+01  0.37157249738E+01 -0.20091696453E+01  0.78543881769E+01  0.51100000000E-03 0. -1.
         12    1    3    3    0    0 -0.32654099489E+00  0.11035963243E+02 -0.14354007197E+02  0.18109020855E+02  0.00000000000E+00 0. -1.
</event>
<event>
 7    1  0.5541017E-010  0.4778727E+02  0.7816164E-02  0.1312668E+00
        -11   -1    0    0    0    0  0.00000000000E+00  0.00000000000E+00  0.45593999997E+02  0.45594000000E+02  0.51100000000E-03 0.  1.
         11   -1    0    0    0    0 -0.00000000000E+00 -0.00000000000E+00 -0.45593999997E+02  0.45594000000E+02  0.51100000000E-03 0. -1.
    9900012    2    1    2    0    0  0.34422652770E+02 -0.55365386232E+00 -0.26427211396E+02  0.47787273526E+02  0.20000011315E+02 0.  0.
        -12    1    1    2    0    0 -0.34422652770E+02  0.55365386232E+00  0.26427211396E+02  0.43400726474E+02  0.00000000000E+00 0.  1.
         11    1    3    3    0    0  0.21903539040E+01 -0.60408871018E+00 -0.14145170391E+01  0.26764588750E+01  0.51100000000E-03 0. -1.
        -11    1    3    3    0    0  0.32481414823E+02  0.15409442774E+01 -0.27239659994E+02  0.42419522569E+02  0.51100000000E-03 0.  1.
         12    1    3    3    0    0 -0.24911595709E+00 -0.14905094296E+01  0.22269656374E+01  0.26912920818E+01  0.00000000000E+00 0. -1.
</event>
<event>
 7    1  0.5541017E-010  0.4778727E+02  0.7816164E-02  0.1312668E+00
        -11   -1    0    0    0    0  0.00000000000E+00  0.00000000000E+00  0.45593999997E+02  0.45594000000E+02  0.51100000000E-03 0.  1.
         11   -1    0    0    0    0 -0.00000000000E+00 -0.00000000000E+00 -0.45593999997E+02  0.45594000000E+02  0.51100000000E-03 0. -1.
    9900012    2    1    2    0    0  0.34201028198E+01  0.21332167025E+01 -0.43213144586E+02  0.47787267497E+02  0.19999983827E+02 0.  0.
        -12    1    1    2    0    0 -0.34201028198E+01 -0.21332167025E+01  0.43213144586E+02  0.43400732503E+02  0.00000000000E+00 0.  1.
         11    1    3    3    0    0  0.33569205684E+01 -0.40316310940E+00 -0.38933531102E+02  0.39080062699E+02  0.51100000000E-03 0. -1.
        -11    1    3    3    0    0 -0.13028436399E+00 -0.20743132768E+01 -0.34364122403E+01  0.40160526556E+01  0.51100000000E-03 0.  1.
        -12    1    3    3    0    0  0.19346661532E+00  0.46106930887E+01 -0.84320124312E+00  0.46911521427E+01  0.00000000000E+00 0.  1.
</event>
<event>
 7    1  0.5541017E-010  0.4778728E+02  0.7816164E-02  0.1312668E+00
        -11   -1    0    0    0    0  0.00000000000E+00  0.00000000000E+00  0.45593999997E+02  0.45594000000E+02  0.51100000000E-03 0. -1.
         11   -1    0    0    0    0 -0.00000000000E+00 -0.00000000000E+00 -0.45593999997E+02  0.45594000000E+02  0.51100000000E-03 0.  1.
    9900012    2    1    2    0    0 -0.12585738431E+02 -0.19637306861E+01  0.41489346066E+02  0.47787275501E+02  0.20000020317E+02 0.  0.
        -12    1    1    2    0    0  0.12585738431E+02  0.19637306861E+01 -0.41489346066E+02  0.43400724499E+02  0.00000000000E+00 0.  1.
         11    1    3    3    0    0 -0.35921886209E+01 -0.14033542860E+00  0.10207328430E+02  0.10821879091E+02  0.51100000000E-03 0. -1.
        -11    1    3    3    0    0  0.35140507354E+01 -0.47828001254E+01  0.52096954347E+01  0.78971296301E+01  0.51100000000E-03 0.  1.
        -12    1    3    3    0    0 -0.12507600546E+02  0.29594048680E+01  0.26072322201E+02  0.29068266779E+02  0.00000000000E+00 0.  1.
</event>
<event>
 7    1  0.5541017E-010  0.4778729E+02  0.7816164E-02  0.1312668E+00
        -11   -1    0    0    0    0  0.00000000000E+00  0.00000000000E+00  0.45593999997E+02  0.45594000000E+02  0.51100000000E-03 0.  1.
         11   -1    0    0    0    0 -0.00000000000E+00 -0.00000000000E+00 -0.45593999997E+02  0.45594000000E+02  0.51100000000E-03 0. -1.
    9900012    2    1    2    0    0 -0.41349330303E+02  0.10624258636E+02 -0.78089210026E+01  0.47787294530E+02  0.20000107078E+02 0.  0.
        -12    1    1    2    0    0  0.41349330303E+02 -0.10624258636E+02  0.78089210026E+01  0.43400705470E+02  0.00000000000E+00 0.  1.
         11    1    3    3    0    0 -0.32588835819E+01  0.87162589858E+00  0.41906966723E+01  0.53797762749E+01  0.51100000000E-03 0. -1.
        -11    1    3    3    0    0 -0.52270097020E+01  0.49650608876E+01 -0.40107393594E+01  0.82498176048E+01  0.51100000000E-03 0.  1.
         12    1    3    3    0    0 -0.32863437019E+02  0.47875718502E+01 -0.79888783155E+01  0.34157700650E+02  0.00000000000E+00 0. -1.
</event>
<event>
 7    1  0.5541017E-010  0.4778727E+02  0.7816164E-02  0.1312668E+00
        -11   -1    0    0    0    0  0.00000000000E+00  0.00000000000E+00  0.45593999997E+02  0.45594000000E+02  0.51100000000E-03 0. -1.
         11   -1    0    0    0    0 -0.00000000000E+00 -0.00000000000E+00 -0.45593999997E+02  0.45594000000E+02  0.51100000000E-03 0.  1.
    9900012    2    1    2    0    0  0.73946029951E+01  0.42643179116E+02  0.32407369951E+01  0.47787271263E+02  0.20000000999E+02 0.  0.
        -12    1    1    2    0    0 -0.73946029951E+01 -0.42643179116E+02 -0.32407369951E+01  0.43400728737E+02  0.00000000000E+00 0.  1.
         11    1    3    3    0    0  0.48174253144E+01  0.31157379990E+02  0.72284095270E+01  0.32345630602E+02  0.51100000000E-03 0. -1.
        -11    1    3    3    0    0  0.58801206822E+01  0.91339522421E+01 -0.28722550697E+01  0.11236313997E+02  0.51100000000E-03 0.  1.
        -12    1    3    3    0    0 -0.33029430015E+01  0.23518468844E+01 -0.11154174622E+01  0.42053266644E+01  0.00000000000E+00 0.  1.
</event>
<event>
 7    1  0.5541017E-010  0.4778728E+02  0.7816164E-02  0.1312668E+00
        -11   -1    0    0    0    0  0.00000000000E+00  0.00000000000E+00  0.45593999997E+02  0.45594000000E+02  0.51100000000E-03 0. -1.
         11   -1    0    0    0    0 -0.00000000000E+00 -0.00000000000E+00 -0.45593999997E+02  0.45594000000E+02  0.51100000000E-03 0.  1.
    9900012    2    1    2    0    0  0.22695948727E+02  0.35628013823E+02 -0.99579678040E+01  0.47787279034E+02  0.20000036429E+02 0.  0.
        -12    1    1    2    0    0 -0.22695948727E+02 -0.35628013823E+02  0.99579678040E+01  0.43400720966E+02  0.00000000000E+00 0.  1.
         11    1    3    3    0    0  0.10040824745E+02  0.15215973282E+02 -0.97062644913E+00  0.18256125560E+02  0.51100000000E-03 0. -1.
        -11    1    3    3    0    0  0.10930488621E+00  0.73506606162E+01  0.28615370676E+01  0.78887612274E+01  0.51100000000E-03 0.  1.
         12    1    3    3    0    0  0.12545819096E+02  0.13061379924E+02 -0.11848878423E+02  0.21642392247E+02  0.00000000000E+00 0. -1.
</event>
<event>
 7    1  0.5541017E-010  0.4778726E+02  0.7816164E-02  0.1312668E+00
        -11   -1    0    0    0    0  0.00000000000E+00  0.00000000000E+00  0.45593999997E+02  0.45594000000E+02  0.51100000000E-03 0.  1.
         11   -1    0    0    0    0 -0.00000000000E+00 -0.00000000000E+00 -0.45593999997E+02  0.45594000000E+02  0.51100000000E-03 0. -1.
    9900012    2    1    2    0    0 -0.13500441134E+00  0.10358209428E+02 -0.42146333116E+02  0.47787261252E+02  0.19999955354E+02 0.  0.
        -12    1    1    2    0    0  0.13500441134E+00 -0.10358209428E+02  0.42146333116E+02  0.43400738748E+02  0.00000000000E+00 0.  1.
         11    1    3    3    0    0  0.62589156077E+01 -0.25623759840E+01 -0.21733037639E+02  0.22761035138E+02  0.51100000000E-03 0. -1.
        -11    1    3    3    0    0 -0.15690045735E+01  0.30471583611E+01 -0.39178885369E+01  0.52054587001E+01  0.51100000000E-03 0.  1.
         12    1    3    3    0    0 -0.48249154455E+01  0.98734270508E+01 -0.16495406940E+02  0.19820767414E+02  0.00000000000E+00 0. -1.
</event>
<event>
 7    1  0.5541017E-010  0.4778728E+02  0.7816164E-02  0.1312668E+00
        -11   -1    0    0    0    0  0.00000000000E+00  0.00000000000E+00  0.45593999997E+02  0.45594000000E+02  0.51100000000E-03 0.  1.
         11   -1    0    0    0    0 -0.00000000000E+00 -0.00000000000E+00 -0.45593999997E+02  0.45594000000E+02  0.51100000000E-03 0. -1.
    9900012    2    1    2    0    0  0.14799747321E+02  0.37061676286E+02 -0.17059377181E+02  0.47787277429E+02  0.20000029111E+02 0.  0.
        -12    1    1    2    0    0 -0.14799747321E+02 -0.37061676286E+02  0.17059377181E+02  0.43400722571E+02  0.00000000000E+00 0.  1.
         11    1    3    3    0    0  0.53630106952E+01  0.18295480472E+02 -0.98165056548E+01  0.21444119775E+02  0.51100000000E-03 0. -1.
        -11    1    3    3    0    0  0.71660719448E+01  0.18277951185E+02 -0.10561074355E+02  0.22292877303E+02  0.51100000000E-03 0.  1.
        -12    1    3    3    0    0  0.22706646806E+01  0.48824462851E+00  0.33182028285E+01  0.40502803508E+01  0.00000000000E+00 0.  1.
</event>
<event>
 7    1  0.5541017E-010  0.4778727E+02  0.7816164E-02  0.1312668E+00
        -11   -1    0    0    0    0  0.00000000000E+00  0.00000000000E+00  0.45593999997E+02  0.45594000000E+02  0.51100000000E-03 0. -1.
         11   -1    0    0    0    0 -0.00000000000E+00 -0.00000000000E+00 -0.45593999997E+02  0.45594000000E+02  0.51100000000E-03 0.  1.
    9900012    2    1    2    0    0 -0.37515063367E+02 -0.17368110581E+02  0.13213328133E+02  0.47787270917E+02  0.19999999417E+02 0.  0.
        -12    1    1    2    0    0  0.37515063367E+02  0.17368110581E+02 -0.13213328133E+02  0.43400729083E+02  0.00000000000E+00 0.  1.
         11    1    3    3    0    0 -0.18428184634E+02 -0.36138493481E+01  0.33392466368E+01  0.19073763770E+02  0.51100000000E-03 0. -1.
        -11    1    3    3    0    0 -0.13158404744E+02 -0.23005940648E+01  0.17528539740E+01  0.13472521879E+02  0.51100000000E-03 0.  1.
        -12    1    3    3    0    0 -0.59284739890E+01 -0.11453667168E+02  0.81212275222E+01  0.15240985267E+02  0.00000000000E+00 0.  1.
</event>
<event>
 7    1  0.5541017E-010  0.4778728E+02  0.7816164E-02  0.1312668E+00
        -11   -1    0    0    0    0  0.00000000000E+00  0.00000000000E+00  0.45593999997E+02  0.45594000000E+02  0.51100000000E-03 0. -1.
         11   -1    0    0    0    0 -0.00000000000E+00 -0.00000000000E+00 -0.45593999997E+02  0.45594000000E+02  0.51100000000E-03 0.  1.
    9900012    2    1    2    0    0  0.33003929122E+02  0.88281543023E+01  0.26766154250E+02  0.47787278126E+02  0.20000032286E+02 0.  0.
        -12    1    1    2    0    0 -0.33003929122E+02 -0.88281543023E+01 -0.26766154250E+02  0.43400721874E+02  0.00000000000E+00 0.  1.
         11    1    3    3    0    0  0.20697535858E+02  0.54476562585E+01  0.13779785663E+02  0.25454811774E+02  0.51100000000E-03 0. -1.
        -11    1    3    3    0    0  0.11799607587E+02  0.33545783120E+01  0.15500642709E+02  0.19767495023E+02  0.51100000000E-03 0.  1.
         12    1    3    3    0    0  0.50678567734E+00  0.25919731788E-01 -0.25142741215E+01  0.25649713279E+01  0.00000000000E+00 0. -1.
</event>
<event>
 7    1  0.5541017E-010  0.4778728E+02  0.7816164E-02  0.1312668E+00
        -11   -1    0    0    0    0  0.00000000000E+00  0.00000000000E+00  0.45593999997E+02  0.45594000000E+02  0.51100000000E-03 0.  1.
         11   -1    0    0    0    0 -0.00000000000E+00 -0.00000000000E+00 -0.45593999997E+02  0.45594000000E+02  0.51100000000E-03 0. -1.
    9900012    2    1    2    0    0  0.12906437762E+01 -0.17544016607E+02 -0.39675734365E+02  0.47787283675E+02  0.20000057589E+02 0.  0.
        -12    1    1    2    0    0 -0.12906437762E+01  0.17544016607E+02  0.39675734365E+02  0.43400716325E+02  0.00000000000E+00 0.  1.
         11    1    3    3    0    0 -0.44837166929E+01 -0.32442481912E+01 -0.95259009739E+01  0.11016880290E+02  0.51100000000E-03 0. -1.
        -11    1    3    3    0    0 -0.21157233076E+01 -0.61258563722E+00 -0.14021768349E+02  0.14193714601E+02  0.51100000000E-03 0.  1.
        -12    1    3    3    0    0  0.78900837767E+01 -0.13687182779E+02 -0.16128065042E+02  0.22576688784E+02  0.00000000000E+00 0.  1.
</event>
<event>
 7    1  0.5541017E-010  0.4778731E+02  0.7816164E-02  0.1312668E+00
        -11   -1    0    0    0    0  0.00000000000E+00  0.00000000000E+00  0.45593999997E+02  0.45594000000E+02  0.51100000000E-03 0.  1.
         11   -1    0    0    0    0 -0.00000000000E+00 -0.00000000000E+00 -0.45593999997E+02  0.45594000000E+02  0.51100000000E-03 0. -1.
    9900012    2    1    2    0    0  0.17601739253E+02 -0.35589506111E+02 -0.17526722482E+02  0.47787306792E+02  0.20000162988E+02 0.  0.
        -12    1    1    2    0    0 -0.17601739253E+02  0.35589506111E+02  0.17526722482E+02  0.43400693208E+02  0.00000000000E+00 0.  1.
         11    1    3    3    0    0 -0.13956744465E+01 -0.57224302906E+01 -0.10829663193E+01  0.59889007256E+01  0.51100000000E-03 0. -1.
        -11    1    3    3    0    0  0.11199955682E+01 -0.63235790085E+00 -0.57630610739E+01  0.59048403696E+01  0.51100000000E-03 0.  1.
         12    1    3    3    0    0  0.17877418131E+02 -0.29234717920E+02 -0.10680695089E+02  0.35893565697E+02  0.00000000000E+00 0. -1.
</event>
<event>
 7    1  0.5541017E-010  0.4778728E+02  0.7816164E-02  0.1312668E+00
        -11   -1    0    0    0    0  0.00000000000E+00  0.00000000000E+00  0.45593999997E+02  0.45594000000E+02  0.51100000000E-03 0. -1.
         11   -1    0    0    0    0 -0.00000000000E+00 -0.00000000000E+00 -0.45593999997E+02  0.45594000000E+02  0.51100000000E-03 0.  1.
    9900012    2    1    2    0    0  0.28226780532E+02 -0.32793457403E+02 -0.33853428733E+01  0.47787279568E+02  0.20000038864E+02 0.  0.
        -12    1    1    2    0    0 -0.28226780532E+02  0.32793457403E+02  0.33853428733E+01  0.43400720432E+02  0.00000000000E+00 0.  1.
         11    1    3    3    0    0  0.95685156310E+01 -0.15056477699E+02 -0.98700958247E+01  0.20388055423E+02  0.51100000000E-03 0. -1.
        -11    1    3    3    0    0  0.49008200952E+01 -0.12975741698E+01  0.25589718037E+00  0.50761422320E+01  0.51100000000E-03 0.  1.
         12    1    3    3    0    0  0.13757444806E+02 -0.16439405534E+02  0.62288557710E+01  0.22323081913E+02  0.00000000000E+00 0. -1.
</event>
<event>
 7    1  0.5541017E-010  0.4778728E+02  0.7816164E-02  0.1312668E+00
        -11   -1    0    0    0    0  0.00000000000E+00  0.00000000000E+00  0.45593999997E+02  0.45594000000E+02  0.51100000000E-03 0.  1.
         11   -1    0    0    0    0 -0.00000000000E+00 -0.00000000000E+00 -0.45593999997E+02  0.45594000000E+02  0.51100000000E-03 0. -1.
    9900012    2    1    2    0    0  0.37985264273E+02 -0.10937182509E+02 -0.17919816703E+02  0.47787284640E+02  0.20000061987E+02 0.  0.
        -12    1    1    2    0    0 -0.37985264273E+02  0.10937182509E+02  0.17919816703E+02  0.43400715360E+02  0.00000000000E+00 0.  1.
         11    1    3    3    0    0 -0.19658796054E+00  0.15069277163E+01  0.24509378921E+00  0.15393340102E+01  0.51100000000E-03 0. -1.
        -11    1    3    3    0    0  0.88823821663E+00 -0.35312811367E+01  0.36859786902E+00  0.36598877368E+01  0.51100000000E-03 0.  1.
         12    1    3    3    0    0  0.37293614017E+02 -0.89128290886E+01 -0.18533508361E+02  0.42588062893E+02  0.00000000000E+00 0. -1.
</event>
<event>
 7    1  0.5541017E-010  0.4778727E+02  0.7816164E-02  0.1312668E+00
        -11   -1    0    0    0    0  0.00000000000E+00  0.00000000000E+00  0.45593999997E+02  0.45594000000E+02  0.51100000000E-03 0.  1.
         11   -1    0    0    0    0 -0.00000000000E+00 -0.00000000000E+00 -0.45593999997E+02  0.45594000000E+02  0.51100000000E-03 0. -1.
    9900012    2    1    2    0    0 -0.18358675621E+02  0.39292533582E+02 -0.16368155078E+01  0.47787270389E+02  0.19999997009E+02 0.  0.
        -12    1    1    2    0    0  0.18358675621E+02 -0.39292533582E+02  0.16368155078E+01  0.43400729611E+02  0.00000000000E+00 0.  1.
         11    1    3    3    0    0 -0.82243164128E+00  0.10015772141E+02  0.65228907466E+01  0.11980825904E+02  0.51100000000E-03 0. -1.
        -11    1    3    3    0    0 -0.14572109872E+01  0.82394533008E+01 -0.14614956120E+01  0.84939993079E+01  0.51100000000E-03 0.  1.
         12    1    3    3    0    0 -0.16079032992E+02  0.21037308140E+02 -0.66982106423E+01  0.27312445177E+02  0.00000000000E+00 0. -1.
</event>
<event>
 7    1  0.5541017E-010  0.4778727E+02  0.7816164E-02  0.1312668E+00
        -11   -1    0    0    0    0  0.00000000000E+00  0.00000000000E+00  0.45593999997E+02  0.45594000000E+02  0.51100000000E-03 0. -1.
         11   -1    0    0    0    0 -0.00000000000E+00 -0.00000000000E+00 -0.45593999997E+02  0.45594000000E+02  0.51100000000E-03 0.  1.
    9900012    2    1    2    0    0 -0.29777861219E+02  0.18842687491E+02  0.25334866408E+02  0.47787270207E+02  0.19999996182E+02 0.  0.
        -12    1    1    2    0    0  0.29777861219E+02 -0.18842687491E+02 -0.25334866408E+02  0.43400729793E+02  0.00000000000E+00 0.  1.
         11    1    3    3    0    0 -0.12661108140E+02  0.10950363141E+02  0.82094431701E+01  0.18644277129E+02  0.51100000000E-03 0. -1.
        -11    1    3    3    0    0 -0.26195522920E+01  0.75056733165E+01  0.10575250830E+02  0.13230008183E+02  0.51100000000E-03 0.  1.
         12    1    3    3    0    0 -0.14497200788E+02  0.38665103339E+00  0.65501724079E+01  0.15912984895E+02  0.00000000000E+00 0. -1.
</event>
<event>
 7    1  0.5541017E-010  0.4778727E+02  0.7816164E-02  0.1312668E+00
        -11   -1    0    0    0    0  0.00000000000E+00  0.00000000000E+00  0.45593999997E+02  0.45594000000E+02  0.51100000000E-03 0. -1.
         11   -1    0    0    0    0 -0.00000000000E+00 -0.00000000000E+00 -0.45593999997E+02  0.45594000000E+02  0.51100000000E-03 0.  1.
    9900012    2    1    2    0    0 -0.30777946628E+02 -0.26527545826E+02  0.15252231916E+02  0.47787271151E+02  0.20000000488E+02 0.  0.
        -12    1    1    2    0    0  0.30777946628E+02  0.26527545826E+02 -0.15252231916E+02  0.43400728849E+02  0.00000000000E+00 0.  1.
         11    1    3    3    0    0 -0.28510773087E+01 -0.45834059222E+01  0.58650864886E+01  0.79709153456E+01  0.51100000000E-03 0. -1.
        -11    1    3    3    0    0 -0.14528819727E+02 -0.18749809499E+02  0.10617478490E+02  0.25987935828E+02  0.51100000000E-03 0.  1.
        -12    1    3    3    0    0 -0.13398049593E+02 -0.31943304051E+01 -0.12303330624E+01  0.13828419977E+02  0.00000000000E+00 0.  1.
</event>
<event>
 7    1  0.5541017E-010  0.4778727E+02  0.7816164E-02  0.1312668E+00
        -11   -1    0    0    0    0  0.00000000000E+00  0.00000000000E+00  0.45593999997E+02  0.45594000000E+02  0.51100000000E-03 0. -1.
         11   -1    0    0    0    0 -0.00000000000E+00 -0.00000000000E+00 -0.45593999997E+02  0.45594000000E+02  0.51100000000E-03 0.  1.
    9900012    2    1    2    0    0 -0.30317067102E+02  0.31714232254E+01  0.30894023719E+02  0.47787272074E+02  0.20000004695E+02 0.  0.
        -12    1    1    2    0    0  0.30317067102E+02 -0.31714232254E+01 -0.30894023719E+02  0.43400727926E+02  0.00000000000E+00 0.  1.
         11    1    3    3    0    0 -0.27323020202E+01 -0.39912387061E+01  0.57005796275E+01  0.74760998582E+01  0.51100000000E-03 0. -1.
        -11    1    3    3    0    0 -0.17112402672E+01 -0.54784302876E-01  0.85319842434E+01  0.87020744632E+01  0.51100000000E-03 0.  1.
         12    1    3    3    0    0 -0.25873524814E+02  0.72174462344E+01  0.16661459849E+02  0.31609097753E+02  0.00000000000E+00 0. -1.
</event>
<event>
 7    1  0.5541017E-010  0.4778726E+02  0.7816164E-02  0.1312668E+00
        -11   -1    0    0    0    0  0.00000000000E+00  0.00000000000E+00  0.45593999997E+02  0.45594000000E+02  0.51100000000E-03 0. -1.
         11   -1    0    0    0    0 -0.00000000000E+00 -0.00000000000E+00 -0.45593999997E+02  0.45594000000E+02  0.51100000000E-03 0.  1.
    9900012    2    1    2    0    0 -0.12925921576E+02  0.98329473856E+01  0.40247454481E+02  0.47787263888E+02  0.19999967370E+02 0.  0.
        -12    1    1    2    0    0  0.12925921576E+02 -0.98329473856E+01 -0.40247454481E+02  0.43400736112E+02  0.00000000000E+00 0.  1.
         11    1    3    3    0    0 -0.65554274026E+01 -0.11176185042E+01  0.84270816528E+01  0.10734915230E+02  0.51100000000E-03 0. -1.
        -11    1    3    3    0    0 -0.16327363091E+01 -0.34340306365E+01  0.73293151378E+01  0.82569519144E+01  0.51100000000E-03 0.  1.
         12    1    3    3    0    0 -0.47377578643E+01  0.14384596526E+02  0.24491057691E+02  0.28795396743E+02  0.00000000000E+00 0. -1.
</event>
<event>
 7    1  0.5541017E-010  0.4778727E+02  0.7816164E-02  0.1312668E+00
        -11   -1    0    0    0    0  0.00000000000E+00  0.00000000000E+00  0.45593999997E+02  0.45594000000E+02  0.51100000000E-03 0.  1.
         11   -1    0    0    0    0 -0.00000000000E+00 -0.00000000000E+00 -0.45593999997E+02  0.45594000000E+02  0.51100000000E-03 0. -1.
    9900012    2    1    2    0    0 -0.27282699820E+02  0.13807623747E+02 -0.30799792246E+02  0.47787269760E+02  0.19999994143E+02 0.  0.
        -12    1    1    2    0    0  0.27282699820E+02 -0.13807623747E+02  0.30799792246E+02  0.43400730240E+02  0.00000000000E+00 0.  1.
         11    1    3    3    0    0 -0.41161655316E+01 -0.79358316398E+00  0.67612425540E+00  0.42461438025E+01  0.51100000000E-03 0. -1.
        -11    1    3    3    0    0  0.94133216975E+00  0.11584440264E+01  0.22247757981E+00  0.15091704181E+01  0.51100000000E-03 0.  1.
         12    1    3    3    0    0 -0.24107866458E+02  0.13442762884E+02 -0.31698394081E+02  0.42031955539E+02  0.00000000000E+00 0. -1.
</event>
<event>
 7    1  0.5541017E-010  0.4778725E+02  0.7816164E-02  0.1312668E+00
        -11   -1    0    0    0    0  0.00000000000E+00  0.00000000000E+00  0.45593999997E+02  0.45594000000E+02  0.51100000000E-03 0. -1.
         11   -1    0    0    0    0 -0.00000000000E+00 -0.00000000000E+00 -0.45593999997E+02  0.45594000000E+02  0.51100000000E-03 0.  1.
    9900012    2    1    2    0    0 -0.12551868146E+02 -0.22728137042E+02  0.34777978916E+02  0.47787246264E+02  0.19999887017E+02 0.  0.
        -12    1    1    2    0    0  0.12551868146E+02  0.22728137042E+02 -0.34777978916E+02  0.43400753736E+02  0.00000000000E+00 0.  1.
         11    1    3    3    0    0  0.22707219097E+00 -0.60476873159E+01  0.19857396161E+02  0.20759148976E+02  0.51100000000E-03 0. -1.
        -11    1    3    3    0    0 -0.24528886594E+00 -0.38225172162E+01  0.24577868695E+00  0.38382563645E+01  0.51100000000E-03 0.  1.
         12    1    3    3    0    0 -0.12533651471E+02 -0.12857932510E+02  0.14674804067E+02  0.23189840923E+02  0.00000000000E+00 0. -1.
</event>
<event>
 7    1  0.5541017E-010  0.4778726E+02  0.7816164E-02  0.1312668E+00
        -11   -1    0    0    0    0  0.00000000000E+00  0.00000000000E+00  0.45593999997E+02  0.45594000000E+02  0.51100000000E-03 0.  1.
         11   -1    0    0    0    0 -0.00000000000E+00 -0.00000000000E+00 -0.45593999997E+02  0.45594000000E+02  0.51100000000E-03 0. -1.
    9900012    2    1    2    0    0  0.19894756478E+02 -0.36150621803E+02 -0.13451953083E+02  0.47787264593E+02  0.19999970586E+02 0.  0.
        -12    1    1    2    0    0 -0.19894756478E+02  0.36150621803E+02  0.13451953083E+02  0.43400735407E+02  0.00000000000E+00 0.  1.
         11    1    3    3    0    0  0.17798138500E+01 -0.35698874386E+01 -0.64181016420E+01  0.75567097743E+01  0.51100000000E-03 0. -1.
        -11    1    3    3    0    0  0.43921248243E+01 -0.11577635872E+01 -0.35507800882E+01  0.57653461728E+01  0.51100000000E-03 0.  1.
        -12    1    3    3    0    0  0.13722817804E+02 -0.31422970778E+02 -0.34830713527E+01  0.34465208646E+02  0.00000000000E+00 0.  1.
</event>
<event>
 7    1  0.5541017E-010  0.4778728E+02  0.7816164E-02  0.1312668E+00
        -11   -1    0    0    0    0  0.00000000000E+00  0.00000000000E+00  0.45593999997E+02  0.45594000000E+02  0.51100000000E-03 0.  1.
         11   -1    0    0    0    0 -0.00000000000E+00 -0.00000000000E+00 -0.45593999997E+02  0.45594000000E+02  0.51100000000E-03 0. -1.
    9900012    2    1    2    0    0 -0.17728523337E+02  0.75053276244E+01 -0.38897195460E+02  0.47787282297E+02  0.20000051304E+02 0.  0.
        -12    1    1    2    0    0  0.17728523337E+02 -0.75053276244E+01  0.38897195460E+02  0.43400717703E+02  0.00000000000E+00 0.  1.
         11    1    3    3    0    0 -0.22136550440E+01 -0.19802159687E+01 -0.23810594255E+02  0.23995122900E+02  0.51100000000E-03 0. -1.
        -11    1    3    3    0    0 -0.19744032333E+00  0.65731188214E+00 -0.32071363070E+00  0.75756127523E+00  0.51100000000E-03 0.  1.
         12    1    3    3    0    0 -0.15317427970E+02  0.88282317110E+01 -0.14765887575E+02  0.23034598122E+02  0.00000000000E+00 0. -1.
</event>
<event>
 7    1  0.5541017E-010  0.4778727E+02  0.7816164E-02  0.1312668E+00
        -11   -1    0    0    0    0  0.00000000000E+00  0.00000000000E+00  0.45593999997E+02  0.45594000000E+02  0.51100000000E-03 0. -1.
         11   -1    0    0    0    0 -0.00000000000E+00 -0.00000000000E+00 -0.45593999997E+02  0.45594000000E+02  0.51100000000E-03 0.  1.
    9900012    2    1    2    0    0  0.11384116881E+02  0.37087130001E+02 -0.19456872822E+02  0.47787271562E+02  0.20000002362E+02 0.  0.
        -12    1    1    2    0    0 -0.11384116881E+02 -0.37087130001E+02  0.19456872822E+02  0.43400728438E+02  0.00000000000E+00 0.  1.
         11    1    3    3    0    0  0.23876974777E+01  0.19813248139E+02 -0.12193484862E+02  0.23386897494E+02  0.51100000000E-03 0. -1.
        -11    1    3    3    0    0  0.54809070154E+01  0.11434952383E+01 -0.54134296519E+01  0.77880128357E+01  0.51100000000E-03 0.  1.
         12    1    3    3    0    0  0.35155123880E+01  0.16130386623E+02 -0.18499583087E+01  0.16612361232E+02  0.00000000000E+00 0. -1.
</event>
<event>
 7    1  0.5541017E-010  0.4778727E+02  0.7816164E-02  0.1312668E+00
        -11   -1    0    0    0    0  0.00000000000E+00  0.00000000000E+00  0.45593999997E+02  0.45594000000E+02  0.51100000000E-03 0.  1.
         11   -1    0    0    0    0 -0.00000000000E+00 -0.00000000000E+00 -0.45593999997E+02  0.45594000000E+02  0.51100000000E-03 0. -1.
    9900012    2    1    2    0    0  0.43301488321E+02 -0.29319155979E+01 -0.89972433781E-01  0.47787272876E+02  0.20000008349E+02 0.  0.
        -12    1    1    2    0    0 -0.43301488321E+02  0.29319155979E+01  0.89972433781E-01  0.43400727124E+02  0.00000000000E+00 0.  1.
         11    1    3    3    0    0  0.15908925921E+02 -0.82236735927E+00 -0.76539675109E+01  0.17673523445E+02  0.51100000000E-03 0. -1.
        -11    1    3    3    0    0  0.18355368708E+02 -0.59665559804E+01  0.44611685243E+01  0.19809628354E+02  0.51100000000E-03 0.  1.
        -12    1    3    3    0    0  0.90371936924E+01  0.38570077417E+01  0.31028265528E+01  0.10304121077E+02  0.00000000000E+00 0.  1.
</event>
<event>
 7    1  0.5760075E-010  0.4778728E+02  0.7816164E-02  0.1312668E+00
        -11   -1    0    0    0    0  0.00000000000E+00  0.00000000000E+00  0.45593999997E+02  0.45594000000E+02  0.51100000000E-03 0.  1.
         11   -1    0    0    0    0 -0.00000000000E+00 -0.00000000000E+00 -0.45593999997E+02  0.45594000000E+02  0.51100000000E-03 0. -1.
    9900012    2    1    2    0    0  0.20705019645E+02 -0.25979581090E+02 -0.27928235591E+02  0.47787276327E+02  0.20000024086E+02 0.  0.
        -12    1    1    2    0    0 -0.20705019645E+02  0.25979581090E+02  0.27928235591E+02  0.43400723673E+02  0.00000000000E+00 0.  1.
         11    1    3    3    0    0  0.11709447347E+02 -0.18083049457E+02 -0.19175577992E+02  0.28841127343E+02  0.51100000000E-03 0. -1.
        -11    1    3    3    0    0  0.71136724642E+01 -0.34492236267E+01 -0.11059283521E+02  0.13594455922E+02  0.51100000000E-03 0.  1.
        -12    1    3    3    0    0  0.18818998333E+01 -0.44473080063E+01  0.23066259220E+01  0.53516930619E+01  0.00000000000E+00 0.  1.
</event>
<event>
 7    1  0.5541017E-010  0.4778727E+02  0.7816164E-02  0.1312668E+00
        -11   -1    0    0    0    0  0.00000000000E+00  0.00000000000E+00  0.45593999997E+02  0.45594000000E+02  0.51100000000E-03 0.  1.
         11   -1    0    0    0    0 -0.00000000000E+00 -0.00000000000E+00 -0.45593999997E+02  0.45594000000E+02  0.51100000000E-03 0. -1.
    9900012    2    1    2    0    0  0.17623345246E+02 -0.25966133965E+02 -0.29980006060E+02  0.47787272194E+02  0.20000005241E+02 0.  0.
        -12    1    1    2    0    0 -0.17623345246E+02  0.25966133965E+02  0.29980006060E+02  0.43400727806E+02  0.00000000000E+00 0.  1.
         11    1    3    3    0    0  0.89520797776E+01 -0.15626531495E+02 -0.17139198246E+02  0.24861221524E+02  0.51100000000E-03 0. -1.
        -11    1    3    3    0    0  0.11575527671E+02 -0.10724891154E+02 -0.12150557054E+02  0.19916128341E+02  0.51100000000E-03 0.  1.
        -12    1    3    3    0    0 -0.29042622030E+01  0.38528868309E+00 -0.69025075989E+00  0.30099223287E+01  0.00000000000E+00 0.  1.
</event>
<event>
 7    1  0.5541017E-010  0.4778728E+02  0.7816164E-02  0.1312668E+00
        -11   -1    0    0    0    0  0.00000000000E+00  0.00000000000E+00  0.45593999997E+02  0.45594000000E+02  0.51100000000E-03 0.  1.
         11   -1    0    0    0    0 -0.00000000000E+00 -0.00000000000E+00 -0.45593999997E+02  0.45594000000E+02  0.51100000000E-03 0. -1.
    9900012    2    1    2    0    0  0.10279129688E+02  0.35077658705E+02 -0.23399144215E+02  0.47787278838E+02  0.20000035534E+02 0.  0.
        -12    1    1    2    0    0 -0.10279129688E+02 -0.35077658705E+02  0.23399144215E+02  0.43400721162E+02  0.00000000000E+00 0.  1.
         11    1    3    3    0    0 -0.16568786770E+00  0.17466593100E+02 -0.17345393989E+02  0.24616498936E+02  0.51100000000E-03 0. -1.
        -11    1    3    3    0    0 -0.56169102155E-02  0.75258429544E+01 -0.39392116926E+01  0.84944530574E+01  0.51100000000E-03 0.  1.
        -12    1    3    3    0    0  0.10450434465E+02  0.10085222651E+02 -0.21145385343E+01  0.14676326844E+02  0.00000000000E+00 0.  1.
</event>
<event>
 7    1  0.5541017E-010  0.4778727E+02  0.7816164E-02  0.1312668E+00
        -11   -1    0    0    0    0  0.00000000000E+00  0.00000000000E+00  0.45593999997E+02  0.45594000000E+02  0.51100000000E-03 0. -1.
         11   -1    0    0    0    0 -0.00000000000E+00 -0.00000000000E+00 -0.45593999997E+02  0.45594000000E+02  0.51100000000E-03 0.  1.
    9900012    2    1    2    0    0 -0.93440035554E+01 -0.40724869568E+02  0.11738733323E+02  0.47787271160E+02  0.20000000527E+02 0.  0.
        -12    1    1    2    0    0  0.93440035554E+01  0.40724869568E+02 -0.11738733323E+02  0.43400728840E+02  0.00000000000E+00 0.  1.
         11    1    3    3    0    0 -0.52041536109E+01 -0.74738340562E+01 -0.20021978290E+01  0.93247094707E+01  0.51100000000E-03 0. -1.
        -11    1    3    3    0    0 -0.34697141661E+01 -0.77365426896E+01 -0.16779859004E+01  0.86434163457E+01  0.51100000000E-03 0.  1.
         12    1    3    3    0    0 -0.67013577840E+00 -0.25514492822E+02  0.15418917053E+02  0.29819145344E+02  0.00000000000E+00 0. -1.
</event>
<event>
 7    1  0.5541017E-010  0.4778727E+02  0.7816164E-02  0.1312668E+00
        -11   -1    0    0    0    0  0.00000000000E+00  0.00000000000E+00  0.45593999997E+02  0.45594000000E+02  0.51100000000E-03 0. -1.
         11   -1    0    0    0    0 -0.00000000000E+00 -0.00000000000E+00 -0.45593999997E+02  0.45594000000E+02  0.51100000000E-03 0.  1.
    9900012    2    1    2    0    0 -0.35856098190E+02 -0.90672286955E+00  0.24436474923E+02  0.47787271545E+02  0.20000002283E+02 0.  0.
        -12    1    1    2    0    0  0.35856098190E+02  0.90672286955E+00 -0.24436474923E+02  0.43400728455E+02  0.00000000000E+00 0.  1.
         11    1    3    3    0    0 -0.30096464187E+02 -0.70226750253E+01  0.24347452497E+02  0.39343532688E+02  0.51100000000E-03 0. -1.
        -11    1    3    3    0    0 -0.11168197198E+01  0.16643586967E+01  0.16534008254E+00  0.20111473745E+01  0.51100000000E-03 0.  1.
         12    1    3    3    0    0 -0.46428142834E+01  0.44515934590E+01 -0.76317656790E-01  0.64325914824E+01  0.00000000000E+00 0. -1.
</event>
<event>
 7    1  0.5541017E-010  0.4778727E+02  0.7816164E-02  0.1312668E+00
        -11   -1    0    0    0    0  0.00000000000E+00  0.00000000000E+00  0.45593999997E+02  0.45594000000E+02  0.51100000000E-03 0.  1.
         11   -1    0    0    0    0 -0.00000000000E+00 -0.00000000000E+00 -0.45593999997E+02  0.45594000000E+02  0.51100000000E-03 0. -1.
    9900012    2    1    2    0    0  0.22941968716E+02  0.20815217784E+02 -0.30397634850E+02  0.47787269310E+02  0.19999992092E+02 0.  0.
        -12    1    1    2    0    0 -0.22941968716E+02 -0.20815217784E+02  0.30397634850E+02  0.43400730690E+02  0.00000000000E+00 0.  1.
         11    1    3    3    0    0  0.13426442514E+01  0.47590729958E+01 -0.88825174245E+01  0.10166148997E+02  0.51100000000E-03 0. -1.
        -11    1    3    3    0    0  0.55116479020E+00  0.83333669957E+01 -0.45904502922E+01  0.95300064144E+01  0.51100000000E-03 0.  1.
         12    1    3    3    0    0  0.21048159674E+02  0.77227777925E+01 -0.16924667133E+02  0.28091113899E+02  0.00000000000E+00 0. -1.
</event>
<event>
 7    1  0.5541017E-010  0.4778727E+02  0.7816164E-02  0.1312668E+00
        -11   -1    0    0    0    0  0.00000000000E+00  0.00000000000E+00  0.45593999997E+02  0.45594000000E+02  0.51100000000E-03 0.  1.
         11   -1    0    0    0    0 -0.00000000000E+00 -0.00000000000E+00 -0.45593999997E+02  0.45594000000E+02  0.51100000000E-03 0. -1.
    9900012    2    1    2    0    0 -0.18777323408E+01 -0.22596509195E+02 -0.37006693581E+02  0.47787268711E+02  0.19999989363E+02 0.  0.
        -12    1    1    2    0    0  0.18777323408E+01  0.22596509195E+02  0.37006693581E+02  0.43400731289E+02  0.00000000000E+00 0.  1.
         11    1    3    3    0    0  0.38214884599E+00 -0.94110969046E+01 -0.37016213385E+01  0.10120117760E+02  0.51100000000E-03 0. -1.
        -11    1    3    3    0    0 -0.37407560974E+01 -0.11914979079E+02 -0.16218232903E+02  0.20469271150E+02  0.51100000000E-03 0.  1.
        -12    1    3    3    0    0  0.14808749106E+01 -0.12704332116E+01 -0.17086839340E+02  0.17197879801E+02  0.00000000000E+00 0.  1.
</event>
<event>
 7    1  0.5541017E-010  0.4778727E+02  0.7816164E-02  0.1312668E+00
        -11   -1    0    0    0    0  0.00000000000E+00  0.00000000000E+00  0.45593999997E+02  0.45594000000E+02  0.51100000000E-03 0. -1.
         11   -1    0    0    0    0 -0.00000000000E+00 -0.00000000000E+00 -0.45593999997E+02  0.45594000000E+02  0.51100000000E-03 0.  1.
    9900012    2    1    2    0    0  0.45913807087E+01 -0.43139917674E+02  0.12207249609E+01  0.47787269094E+02  0.19999991107E+02 0.  0.
        -12    1    1    2    0    0 -0.45913807087E+01  0.43139917674E+02 -0.12207249609E+01  0.43400730906E+02  0.00000000000E+00 0.  1.
         11    1    3    3    0    0  0.67905739529E+00 -0.58908192519E+01 -0.10496485138E+01  0.60220123437E+01  0.51100000000E-03 0. -1.
        -11    1    3    3    0    0 -0.13339640276E+01 -0.13957179425E+02  0.93617202665E+01  0.16858947895E+02  0.51100000000E-03 0.  1.
        -12    1    3    3    0    0  0.52462873410E+01 -0.23291918998E+02 -0.70913467919E+01  0.24906308855E+02  0.00000000000E+00 0.  1.
</event>
<event>
 7    1  0.5541017E-010  0.4778727E+02  0.7816164E-02  0.1312668E+00
        -11   -1    0    0    0    0  0.00000000000E+00  0.00000000000E+00  0.45593999997E+02  0.45594000000E+02  0.51100000000E-03 0. -1.
         11   -1    0    0    0    0 -0.00000000000E+00 -0.00000000000E+00 -0.45593999997E+02  0.45594000000E+02  0.51100000000E-03 0.  1.
    9900012    2    1    2    0    0 -0.27847371612E+02 -0.26506060672E+02  0.20138915496E+02  0.47787271027E+02  0.19999999922E+02 0.  0.
        -12    1    1    2    0    0  0.27847371612E+02  0.26506060672E+02 -0.20138915496E+02  0.43400728973E+02  0.00000000000E+00 0.  1.
         11    1    3    3    0    0 -0.45537885110E+01 -0.69231940629E+01  0.11908025965E+02  0.14507539022E+02  0.51100000000E-03 0. -1.
        -11    1    3    3    0    0  0.81437159076E+00 -0.24252749431E+01  0.13802054576E+01  0.29069102160E+01  0.51100000000E-03 0.  1.
        -12    1    3    3    0    0 -0.24107954691E+02 -0.17157591666E+02  0.68506840732E+01  0.30372821789E+02  0.00000000000E+00 0.  1.
</event>
<event>
 7    1  0.5541017E-010  0.4778727E+02  0.7816164E-02  0.1312668E+00
        -11   -1    0    0    0    0  0.00000000000E+00  0.00000000000E+00  0.45593999997E+02  0.45594000000E+02  0.51100000000E-03 0.  1.
         11   -1    0    0    0    0 -0.00000000000E+00 -0.00000000000E+00 -0.45593999997E+02  0.45594000000E+02  0.51100000000E-03 0. -1.
    9900012    2    1    2    0    0  0.18210061440E+02  0.31978842685E+02 -0.23008052040E+02  0.47787272174E+02  0.20000005152E+02 0.  0.
        -12    1    1    2    0    0 -0.18210061440E+02 -0.31978842685E+02  0.23008052040E+02  0.43400727826E+02  0.00000000000E+00 0.  1.
         11    1    3    3    0    0  0.41406599850E+01  0.10353028973E+02 -0.69844013766E+01  0.13157208552E+02  0.51100000000E-03 0. -1.
        -11    1    3    3    0    0 -0.38356428347E+01  0.39762108570E+01 -0.35210457369E+01  0.65513488746E+01  0.51100000000E-03 0.  1.
         12    1    3    3    0    0  0.17905044290E+02  0.17649602855E+02 -0.12502604926E+02  0.28078714748E+02  0.00000000000E+00 0. -1.
</event>
<event>
 7    1  0.5541017E-010  0.4778725E+02  0.7816164E-02  0.1312668E+00
        -11   -1    0    0    0    0  0.00000000000E+00  0.00000000000E+00  0.45593999997E+02  0.45594000000E+02  0.51100000000E-03 0.  1.
         11   -1    0    0    0    0 -0.00000000000E+00 -0.00000000000E+00 -0.45593999997E+02  0.45594000000E+02  0.51100000000E-03 0. -1.
    9900012    2    1    2    0    0  0.42491969544E+02  0.68855498772E+01 -0.55359638043E+01  0.47787249222E+02  0.19999900504E+02 0.  0.
        -12    1    1    2    0    0 -0.42491969544E+02 -0.68855498772E+01  0.55359638043E+01  0.43400750778E+02  0.00000000000E+00 0.  1.
         11    1    3    3    0    0  0.82803310872E+01  0.29521017299E+01  0.18358263829E+01  0.89804814073E+01  0.51100000000E-03 0. -1.
        -11    1    3    3    0    0  0.31254408501E+01  0.45371523918E+01  0.26847575661E+01  0.61287890960E+01  0.51100000000E-03 0.  1.
         12    1    3    3    0    0  0.31086197607E+02 -0.60370424452E+00 -0.10056547753E+02  0.32677978719E+02  0.00000000000E+00 0. -1.
</event>
<event>
 7    1  0.5541017E-010  0.4778727E+02  0.7816164E-02  0.1312668E+00
        -11   -1    0    0    0    0  0.00000000000E+00  0.00000000000E+00  0.45593999997E+02  0.45594000000E+02  0.51100000000E-03 0. -1.
         11   -1    0    0    0    0 -0.00000000000E+00 -0.00000000000E+00 -0.45593999997E+02  0.45594000000E+02  0.51100000000E-03 0.  1.
    9900012    2    1    2    0    0  0.28245469194E+02  0.16352776478E+02  0.28607752126E+02  0.47787270626E+02  0.19999998091E+02 0.  0.
        -12    1    1    2    0    0 -0.28245469194E+02 -0.16352776478E+02 -0.28607752126E+02  0.43400729374E+02  0.00000000000E+00 0.  1.
         11    1    3    3    0    0  0.62830074298E+01  0.70958446303E+01  0.46694740507E+01  0.10565565842E+02  0.51100000000E-03 0. -1.
        -11    1    3    3    0    0  0.23454679001E+01 -0.23442836998E+01 -0.97502641340E+00  0.34565246280E+01  0.51100000000E-03 0.  1.
         12    1    3    3    0    0  0.19616993864E+02  0.11601215547E+02  0.24913304488E+02  0.33765180156E+02  0.00000000000E+00 0. -1.
</event>
<event>
 7    1  0.5541017E-010  0.4778727E+02  0.7816164E-02  0.1312668E+00
        -11   -1    0    0    0    0  0.00000000000E+00  0.00000000000E+00  0.45593999997E+02  0.45594000000E+02  0.51100000000E-03 0.  1.
         11   -1    0    0    0    0 -0.00000000000E+00 -0.00000000000E+00 -0.45593999997E+02  0.45594000000E+02  0.51100000000E-03 0. -1.
    9900012    2    1    2    0    0  0.15900434202E+02  0.32089516405E+02  0.24516572643E+02  0.47787271837E+02  0.20000003613E+02 0.  0.
        -12    1    1    2    0    0 -0.15900434202E+02 -0.32089516405E+02 -0.24516572643E+02  0.43400728163E+02  0.00000000000E+00 0.  1.
         11    1    3    3    0    0  0.40502716715E+01  0.48463270016E+01 -0.18015740205E+01  0.65678957994E+01  0.51100000000E-03 0. -1.
        -11    1    3    3    0    0  0.10178214086E+02  0.96827721637E+01  0.10700485693E+02  0.17659346338E+02  0.51100000000E-03 0.  1.
         12    1    3    3    0    0  0.16719484440E+01  0.17560417240E+02  0.15617660971E+02  0.23560029699E+02  0.00000000000E+00 0. -1.
</event>
<event>
 7    1  0.5541017E-010  0.4778727E+02  0.7816164E-02  0.1312668E+00
        -11   -1    0    0    0    0  0.00000000000E+00  0.00000000000E+00  0.45593999997E+02  0.45594000000E+02  0.51100000000E-03 0.  1.
         11   -1    0    0    0    0 -0.00000000000E+00 -0.00000000000E+00 -0.45593999997E+02  0.45594000000E+02  0.51100000000E-03 0. -1.
    9900012    2    1    2    0    0  0.28437250097E+02 -0.22348367497E+02  0.23989509841E+02  0.47787270683E+02  0.19999998352E+02 0.  0.
        -12    1    1    2    0    0 -0.28437250097E+02  0.22348367497E+02 -0.23989509841E+02  0.43400729317E+02  0.00000000000E+00 0.  1.
         11    1    3    3    0    0  0.17484384360E+02 -0.81636813957E+01  0.64710556328E+01  0.20352492517E+02  0.51100000000E-03 0. -1.
        -11    1    3    3    0    0  0.81534550506E+01 -0.27884258507E+01  0.11122299168E+02  0.14069814748E+02  0.51100000000E-03 0.  1.
        -12    1    3    3    0    0  0.27994106861E+01 -0.11396260250E+02  0.63961550401E+01  0.13364963418E+02  0.00000000000E+00 0.  1.
</event>
<event>
 7    1  0.5541017E-010  0.4778727E+02  0.7816164E-02  0.1312668E+00
        -11   -1    0    0    0    0  0.00000000000E+00  0.00000000000E+00  0.45593999997E+02  0.45594000000E+02  0.51100000000E-03 0. -1.
         11   -1    0    0    0    0 -0.00000000000E+00 -0.00000000000E+00 -0.45593999997E+02  0.45594000000E+02  0.51100000000E-03 0.  1.
    9900012    2    1    2    0    0 -0.23388439506E+00 -0.11216875460E+02  0.41925532313E+02  0.47787271242E+02  0.20000000902E+02 0.  0.
        -12    1    1    2    0    0  0.23388439506E+00  0.11216875460E+02 -0.41925532313E+02  0.43400728758E+02  0.00000000000E+00 0.  1.
         11    1    3    3    0    0 -0.26249555699E+01 -0.55052108758E+01  0.99096461375E+01  0.11636100092E+02  0.51100000000E-03 0. -1.
        -11    1    3    3    0    0 -0.60335020846E+01 -0.44434562917E+01  0.20499457402E+02  0.21826021288E+02  0.51100000000E-03 0.  1.
        -12    1    3    3    0    0  0.84245732594E+01 -0.12682082922E+01  0.11516428773E+02  0.14325149862E+02  0.00000000000E+00 0.  1.
</event>
<event>
 7    1  0.5541017E-010  0.4778727E+02  0.7816164E-02  0.1312668E+00
        -11   -1    0    0    0    0  0.00000000000E+00  0.00000000000E+00  0.45593999997E+02  0.45594000000E+02  0.51100000000E-03 0. -1.
         11   -1    0    0    0    0 -0.00000000000E+00 -0.00000000000E+00 -0.45593999997E+02  0.45594000000E+02  0.51100000000E-03 0.  1.
    9900012    2    1    2    0    0  0.85488312715E+01 -0.41787744652E+02  0.80202950984E+01  0.47787271289E+02  0.20000001113E+02 0.  0.
        -12    1    1    2    0    0 -0.85488312715E+01  0.41787744652E+02 -0.80202950984E+01  0.43400728711E+02  0.00000000000E+00 0.  1.
         11    1    3    3    0    0  0.64262111721E+01 -0.20250655684E+02  0.37206505426E+01  0.21569155903E+02  0.51100000000E-03 0. -1.
        -11    1    3    3    0    0  0.73468325700E+00 -0.23350842873E+02  0.29055654997E+01  0.23542385892E+02  0.51100000000E-03 0.  1.
        -12    1    3    3    0    0  0.13879368424E+01  0.18137539049E+01  0.13940790561E+01  0.26757294931E+01  0.00000000000E+00 0.  1.
</event>
<event>
 7    1  0.5541017E-010  0.4778728E+02  0.7816164E-02  0.1312668E+00
        -11   -1    0    0    0    0  0.00000000000E+00  0.00000000000E+00  0.45593999997E+02  0.45594000000E+02  0.51100000000E-03 0.  1.
         11   -1    0    0    0    0 -0.00000000000E+00 -0.00000000000E+00 -0.45593999997E+02  0.45594000000E+02  0.51100000000E-03 0. -1.
    9900012    2    1    2    0    0  0.18498367423E+02 -0.36645909480E+02 -0.14089362463E+02  0.47787280956E+02  0.20000045191E+02 0.  0.
        -12    1    1    2    0    0 -0.18498367423E+02  0.36645909480E+02  0.14089362463E+02  0.43400719044E+02  0.00000000000E+00 0.  1.
         11    1    3    3    0    0  0.81744795625E+01 -0.15118159573E+02 -0.10078474593E+02  0.19923767600E+02  0.51100000000E-03 0. -1.
        -11    1    3    3    0    0  0.39179708785E+01 -0.14808168485E+02 -0.85360817884E+01  0.17535593582E+02  0.51100000000E-03 0.  1.
        -12    1    3    3    0    0  0.64059169825E+01 -0.67195814211E+01  0.45251939189E+01  0.10327919774E+02  0.00000000000E+00 0.  1.
</event>
<event>
 7    1  0.5541017E-010  0.4778727E+02  0.7816164E-02  0.1312668E+00
        -11   -1    0    0    0    0  0.00000000000E+00  0.00000000000E+00  0.45593999997E+02  0.45594000000E+02  0.51100000000E-03 0. -1.
         11   -1    0    0    0    0 -0.00000000000E+00 -0.00000000000E+00 -0.45593999997E+02  0.45594000000E+02  0.51100000000E-03 0.  1.
    9900012    2    1    2    0    0  0.18063879041E+01 -0.11677932747E+02  0.41761058654E+02  0.47787272237E+02  0.20000005436E+02 0.  0.
        -12    1    1    2    0    0 -0.18063879041E+01  0.11677932747E+02 -0.41761058654E+02  0.43400727763E+02  0.00000000000E+00 0.  1.
         11    1    3    3    0    0  0.47644114473E+01 -0.14973527360E+00  0.14447511444E+02  0.15213567112E+02  0.51100000000E-03 0. -1.
        -11    1    3    3    0    0 -0.31465342382E+01  0.22517633461E+01  0.74913911972E+01  0.84316106533E+01  0.51100000000E-03 0.  1.
         12    1    3    3    0    0  0.18851069500E+00 -0.13779960819E+02  0.19822156013E+02  0.24142094471E+02  0.00000000000E+00 0. -1.
</event>
<event>
 7    1  0.5541017E-010  0.4778729E+02  0.7816164E-02  0.1312668E+00
        -11   -1    0    0    0    0  0.00000000000E+00  0.00000000000E+00  0.45593999997E+02  0.45594000000E+02  0.51100000000E-03 0.  1.
         11   -1    0    0    0    0 -0.00000000000E+00 -0.00000000000E+00 -0.45593999997E+02  0.45594000000E+02  0.51100000000E-03 0. -1.
    9900012    2    1    2    0    0 -0.15172290640E+02  0.21671503481E+02 -0.34405948233E+02  0.47787288713E+02  0.20000080560E+02 0.  0.
        -12    1    1    2    0    0  0.15172290640E+02 -0.21671503481E+02  0.34405948233E+02  0.43400711287E+02  0.00000000000E+00 0.  1.
         11    1    3    3    0    0 -0.46362013569E+01  0.17020065003E+01 -0.42610849331E+01  0.65228854211E+01  0.51100000000E-03 0. -1.
        -11    1    3    3    0    0 -0.63211207402E+01  0.28005842484E+01 -0.73858403920E+00  0.69530817764E+01  0.51100000000E-03 0.  1.
         12    1    3    3    0    0 -0.42149685427E+01  0.17168912732E+02 -0.29406279261E+02  0.34311321516E+02  0.00000000000E+00 0. -1.
</event>
<event>
 7    1  0.5541017E-010  0.4778727E+02  0.7816164E-02  0.1312668E+00
        -11   -1    0    0    0    0  0.00000000000E+00  0.00000000000E+00  0.45593999997E+02  0.45594000000E+02  0.51100000000E-03 0. -1.
         11   -1    0    0    0    0 -0.00000000000E+00 -0.00000000000E+00 -0.45593999997E+02  0.45594000000E+02  0.51100000000E-03 0.  1.
    9900012    2    1    2    0    0 -0.19569958607E+02  0.16817017921E+02  0.34897395485E+02  0.47787267480E+02  0.19999983748E+02 0.  0.
        -12    1    1    2    0    0  0.19569958607E+02 -0.16817017921E+02 -0.34897395485E+02  0.43400732520E+02  0.00000000000E+00 0.  1.
         11    1    3    3    0    0 -0.31483560584E+01  0.73184471955E+00  0.77213074629E+01  0.83705634077E+01  0.51100000000E-03 0. -1.
        -11    1    3    3    0    0 -0.10467587883E+02 -0.48717411741E+00  0.68292982859E+01  0.12507879518E+02  0.51100000000E-03 0.  1.
         12    1    3    3    0    0 -0.59540146656E+01  0.16572347319E+02  0.20346789736E+02  0.26908824554E+02  0.00000000000E+00 0. -1.
</event>
<event>
 7    1  0.5541017E-010  0.4778727E+02  0.7816164E-02  0.1312668E+00
        -11   -1    0    0    0    0  0.00000000000E+00  0.00000000000E+00  0.45593999997E+02  0.45594000000E+02  0.51100000000E-03 0. -1.
         11   -1    0    0    0    0 -0.00000000000E+00 -0.00000000000E+00 -0.45593999997E+02  0.45594000000E+02  0.51100000000E-03 0.  1.
    9900012    2    1    2    0    0  0.65096596276E+01  0.39578325965E+02 -0.16577205025E+02  0.47787270961E+02  0.19999999621E+02 0.  0.
        -12    1    1    2    0    0 -0.65096596276E+01 -0.39578325965E+02  0.16577205025E+02  0.43400729039E+02  0.00000000000E+00 0.  1.
         11    1    3    3    0    0 -0.37270268137E+01  0.14880964432E+02 -0.42987490415E+01  0.15931512009E+02  0.51100000000E-03 0. -1.
        -11    1    3    3    0    0  0.19288197917E+01  0.17450265381E+02 -0.11093459878E+02  0.20767690290E+02  0.51100000000E-03 0.  1.
         12    1    3    3    0    0  0.83078666496E+01  0.72470961515E+01 -0.11849961059E+01  0.11088068663E+02  0.00000000000E+00 0. -1.
</event>
<event>
 7    1  0.5541017E-010  0.4778727E+02  0.7816164E-02  0.1312668E+00
        -11   -1    0    0    0    0  0.00000000000E+00  0.00000000000E+00  0.45593999997E+02  0.45594000000E+02  0.51100000000E-03 0.  1.
         11   -1    0    0    0    0 -0.00000000000E+00 -0.00000000000E+00 -0.45593999997E+02  0.45594000000E+02  0.51100000000E-03 0. -1.
    9900012    2    1    2    0    0 -0.39570238733E+01  0.36732439044E+02 -0.22774838824E+02  0.47787269597E+02  0.19999993402E+02 0.  0.
        -12    1    1    2    0    0  0.39570238733E+01 -0.36732439044E+02  0.22774838824E+02  0.43400730403E+02  0.00000000000E+00 0.  1.
         11    1    3    3    0    0 -0.22664511603E+01  0.22084507295E+02 -0.15276050392E+02  0.26948468957E+02  0.51100000000E-03 0. -1.
        -11    1    3    3    0    0 -0.13989431601E+01  0.15063228468E+02 -0.10099204162E+02  0.18189332556E+02  0.51100000000E-03 0.  1.
        -12    1    3    3    0    0 -0.29162955296E+00 -0.41529671959E+00  0.26004157297E+01  0.26494680841E+01  0.00000000000E+00 0.  1.
</event>
<event>
 7    1  0.5541017E-010  0.4778727E+02  0.7816164E-02  0.1312668E+00
        -11   -1    0    0    0    0  0.00000000000E+00  0.00000000000E+00  0.45593999997E+02  0.45594000000E+02  0.51100000000E-03 0.  1.
         11   -1    0    0    0    0 -0.00000000000E+00 -0.00000000000E+00 -0.45593999997E+02  0.45594000000E+02  0.51100000000E-03 0. -1.
    9900012    2    1    2    0    0 -0.88079884858E+01  0.40136693615E+02  0.13967409160E+02  0.47787270120E+02  0.19999995784E+02 0.  0.
        -12    1    1    2    0    0  0.88079884858E+01 -0.40136693615E+02 -0.13967409160E+02  0.43400729880E+02  0.00000000000E+00 0.  1.
         11    1    3    3    0    0 -0.16250201645E+01  0.41664644839E+01 -0.10818126404E+01  0.46011341733E+01  0.51100000000E-03 0. -1.
        -11    1    3    3    0    0  0.13980832402E+01  0.19309900182E+02  0.34143353906E+00  0.19363456791E+02  0.51100000000E-03 0.  1.
         12    1    3    3    0    0 -0.85810515614E+01  0.16660328949E+02  0.14707788261E+02  0.23822679155E+02  0.00000000000E+00 0. -1.
</event>
<event>
 7    1  0.5541017E-010  0.4778727E+02  0.7816164E-02  0.1312668E+00
        -11   -1    0    0    0    0  0.00000000000E+00  0.00000000000E+00  0.45593999997E+02  0.45594000000E+02  0.51100000000E-03 0. -1.
         11   -1    0    0    0    0 -0.00000000000E+00 -0.00000000000E+00 -0.45593999997E+02  0.45594000000E+02  0.51100000000E-03 0.  1.
    9900012    2    1    2    0    0  0.33836015637E+02 -0.22221269081E+02  0.15651279952E+02  0.47787270537E+02  0.19999997687E+02 0.  0.
        -12    1    1    2    0    0 -0.33836015637E+02  0.22221269081E+02 -0.15651279952E+02  0.43400729463E+02  0.00000000000E+00 0.  1.
         11    1    3    3    0    0  0.83729549203E+01 -0.56783345710E+01  0.83731487717E+01  0.13132382808E+02  0.51100000000E-03 0. -1.
        -11    1    3    3    0    0  0.26640253698E+02 -0.12181438753E+02  0.55283547908E+01  0.29810288058E+02  0.51100000000E-03 0.  1.
        -12    1    3    3    0    0 -0.11771929812E+01 -0.43614957575E+01  0.17497763897E+01  0.48445996709E+01  0.00000000000E+00 0.  1.
</event>
<event>
 7    1  0.5541017E-010  0.4778727E+02  0.7816164E-02  0.1312668E+00
        -11   -1    0    0    0    0  0.00000000000E+00  0.00000000000E+00  0.45593999997E+02  0.45594000000E+02  0.51100000000E-03 0.  1.
         11   -1    0    0    0    0 -0.00000000000E+00 -0.00000000000E+00 -0.45593999997E+02  0.45594000000E+02  0.51100000000E-03 0. -1.
    9900012    2    1    2    0    0 -0.28676817203E+02 -0.31478580821E+02 -0.83882519969E+01  0.47787266516E+02  0.19999979353E+02 0.  0.
        -12    1    1    2    0    0  0.28676817203E+02  0.31478580821E+02  0.83882519969E+01  0.43400733484E+02  0.00000000000E+00 0.  1.
         11    1    3    3    0    0 -0.12492513083E+01  0.94548414664E+00 -0.98272583864E+00  0.18494105650E+01  0.51100000000E-03 0. -1.
        -11    1    3    3    0    0 -0.13759213143E+02 -0.49804751528E+01 -0.33536666506E+01  0.15012266962E+02  0.51100000000E-03 0.  1.
         12    1    3    3    0    0 -0.13668352751E+02 -0.27443589815E+02 -0.40518595076E+01  0.30925588989E+02  0.00000000000E+00 0. -1.
</event>
<event>
 7    1  0.5541017E-010  0.4778726E+02  0.7816164E-02  0.1312668E+00
        -11   -1    0    0    0    0  0.00000000000E+00  0.00000000000E+00  0.45593999997E+02  0.45594000000E+02  0.51100000000E-03 0.  1.
         11   -1    0    0    0    0 -0.00000000000E+00 -0.00000000000E+00 -0.45593999997E+02  0.45594000000E+02  0.51100000000E-03 0. -1.
    9900012    2    1    2    0    0 -0.10215679833E+02  0.41630370844E+02  0.67952939631E+01  0.47787263703E+02  0.19999966529E+02 0.  0.
        -12    1    1    2    0    0  0.10215679833E+02 -0.41630370844E+02 -0.67952939631E+01  0.43400736297E+02  0.00000000000E+00 0.  1.
         11    1    3    3    0    0  0.95491957515E+00  0.81966683780E+00  0.38086758631E+01  0.40112014673E+01  0.51100000000E-03 0. -1.
        -11    1    3    3    0    0 -0.13771540423E+01  0.16444547724E+02  0.55021628383E+01  0.17395214838E+02  0.51100000000E-03 0.  1.
         12    1    3    3    0    0 -0.97934453662E+01  0.24366156282E+02 -0.25155447383E+01  0.26380847398E+02  0.00000000000E+00 0. -1.
</event>
<event>
 7    1  0.5541017E-010  0.4778727E+02  0.7816164E-02  0.1312668E+00
        -11   -1    0    0    0    0  0.00000000000E+00  0.00000000000E+00  0.45593999997E+02  0.45594000000E+02  0.51100000000E-03 0. -1.
         11   -1    0    0    0    0 -0.00000000000E+00 -0.00000000000E+00 -0.45593999997E+02  0.45594000000E+02  0.51100000000E-03 0.  1.
    9900012    2    1    2    0    0  0.13899936393E+02 -0.27827571403E+02  0.30266171067E+02  0.47787273359E+02  0.20000010552E+02 0.  0.
        -12    1    1    2    0    0 -0.13899936393E+02  0.27827571403E+02 -0.30266171067E+02  0.43400726641E+02  0.00000000000E+00 0.  1.
         11    1    3    3    0    0  0.14237126213E+02 -0.12316223417E+02  0.16900605035E+02  0.25298529065E+02  0.51100000000E-03 0. -1.
        -11    1    3    3    0    0  0.24785496499E+01 -0.37374492100E+01  0.39293542301E-01  0.44847830726E+01  0.51100000000E-03 0.  1.
        -12    1    3    3    0    0 -0.28157394705E+01 -0.11773898776E+02  0.13326272490E+02  0.18003961221E+02  0.00000000000E+00 0.  1.
</event>
<event>
 7    1  0.5541017E-010  0.4778727E+02  0.7816164E-02  0.1312668E+00
        -11   -1    0    0    0    0  0.00000000000E+00  0.00000000000E+00  0.45593999997E+02  0.45594000000E+02  0.51100000000E-03 0. -1.
         11   -1    0    0    0    0 -0.00000000000E+00 -0.00000000000E+00 -0.45593999997E+02  0.45594000000E+02  0.51100000000E-03 0.  1.
    9900012    2    1    2    0    0 -0.17747167678E+02  0.37998367778E+02  0.11170744975E+02  0.47787268927E+02  0.19999990348E+02 0.  0.
        -12    1    1    2    0    0  0.17747167678E+02 -0.37998367778E+02 -0.11170744975E+02  0.43400731073E+02  0.00000000000E+00 0.  1.
         11    1    3    3    0    0 -0.35458970363E+01  0.79860110080E+01  0.29413937854E+01  0.92196288035E+01  0.51100000000E-03 0. -1.
        -11    1    3    3    0    0 -0.60660497491E+01  0.23505645069E+02 -0.14885522610E+01  0.24321350656E+02  0.51100000000E-03 0.  1.
        -12    1    3    3    0    0 -0.81352208925E+01  0.65067117010E+01  0.97179034503E+01  0.14246289468E+02  0.00000000000E+00 0.  1.
</event>
<event>
 7    1  0.5541017E-010  0.4778727E+02  0.7816164E-02  0.1312668E+00
        -11   -1    0    0    0    0  0.00000000000E+00  0.00000000000E+00  0.45593999997E+02  0.45594000000E+02  0.51100000000E-03 0. -1.
         11   -1    0    0    0    0 -0.00000000000E+00 -0.00000000000E+00 -0.45593999997E+02  0.45594000000E+02  0.51100000000E-03 0.  1.
    9900012    2    1    2    0    0  0.22397646922E+02  0.21827787863E+02  0.30091806454E+02  0.47787265833E+02  0.19999976238E+02 0.  0.
        -12    1    1    2    0    0 -0.22397646922E+02 -0.21827787863E+02 -0.30091806454E+02  0.43400734167E+02  0.00000000000E+00 0.  1.
         11    1    3    3    0    0  0.77169050036E+01  0.16529206851E+02  0.19908198787E+02  0.27001882919E+02  0.51100000000E-03 0. -1.
        -11    1    3    3    0    0  0.12991994875E+01 -0.23630698511E+01  0.13733098655E+01  0.30262185442E+01  0.51100000000E-03 0.  1.
        -12    1    3    3    0    0  0.13381542430E+02  0.76616508631E+01  0.88102978013E+01  0.17759164370E+02  0.00000000000E+00 0.  1.
</event>
<event>
 7    1  0.5541017E-010  0.4778727E+02  0.7816164E-02  0.1312668E+00
        -11   -1    0    0    0    0  0.00000000000E+00  0.00000000000E+00  0.45593999997E+02  0.45594000000E+02  0.51100000000E-03 0.  1.
         11   -1    0    0    0    0 -0.00000000000E+00 -0.00000000000E+00 -0.45593999997E+02  0.45594000000E+02  0.51100000000E-03 0. -1.
    9900012    2    1    2    0    0 -0.38889165896E+02  0.54524496951E+01 -0.18480458948E+02  0.47787265044E+02  0.19999972643E+02 0.  0.
        -12    1    1    2    0    0  0.38889165896E+02 -0.54524496951E+01  0.18480458948E+02  0.43400734956E+02  0.00000000000E+00 0.  1.
         11    1    3    3    0    0 -0.29511329548E+02  0.29128363675E+01 -0.37550375241E+01  0.29891528808E+02  0.51100000000E-03 0. -1.
        -11    1    3    3    0    0 -0.43837589727E+01  0.46184692648E-01 -0.47436974984E+01  0.64592679132E+01  0.51100000000E-03 0.  1.
         12    1    3    3    0    0 -0.49940773753E+01  0.24934286350E+01 -0.99817239250E+01  0.11436468323E+02  0.00000000000E+00 0. -1.
</event>
<event>
 7    1  0.5541017E-010  0.4778728E+02  0.7816164E-02  0.1312668E+00
        -11   -1    0    0    0    0  0.00000000000E+00  0.00000000000E+00  0.45593999997E+02  0.45594000000E+02  0.51100000000E-03 0. -1.
         11   -1    0    0    0    0 -0.00000000000E+00 -0.00000000000E+00 -0.45593999997E+02  0.45594000000E+02  0.51100000000E-03 0.  1.
    9900012    2    1    2    0    0  0.12646013006E+02 -0.36752168063E+02 -0.19312674622E+02  0.47787275313E+02  0.20000019463E+02 0.  0.
        -12    1    1    2    0    0 -0.12646013006E+02  0.36752168063E+02  0.19312674622E+02  0.43400724687E+02  0.00000000000E+00 0.  1.
         11    1    3    3    0    0  0.17649964827E+00  0.50972805673E+00  0.97961682265E+00  0.11183131037E+01  0.51100000000E-03 0. -1.
        -11    1    3    3    0    0  0.73368663393E+01 -0.59322589888E+01 -0.88106296557E+01  0.12909240860E+02  0.51100000000E-03 0.  1.
         12    1    3    3    0    0  0.51326470188E+01 -0.31329637131E+02 -0.11481661789E+02  0.33759721350E+02  0.00000000000E+00 0. -1.
</event>
<event>
 7    1  0.5541017E-010  0.4778727E+02  0.7816164E-02  0.1312668E+00
        -11   -1    0    0    0    0  0.00000000000E+00  0.00000000000E+00  0.45593999997E+02  0.45594000000E+02  0.51100000000E-03 0.  1.
         11   -1    0    0    0    0 -0.00000000000E+00 -0.00000000000E+00 -0.45593999997E+02  0.45594000000E+02  0.51100000000E-03 0. -1.
    9900012    2    1    2    0    0  0.41849817011E+02  0.44558831941E+01 -0.10600060721E+02  0.47787269981E+02  0.19999995153E+02 0.  0.
        -12    1    1    2    0    0 -0.41849817011E+02 -0.44558831941E+01  0.10600060721E+02  0.43400730019E+02  0.00000000000E+00 0.  1.
         11    1    3    3    0    0  0.23832897520E+02 -0.12105342529E+01 -0.86510510482E+01  0.25383322908E+02  0.51100000000E-03 0. -1.
        -11    1    3    3    0    0  0.16283224966E+02  0.69738996470E+00  0.10761616075E+01  0.16333642954E+02  0.51100000000E-03 0.  1.
        -12    1    3    3    0    0  0.17336945244E+01  0.49690274824E+01 -0.30251712803E+01  0.60703041192E+01  0.00000000000E+00 0.  1.
</event>
<event>
 7    1  0.5541017E-010  0.4778727E+02  0.7816164E-02  0.1312668E+00
        -11   -1    0    0    0    0  0.00000000000E+00  0.00000000000E+00  0.45593999997E+02  0.45594000000E+02  0.51100000000E-03 0.  1.
         11   -1    0    0    0    0 -0.00000000000E+00 -0.00000000000E+00 -0.45593999997E+02  0.45594000000E+02  0.51100000000E-03 0. -1.
    9900012    2    1    2    0    0 -0.69149759202E+01 -0.20637098322E+02 -0.37548854010E+02  0.47787272396E+02  0.20000006161E+02 0.  0.
        -12    1    1    2    0    0  0.69149759202E+01  0.20637098322E+02  0.37548854010E+02  0.43400727604E+02  0.00000000000E+00 0.  1.
         11    1    3    3    0    0  0.39368712374E+01 -0.51422735886E+01 -0.10649544027E+02  0.12464137397E+02  0.51100000000E-03 0. -1.
        -11    1    3    3    0    0  0.18609102385E+01  0.41996701088E+00 -0.53067942937E+01  0.56392752321E+01  0.51100000000E-03 0.  1.
        -12    1    3    3    0    0 -0.12712757396E+02 -0.15914791745E+02 -0.21592515689E+02  0.29683859767E+02  0.00000000000E+00 0.  1.
</event>
<event>
 7    1  0.5541017E-010  0.4778727E+02  0.7816164E-02  0.1312668E+00
        -11   -1    0    0    0    0  0.00000000000E+00  0.00000000000E+00  0.45593999997E+02  0.45594000000E+02  0.51100000000E-03 0.  1.
         11   -1    0    0    0    0 -0.00000000000E+00 -0.00000000000E+00 -0.45593999997E+02  0.45594000000E+02  0.51100000000E-03 0. -1.
    9900012    2    1    2    0    0 -0.23778297375E+02 -0.80368574650E+01 -0.35406565708E+02  0.47787269601E+02  0.19999993417E+02 0.  0.
        -12    1    1    2    0    0  0.23778297375E+02  0.80368574650E+01  0.35406565708E+02  0.43400730399E+02  0.00000000000E+00 0.  1.
         11    1    3    3    0    0  0.91888294197E+00  0.12740036374E+01 -0.13788418216E+01  0.20901282638E+01  0.51100000000E-03 0. -1.
        -11    1    3    3    0    0  0.58624899944E+00 -0.18412527699E+01 -0.94782325720E+01  0.96731997086E+01  0.51100000000E-03 0.  1.
        -12    1    3    3    0    0 -0.25283429316E+02 -0.74696083324E+01 -0.24549491314E+02  0.36023941628E+02  0.00000000000E+00 0.  1.
</event>
<event>
 7    1  0.5541017E-010  0.4778727E+02  0.7816164E-02  0.1312668E+00
        -11   -1    0    0    0    0  0.00000000000E+00  0.00000000000E+00  0.45593999997E+02  0.45594000000E+02  0.51100000000E-03 0. -1.
         11   -1    0    0    0    0 -0.00000000000E+00 -0.00000000000E+00 -0.45593999997E+02  0.45594000000E+02  0.51100000000E-03 0.  1.
    9900012    2    1    2    0    0  0.24174703153E+02 -0.36020661301E+02 -0.13111921054E+01  0.47787268004E+02  0.19999986136E+02 0.  0.
        -12    1    1    2    0    0 -0.24174703153E+02  0.36020661301E+02  0.13111921054E+01  0.43400731996E+02  0.00000000000E+00 0.  1.
         11    1    3    3    0    0  0.17233925498E-01 -0.15916731921E+02 -0.74151614539E+00  0.15934004471E+02  0.51100000000E-03 0. -1.
        -11    1    3    3    0    0  0.20452232883E+01 -0.13365533599E+00 -0.14801573299E+00  0.20549235913E+01  0.51100000000E-03 0.  1.
         12    1    3    3    0    0  0.22112245939E+02 -0.19970274044E+02 -0.42166022706E+00  0.29798339941E+02  0.00000000000E+00 0. -1.
</event>
<event>
 7    1  0.5541017E-010  0.4778727E+02  0.7816164E-02  0.1312668E+00
        -11   -1    0    0    0    0  0.00000000000E+00  0.00000000000E+00  0.45593999997E+02  0.45594000000E+02  0.51100000000E-03 0. -1.
         11   -1    0    0    0    0 -0.00000000000E+00 -0.00000000000E+00 -0.45593999997E+02  0.45594000000E+02  0.51100000000E-03 0.  1.
    9900012    2    1    2    0    0 -0.11045674375E+02  0.38046062683E+02  0.17723253001E+02  0.47787268381E+02  0.19999987858E+02 0.  0.
        -12    1    1    2    0    0  0.11045674375E+02 -0.38046062683E+02 -0.17723253001E+02  0.43400731619E+02  0.00000000000E+00 0.  1.
         11    1    3    3    0    0 -0.70253219743E+00  0.84093034681E+01  0.57836016513E+01  0.10230346261E+02  0.51100000000E-03 0. -1.
        -11    1    3    3    0    0  0.27315740895E+00  0.19925600632E+02  0.11818397744E+02  0.23168485082E+02  0.51100000000E-03 0.  1.
         12    1    3    3    0    0 -0.10616299587E+02  0.97111585837E+01  0.12125360545E+00  0.14388437038E+02  0.00000000000E+00 0. -1.
</event>
<event>
 7    1  0.5541017E-010  0.4778727E+02  0.7816164E-02  0.1312668E+00
        -11   -1    0    0    0    0  0.00000000000E+00  0.00000000000E+00  0.45593999997E+02  0.45594000000E+02  0.51100000000E-03 0. -1.
         11   -1    0    0    0    0 -0.00000000000E+00 -0.00000000000E+00 -0.45593999997E+02  0.45594000000E+02  0.51100000000E-03 0.  1.
    9900012    2    1    2    0    0 -0.10424043282E+02 -0.11734037589E+02  0.40463256504E+02  0.47787269092E+02  0.19999991097E+02 0.  0.
        -12    1    1    2    0    0  0.10424043282E+02  0.11734037589E+02 -0.40463256504E+02  0.43400730908E+02  0.00000000000E+00 0.  1.
         11    1    3    3    0    0 -0.72663405975E+00 -0.53058520100E+01  0.12175458514E+02  0.13301197424E+02  0.51100000000E-03 0. -1.
        -11    1    3    3    0    0 -0.58200692317E+01 -0.11302278598E+02  0.14062169372E+02  0.18956774912E+02  0.51100000000E-03 0.  1.
        -12    1    3    3    0    0 -0.38773399901E+01  0.48740930193E+01  0.14225628618E+02  0.15529296756E+02  0.00000000000E+00 0.  1.
</event>
<event>
 7    1  0.5541017E-010  0.4778727E+02  0.7816164E-02  0.1312668E+00
        -11   -1    0    0    0    0  0.00000000000E+00  0.00000000000E+00  0.45593999997E+02  0.45594000000E+02  0.51100000000E-03 0.  1.
         11   -1    0    0    0    0 -0.00000000000E+00 -0.00000000000E+00 -0.45593999997E+02  0.45594000000E+02  0.51100000000E-03 0. -1.
    9900012    2    1    2    0    0 -0.67066502533E+01 -0.20761614510E+01 -0.42829122031E+02  0.47787270767E+02  0.19999998736E+02 0.  0.
        -12    1    1    2    0    0  0.67066502533E+01  0.20761614510E+01  0.42829122031E+02  0.43400729233E+02  0.00000000000E+00 0.  1.
         11    1    3    3    0    0 -0.74061124469E+00 -0.19651093675E+01 -0.36060206665E+02  0.36121304860E+02  0.51100000000E-03 0. -1.
        -11    1    3    3    0    0 -0.18523441079E+01 -0.29692784551E+01 -0.54655456885E+01  0.64899909994E+01  0.51100000000E-03 0.  1.
         12    1    3    3    0    0 -0.41136949008E+01  0.28582263716E+01 -0.13033696776E+01  0.51759749076E+01  0.00000000000E+00 0. -1.
</event>
<event>
 7    1  0.5541017E-010  0.4778727E+02  0.7816164E-02  0.1312668E+00
        -11   -1    0    0    0    0  0.00000000000E+00  0.00000000000E+00  0.45593999997E+02  0.45594000000E+02  0.51100000000E-03 0. -1.
         11   -1    0    0    0    0 -0.00000000000E+00 -0.00000000000E+00 -0.45593999997E+02  0.45594000000E+02  0.51100000000E-03 0.  1.
    9900012    2    1    2    0    0 -0.11288787557E+02  0.14328435463E+02  0.39381245924E+02  0.47787270538E+02  0.19999997692E+02 0.  0.
        -12    1    1    2    0    0  0.11288787557E+02 -0.14328435463E+02 -0.39381245924E+02  0.43400729462E+02  0.00000000000E+00 0.  1.
         11    1    3    3    0    0 -0.20204122879E+01  0.28009768763E+01  0.10858981456E+02  0.11394955717E+02  0.51100000000E-03 0. -1.
        -11    1    3    3    0    0 -0.76036965759E+01 -0.21538387504E+01  0.15657569787E+02  0.17538948511E+02  0.51100000000E-03 0.  1.
        -12    1    3    3    0    0 -0.16646786930E+01  0.13681297338E+02  0.12864694680E+02  0.18853366310E+02  0.00000000000E+00 0.  1.
</event>
<event>
 7    1  0.5541017E-010  0.4778726E+02  0.7816164E-02  0.1312668E+00
        -11   -1    0    0    0    0  0.00000000000E+00  0.00000000000E+00  0.45593999997E+02  0.45594000000E+02  0.51100000000E-03 0.  1.
         11   -1    0    0    0    0 -0.00000000000E+00 -0.00000000000E+00 -0.45593999997E+02  0.45594000000E+02  0.51100000000E-03 0. -1.
    9900012    2    1    2    0    0  0.21723963341E+02  0.24774477378E+02 -0.28247452078E+02  0.47787264275E+02  0.19999969136E+02 0.  0.
        -12    1    1    2    0    0 -0.21723963341E+02 -0.24774477378E+02  0.28247452078E+02  0.43400735725E+02  0.00000000000E+00 0.  1.
         11    1    3    3    0    0  0.51639786380E+01  0.12093492851E+02 -0.11109151163E+02  0.17214310458E+02  0.51100000000E-03 0.  1.
        -11    1    3    3    0    0  0.17789544386E+02  0.14603056931E+02 -0.15933064605E+02  0.27992493800E+02  0.51100000000E-03 0. -1.
        -12    1    3    3    0    0 -0.12295596829E+01 -0.19220724040E+01 -0.12052363099E+01  0.25804600176E+01  0.00000000000E+00 0.  1.
</event>
<event>
 7    1  0.5541017E-010  0.4778727E+02  0.7816164E-02  0.1312668E+00
        -11   -1    0    0    0    0  0.00000000000E+00  0.00000000000E+00  0.45593999997E+02  0.45594000000E+02  0.51100000000E-03 0. -1.
         11   -1    0    0    0    0 -0.00000000000E+00 -0.00000000000E+00 -0.45593999997E+02  0.45594000000E+02  0.51100000000E-03 0.  1.
    9900012    2    1    2    0    0 -0.25647607046E+02  0.28676502935E+02  0.20086853960E+02  0.47787271092E+02  0.20000000216E+02 0.  0.
        -12    1    1    2    0    0  0.25647607046E+02 -0.28676502935E+02 -0.20086853960E+02  0.43400728908E+02  0.00000000000E+00 0.  1.
         11    1    3    3    0    0 -0.19333264913E+02  0.16776042230E+02  0.13607138155E+02  0.28989048521E+02  0.51100000000E-03 0. -1.
        -11    1    3    3    0    0 -0.95954281229E+01  0.78605216460E+01  0.39987719735E+01  0.13032659704E+02  0.51100000000E-03 0.  1.
        -12    1    3    3    0    0  0.32810859903E+01  0.40399390589E+01  0.24809438310E+01  0.57655628665E+01  0.00000000000E+00 0.  1.
</event>
<event>
 7    1  0.5541017E-010  0.4778727E+02  0.7816164E-02  0.1312668E+00
        -11   -1    0    0    0    0  0.00000000000E+00  0.00000000000E+00  0.45593999997E+02  0.45594000000E+02  0.51100000000E-03 0.  1.
         11   -1    0    0    0    0 -0.00000000000E+00 -0.00000000000E+00 -0.45593999997E+02  0.45594000000E+02  0.51100000000E-03 0. -1.
    9900012    2    1    2    0    0 -0.14209928735E+02  0.13223126365E+02 -0.38818167136E+02  0.47787271373E+02  0.20000001499E+02 0.  0.
        -12    1    1    2    0    0  0.14209928735E+02 -0.13223126365E+02  0.38818167136E+02  0.43400728627E+02  0.00000000000E+00 0.  1.
         11    1    3    3    0    0  0.98055120108E+00  0.10787231750E+01 -0.37268927787E+01  0.40018563682E+01  0.51100000000E-03 0. -1.
        -11    1    3    3    0    0 -0.13602013919E+02  0.10858280154E+02 -0.37062634308E+02  0.40945767701E+02  0.51100000000E-03 0.  1.
        -12    1    3    3    0    0 -0.15884660178E+01  0.12861230363E+01  0.19713599507E+01  0.28396473037E+01  0.00000000000E+00 0.  1.
</event>
<event>
 7    1  0.5541017E-010  0.4778727E+02  0.7816164E-02  0.1312668E+00
        -11   -1    0    0    0    0  0.00000000000E+00  0.00000000000E+00  0.45593999997E+02  0.45594000000E+02  0.51100000000E-03 0.  1.
         11   -1    0    0    0    0 -0.00000000000E+00 -0.00000000000E+00 -0.45593999997E+02  0.45594000000E+02  0.51100000000E-03 0. -1.
    9900012    2    1    2    0    0  0.21309116129E+01  0.26641184299E+02 -0.34195464218E+02  0.47787271225E+02  0.20000000821E+02 0.  0.
        -12    1    1    2    0    0 -0.21309116129E+01 -0.26641184299E+02  0.34195464218E+02  0.43400728775E+02  0.00000000000E+00 0.  1.
         11    1    3    3    0    0  0.42593143853E+01  0.49791228539E+01 -0.95763566342E+01  0.11603449059E+02  0.51100000000E-03 0. -1.
        -11    1    3    3    0    0 -0.12608851363E+01  0.23849011931E+02 -0.20660398740E+02  0.31578747248E+02  0.51100000000E-03 0.  1.
        -12    1    3    3    0    0 -0.86751763612E+00 -0.21869504862E+01 -0.39587088441E+01  0.46050749169E+01  0.00000000000E+00 0.  1.
</event>
<event>
 7    1  0.5541017E-010  0.4778727E+02  0.7816164E-02  0.1312668E+00
        -11   -1    0    0    0    0  0.00000000000E+00  0.00000000000E+00  0.45593999997E+02  0.45594000000E+02  0.51100000000E-03 0.  1.
         11   -1    0    0    0    0 -0.00000000000E+00 -0.00000000000E+00 -0.45593999997E+02  0.45594000000E+02  0.51100000000E-03 0. -1.
    9900012    2    1    2    0    0  0.40894462317E+01 -0.39587389703E+02 -0.17312945165E+02  0.47787273459E+02  0.20000011009E+02 0.  0.
        -12    1    1    2    0    0 -0.40894462317E+01  0.39587389703E+02  0.17312945165E+02  0.43400726541E+02  0.00000000000E+00 0.  1.
         11    1    3    3    0    0  0.42758794705E+01 -0.10013470501E+02 -0.43511845149E+01  0.11725422963E+02  0.51100000000E-03 0. -1.
        -11    1    3    3    0    0 -0.20874285412E+01 -0.69458193738E+01 -0.11124388751E+02  0.13279826431E+02  0.51100000000E-03 0.  1.
         12    1    3    3    0    0  0.19009953024E+01 -0.22628099829E+02 -0.18373718986E+01  0.22782024065E+02  0.00000000000E+00 0. -1.
</event>
<event>
 7    1  0.5541017E-010  0.4778727E+02  0.7816164E-02  0.1312668E+00
        -11   -1    0    0    0    0  0.00000000000E+00  0.00000000000E+00  0.45593999997E+02  0.45594000000E+02  0.51100000000E-03 0.  1.
         11   -1    0    0    0    0 -0.00000000000E+00 -0.00000000000E+00 -0.45593999997E+02  0.45594000000E+02  0.51100000000E-03 0. -1.
    9900012    2    1    2    0    0 -0.32320569724E+02  0.17235098175E+02 -0.23279938126E+02  0.47787270104E+02  0.19999995710E+02 0.  0.
        -12    1    1    2    0    0  0.32320569724E+02 -0.17235098175E+02  0.23279938126E+02  0.43400729896E+02  0.00000000000E+00 0.  1.
         11    1    3    3    0    0 -0.25415214969E+02  0.15766814220E+02 -0.15189929856E+02  0.33544888610E+02  0.51100000000E-03 0. -1.
        -11    1    3    3    0    0 -0.20271628453E+01  0.38304852333E+01  0.19926786897E+00  0.43383999664E+01  0.51100000000E-03 0.  1.
        -12    1    3    3    0    0 -0.48781919103E+01 -0.23622012784E+01 -0.82892761380E+01  0.99039815270E+01  0.00000000000E+00 0.  1.
</event>
<event>
 7    1  0.5541017E-010  0.4778727E+02  0.7816164E-02  0.1312668E+00
        -11   -1    0    0    0    0  0.00000000000E+00  0.00000000000E+00  0.45593999997E+02  0.45594000000E+02  0.51100000000E-03 0.  1.
         11   -1    0    0    0    0 -0.00000000000E+00 -0.00000000000E+00 -0.45593999997E+02  0.45594000000E+02  0.51100000000E-03 0. -1.
    9900012    2    1    2    0    0  0.11702487308E+02  0.38181764027E+02 -0.16994935351E+02  0.47787272575E+02  0.20000006980E+02 0.  0.
        -12    1    1    2    0    0 -0.11702487308E+02 -0.38181764027E+02  0.16994935351E+02  0.43400727425E+02  0.00000000000E+00 0.  1.
         11    1    3    3    0    0  0.73195455789E+00  0.36476946153E+01  0.20763143769E+01  0.42605768547E+01  0.51100000000E-03 0. -1.
        -11    1    3    3    0    0  0.58585418583E+01  0.15960125098E+02 -0.86995421452E+00  0.17023657846E+02  0.51100000000E-03 0.  1.
         12    1    3    3    0    0  0.51119908921E+01  0.18573944313E+02 -0.18201295514E+02  0.26503037875E+02  0.00000000000E+00 0. -1.
</event>
<event>
 7    1  0.5541017E-010  0.4778727E+02  0.7816164E-02  0.1312668E+00
        -11   -1    0    0    0    0  0.00000000000E+00  0.00000000000E+00  0.45593999997E+02  0.45594000000E+02  0.51100000000E-03 0.  1.
         11   -1    0    0    0    0 -0.00000000000E+00 -0.00000000000E+00 -0.45593999997E+02  0.45594000000E+02  0.51100000000E-03 0. -1.
    9900012    2    1    2    0    0 -0.25541317662E+02  0.92010116315E+01 -0.33861570404E+02  0.47787268749E+02  0.19999989532E+02 0.  0.
        -12    1    1    2    0    0  0.25541317662E+02 -0.92010116315E+01  0.33861570404E+02  0.43400731251E+02  0.00000000000E+00 0.  1.
         11    1    3    3    0    0 -0.92746281058E+01 -0.85871036748E+00 -0.49388832718E+01  0.10542707348E+02  0.51100000000E-03 0.  1.
        -11    1    3    3    0    0 -0.11067850489E+02  0.65337313679E+01 -0.74145922353E+01  0.14837895347E+02  0.51100000000E-03 0. -1.
        -12    1    3    3    0    0 -0.51988390673E+01  0.35259906310E+01 -0.21508094896E+02  0.22406666054E+02  0.00000000000E+00 0.  1.
</event>
<event>
 7    1  0.5541017E-010  0.4778727E+02  0.7816164E-02  0.1312668E+00
        -11   -1    0    0    0    0  0.00000000000E+00  0.00000000000E+00  0.45593999997E+02  0.45594000000E+02  0.51100000000E-03 0.  1.
         11   -1    0    0    0    0 -0.00000000000E+00 -0.00000000000E+00 -0.45593999997E+02  0.45594000000E+02  0.51100000000E-03 0. -1.
    9900012    2    1    2    0    0  0.23548841376E+02 -0.11178354589E+02 -0.34700431638E+02  0.47787268470E+02  0.19999988263E+02 0.  0.
        -12    1    1    2    0    0 -0.23548841376E+02  0.11178354589E+02  0.34700431638E+02  0.43400731530E+02  0.00000000000E+00 0.  1.
         11    1    3    3    0    0  0.94790096478E+01 -0.41117141613E+01 -0.11042263316E+02  0.15122479845E+02  0.51100000000E-03 0. -1.
        -11    1    3    3    0    0  0.16504395979E+02 -0.77183840272E+01 -0.23988049720E+02  0.30122998992E+02  0.51100000000E-03 0.  1.
        -12    1    3    3    0    0 -0.24345642499E+01  0.65174359985E+00  0.32988139854E+00  0.25417896341E+01  0.00000000000E+00 0.  1.
</event>
<event>
 7    1  0.5541017E-010  0.4778728E+02  0.7816164E-02  0.1312668E+00
        -11   -1    0    0    0    0  0.00000000000E+00  0.00000000000E+00  0.45593999997E+02  0.45594000000E+02  0.51100000000E-03 0.  1.
         11   -1    0    0    0    0 -0.00000000000E+00 -0.00000000000E+00 -0.45593999997E+02  0.45594000000E+02  0.51100000000E-03 0. -1.
    9900012    2    1    2    0    0  0.25687453972E+02 -0.17479051742E+02 -0.30302810534E+02  0.47787275724E+02  0.20000021338E+02 0.  0.
        -12    1    1    2    0    0 -0.25687453972E+02  0.17479051742E+02  0.30302810534E+02  0.43400724276E+02  0.00000000000E+00 0.  1.
         11    1    3    3    0    0  0.64801039506E+01  0.17668489291E-02 -0.31005763834E+01  0.71836846048E+01  0.51100000000E-03 0. -1.
        -11    1    3    3    0    0  0.87441621801E+01 -0.47984912982E+01 -0.14911927066E+01  0.10085115117E+02  0.51100000000E-03 0.  1.
         12    1    3    3    0    0  0.10463187841E+02 -0.12682327293E+02 -0.25711041444E+02  0.30518476003E+02  0.00000000000E+00 0. -1.
</event>
<event>
 7    1  0.5541017E-010  0.4778727E+02  0.7816164E-02  0.1312668E+00
        -11   -1    0    0    0    0  0.00000000000E+00  0.00000000000E+00  0.45593999997E+02  0.45594000000E+02  0.51100000000E-03 0.  1.
         11   -1    0    0    0    0 -0.00000000000E+00 -0.00000000000E+00 -0.45593999997E+02  0.45594000000E+02  0.51100000000E-03 0. -1.
    9900012    2    1    2    0    0  0.36452739156E+02  0.20602564888E+02 -0.11417343698E+02  0.47787267183E+02  0.19999982395E+02 0.  0.
        -12    1    1    2    0    0 -0.36452739156E+02 -0.20602564888E+02  0.11417343698E+02  0.43400732817E+02  0.00000000000E+00 0.  1.
         11    1    3    3    0    0  0.32364351752E+01  0.22223138379E+01 -0.65564165245E+01  0.76419754868E+01  0.51100000000E-03 0. -1.
        -11    1    3    3    0    0  0.57857271275E+01 -0.14830262893E+01 -0.10500388058E+01  0.60643702990E+01  0.51100000000E-03 0.  1.
        -12    1    3    3    0    0  0.27430576853E+02  0.19863277339E+02 -0.38108883675E+01  0.34080921397E+02  0.00000000000E+00 0.  1.
</event>
<event>
 7    1  0.5541017E-010  0.4778727E+02  0.7816164E-02  0.1312668E+00
        -11   -1    0    0    0    0  0.00000000000E+00  0.00000000000E+00  0.45593999997E+02  0.45594000000E+02  0.51100000000E-03 0.  1.
         11   -1    0    0    0    0 -0.00000000000E+00 -0.00000000000E+00 -0.45593999997E+02  0.45594000000E+02  0.51100000000E-03 0. -1.
    9900012    2    1    2    0    0  0.19927033933E+02  0.28835182843E+02 -0.25594311185E+02  0.47787271711E+02  0.20000003040E+02 0.  0.
        -12    1    1    2    0    0 -0.19927033933E+02 -0.28835182843E+02  0.25594311185E+02  0.43400728289E+02  0.00000000000E+00 0.  1.
         11    1    3    3    0    0  0.62838113401E+01  0.15744079299E+01 -0.77835893907E+00  0.65246370157E+01  0.51100000000E-03 0. -1.
        -11    1    3    3    0    0  0.14974194808E+02  0.17206225299E+02 -0.17735174578E+02  0.28893201913E+02  0.51100000000E-03 0.  1.
        -12    1    3    3    0    0 -0.13309722153E+01  0.10054549615E+02 -0.70807776676E+01  0.12369432783E+02  0.00000000000E+00 0.  1.
</event>
<event>
 7    1  0.5541017E-010  0.4778729E+02  0.7816164E-02  0.1312668E+00
        -11   -1    0    0    0    0  0.00000000000E+00  0.00000000000E+00  0.45593999997E+02  0.45594000000E+02  0.51100000000E-03 0. -1.
         11   -1    0    0    0    0 -0.00000000000E+00 -0.00000000000E+00 -0.45593999997E+02  0.45594000000E+02  0.51100000000E-03 0.  1.
    9900012    2    1    2    0    0  0.34096831627E+02  0.26119619896E+02  0.62284021831E+01  0.47787291893E+02  0.20000095055E+02 0.  0.
        -12    1    1    2    0    0 -0.34096831627E+02 -0.26119619896E+02 -0.62284021831E+01  0.43400708107E+02  0.00000000000E+00 0.  1.
         11    1    3    3    0    0  0.38074392085E+01 -0.14538285567E+01  0.39202639110E+01  0.56549695129E+01  0.51100000000E-03 0. -1.
        -11    1    3    3    0    0  0.20124062949E+01  0.21185626688E+01  0.28502615952E+01  0.40819209081E+01  0.51100000000E-03 0.  1.
         12    1    3    3    0    0  0.28276986123E+02  0.25454885783E+02 -0.54212332316E+00  0.38050401472E+02  0.00000000000E+00 0. -1.
</event>
<event>
 7    1  0.5541017E-010  0.4778727E+02  0.7816164E-02  0.1312668E+00
        -11   -1    0    0    0    0  0.00000000000E+00  0.00000000000E+00  0.45593999997E+02  0.45594000000E+02  0.51100000000E-03 0.  1.
         11   -1    0    0    0    0 -0.00000000000E+00 -0.00000000000E+00 -0.45593999997E+02  0.45594000000E+02  0.51100000000E-03 0. -1.
    9900012    2    1    2    0    0 -0.24970976686E+01  0.20527271931E+02 -0.38157815486E+02  0.47787271062E+02  0.20000000081E+02 0.  0.
        -12    1    1    2    0    0  0.24970976686E+01 -0.20527271931E+02  0.38157815486E+02  0.43400728938E+02  0.00000000000E+00 0.  1.
         11    1    3    3    0    0  0.40480528378E+01  0.17047983752E+02 -0.20616816820E+02  0.27056858980E+02  0.51100000000E-03 0. -1.
        -11    1    3    3    0    0 -0.19327599859E+01  0.53065932066E+01 -0.64050656931E+01  0.85393418609E+01  0.51100000000E-03 0.  1.
        -12    1    3    3    0    0 -0.46123905205E+01 -0.18273050281E+01 -0.11135932972E+02  0.12191070221E+02  0.00000000000E+00 0.  1.
</event>
<event>
 7    1  0.5541017E-010  0.4778727E+02  0.7816164E-02  0.1312668E+00
        -11   -1    0    0    0    0  0.00000000000E+00  0.00000000000E+00  0.45593999997E+02  0.45594000000E+02  0.51100000000E-03 0. -1.
         11   -1    0    0    0    0 -0.00000000000E+00 -0.00000000000E+00 -0.45593999997E+02  0.45594000000E+02  0.51100000000E-03 0.  1.
    9900012    2    1    2    0    0  0.18064898584E+02  0.33214598260E+02  0.21308991455E+02  0.47787271719E+02  0.20000003078E+02 0.  0.
        -12    1    1    2    0    0 -0.18064898584E+02 -0.33214598260E+02 -0.21308991455E+02  0.43400728281E+02  0.00000000000E+00 0.  1.
         11    1    3    3    0    0  0.12338831933E+02  0.83173114281E+01  0.74666859231E+01  0.16648598794E+02  0.51100000000E-03 0. -1.
        -11    1    3    3    0    0  0.57883337423E+00  0.42382988039E+01  0.79825475322E+01  0.90564501981E+01  0.51100000000E-03 0.  1.
        -12    1    3    3    0    0  0.51472332763E+01  0.20658988028E+02  0.58597579998E+01  0.22082222727E+02  0.00000000000E+00 0.  1.
</event>
<event>
 7    1  0.5541017E-010  0.4778727E+02  0.7816164E-02  0.1312668E+00
        -11   -1    0    0    0    0  0.00000000000E+00  0.00000000000E+00  0.45593999997E+02  0.45594000000E+02  0.51100000000E-03 0.  1.
         11   -1    0    0    0    0 -0.00000000000E+00 -0.00000000000E+00 -0.45593999997E+02  0.45594000000E+02  0.51100000000E-03 0. -1.
    9900012    2    1    2    0    0  0.38378009121E+02 -0.52674615215E+01 -0.19570532098E+02  0.47787268882E+02  0.19999990140E+02 0.  0.
        -12    1    1    2    0    0 -0.38378009121E+02  0.52674615215E+01  0.19570532098E+02  0.43400731118E+02  0.00000000000E+00 0.  1.
         11    1    3    3    0    0  0.69237696610E+01  0.16136890709E+01 -0.12028065420E+01  0.72103621667E+01  0.51100000000E-03 0. -1.
        -11    1    3    3    0    0  0.46264086219E+01  0.10709485310E+01  0.27801270824E+01  0.55026988241E+01  0.51100000000E-03 0.  1.
         12    1    3    3    0    0  0.26827830838E+02 -0.79520991234E+01 -0.21147852639E+02  0.35074207891E+02  0.00000000000E+00 0. -1.
</event>
<event>
 7    1  0.5541017E-010  0.4778727E+02  0.7816164E-02  0.1312668E+00
        -11   -1    0    0    0    0  0.00000000000E+00  0.00000000000E+00  0.45593999997E+02  0.45594000000E+02  0.51100000000E-03 0.  1.
         11   -1    0    0    0    0 -0.00000000000E+00 -0.00000000000E+00 -0.45593999997E+02  0.45594000000E+02  0.51100000000E-03 0. -1.
    9900012    2    1    2    0    0  0.27791364734E+02  0.52959710761E+01 -0.32912247467E+02  0.47787270781E+02  0.19999998798E+02 0.  0.
        -12    1    1    2    0    0 -0.27791364734E+02 -0.52959710761E+01  0.32912247467E+02  0.43400729219E+02  0.00000000000E+00 0.  1.
         11    1    3    3    0    0  0.50246871883E+01 -0.58809486330E+01 -0.72807671381E+01  0.10622740162E+02  0.51100000000E-03 0. -1.
        -11    1    3    3    0    0  0.35130238315E+00  0.30440175712E+01 -0.27727423174E+01  0.41325000372E+01  0.51100000000E-03 0.  1.
         12    1    3    3    0    0  0.22415375163E+02  0.81329021379E+01 -0.22858738011E+02  0.33032030582E+02  0.00000000000E+00 0. -1.
</event>
<event>
 7    1  0.5541017E-010  0.4778726E+02  0.7816164E-02  0.1312668E+00
        -11   -1    0    0    0    0  0.00000000000E+00  0.00000000000E+00  0.45593999997E+02  0.45594000000E+02  0.51100000000E-03 0. -1.
         11   -1    0    0    0    0 -0.00000000000E+00 -0.00000000000E+00 -0.45593999997E+02  0.45594000000E+02  0.51100000000E-03 0.  1.
    9900012    2    1    2    0    0  0.25188779702E+02  0.30073822527E+02  0.18566506972E+02  0.47787255704E+02  0.19999930058E+02 0.  0.
        -12    1    1    2    0    0 -0.25188779702E+02 -0.30073822527E+02 -0.18566506972E+02  0.43400744296E+02  0.00000000000E+00 0.  1.
         11    1    3    3    0    0  0.18982704317E+02  0.28419473477E+02  0.18339635100E+02  0.38785973647E+02  0.51100000000E-03 0. -1.
        -11    1    3    3    0    0  0.56333237855E+01  0.23025179035E+01  0.24923460596E+01  0.65762994693E+01  0.51100000000E-03 0.  1.
        -12    1    3    3    0    0  0.57275159930E+00 -0.64816885331E+00 -0.22654741874E+01  0.24249825877E+01  0.00000000000E+00 0.  1.
</event>
<event>
 7    1  0.5541017E-010  0.4778727E+02  0.7816164E-02  0.1312668E+00
        -11   -1    0    0    0    0  0.00000000000E+00  0.00000000000E+00  0.45593999997E+02  0.45594000000E+02  0.51100000000E-03 0.  1.
         11   -1    0    0    0    0 -0.00000000000E+00 -0.00000000000E+00 -0.45593999997E+02  0.45594000000E+02  0.51100000000E-03 0. -1.
    9900012    2    1    2    0    0 -0.25732577248E+01 -0.23129155977E+02 -0.36633915764E+02  0.47787270793E+02  0.19999998851E+02 0.  0.
        -12    1    1    2    0    0  0.25732577248E+01  0.23129155977E+02  0.36633915764E+02  0.43400729207E+02  0.00000000000E+00 0.  1.
         11    1    3    3    0    0 -0.48735872916E+01 -0.85282147814E+01 -0.18849684338E+02  0.21255420493E+02  0.51100000000E-03 0. -1.
        -11    1    3    3    0    0 -0.11770232684E+01  0.21572337347E+01 -0.32735342469E+01  0.40932954801E+01  0.51100000000E-03 0.  1.
        -12    1    3    3    0    0  0.34773528352E+01 -0.16758174931E+02 -0.14510697179E+02  0.22438554819E+02  0.00000000000E+00 0.  1.
</event>
<event>
 7    1  0.5541017E-010  0.4778727E+02  0.7816164E-02  0.1312668E+00
        -11   -1    0    0    0    0  0.00000000000E+00  0.00000000000E+00  0.45593999997E+02  0.45594000000E+02  0.51100000000E-03 0.  1.
         11   -1    0    0    0    0 -0.00000000000E+00 -0.00000000000E+00 -0.45593999997E+02  0.45594000000E+02  0.51100000000E-03 0. -1.
    9900012    2    1    2    0    0 -0.11483805767E+01  0.25643972989E+02 -0.34995586845E+02  0.47787271582E+02  0.20000002449E+02 0.  0.
        -12    1    1    2    0    0  0.11483805767E+01 -0.25643972989E+02  0.34995586845E+02  0.43400728418E+02  0.00000000000E+00 0.  1.
         11    1    3    3    0    0 -0.44000040265E+01  0.29069064098E+01 -0.17932109966E+02  0.18691460842E+02  0.51100000000E-03 0.  1.
        -11    1    3    3    0    0  0.21904578791E+01  0.67049710776E+01 -0.79335253815E+01  0.10615816884E+02  0.51100000000E-03 0. -1.
        -12    1    3    3    0    0  0.10611655707E+01  0.16032095502E+02 -0.91299514970E+01  0.18479993855E+02  0.00000000000E+00 0.  1.
</event>
<event>
 7    1  0.5541017E-010  0.4778727E+02  0.7816164E-02  0.1312668E+00
        -11   -1    0    0    0    0  0.00000000000E+00  0.00000000000E+00  0.45593999997E+02  0.45594000000E+02  0.51100000000E-03 0. -1.
         11   -1    0    0    0    0 -0.00000000000E+00 -0.00000000000E+00 -0.45593999997E+02  0.45594000000E+02  0.51100000000E-03 0.  1.
    9900012    2    1    2    0    0 -0.33056534845E+02 -0.28083096111E+02  0.14928543887E+01  0.47787269622E+02  0.19999993514E+02 0.  0.
        -12    1    1    2    0    0  0.33056534845E+02  0.28083096111E+02 -0.14928543887E+01  0.43400730378E+02  0.00000000000E+00 0.  1.
         11    1    3    3    0    0 -0.83661626896E+01 -0.34258833355E+01 -0.29995628521E+01  0.95250581280E+01  0.51100000000E-03 0. -1.
        -11    1    3    3    0    0  0.11033539764E+01  0.10897817451E+01  0.10691308542E+00  0.15544918521E+01  0.51100000000E-03 0.  1.
         12    1    3    3    0    0 -0.25793726132E+02 -0.25746994521E+02  0.43855041554E+01  0.36707719642E+02  0.00000000000E+00 0. -1.
</event>
<event>
 7    1  0.5541017E-010  0.4778728E+02  0.7816164E-02  0.1312668E+00
        -11   -1    0    0    0    0  0.00000000000E+00  0.00000000000E+00  0.45593999997E+02  0.45594000000E+02  0.51100000000E-03 0.  1.
         11   -1    0    0    0    0 -0.00000000000E+00 -0.00000000000E+00 -0.45593999997E+02  0.45594000000E+02  0.51100000000E-03 0. -1.
    9900012    2    1    2    0    0  0.29824359305E+02 -0.31500661737E+02  0.13560356186E+01  0.47787275001E+02  0.20000018041E+02 0.  0.
        -12    1    1    2    0    0 -0.29824359305E+02  0.31500661737E+02 -0.13560356186E+01  0.43400724999E+02  0.00000000000E+00 0.  1.
         11    1    3    3    0    0  0.23383619212E+02 -0.28506481340E+02 -0.92198915600E+00  0.36881746028E+02  0.51100000000E-03 0. -1.
        -11    1    3    3    0    0 -0.71785999732E+00 -0.26904936755E+01 -0.10874974869E+01  0.29894364416E+01  0.51100000000E-03 0.  1.
         12    1    3    3    0    0  0.71586000898E+01 -0.30368672203E+00  0.33655222615E+01  0.79160925313E+01  0.00000000000E+00 0. -1.
</event>
<event>
 7    1  0.5541017E-010  0.4778727E+02  0.7816164E-02  0.1312668E+00
        -11   -1    0    0    0    0  0.00000000000E+00  0.00000000000E+00  0.45593999997E+02  0.45594000000E+02  0.51100000000E-03 0.  1.
         11   -1    0    0    0    0 -0.00000000000E+00 -0.00000000000E+00 -0.45593999997E+02  0.45594000000E+02  0.51100000000E-03 0. -1.
    9900012    2    1    2    0    0  0.49095184077E+01  0.12270931651E+02 -0.41339376526E+02  0.47787272055E+02  0.20000004607E+02 0.  0.
        -12    1    1    2    0    0 -0.49095184077E+01 -0.12270931651E+02  0.41339376526E+02  0.43400727945E+02  0.00000000000E+00 0.  1.
         11    1    3    3    0    0  0.37699864868E+01  0.18591536568E+01 -0.39964831377E+01  0.58000972544E+01  0.51100000000E-03 0. -1.
        -11    1    3    3    0    0 -0.15628506764E+01  0.96881814752E+01 -0.84237113957E+01  0.12932991784E+02  0.51100000000E-03 0.  1.
         12    1    3    3    0    0  0.27023825973E+01  0.72359651885E+00 -0.28919181993E+02  0.29054183017E+02  0.00000000000E+00 0. -1.
</event>
<event>
 7    1  0.5541017E-010  0.4778727E+02  0.7816164E-02  0.1312668E+00
        -11   -1    0    0    0    0  0.00000000000E+00  0.00000000000E+00  0.45593999997E+02  0.45594000000E+02  0.51100000000E-03 0.  1.
         11   -1    0    0    0    0 -0.00000000000E+00 -0.00000000000E+00 -0.45593999997E+02  0.45594000000E+02  0.51100000000E-03 0. -1.
    9900012    2    1    2    0    0  0.13803320138E+01  0.74358092102E+01 -0.42736711895E+02  0.47787272832E+02  0.20000008150E+02 0.  0.
        -12    1    1    2    0    0 -0.13803320138E+01 -0.74358092102E+01  0.42736711895E+02  0.43400727168E+02  0.00000000000E+00 0.  1.
         11    1    3    3    0    0 -0.18286178265E+00  0.10644876885E+02 -0.37182843684E+02  0.38677004886E+02  0.51100000000E-03 0. -1.
        -11    1    3    3    0    0  0.27764715281E+01  0.52350070080E+00 -0.39816872122E+01  0.48822822990E+01  0.51100000000E-03 0.  1.
        -12    1    3    3    0    0 -0.12132777316E+01 -0.37325683756E+01 -0.15721809996E+01  0.42279856466E+01  0.00000000000E+00 0.  1.
</event>
<event>
 7    1  0.5541017E-010  0.4778727E+02  0.7816164E-02  0.1312668E+00
        -11   -1    0    0    0    0  0.00000000000E+00  0.00000000000E+00  0.45593999997E+02  0.45594000000E+02  0.51100000000E-03 0. -1.
         11   -1    0    0    0    0 -0.00000000000E+00 -0.00000000000E+00 -0.45593999997E+02  0.45594000000E+02  0.51100000000E-03 0.  1.
    9900012    2    1    2    0    0  0.29356730841E+02 -0.27055330247E+02  0.17023943104E+02  0.47787272134E+02  0.20000004970E+02 0.  0.
        -12    1    1    2    0    0 -0.29356730841E+02  0.27055330247E+02 -0.17023943104E+02  0.43400727866E+02  0.00000000000E+00 0.  1.
         11    1    3    3    0    0  0.11734543984E+02 -0.10613068008E+02  0.33584277082E+01  0.16174540859E+02  0.51100000000E-03 0. -1.
        -11    1    3    3    0    0 -0.81571949501E+00 -0.16632503148E+01 -0.24050822299E+01  0.30358229029E+01  0.51100000000E-03 0.  1.
         12    1    3    3    0    0  0.18437906352E+02 -0.14779011924E+02  0.16070597626E+02  0.28576908373E+02  0.00000000000E+00 0. -1.
</event>
<event>
 7    1  0.5541017E-010  0.4778727E+02  0.7816164E-02  0.1312668E+00
        -11   -1    0    0    0    0  0.00000000000E+00  0.00000000000E+00  0.45593999997E+02  0.45594000000E+02  0.51100000000E-03 0.  1.
         11   -1    0    0    0    0 -0.00000000000E+00 -0.00000000000E+00 -0.45593999997E+02  0.45594000000E+02  0.51100000000E-03 0. -1.
    9900012    2    1    2    0    0  0.60527026434E+01 -0.11497286422E+02 -0.41410147024E+02  0.47787273268E+02  0.20000010137E+02 0.  0.
        -12    1    1    2    0    0 -0.60527026434E+01  0.11497286422E+02  0.41410147024E+02  0.43400726732E+02  0.00000000000E+00 0.  1.
         11    1    3    3    0    0  0.25537730823E+01 -0.98903434754E+01 -0.25606778908E+02  0.27568964023E+02  0.51100000000E-03 0.  1.
        -11    1    3    3    0    0  0.72855057747E+01 -0.22892207481E+01 -0.14047361901E+02  0.15988980664E+02  0.51100000000E-03 0. -1.
        -12    1    3    3    0    0 -0.37865762136E+01  0.68227780139E+00 -0.17560062152E+01  0.42293285812E+01  0.00000000000E+00 0.  1.
</event>
<event>
 7    1  0.5541017E-010  0.4778732E+02  0.7816164E-02  0.1312668E+00
        -11   -1    0    0    0    0  0.00000000000E+00  0.00000000000E+00  0.45593999997E+02  0.45594000000E+02  0.51100000000E-03 0.  1.
         11   -1    0    0    0    0 -0.00000000000E+00 -0.00000000000E+00 -0.45593999997E+02  0.45594000000E+02  0.51100000000E-03 0. -1.
    9900012    2    1    2    0    0  0.38058570964E+02  0.27613610740E+01 -0.20677008532E+02  0.47787324652E+02  0.20000244418E+02 0.  0.
        -12    1    1    2    0    0 -0.38058570964E+02 -0.27613610740E+01  0.20677008532E+02  0.43400675348E+02  0.00000000000E+00 0.  1.
         11    1    3    3    0    0  0.15835080859E+02  0.38365259962E+00 -0.15126743560E+02  0.21902405030E+02  0.51100000000E-03 0. -1.
        -11    1    3    3    0    0  0.11016815366E+02 -0.27140624395E+01 -0.72414341757E+01  0.13460116081E+02  0.51100000000E-03 0.  1.
        -12    1    3    3    0    0  0.11206674739E+02  0.50917709138E+01  0.16911692039E+01  0.12424803541E+02  0.00000000000E+00 0.  1.
</event>
<event>
 7    1  0.5541017E-010  0.4778727E+02  0.7816164E-02  0.1312668E+00
        -11   -1    0    0    0    0  0.00000000000E+00  0.00000000000E+00  0.45593999997E+02  0.45594000000E+02  0.51100000000E-03 0.  1.
         11   -1    0    0    0    0 -0.00000000000E+00 -0.00000000000E+00 -0.45593999997E+02  0.45594000000E+02  0.51100000000E-03 0. -1.
    9900012    2    1    2    0    0 -0.21032134207E+02 -0.98694078679E+01 -0.36658799510E+02  0.47787268872E+02  0.19999990093E+02 0.  0.
        -12    1    1    2    0    0  0.21032134207E+02  0.98694078679E+01  0.36658799510E+02  0.43400731128E+02  0.00000000000E+00 0.  1.
         11    1    3    3    0    0 -0.60316981393E+01 -0.40765233939E+01 -0.53526245546E+01  0.90360398022E+01  0.51100000000E-03 0. -1.
        -11    1    3    3    0    0  0.14350059655E+01  0.26709402613E+01 -0.89403588599E+00  0.31610859569E+01  0.51100000000E-03 0.  1.
        -12    1    3    3    0    0 -0.16435442034E+02 -0.84638247353E+01 -0.30412139069E+02  0.35590143112E+02  0.00000000000E+00 0.  1.
</event>
<event>
 7    1  0.5541017E-010  0.4778728E+02  0.7816164E-02  0.1312668E+00
        -11   -1    0    0    0    0  0.00000000000E+00  0.00000000000E+00  0.45593999997E+02  0.45594000000E+02  0.51100000000E-03 0.  1.
         11   -1    0    0    0    0 -0.00000000000E+00 -0.00000000000E+00 -0.45593999997E+02  0.45594000000E+02  0.51100000000E-03 0. -1.
    9900012    2    1    2    0    0 -0.13048065759E+02  0.33146683907E+02 -0.24792502067E+02  0.47787276126E+02  0.20000023168E+02 0.  0.
        -12    1    1    2    0    0  0.13048065759E+02 -0.33146683907E+02  0.24792502067E+02  0.43400723874E+02  0.00000000000E+00 0.  1.
         11    1    3    3    0    0 -0.74317684294E+01  0.74829723147E+01 -0.11957815186E+02  0.15944133747E+02  0.51100000000E-03 0. -1.
        -11    1    3    3    0    0 -0.85986478332E+01  0.20689528465E+02 -0.66652057562E+01  0.23375591986E+02  0.51100000000E-03 0.  1.
         12    1    3    3    0    0  0.29823505040E+01  0.49741831278E+01 -0.61694811240E+01  0.84675503930E+01  0.00000000000E+00 0. -1.
</event>
<event>
 7    1  0.5541017E-010  0.4778727E+02  0.7816164E-02  0.1312668E+00
        -11   -1    0    0    0    0  0.00000000000E+00  0.00000000000E+00  0.45593999997E+02  0.45594000000E+02  0.51100000000E-03 0.  1.
         11   -1    0    0    0    0 -0.00000000000E+00 -0.00000000000E+00 -0.45593999997E+02  0.45594000000E+02  0.51100000000E-03 0. -1.
    9900012    2    1    2    0    0  0.43355951041E+02  0.14429008506E+01  0.13426338469E+01  0.47787272826E+02  0.20000008124E+02 0.  0.
        -12    1    1    2    0    0 -0.43355951041E+02 -0.14429008506E+01 -0.13426338469E+01  0.43400727174E+02  0.00000000000E+00 0.  1.
         11    1    3    3    0    0  0.41971982765E+00  0.27746975198E+01  0.24571342485E+00  0.28169995400E+01  0.51100000000E-03 0. -1.
        -11    1    3    3    0    0  0.28354776611E+01  0.11359896932E+01 -0.33673803467E+01  0.45463894257E+01  0.51100000000E-03 0.  1.
         12    1    3    3    0    0  0.40100753553E+02 -0.24677863623E+01  0.44643007687E+01  0.40423883861E+02  0.00000000000E+00 0. -1.
</event>
<event>
 7    1  0.5541017E-010  0.4778727E+02  0.7816164E-02  0.1312668E+00
        -11   -1    0    0    0    0  0.00000000000E+00  0.00000000000E+00  0.45593999997E+02  0.45594000000E+02  0.51100000000E-03 0.  1.
         11   -1    0    0    0    0 -0.00000000000E+00 -0.00000000000E+00 -0.45593999997E+02  0.45594000000E+02  0.51100000000E-03 0. -1.
    9900012    2    1    2    0    0  0.30633954875E+01 -0.26274742846E+02 -0.34407517932E+02  0.47787265055E+02  0.19999972691E+02 0.  0.
        -12    1    1    2    0    0 -0.30633954875E+01  0.26274742846E+02  0.34407517932E+02  0.43400734945E+02  0.00000000000E+00 0.  1.
         11    1    3    3    0    0 -0.38579032517E+01 -0.29903049711E+01 -0.13487007002E+01  0.50640236137E+01  0.51100000000E-03 0.  1.
        -11    1    3    3    0    0  0.15529841173E+01 -0.14447765387E+02 -0.10561537271E+02  0.17963734415E+02  0.51100000000E-03 0. -1.
        -12    1    3    3    0    0  0.53683146219E+01 -0.88366724883E+01 -0.22497279961E+02  0.24759507026E+02  0.00000000000E+00 0.  1.
</event>
<event>
 7    1  0.5541017E-010  0.4778727E+02  0.7816164E-02  0.1312668E+00
        -11   -1    0    0    0    0  0.00000000000E+00  0.00000000000E+00  0.45593999997E+02  0.45594000000E+02  0.51100000000E-03 0.  1.
         11   -1    0    0    0    0 -0.00000000000E+00 -0.00000000000E+00 -0.45593999997E+02  0.45594000000E+02  0.51100000000E-03 0. -1.
    9900012    2    1    2    0    0 -0.33970869732E+02 -0.10532983283E+02 -0.24872870121E+02  0.47787269646E+02  0.19999993624E+02 0.  0.
        -12    1    1    2    0    0  0.33970869732E+02  0.10532983283E+02  0.24872870121E+02  0.43400730354E+02  0.00000000000E+00 0.  1.
         11    1    3    3    0    0 -0.17407599914E+02 -0.79049243181E+01 -0.10480454500E+02  0.21802575307E+02  0.51100000000E-03 0. -1.
        -11    1    3    3    0    0 -0.78022346225E+01  0.55208577790E+01 -0.50886884009E+01  0.10828180162E+02  0.51100000000E-03 0.  1.
         12    1    3    3    0    0 -0.87610351964E+01 -0.81489167443E+01 -0.93037272195E+01  0.15156514177E+02  0.00000000000E+00 0. -1.
</event>
<event>
 7    1  0.5541017E-010  0.4778727E+02  0.7816164E-02  0.1312668E+00
        -11   -1    0    0    0    0  0.00000000000E+00  0.00000000000E+00  0.45593999997E+02  0.45594000000E+02  0.51100000000E-03 0.  1.
         11   -1    0    0    0    0 -0.00000000000E+00 -0.00000000000E+00 -0.45593999997E+02  0.45594000000E+02  0.51100000000E-03 0. -1.
    9900012    2    1    2    0    0  0.28047238952E+02 -0.10583390711E+02 -0.31384193764E+02  0.47787269706E+02  0.19999993900E+02 0.  0.
        -12    1    1    2    0    0 -0.28047238952E+02  0.10583390711E+02  0.31384193764E+02  0.43400730294E+02  0.00000000000E+00 0.  1.
         11    1    3    3    0    0 -0.23678053957E+00  0.43808788320E+00 -0.71005529524E+01  0.71179939946E+01  0.51100000000E-03 0. -1.
        -11    1    3    3    0    0  0.31853376661E+01  0.14754832246E+01 -0.67280651009E+01  0.75888264611E+01  0.51100000000E-03 0.  1.
         12    1    3    3    0    0  0.25098681826E+02 -0.12496961819E+02 -0.17555575711E+02  0.33080449251E+02  0.00000000000E+00 0. -1.
</event>
<event>
 7    1  0.5541017E-010  0.4778726E+02  0.7816164E-02  0.1312668E+00
        -11   -1    0    0    0    0  0.00000000000E+00  0.00000000000E+00  0.45593999997E+02  0.45594000000E+02  0.51100000000E-03 0.  1.
         11   -1    0    0    0    0 -0.00000000000E+00 -0.00000000000E+00 -0.45593999997E+02  0.45594000000E+02  0.51100000000E-03 0. -1.
    9900012    2    1    2    0    0 -0.36968469055E+02 -0.11206167206E+02 -0.19783276960E+02  0.47787263428E+02  0.19999965272E+02 0.  0.
        -12    1    1    2    0    0  0.36968469055E+02  0.11206167206E+02  0.19783276960E+02  0.43400736572E+02  0.00000000000E+00 0.  1.
         11    1    3    3    0    0 -0.16766539823E+02 -0.12993488626E+01 -0.38320754114E+01  0.17247897475E+02  0.51100000000E-03 0. -1.
        -11    1    3    3    0    0 -0.18270280629E+02 -0.47884972969E+01 -0.71883871841E+01  0.20209051715E+02  0.51100000000E-03 0.  1.
        -12    1    3    3    0    0 -0.19316486033E+01 -0.51183210466E+01 -0.87628143647E+01  0.10330314238E+02  0.00000000000E+00 0.  1.
</event>
<event>
 7    1  0.5541017E-010  0.4778727E+02  0.7816164E-02  0.1312668E+00
        -11   -1    0    0    0    0  0.00000000000E+00  0.00000000000E+00  0.45593999997E+02  0.45594000000E+02  0.51100000000E-03 0. -1.
         11   -1    0    0    0    0 -0.00000000000E+00 -0.00000000000E+00 -0.45593999997E+02  0.45594000000E+02  0.51100000000E-03 0.  1.
    9900012    2    1    2    0    0 -0.33577343956E+02 -0.18537498776E+02  0.20311239660E+02  0.47787270231E+02  0.19999996290E+02 0.  0.
        -12    1    1    2    0    0  0.33577343956E+02  0.18537498776E+02 -0.20311239660E+02  0.43400729769E+02  0.00000000000E+00 0.  1.
         11    1    3    3    0    0 -0.18628034194E+02 -0.73481656155E+01  0.74878181864E+01  0.21379116383E+02  0.51100000000E-03 0. -1.
        -11    1    3    3    0    0 -0.30564703863E+01  0.20122252970E+01 -0.11144358934E+01  0.38253142994E+01  0.51100000000E-03 0.  1.
         12    1    3    3    0    0 -0.11892839376E+02 -0.13201558457E+02  0.13937857367E+02  0.22582839549E+02  0.00000000000E+00 0. -1.
</event>
<event>
 7    1  0.5541017E-010  0.4778726E+02  0.7816164E-02  0.1312668E+00
        -11   -1    0    0    0    0  0.00000000000E+00  0.00000000000E+00  0.45593999997E+02  0.45594000000E+02  0.51100000000E-03 0.  1.
         11   -1    0    0    0    0 -0.00000000000E+00 -0.00000000000E+00 -0.45593999997E+02  0.45594000000E+02  0.51100000000E-03 0. -1.
    9900012    2    1    2    0    0  0.18572806585E+02  0.39165043618E+02  0.21851492815E+01  0.47787255036E+02  0.19999927012E+02 0.  0.
        -12    1    1    2    0    0 -0.18572806585E+02 -0.39165043618E+02 -0.21851492815E+01  0.43400744964E+02  0.00000000000E+00 0.  1.
         11    1    3    3    0    0  0.81621658001E+01  0.10260661088E+02  0.61563050068E+00  0.13125590184E+02  0.51100000000E-03 0. -1.
        -11    1    3    3    0    0  0.89795703734E+01  0.54387993650E+01  0.35176494788E+01  0.11071905019E+02  0.51100000000E-03 0.  1.
        -12    1    3    3    0    0  0.14310704119E+01  0.23465583165E+02 -0.19481306980E+01  0.23589759833E+02  0.00000000000E+00 0.  1.
</event>
<event>
 7    1  0.5541017E-010  0.4778732E+02  0.7816164E-02  0.1312668E+00
        -11   -1    0    0    0    0  0.00000000000E+00  0.00000000000E+00  0.45593999997E+02  0.45594000000E+02  0.51100000000E-03 0.  1.
         11   -1    0    0    0    0 -0.00000000000E+00 -0.00000000000E+00 -0.45593999997E+02  0.45594000000E+02  0.51100000000E-03 0. -1.
    9900012    2    1    2    0    0 -0.37110253902E+02 -0.19847440711E+02 -0.10607901724E+02  0.47787315369E+02  0.20000202092E+02 0.  0.
        -12    1    1    2    0    0  0.37110253902E+02  0.19847440711E+02  0.10607901724E+02  0.43400684631E+02  0.00000000000E+00 0.  1.
         11    1    3    3    0    0 -0.11474579514E+02  0.85245567034E+00 -0.45488590624E+01  0.12372743218E+02  0.51100000000E-03 0. -1.
        -11    1    3    3    0    0 -0.17045530680E+02 -0.82165121793E+01  0.43684522890E+00  0.18927546660E+02  0.51100000000E-03 0.  1.
        -12    1    3    3    0    0 -0.85901437078E+01 -0.12483384202E+02 -0.64958878907E+01  0.16487025491E+02  0.00000000000E+00 0.  1.
</event>
<event>
 7    1  0.5541017E-010  0.4778727E+02  0.7816164E-02  0.1312668E+00
        -11   -1    0    0    0    0  0.00000000000E+00  0.00000000000E+00  0.45593999997E+02  0.45594000000E+02  0.51100000000E-03 0.  1.
         11   -1    0    0    0    0 -0.00000000000E+00 -0.00000000000E+00 -0.45593999997E+02  0.45594000000E+02  0.51100000000E-03 0. -1.
    9900012    2    1    2    0    0 -0.30320117019E+02 -0.10811235207E+02 -0.29110669486E+02  0.47787269814E+02  0.19999994392E+02 0.  0.
        -12    1    1    2    0    0  0.30320117019E+02  0.10811235207E+02  0.29110669486E+02  0.43400730186E+02  0.00000000000E+00 0.  1.
         11    1    3    3    0    0 -0.15232835905E+02 -0.18955638804E+01 -0.18321509235E+02  0.23902095160E+02  0.51100000000E-03 0. -1.
        -11    1    3    3    0    0 -0.15685170672E+02 -0.90514623160E+01 -0.12541793627E+02  0.22028393875E+02  0.51100000000E-03 0.  1.
        -12    1    3    3    0    0  0.59788955781E+00  0.13579098907E+00  0.17526333757E+01  0.18567807802E+01  0.00000000000E+00 0.  1.
</event>
<event>
 7    1  0.5541017E-010  0.4778727E+02  0.7816164E-02  0.1312668E+00
        -11   -1    0    0    0    0  0.00000000000E+00  0.00000000000E+00  0.45593999997E+02  0.45594000000E+02  0.51100000000E-03 0.  1.
         11   -1    0    0    0    0 -0.00000000000E+00 -0.00000000000E+00 -0.45593999997E+02  0.45594000000E+02  0.51100000000E-03 0. -1.
    9900012    2    1    2    0    0 -0.39652819060E+02  0.54628097386E+01  0.16776014096E+02  0.47787274215E+02  0.20000014457E+02 0.  0.
        -12    1    1    2    0    0  0.39652819060E+02 -0.54628097386E+01 -0.16776014096E+02  0.43400725785E+02  0.00000000000E+00 0.  1.
         11    1    3    3    0    0 -0.84281875915E+01  0.51534234429E+01  0.34262128184E+01  0.10456149090E+02  0.51100000000E-03 0. -1.
        -11    1    3    3    0    0  0.12066116764E+01  0.20526438807E+01  0.78058168635E+00  0.25057068202E+01  0.51100000000E-03 0.  1.
         12    1    3    3    0    0 -0.32431243145E+02 -0.17432575849E+01  0.12569219592E+02  0.34825418305E+02  0.00000000000E+00 0. -1.
</event>
<event>
 7    1  0.5541017E-010  0.4778727E+02  0.7816164E-02  0.1312668E+00
        -11   -1    0    0    0    0  0.00000000000E+00  0.00000000000E+00  0.45593999997E+02  0.45594000000E+02  0.51100000000E-03 0. -1.
         11   -1    0    0    0    0 -0.00000000000E+00 -0.00000000000E+00 -0.45593999997E+02  0.45594000000E+02  0.51100000000E-03 0.  1.
    9900012    2    1    2    0    0  0.93122206736E+01 -0.16931988031E+02  0.38861464464E+02  0.47787273130E+02  0.20000009511E+02 0.  0.
        -12    1    1    2    0    0 -0.93122206736E+01  0.16931988031E+02 -0.38861464464E+02  0.43400726870E+02  0.00000000000E+00 0.  1.
         11    1    3    3    0    0  0.34494120180E+01 -0.43014524021E-01  0.85294142958E+01  0.92006087847E+01  0.51100000000E-03 0. -1.
        -11    1    3    3    0    0  0.13827474789E+01 -0.18268541306E+02  0.19356307757E+02  0.26651796230E+02  0.51100000000E-03 0.  1.
        -12    1    3    3    0    0  0.44800611767E+01  0.13795677997E+01  0.10975742411E+02  0.11934868115E+02  0.00000000000E+00 0.  1.
</event>
<event>
 7    1  0.7113697E-010  0.4778727E+02  0.7816164E-02  0.1312668E+00
        -11   -1    0    0    0    0  0.00000000000E+00  0.00000000000E+00  0.45593999997E+02  0.45594000000E+02  0.51100000000E-03 0. -1.
         11   -1    0    0    0    0 -0.00000000000E+00 -0.00000000000E+00 -0.45593999997E+02  0.45594000000E+02  0.51100000000E-03 0.  1.
    9900012    2    1    2    0    0 -0.37258459003E+02 -0.17150702074E+02  0.14187450415E+02  0.47787273068E+02  0.20000009229E+02 0.  0.
        -12    1    1    2    0    0  0.37258459003E+02  0.17150702074E+02 -0.14187450415E+02  0.43400726932E+02  0.00000000000E+00 0.  1.
         11    1    3    3    0    0 -0.19448261181E+02 -0.14691961684E+02  0.88634029901E+01  0.25935468260E+02  0.51100000000E-03 0. -1.
        -11    1    3    3    0    0 -0.17226086715E+02 -0.54555443172E+01  0.39123321046E+01  0.18488033159E+02  0.51100000000E-03 0.  1.
        -12    1    3    3    0    0 -0.58411110752E+00  0.29968039274E+01  0.14117153199E+01  0.33637716494E+01  0.00000000000E+00 0.  1.
</event>
<event>
 7    1  0.5541017E-010  0.4778732E+02  0.7816164E-02  0.1312668E+00
        -11   -1    0    0    0    0  0.00000000000E+00  0.00000000000E+00  0.45593999997E+02  0.45594000000E+02  0.51100000000E-03 0.  1.
         11   -1    0    0    0    0 -0.00000000000E+00 -0.00000000000E+00 -0.45593999997E+02  0.45594000000E+02  0.51100000000E-03 0. -1.
    9900012    2    1    2    0    0 -0.23244486331E+02 -0.30986744397E+02 -0.19573826293E+02  0.47787318567E+02  0.20000216672E+02 0.  0.
        -12    1    1    2    0    0  0.23244486331E+02  0.30986744397E+02  0.19573826293E+02  0.43400681433E+02  0.00000000000E+00 0.  1.
         11    1    3    3    0    0 -0.61874828965E+01 -0.13593197962E+02 -0.11488678354E+02  0.18842762695E+02  0.51100000000E-03 0. -1.
        -11    1    3    3    0    0 -0.23638659108E+01  0.70040981749E+00 -0.48128947666E+01  0.54076235309E+01  0.51100000000E-03 0.  1.
         12    1    3    3    0    0 -0.14693137523E+02 -0.18093956253E+02 -0.32722531726E+01  0.23536932340E+02  0.00000000000E+00 0. -1.
</event>
<event>
 7    1  0.5541017E-010  0.4778727E+02  0.7816164E-02  0.1312668E+00
        -11   -1    0    0    0    0  0.00000000000E+00  0.00000000000E+00  0.45593999997E+02  0.45594000000E+02  0.51100000000E-03 0.  1.
         11   -1    0    0    0    0 -0.00000000000E+00 -0.00000000000E+00 -0.45593999997E+02  0.45594000000E+02  0.51100000000E-03 0. -1.
    9900012    2    1    2    0    0  0.22193473447E+02 -0.15264110741E+02 -0.34030573980E+02  0.47787270677E+02  0.19999998323E+02 0.  0.
        -12    1    1    2    0    0 -0.22193473447E+02  0.15264110741E+02  0.34030573980E+02  0.43400729323E+02  0.00000000000E+00 0.  1.
         11    1    3    3    0    0 -0.82536499222E+00 -0.38713310042E+00 -0.11131449607E+02  0.11168718369E+02  0.51100000000E-03 0. -1.
        -11    1    3    3    0    0  0.72286171863E+01 -0.36436785184E+01 -0.11729378076E+02  0.14251582715E+02  0.51100000000E-03 0.  1.
        -12    1    3    3    0    0  0.15790221253E+02 -0.11233299122E+02 -0.11169746298E+02  0.22366969593E+02  0.00000000000E+00 0.  1.
</event>
<event>
 7    1  0.5541017E-010  0.4778725E+02  0.7816164E-02  0.1312668E+00
        -11   -1    0    0    0    0  0.00000000000E+00  0.00000000000E+00  0.45593999997E+02  0.45594000000E+02  0.51100000000E-03 0. -1.
         11   -1    0    0    0    0 -0.00000000000E+00 -0.00000000000E+00 -0.45593999997E+02  0.45594000000E+02  0.51100000000E-03 0.  1.
    9900012    2    1    2    0    0 -0.18759486668E+02 -0.39102629318E+02  0.16404050973E+01  0.47787252443E+02  0.19999915187E+02 0.  0.
        -12    1    1    2    0    0  0.18759486668E+02  0.39102629318E+02 -0.16404050973E+01  0.43400747557E+02  0.00000000000E+00 0.  1.
         11    1    3    3    0    0 -0.15059120174E+02 -0.30548507307E+02  0.62650089321E+01  0.34630026512E+02  0.51100000000E-03 0. -1.
        -11    1    3    3    0    0 -0.18912070577E+01 -0.17443231862E+01  0.21722911150E+01  0.33672208811E+01  0.51100000000E-03 0.  1.
        -12    1    3    3    0    0 -0.18091594371E+01 -0.68097988251E+01 -0.67968949497E+01  0.97900050493E+01  0.00000000000E+00 0.  1.
</event>
<event>
 7    1  0.5541017E-010  0.4778727E+02  0.7816164E-02  0.1312668E+00
        -11   -1    0    0    0    0  0.00000000000E+00  0.00000000000E+00  0.45593999997E+02  0.45594000000E+02  0.51100000000E-03 0.  1.
         11   -1    0    0    0    0 -0.00000000000E+00 -0.00000000000E+00 -0.45593999997E+02  0.45594000000E+02  0.51100000000E-03 0. -1.
    9900012    2    1    2    0    0  0.40720244918E+02 -0.14982217061E+02  0.10092428443E+01  0.47787265613E+02  0.19999975235E+02 0.  0.
        -12    1    1    2    0    0 -0.40720244918E+02  0.14982217061E+02 -0.10092428443E+01  0.43400734387E+02  0.00000000000E+00 0.  1.
         11    1    3    3    0    0  0.45007129332E+01 -0.65893346898E+00  0.22290444701E+01  0.50654960008E+01  0.51100000000E-03 0. -1.
        -11    1    3    3    0    0  0.32164614954E+02 -0.13463547761E+02 -0.70440191651E+01  0.35573132835E+02  0.51100000000E-03 0.  1.
        -12    1    3    3    0    0  0.40549170310E+01 -0.85973583130E+00  0.58242175393E+01  0.71486367773E+01  0.00000000000E+00 0.  1.
</event>
<event>
 7    1  0.5541017E-010  0.4778727E+02  0.7816164E-02  0.1312668E+00
        -11   -1    0    0    0    0  0.00000000000E+00  0.00000000000E+00  0.45593999997E+02  0.45594000000E+02  0.51100000000E-03 0. -1.
         11   -1    0    0    0    0 -0.00000000000E+00 -0.00000000000E+00 -0.45593999997E+02  0.45594000000E+02  0.51100000000E-03 0.  1.
    9900012    2    1    2    0    0  0.79996385967E+01 -0.99485191978E+00  0.42645509153E+02  0.47787269604E+02  0.19999993432E+02 0.  0.
        -12    1    1    2    0    0 -0.79996385967E+01  0.99485191978E+00 -0.42645509153E+02  0.43400730396E+02  0.00000000000E+00 0.  1.
         11    1    3    3    0    0  0.11208786691E+01  0.34680977150E+01  0.12160392261E+01  0.38422418472E+01  0.51100000000E-03 0. -1.
        -11    1    3    3    0    0  0.14090450361E+01 -0.44278684439E+01  0.40393371942E+01  0.61569206670E+01  0.51100000000E-03 0.  1.
         12    1    3    3    0    0  0.54697148915E+01 -0.35081190838E-01  0.37390132732E+02  0.37788107090E+02  0.00000000000E+00 0. -1.
</event>
<event>
 7    1  0.5541017E-010  0.4778727E+02  0.7816164E-02  0.1312668E+00
        -11   -1    0    0    0    0  0.00000000000E+00  0.00000000000E+00  0.45593999997E+02  0.45594000000E+02  0.51100000000E-03 0.  1.
         11   -1    0    0    0    0 -0.00000000000E+00 -0.00000000000E+00 -0.45593999997E+02  0.45594000000E+02  0.51100000000E-03 0. -1.
    9900012    2    1    2    0    0  0.82390263188E+01 -0.28264916429E+02 -0.31887869356E+02  0.47787271117E+02  0.20000000333E+02 0.  0.
        -12    1    1    2    0    0 -0.82390263188E+01  0.28264916429E+02  0.31887869356E+02  0.43400728883E+02  0.00000000000E+00 0.  1.
         11    1    3    3    0    0  0.91396138816E+01 -0.11158600739E+02 -0.44871273346E+01  0.15105668616E+02  0.51100000000E-03 0. -1.
        -11    1    3    3    0    0 -0.86025447829E+00 -0.68672518848E+00 -0.36152424906E+01  0.37791014512E+01  0.51100000000E-03 0.  1.
        -12    1    3    3    0    0 -0.40333084566E-01 -0.16419590502E+02 -0.23785499531E+02  0.28902501050E+02  0.00000000000E+00 0.  1.
</event>
<event>
 7    1  0.5541017E-010  0.4778727E+02  0.7816164E-02  0.1312668E+00
        -11   -1    0    0    0    0  0.00000000000E+00  0.00000000000E+00  0.45593999997E+02  0.45594000000E+02  0.51100000000E-03 0.  1.
         11   -1    0    0    0    0 -0.00000000000E+00 -0.00000000000E+00 -0.45593999997E+02  0.45594000000E+02  0.51100000000E-03 0. -1.
    9900012    2    1    2    0    0  0.27726886853E+02  0.17434763889E+01 -0.33343714002E+02  0.47787271574E+02  0.20000002413E+02 0.  0.
        -12    1    1    2    0    0 -0.27726886853E+02 -0.17434763889E+01  0.33343714002E+02  0.43400728426E+02  0.00000000000E+00 0.  1.
         11    1    3    3    0    0  0.76722526702E+00 -0.15960613484E+01  0.19332889319E+00  0.17814103290E+01  0.51100000000E-03 0. -1.
        -11    1    3    3    0    0  0.30864190544E+00 -0.37610334853E+01 -0.55592673261E+01  0.67190837298E+01  0.51100000000E-03 0.  1.
         12    1    3    3    0    0  0.26651019681E+02  0.71005712226E+01 -0.27977775569E+02  0.39286777515E+02  0.00000000000E+00 0. -1.
</event>
<event>
 7    1  0.5541017E-010  0.4778727E+02  0.7816164E-02  0.1312668E+00
        -11   -1    0    0    0    0  0.00000000000E+00  0.00000000000E+00  0.45593999997E+02  0.45594000000E+02  0.51100000000E-03 0.  1.
         11   -1    0    0    0    0 -0.00000000000E+00 -0.00000000000E+00 -0.45593999997E+02  0.45594000000E+02  0.51100000000E-03 0. -1.
    9900012    2    1    2    0    0  0.33068478156E+02  0.13307902975E+02 -0.24758810466E+02  0.47787271609E+02  0.20000002573E+02 0.  0.
        -12    1    1    2    0    0 -0.33068478156E+02 -0.13307902975E+02  0.24758810466E+02  0.43400728391E+02  0.00000000000E+00 0.  1.
         11    1    3    3    0    0  0.39898703927E+01  0.36004747063E+01 -0.58944166008E+01  0.79766303152E+01  0.51100000000E-03 0. -1.
        -11    1    3    3    0    0  0.12014361239E+02 -0.16097819995E+01 -0.14455637703E+02  0.18865358087E+02  0.51100000000E-03 0.  1.
         12    1    3    3    0    0  0.17064246525E+02  0.11317210268E+02 -0.44087561624E+01  0.20945283207E+02  0.00000000000E+00 0. -1.
</event>
<event>
 7    1  0.5541017E-010  0.4778727E+02  0.7816164E-02  0.1312668E+00
        -11   -1    0    0    0    0  0.00000000000E+00  0.00000000000E+00  0.45593999997E+02  0.45594000000E+02  0.51100000000E-03 0. -1.
         11   -1    0    0    0    0 -0.00000000000E+00 -0.00000000000E+00 -0.45593999997E+02  0.45594000000E+02  0.51100000000E-03 0.  1.
    9900012    2    1    2    0    0  0.14483409359E+02  0.40196668051E+02  0.76211655924E+01  0.47787269199E+02  0.19999991585E+02 0.  0.
        -12    1    1    2    0    0 -0.14483409359E+02 -0.40196668051E+02 -0.76211655924E+01  0.43400730801E+02  0.00000000000E+00 0.  1.
         11    1    3    3    0    0  0.15489561516E+01  0.11290036579E+02  0.58192224904E+01  0.12795606346E+02  0.51100000000E-03 0. -1.
        -11    1    3    3    0    0  0.12461999637E+02  0.30666350056E+02  0.19801386310E+01  0.33160931983E+02  0.51100000000E-03 0.  1.
        -12    1    3    3    0    0  0.47245357069E+00 -0.17597185837E+01 -0.17819552902E+00  0.18307308696E+01  0.00000000000E+00 0.  1.
</event>
<event>
 7    1  0.5541017E-010  0.4778727E+02  0.7816164E-02  0.1312668E+00
        -11   -1    0    0    0    0  0.00000000000E+00  0.00000000000E+00  0.45593999997E+02  0.45594000000E+02  0.51100000000E-03 0. -1.
         11   -1    0    0    0    0 -0.00000000000E+00 -0.00000000000E+00 -0.45593999997E+02  0.45594000000E+02  0.51100000000E-03 0.  1.
    9900012    2    1    2    0    0 -0.31891987441E+02 -0.26293885240E+02  0.13234661748E+02  0.47787268030E+02  0.19999986255E+02 0.  0.
        -12    1    1    2    0    0  0.31891987441E+02  0.26293885240E+02 -0.13234661748E+02  0.43400731970E+02  0.00000000000E+00 0.  1.
         11    1    3    3    0    0 -0.10751905396E+02 -0.53236712319E+01  0.31560655363E+01  0.12405873406E+02  0.51100000000E-03 0. -1.
        -11    1    3    3    0    0 -0.59024144841E+01 -0.11433429407E+02 -0.29247211479E+01  0.13195294571E+02  0.51100000000E-03 0.  1.
         12    1    3    3    0    0 -0.15237667561E+02 -0.95367846010E+01  0.13003317359E+02  0.22186100053E+02  0.00000000000E+00 0. -1.
</event>
<event>
 7    1  0.5541017E-010  0.4778727E+02  0.7816164E-02  0.1312668E+00
        -11   -1    0    0    0    0  0.00000000000E+00  0.00000000000E+00  0.45593999997E+02  0.45594000000E+02  0.51100000000E-03 0.  1.
         11   -1    0    0    0    0 -0.00000000000E+00 -0.00000000000E+00 -0.45593999997E+02  0.45594000000E+02  0.51100000000E-03 0. -1.
    9900012    2    1    2    0    0 -0.20038532891E+02  0.22537239229E+01 -0.38431779765E+02  0.47787265354E+02  0.19999974053E+02 0.  0.
        -12    1    1    2    0    0  0.20038532891E+02 -0.22537239229E+01  0.38431779765E+02  0.43400734646E+02  0.00000000000E+00 0.  1.
         11    1    3    3    0    0  0.55355187627E-01 -0.25220323041E+01 -0.12756355974E+02  0.13003396830E+02  0.51100000000E-03 0. -1.
        -11    1    3    3    0    0 -0.50661033188E+01 -0.25019131557E+01 -0.24001941094E+01  0.61388846136E+01  0.51100000000E-03 0.  1.
         12    1    3    3    0    0 -0.15027784760E+02  0.72776693828E+01 -0.23275229682E+02  0.28644983910E+02  0.00000000000E+00 0. -1.
</event>
<event>
 7    1  0.5541017E-010  0.4778726E+02  0.7816164E-02  0.1312668E+00
        -11   -1    0    0    0    0  0.00000000000E+00  0.00000000000E+00  0.45593999997E+02  0.45594000000E+02  0.51100000000E-03 0. -1.
         11   -1    0    0    0    0 -0.00000000000E+00 -0.00000000000E+00 -0.45593999997E+02  0.45594000000E+02  0.51100000000E-03 0.  1.
    9900012    2    1    2    0    0 -0.16355289565E+02  0.37542832199E+02 -0.14375822084E+02  0.47787262600E+02  0.19999961498E+02 0.  0.
        -12    1    1    2    0    0  0.16355289565E+02 -0.37542832199E+02  0.14375822084E+02  0.43400737400E+02  0.00000000000E+00 0.  1.
         11    1    3    3    0    0 -0.15828025038E+02  0.37386113560E+02 -0.14624569027E+02  0.43152356636E+02  0.51100000000E-03 0. -1.
        -11    1    3    3    0    0  0.12332200723E+01  0.13417020795E+01 -0.10922073058E+01  0.21245972034E+01  0.51100000000E-03 0.  1.
        -12    1    3    3    0    0 -0.17604845992E+01 -0.11849834404E+01  0.13409542486E+01  0.25103087608E+01  0.00000000000E+00 0.  1.
</event>
<event>
 7    1  0.5541017E-010  0.4778727E+02  0.7816164E-02  0.1312668E+00
        -11   -1    0    0    0    0  0.00000000000E+00  0.00000000000E+00  0.45593999997E+02  0.45594000000E+02  0.51100000000E-03 0.  1.
         11   -1    0    0    0    0 -0.00000000000E+00 -0.00000000000E+00 -0.45593999997E+02  0.45594000000E+02  0.51100000000E-03 0. -1.
    9900012    2    1    2    0    0 -0.23762378299E+02 -0.34856735210E+02 -0.10197078220E+02  0.47787274014E+02  0.20000013539E+02 0.  0.
        -12    1    1    2    0    0  0.23762378299E+02  0.34856735210E+02  0.10197078220E+02  0.43400725986E+02  0.00000000000E+00 0.  1.
         11    1    3    3    0    0 -0.12402649617E+02 -0.16343165800E+02 -0.12804799556E+02  0.24184451158E+02  0.51100000000E-03 0. -1.
        -11    1    3    3    0    0 -0.49727456263E+01 -0.13687616376E+01  0.37609485790E+00  0.51713784514E+01  0.51100000000E-03 0.  1.
         12    1    3    3    0    0 -0.63869830552E+01 -0.17144807772E+02  0.22316264778E+01  0.18431444405E+02  0.00000000000E+00 0. -1.
</event>
<event>
 7    1  0.5541017E-010  0.4778723E+02  0.7816164E-02  0.1312668E+00
        -11   -1    0    0    0    0  0.00000000000E+00  0.00000000000E+00  0.45593999997E+02  0.45594000000E+02  0.51100000000E-03 0.  1.
         11   -1    0    0    0    0 -0.00000000000E+00 -0.00000000000E+00 -0.45593999997E+02  0.45594000000E+02  0.51100000000E-03 0. -1.
    9900012    2    1    2    0    0  0.42396742828E+02 -0.80012230639E+01 -0.47035376344E+01  0.47787232274E+02  0.19999823229E+02 0.  0.
        -12    1    1    2    0    0 -0.42396742828E+02  0.80012230639E+01  0.47035376344E+01  0.43400767726E+02  0.00000000000E+00 0.  1.
         11    1    3    3    0    0  0.15077620967E+02 -0.69437960392E+01  0.14859265709E+01  0.16666101389E+02  0.51100000000E-03 0. -1.
        -11    1    3    3    0    0  0.58664815553E+01 -0.93078471736E+00  0.42098707222E+01  0.72804517571E+01  0.51100000000E-03 0.  1.
         12    1    3    3    0    0  0.21452640306E+02 -0.12664230737E+00 -0.10399334928E+02  0.23840679128E+02  0.00000000000E+00 0. -1.
</event>
<event>
 7    1  0.5541017E-010  0.4778726E+02  0.7816164E-02  0.1312668E+00
        -11   -1    0    0    0    0  0.00000000000E+00  0.00000000000E+00  0.45593999997E+02  0.45594000000E+02  0.51100000000E-03 0.  1.
         11   -1    0    0    0    0 -0.00000000000E+00 -0.00000000000E+00 -0.45593999997E+02  0.45594000000E+02  0.51100000000E-03 0. -1.
    9900012    2    1    2    0    0  0.29904803609E+02 -0.39014695749E+01 -0.31210660202E+02  0.47787262057E+02  0.19999959022E+02 0.  0.
        -12    1    1    2    0    0 -0.29904803609E+02  0.39014695749E+01  0.31210660202E+02  0.43400737943E+02  0.00000000000E+00 0.  1.
         11    1    3    3    0    0  0.10205838052E+02  0.18396158912E+01 -0.14403633773E+02  0.17748464246E+02  0.51100000000E-03 0. -1.
        -11    1    3    3    0    0  0.12016125652E+02 -0.38770158924E+01 -0.18058412354E+02  0.22034626952E+02  0.51100000000E-03 0.  1.
        -12    1    3    3    0    0  0.76828399061E+01 -0.18640695737E+01  0.12513859251E+01  0.80041708585E+01  0.00000000000E+00 0.  1.
</event>
<event>
 7    1  0.5541017E-010  0.4778724E+02  0.7816164E-02  0.1312668E+00
        -11   -1    0    0    0    0  0.00000000000E+00  0.00000000000E+00  0.45593999997E+02  0.45594000000E+02  0.51100000000E-03 0. -1.
         11   -1    0    0    0    0 -0.00000000000E+00 -0.00000000000E+00 -0.45593999997E+02  0.45594000000E+02  0.51100000000E-03 0.  1.
    9900012    2    1    2    0    0  0.37736529432E+02 -0.17017933891E+02  0.13037259276E+02  0.47787241286E+02  0.19999864321E+02 0.  0.
        -12    1    1    2    0    0 -0.37736529432E+02  0.17017933891E+02 -0.13037259276E+02  0.43400758714E+02  0.00000000000E+00 0.  1.
         11    1    3    3    0    0  0.18225071815E+02 -0.13262555306E+02  0.10011825439E+02  0.24663439841E+02  0.51100000000E-03 0. -1.
        -11    1    3    3    0    0  0.51685436253E+00 -0.38042301448E+01 -0.25629652869E+00  0.38477257696E+01  0.51100000000E-03 0.  1.
         12    1    3    3    0    0  0.18994603254E+02  0.48851560133E-01  0.32817303661E+01  0.19276075676E+02  0.00000000000E+00 0. -1.
</event>
<event>
 7    1  0.5541017E-010  0.4778727E+02  0.7816164E-02  0.1312668E+00
        -11   -1    0    0    0    0  0.00000000000E+00  0.00000000000E+00  0.45593999997E+02  0.45594000000E+02  0.51100000000E-03 0. -1.
         11   -1    0    0    0    0 -0.00000000000E+00 -0.00000000000E+00 -0.45593999997E+02  0.45594000000E+02  0.51100000000E-03 0.  1.
    9900012    2    1    2    0    0  0.21440836826E+02  0.37373782749E+02  0.52071292186E+01  0.47787270566E+02  0.19999997817E+02 0.  0.
        -12    1    1    2    0    0 -0.21440836826E+02 -0.37373782749E+02 -0.52071292186E+01  0.43400729434E+02  0.00000000000E+00 0.  1.
         11    1    3    3    0    0  0.98000027350E+01  0.11704073643E+02 -0.11750667081E+01  0.15310329045E+02  0.51100000000E-03 0. -1.
        -11    1    3    3    0    0  0.75582132596E+01  0.59070050126E+01 -0.32336645140E+01  0.10123037210E+02  0.51100000000E-03 0.  1.
         12    1    3    3    0    0  0.40826208312E+01  0.19762704093E+02  0.96158604407E+01  0.22353904311E+02  0.00000000000E+00 0. -1.
</event>
<event>
 7    1  0.5541017E-010  0.4778729E+02  0.7816164E-02  0.1312668E+00
        -11   -1    0    0    0    0  0.00000000000E+00  0.00000000000E+00  0.45593999997E+02  0.45594000000E+02  0.51100000000E-03 0. -1.
         11   -1    0    0    0    0 -0.00000000000E+00 -0.00000000000E+00 -0.45593999997E+02  0.45594000000E+02  0.51100000000E-03 0.  1.
    9900012    2    1    2    0    0 -0.10402738847E+02  0.37605072841E+02  0.19006933759E+02  0.47787285607E+02  0.20000066397E+02 0.  0.
        -12    1    1    2    0    0  0.10402738847E+02 -0.37605072841E+02 -0.19006933759E+02  0.43400714393E+02  0.00000000000E+00 0.  1.
         11    1    3    3    0    0 -0.63505088269E+01  0.12242880361E+02  0.10064556277E+01  0.13828594834E+02  0.51100000000E-03 0. -1.
        -11    1    3    3    0    0  0.11886003577E+01  0.25392943895E+01 -0.17668402129E+01  0.33139872368E+01  0.51100000000E-03 0.  1.
         12    1    3    3    0    0 -0.52408303775E+01  0.22822898091E+02  0.19767318344E+02  0.30644703537E+02  0.00000000000E+00 0. -1.
</event>
<event>
 7    1  0.5541017E-010  0.4778728E+02  0.7816164E-02  0.1312668E+00
        -11   -1    0    0    0    0  0.00000000000E+00  0.00000000000E+00  0.45593999997E+02  0.45594000000E+02  0.51100000000E-03 0. -1.
         11   -1    0    0    0    0 -0.00000000000E+00 -0.00000000000E+00 -0.45593999997E+02  0.45594000000E+02  0.51100000000E-03 0.  1.
    9900012    2    1    2    0    0  0.91612510066E+01 -0.40209000220E+02 -0.13525175930E+02  0.47787278778E+02  0.20000035258E+02 0.  0.
        -12    1    1    2    0    0 -0.91612510066E+01  0.40209000220E+02  0.13525175930E+02  0.43400721222E+02  0.00000000000E+00 0.  1.
         11    1    3    3    0    0  0.45316948019E+01 -0.26163433842E+02 -0.14710678662E+00  0.26553402209E+02  0.51100000000E-03 0. -1.
        -11    1    3    3    0    0  0.16609919285E+01 -0.54251865150E+01 -0.84633826779E+00  0.57365348106E+01  0.51100000000E-03 0.  1.
        -12    1    3    3    0    0  0.29685642762E+01 -0.86203798632E+01 -0.12531730875E+02  0.15497341758E+02  0.00000000000E+00 0.  1.
</event>
<event>
 7    1  0.5541017E-010  0.4778727E+02  0.7816164E-02  0.1312668E+00
        -11   -1    0    0    0    0  0.00000000000E+00  0.00000000000E+00  0.45593999997E+02  0.45594000000E+02  0.51100000000E-03 0.  1.
         11   -1    0    0    0    0 -0.00000000000E+00 -0.00000000000E+00 -0.45593999997E+02  0.45594000000E+02  0.51100000000E-03 0. -1.
    9900012    2    1    2    0    0 -0.39643129716E+02  0.17071515085E+01 -0.17582117240E+02  0.47787274815E+02  0.20000017193E+02 0.  0.
        -12    1    1    2    0    0  0.39643129716E+02 -0.17071515085E+01  0.17582117240E+02  0.43400725185E+02  0.00000000000E+00 0.  1.
         11    1    3    3    0    0  0.13485174867E+01  0.58553349688E+00 -0.19612785628E+01  0.24511145934E+01  0.51100000000E-03 0. -1.
        -11    1    3    3    0    0 -0.14278751754E+02  0.30272633389E+01 -0.10722018001E+02  0.18111011712E+02  0.51100000000E-03 0.  1.
         12    1    3    3    0    0 -0.26712895449E+02 -0.19056453272E+01 -0.48988206762E+01  0.27225148510E+02  0.00000000000E+00 0. -1.
</event>
<event>
 7    1  0.5541017E-010  0.4778727E+02  0.7816164E-02  0.1312668E+00
        -11   -1    0    0    0    0  0.00000000000E+00  0.00000000000E+00  0.45593999997E+02  0.45594000000E+02  0.51100000000E-03 0.  1.
         11   -1    0    0    0    0 -0.00000000000E+00 -0.00000000000E+00 -0.45593999997E+02  0.45594000000E+02  0.51100000000E-03 0. -1.
    9900012    2    1    2    0    0 -0.64009918817E+01 -0.23463893461E+02 -0.35945744260E+02  0.47787268164E+02  0.19999986869E+02 0.  0.
        -12    1    1    2    0    0  0.64009918817E+01  0.23463893461E+02  0.35945744260E+02  0.43400731836E+02  0.00000000000E+00 0.  1.
         11    1    3    3    0    0 -0.12049557483E+02 -0.15950498076E+02 -0.25341773760E+02  0.32277170290E+02  0.51100000000E-03 0. -1.
        -11    1    3    3    0    0 -0.34132801845E+00 -0.21908235936E+01  0.22110040660E-02  0.22172546051E+01  0.51100000000E-03 0.  1.
         12    1    3    3    0    0  0.59898936199E+01 -0.53225717920E+01 -0.10606181505E+02  0.13292843269E+02  0.00000000000E+00 0. -1.
</event>
<event>
 7    1  0.5541017E-010  0.4778727E+02  0.7816164E-02  0.1312668E+00
        -11   -1    0    0    0    0  0.00000000000E+00  0.00000000000E+00  0.45593999997E+02  0.45594000000E+02  0.51100000000E-03 0.  1.
         11   -1    0    0    0    0 -0.00000000000E+00 -0.00000000000E+00 -0.45593999997E+02  0.45594000000E+02  0.51100000000E-03 0. -1.
    9900012    2    1    2    0    0 -0.13101949229E+02 -0.41217063177E+02  0.36215930906E+01  0.47787270662E+02  0.19999998256E+02 0.  0.
        -12    1    1    2    0    0  0.13101949229E+02  0.41217063177E+02 -0.36215930906E+01  0.43400729338E+02  0.00000000000E+00 0.  1.
         11    1    3    3    0    0 -0.65755474991E+01 -0.81131344650E+01 -0.31103861426E+01  0.10896571845E+02  0.51100000000E-03 0. -1.
        -11    1    3    3    0    0  0.32582511072E+01 -0.17876793169E+02  0.33295516535E+01  0.18473815220E+02  0.51100000000E-03 0.  1.
        -12    1    3    3    0    0 -0.97846528371E+01 -0.15227135543E+02  0.34024275796E+01  0.18416883597E+02  0.00000000000E+00 0.  1.
</event>
<event>
 7    1  0.5541017E-010  0.4778727E+02  0.7816164E-02  0.1312668E+00
        -11   -1    0    0    0    0  0.00000000000E+00  0.00000000000E+00  0.45593999997E+02  0.45594000000E+02  0.51100000000E-03 0. -1.
         11   -1    0    0    0    0 -0.00000000000E+00 -0.00000000000E+00 -0.45593999997E+02  0.45594000000E+02  0.51100000000E-03 0.  1.
    9900012    2    1    2    0    0 -0.38776397233E+02  0.90165568997E+01  0.17283399286E+02  0.47787272223E+02  0.20000005375E+02 0.  0.
        -12    1    1    2    0    0  0.38776397233E+02 -0.90165568997E+01 -0.17283399286E+02  0.43400727777E+02  0.00000000000E+00 0.  1.
         11    1    3    3    0    0 -0.14463920828E+02  0.73284540293E+01  0.43822612751E+01  0.16796292993E+02  0.51100000000E-03 0. -1.
        -11    1    3    3    0    0 -0.16027073741E+02  0.76580662385E+01  0.99561095322E+01  0.20362641982E+02  0.51100000000E-03 0.  1.
        -12    1    3    3    0    0 -0.82854026636E+01 -0.59699633682E+01  0.29450284787E+01  0.10628337248E+02  0.00000000000E+00 0.  1.
</event>
<event>
 7    1  0.5541017E-010  0.4778727E+02  0.7816164E-02  0.1312668E+00
        -11   -1    0    0    0    0  0.00000000000E+00  0.00000000000E+00  0.45593999997E+02  0.45594000000E+02  0.51100000000E-03 0. -1.
         11   -1    0    0    0    0 -0.00000000000E+00 -0.00000000000E+00 -0.45593999997E+02  0.45594000000E+02  0.51100000000E-03 0.  1.
    9900012    2    1    2    0    0  0.17894764171E+02  0.37594309286E+02  0.12250242593E+02  0.47787272828E+02  0.20000008134E+02 0.  0.
        -12    1    1    2    0    0 -0.17894764171E+02 -0.37594309286E+02 -0.12250242593E+02  0.43400727172E+02  0.00000000000E+00 0.  1.
         11    1    3    3    0    0  0.55958467225E+00 -0.83333419008E+00 -0.17405901294E-01  0.10039343127E+01  0.51100000000E-03 0. -1.
        -11    1    3    3    0    0  0.13582735725E+02  0.22498379068E+02  0.14895626668E+02  0.30208400563E+02  0.51100000000E-03 0.  1.
         12    1    3    3    0    0  0.37524437738E+01  0.15929264408E+02 -0.26279781741E+01  0.16574937953E+02  0.00000000000E+00 0. -1.
</event>
<event>
 7    1  0.5541017E-010  0.4778729E+02  0.7816164E-02  0.1312668E+00
        -11   -1    0    0    0    0  0.00000000000E+00  0.00000000000E+00  0.45593999997E+02  0.45594000000E+02  0.51100000000E-03 0. -1.
         11   -1    0    0    0    0 -0.00000000000E+00 -0.00000000000E+00 -0.45593999997E+02  0.45594000000E+02  0.51100000000E-03 0.  1.
    9900012    2    1    2    0    0 -0.29772783235E+01  0.42639811477E+02  0.75235785139E+01  0.47787286381E+02  0.20000069923E+02 0.  0.
        -12    1    1    2    0    0  0.29772783235E+01 -0.42639811477E+02 -0.75235785139E+01  0.43400713619E+02  0.00000000000E+00 0.  1.
         11    1    3    3    0    0  0.63244357434E+01  0.10803010136E+02  0.27005369488E+01  0.12806108525E+02  0.51100000000E-03 0. -1.
        -11    1    3    3    0    0 -0.14883894379E+01  0.45431758050E+00 -0.13460230857E+01  0.20575436791E+01  0.51100000000E-03 0.  1.
         12    1    3    3    0    0 -0.78133246290E+01  0.31382483761E+02  0.61690646508E+01  0.32923634177E+02  0.00000000000E+00 0. -1.
</event>
<event>
 7    1  0.5541017E-010  0.4778727E+02  0.7816164E-02  0.1312668E+00
        -11   -1    0    0    0    0  0.00000000000E+00  0.00000000000E+00  0.45593999997E+02  0.45594000000E+02  0.51100000000E-03 0. -1.
         11   -1    0    0    0    0 -0.00000000000E+00 -0.00000000000E+00 -0.45593999997E+02  0.45594000000E+02  0.51100000000E-03 0.  1.
    9900012    2    1    2    0    0  0.89396725856E+00 -0.33775802057E+02  0.27240037323E+02  0.47787267110E+02  0.19999982062E+02 0.  0.
        -12    1    1    2    0    0 -0.89396725856E+00  0.33775802057E+02 -0.27240037323E+02  0.43400732890E+02  0.00000000000E+00 0.  1.
         11    1    3    3    0    0  0.26980386640E+01 -0.63779617285E+01  0.17892206191E+01  0.71525603198E+01  0.51100000000E-03 0. -1.
        -11    1    3    3    0    0 -0.10579653779E+01 -0.14055877440E+02  0.28528091916E+01  0.14381429063E+02  0.51100000000E-03 0.  1.
         12    1    3    3    0    0 -0.74610602758E+00 -0.13341962888E+02  0.22598007512E+02  0.26253277727E+02  0.00000000000E+00 0. -1.
</event>
<event>
 7    1  0.5541017E-010  0.4778726E+02  0.7816164E-02  0.1312668E+00
        -11   -1    0    0    0    0  0.00000000000E+00  0.00000000000E+00  0.45593999997E+02  0.45594000000E+02  0.51100000000E-03 0.  1.
         11   -1    0    0    0    0 -0.00000000000E+00 -0.00000000000E+00 -0.45593999997E+02  0.45594000000E+02  0.51100000000E-03 0. -1.
    9900012    2    1    2    0    0 -0.19872768303E+02 -0.24560638049E+02 -0.29756883340E+02  0.47787263054E+02  0.19999963566E+02 0.  0.
        -12    1    1    2    0    0  0.19872768303E+02  0.24560638049E+02  0.29756883340E+02  0.43400736946E+02  0.00000000000E+00 0.  1.
         11    1    3    3    0    0 -0.19008293530E+00  0.11956459975E+01 -0.16085963343E+01  0.20132767573E+01  0.51100000000E-03 0. -1.
        -11    1    3    3    0    0 -0.12684587978E+02 -0.14446077942E+02 -0.63642943937E+01  0.20250732912E+02  0.51100000000E-03 0.  1.
         12    1    3    3    0    0 -0.69980973897E+01 -0.11310206104E+02 -0.21783992612E+02  0.25523253384E+02  0.00000000000E+00 0. -1.
</event>
<event>
 7    1  0.5541017E-010  0.4778727E+02  0.7816164E-02  0.1312668E+00
        -11   -1    0    0    0    0  0.00000000000E+00  0.00000000000E+00  0.45593999997E+02  0.45594000000E+02  0.51100000000E-03 0.  1.
         11   -1    0    0    0    0 -0.00000000000E+00 -0.00000000000E+00 -0.45593999997E+02  0.45594000000E+02  0.51100000000E-03 0. -1.
    9900012    2    1    2    0    0  0.27088276030E+02 -0.28375665041E+02 -0.18565306073E+02  0.47787266661E+02  0.19999980015E+02 0.  0.
        -12    1    1    2    0    0 -0.27088276030E+02  0.28375665041E+02  0.18565306073E+02  0.43400733339E+02  0.00000000000E+00 0.  1.
         11    1    3    3    0    0  0.24398245160E+01 -0.87074073142E+01  0.88500179508E+00  0.90859734890E+01  0.51100000000E-03 0. -1.
        -11    1    3    3    0    0  0.95236950689E+01 -0.14743957826E+02 -0.10182324325E+02  0.20291988297E+02  0.51100000000E-03 0.  1.
        -12    1    3    3    0    0  0.15124756445E+02 -0.49242999006E+01 -0.92679835433E+01  0.18409304875E+02  0.00000000000E+00 0.  1.
</event>
<event>
 7    1  0.5541017E-010  0.4778727E+02  0.7816164E-02  0.1312668E+00
        -11   -1    0    0    0    0  0.00000000000E+00  0.00000000000E+00  0.45593999997E+02  0.45594000000E+02  0.51100000000E-03 0. -1.
         11   -1    0    0    0    0 -0.00000000000E+00 -0.00000000000E+00 -0.45593999997E+02  0.45594000000E+02  0.51100000000E-03 0.  1.
    9900012    2    1    2    0    0 -0.61019699389E+01 -0.22598937650E+02  0.36546921729E+02  0.47787268348E+02  0.19999987707E+02 0.  0.
        -12    1    1    2    0    0  0.61019699389E+01  0.22598937650E+02 -0.36546921729E+02  0.43400731652E+02  0.00000000000E+00 0.  1.
         11    1    3    3    0    0  0.67513475797E+00  0.50321483881E+00  0.77432052382E+01  0.77888548412E+01  0.51100000000E-03 0. -1.
        -11    1    3    3    0    0 -0.31537026332E+01 -0.10103327897E+01 -0.24899218410E+00  0.33209351113E+01  0.51100000000E-03 0.  1.
         12    1    3    3    0    0 -0.36234020637E+01 -0.22091819700E+02  0.29052708674E+02  0.36677478396E+02  0.00000000000E+00 0. -1.
</event>
<event>
 7    1  0.5541017E-010  0.4778727E+02  0.7816164E-02  0.1312668E+00
        -11   -1    0    0    0    0  0.00000000000E+00  0.00000000000E+00  0.45593999997E+02  0.45594000000E+02  0.51100000000E-03 0. -1.
         11   -1    0    0    0    0 -0.00000000000E+00 -0.00000000000E+00 -0.45593999997E+02  0.45594000000E+02  0.51100000000E-03 0.  1.
    9900012    2    1    2    0    0 -0.26153902608E+02 -0.14306597466E+02 -0.31542323457E+02  0.47787268189E+02  0.19999986982E+02 0.  0.
        -12    1    1    2    0    0  0.26153902608E+02  0.14306597466E+02  0.31542323457E+02  0.43400731811E+02  0.00000000000E+00 0.  1.
         11    1    3    3    0    0 -0.95883721698E+01 -0.16052358041E+02 -0.12682139718E+02  0.22593179228E+02  0.51100000000E-03 0. -1.
        -11    1    3    3    0    0 -0.46116984736E+01  0.57722274386E-01 -0.46739513053E+01  0.65663472142E+01  0.51100000000E-03 0.  1.
         12    1    3    3    0    0 -0.11953831964E+02  0.16880383008E+01 -0.14186232433E+02  0.18627741747E+02  0.00000000000E+00 0. -1.
</event>
<event>
 7    1  0.5541017E-010  0.4778727E+02  0.7816164E-02  0.1312668E+00
        -11   -1    0    0    0    0  0.00000000000E+00  0.00000000000E+00  0.45593999997E+02  0.45594000000E+02  0.51100000000E-03 0. -1.
         11   -1    0    0    0    0 -0.00000000000E+00 -0.00000000000E+00 -0.45593999997E+02  0.45594000000E+02  0.51100000000E-03 0.  1.
    9900012    2    1    2    0    0 -0.40403370570E+02 -0.15379295887E+02 -0.38298849671E+01  0.47787272884E+02  0.20000008385E+02 0.  0.
        -12    1    1    2    0    0  0.40403370570E+02  0.15379295887E+02  0.38298849671E+01  0.43400727116E+02  0.00000000000E+00 0.  1.
         11    1    3    3    0    0 -0.48555387793E+01 -0.51930079140E+01  0.37280432435E+01  0.80275709102E+01  0.51100000000E-03 0. -1.
        -11    1    3    3    0    0 -0.14508887943E+02 -0.52277586771E+01  0.29882178231E+01  0.15708810780E+02  0.51100000000E-03 0.  1.
         12    1    3    3    0    0 -0.21038943848E+02 -0.49585292958E+01 -0.10546146034E+02  0.24050891193E+02  0.00000000000E+00 0. -1.
</event>
<event>
 7    1  0.5541017E-010  0.4778727E+02  0.7816164E-02  0.1312668E+00
        -11   -1    0    0    0    0  0.00000000000E+00  0.00000000000E+00  0.45593999997E+02  0.45594000000E+02  0.51100000000E-03 0. -1.
         11   -1    0    0    0    0 -0.00000000000E+00 -0.00000000000E+00 -0.45593999997E+02  0.45594000000E+02  0.51100000000E-03 0.  1.
    9900012    2    1    2    0    0  0.16155962393E+02  0.20540551924E+02  0.34651032053E+02  0.47787269401E+02  0.19999992507E+02 0.  0.
        -12    1    1    2    0    0 -0.16155962393E+02 -0.20540551924E+02 -0.34651032053E+02  0.43400730599E+02  0.00000000000E+00 0.  1.
         11    1    3    3    0    0  0.28801274074E+01  0.76890678391E+01  0.21310712670E+02  0.22837761994E+02  0.51100000000E-03 0. -1.
        -11    1    3    3    0    0 -0.16860873790E+01  0.11132180712E+01  0.17924349932E+01  0.27009199524E+01  0.51100000000E-03 0.  1.
        -12    1    3    3    0    0  0.14961922365E+02  0.11738266014E+02  0.11547884390E+02  0.22248587455E+02  0.00000000000E+00 0.  1.
</event>
<event>
 7    1  0.6957654E-010  0.4778727E+02  0.7816164E-02  0.1312668E+00
        -11   -1    0    0    0    0  0.00000000000E+00  0.00000000000E+00  0.45593999997E+02  0.45594000000E+02  0.51100000000E-03 0. -1.
         11   -1    0    0    0    0 -0.00000000000E+00 -0.00000000000E+00 -0.45593999997E+02  0.45594000000E+02  0.51100000000E-03 0.  1.
    9900012    2    1    2    0    0  0.31664953459E+02  0.28812465635E+02  0.71271264883E+01  0.47787269758E+02  0.19999994135E+02 0.  0.
        -12    1    1    2    0    0 -0.31664953459E+02 -0.28812465635E+02 -0.71271264883E+01  0.43400730242E+02  0.00000000000E+00 0.  1.
         11    1    3    3    0    0  0.12685471206E+02  0.10188430915E+02  0.30804166528E+01  0.16559416392E+02  0.51100000000E-03 0. -1.
        -11    1    3    3    0    0  0.65641122226E+01 -0.13373734323E+01  0.38359117764E+01  0.77194790230E+01  0.51100000000E-03 0.  1.
        -12    1    3    3    0    0  0.12415370030E+02  0.19961408153E+02  0.21079805910E+00  0.23508374343E+02  0.00000000000E+00 0.  1.
</event>
<event>
 7    1  0.5541017E-010  0.4778727E+02  0.7816164E-02  0.1312668E+00
        -11   -1    0    0    0    0  0.00000000000E+00  0.00000000000E+00  0.45593999997E+02  0.45594000000E+02  0.51100000000E-03 0.  1.
         11   -1    0    0    0    0 -0.00000000000E+00 -0.00000000000E+00 -0.45593999997E+02  0.45594000000E+02  0.51100000000E-03 0. -1.
    9900012    2    1    2    0    0  0.21538396553E+02  0.33986467069E+02 -0.16267783173E+02  0.47787271443E+02  0.20000001815E+02 0.  0.
        -12    1    1    2    0    0 -0.21538396553E+02 -0.33986467069E+02  0.16267783173E+02  0.43400728557E+02  0.00000000000E+00 0.  1.
         11    1    3    3    0    0 -0.20831239026E+01  0.81676179271E+01 -0.47607005665E+01  0.96805814878E+01  0.51100000000E-03 0. -1.
        -11    1    3    3    0    0  0.66657738617E+00  0.15916244388E+01 -0.33208824553E+01  0.37424396199E+01  0.51100000000E-03 0.  1.
         12    1    3    3    0    0  0.22954943070E+02  0.24227224703E+02 -0.81862001516E+01  0.34364250335E+02  0.00000000000E+00 0. -1.
</event>
<event>
 7    1  0.5541017E-010  0.4778727E+02  0.7816164E-02  0.1312668E+00
        -11   -1    0    0    0    0  0.00000000000E+00  0.00000000000E+00  0.45593999997E+02  0.45594000000E+02  0.51100000000E-03 0. -1.
         11   -1    0    0    0    0 -0.00000000000E+00 -0.00000000000E+00 -0.45593999997E+02  0.45594000000E+02  0.51100000000E-03 0.  1.
    9900012    2    1    2    0    0  0.41980874204E+02  0.75448391482E+01 -0.80190201469E+01  0.47787273269E+02  0.20000010141E+02 0.  0.
        -12    1    1    2    0    0 -0.41980874204E+02 -0.75448391482E+01  0.80190201469E+01  0.43400726731E+02  0.00000000000E+00 0.  1.
         11    1    3    3    0    0  0.22353077346E+02  0.27591576287E+01  0.35664705430E+01  0.22803349097E+02  0.51100000000E-03 0. -1.
        -11    1    3    3    0    0  0.48345595691E+01  0.44275970824E+01 -0.65744487381E+00  0.65885367248E+01  0.51100000000E-03 0.  1.
        -12    1    3    3    0    0  0.14793237289E+02  0.35808443714E+00 -0.10928045816E+02  0.18395387446E+02  0.00000000000E+00 0.  1.
</event>
<event>
 7    1  0.5541017E-010  0.4778727E+02  0.7816164E-02  0.1312668E+00
        -11   -1    0    0    0    0  0.00000000000E+00  0.00000000000E+00  0.45593999997E+02  0.45594000000E+02  0.51100000000E-03 0. -1.
         11   -1    0    0    0    0 -0.00000000000E+00 -0.00000000000E+00 -0.45593999997E+02  0.45594000000E+02  0.51100000000E-03 0.  1.
    9900012    2    1    2    0    0 -0.35197881609E+02 -0.18617653006E+02  0.17266022190E+02  0.47787269643E+02  0.19999993612E+02 0.  0.
        -12    1    1    2    0    0  0.35197881609E+02  0.18617653006E+02 -0.17266022190E+02  0.43400730357E+02  0.00000000000E+00 0.  1.
         11    1    3    3    0    0 -0.14418329785E+02 -0.20847490995E+01  0.13740595345E+02  0.20025942507E+02  0.51100000000E-03 0. -1.
        -11    1    3    3    0    0 -0.24410266033E+01 -0.47477315060E+01  0.26121586577E+01  0.59433103945E+01  0.51100000000E-03 0.  1.
         12    1    3    3    0    0 -0.18338525220E+02 -0.11785172400E+02  0.91326818758E+00  0.21818016742E+02  0.00000000000E+00 0. -1.
</event>
<event>
 7    1  0.5541017E-010  0.4778728E+02  0.7816164E-02  0.1312668E+00
        -11   -1    0    0    0    0  0.00000000000E+00  0.00000000000E+00  0.45593999997E+02  0.45594000000E+02  0.51100000000E-03 0.  1.
         11   -1    0    0    0    0 -0.00000000000E+00 -0.00000000000E+00 -0.45593999997E+02  0.45594000000E+02  0.51100000000E-03 0. -1.
    9900012    2    1    2    0    0  0.37021478669E+02  0.17889255345E+02 -0.13892708560E+02  0.47787277762E+02  0.20000030630E+02 0.  0.
        -12    1    1    2    0    0 -0.37021478669E+02 -0.17889255345E+02  0.13892708560E+02  0.43400722238E+02  0.00000000000E+00 0.  1.
         11    1    3    3    0    0  0.97022835767E+01  0.93463735898E+01 -0.80552025974E+01  0.15696346550E+02  0.51100000000E-03 0. -1.
        -11    1    3    3    0    0  0.63736255531E+01  0.58853411643E+01  0.30323627882E+01  0.91899710366E+01  0.51100000000E-03 0.  1.
        -12    1    3    3    0    0  0.20945569539E+02  0.26575405908E+01 -0.88698687503E+01  0.22900960175E+02  0.00000000000E+00 0.  1.
</event>
<event>
 7    1  0.5541017E-010  0.4778727E+02  0.7816164E-02  0.1312668E+00
        -11   -1    0    0    0    0  0.00000000000E+00  0.00000000000E+00  0.45593999997E+02  0.45594000000E+02  0.51100000000E-03 0.  1.
         11   -1    0    0    0    0 -0.00000000000E+00 -0.00000000000E+00 -0.45593999997E+02  0.45594000000E+02  0.51100000000E-03 0. -1.
    9900012    2    1    2    0    0  0.20419759043E+02 -0.28018240557E+02 -0.26108141082E+02  0.47787269660E+02  0.19999993688E+02 0.  0.
        -12    1    1    2    0    0 -0.20419759043E+02  0.28018240557E+02  0.26108141082E+02  0.43400730340E+02  0.00000000000E+00 0.  1.
         11    1    3    3    0    0  0.54389913336E+01 -0.14786135028E+02 -0.14008526735E+02  0.21082012174E+02  0.51100000000E-03 0. -1.
        -11    1    3    3    0    0  0.28540606850E+01 -0.98393249824E+01 -0.92311763324E+01  0.13790308018E+02  0.51100000000E-03 0.  1.
        -12    1    3    3    0    0  0.12126707024E+02 -0.33927805470E+01 -0.28684380150E+01  0.12914949467E+02  0.00000000000E+00 0.  1.
</event>
<event>
 7    1  0.5541017E-010  0.4778728E+02  0.7816164E-02  0.1312668E+00
        -11   -1    0    0    0    0  0.00000000000E+00  0.00000000000E+00  0.45593999997E+02  0.45594000000E+02  0.51100000000E-03 0. -1.
         11   -1    0    0    0    0 -0.00000000000E+00 -0.00000000000E+00 -0.45593999997E+02  0.45594000000E+02  0.51100000000E-03 0.  1.
    9900012    2    1    2    0    0 -0.40003373264E+02 -0.45600341605E+01  0.16203656981E+02  0.47787282453E+02  0.20000052016E+02 0.  0.
        -12    1    1    2    0    0  0.40003373264E+02  0.45600341605E+01 -0.16203656981E+02  0.43400717547E+02  0.00000000000E+00 0.  1.
         11    1    3    3    0    0 -0.10011015194E+02 -0.43895739307E+01  0.94878770141E+01  0.14474411732E+02  0.51100000000E-03 0. -1.
        -11    1    3    3    0    0 -0.28394539603E+02  0.31679410924E+00  0.96039372437E+01  0.29976421545E+02  0.51100000000E-03 0.  1.
        -12    1    3    3    0    0 -0.15978184670E+01 -0.48725433898E+00 -0.28881572772E+01  0.33364491757E+01  0.00000000000E+00 0.  1.
</event>
<event>
 7    1  0.5541017E-010  0.4778727E+02  0.7816164E-02  0.1312668E+00
        -11   -1    0    0    0    0  0.00000000000E+00  0.00000000000E+00  0.45593999997E+02  0.45594000000E+02  0.51100000000E-03 0. -1.
         11   -1    0    0    0    0 -0.00000000000E+00 -0.00000000000E+00 -0.45593999997E+02  0.45594000000E+02  0.51100000000E-03 0.  1.
    9900012    2    1    2    0    0 -0.28557670042E+02 -0.18753783218E+02  0.26765250417E+02  0.47787268058E+02  0.19999986382E+02 0.  0.
        -12    1    1    2    0    0  0.28557670042E+02  0.18753783218E+02 -0.26765250417E+02  0.43400731942E+02  0.00000000000E+00 0.  1.
         11    1    3    3    0    0 -0.16050299663E+01 -0.49372479992E+01  0.42870030148E+01  0.67328251209E+01  0.51100000000E-03 0. -1.
        -11    1    3    3    0    0 -0.13854987676E+02 -0.10367687003E+01  0.16994349514E+02  0.21950933659E+02  0.51100000000E-03 0.  1.
        -12    1    3    3    0    0 -0.13097652400E+02 -0.12779766518E+02  0.54838978879E+01  0.19103509277E+02  0.00000000000E+00 0.  1.
</event>
<event>
 7    1  0.5541017E-010  0.4778727E+02  0.7816164E-02  0.1312668E+00
        -11   -1    0    0    0    0  0.00000000000E+00  0.00000000000E+00  0.45593999997E+02  0.45594000000E+02  0.51100000000E-03 0.  1.
         11   -1    0    0    0    0 -0.00000000000E+00 -0.00000000000E+00 -0.45593999997E+02  0.45594000000E+02  0.51100000000E-03 0. -1.
    9900012    2    1    2    0    0 -0.26238453759E+02  0.26971065864E+02 -0.21627029304E+02  0.47787271365E+02  0.20000001461E+02 0.  0.
        -12    1    1    2    0    0  0.26238453759E+02 -0.26971065864E+02  0.21627029304E+02  0.43400728635E+02  0.00000000000E+00 0.  1.
         11    1    3    3    0    0 -0.10566947925E+02  0.48534114841E+01 -0.63083384518E+01  0.13229177063E+02  0.51100000000E-03 0. -1.
        -11    1    3    3    0    0 -0.37417047494E+01  0.27236759244E+01  0.28439538653E+01  0.54320197737E+01  0.51100000000E-03 0.  1.
        -12    1    3    3    0    0 -0.11929801085E+02  0.19393978456E+02 -0.18162644718E+02  0.29126074528E+02  0.00000000000E+00 0.  1.
</event>
<event>
 7    1  0.5541017E-010  0.4778728E+02  0.7816164E-02  0.1312668E+00
        -11   -1    0    0    0    0  0.00000000000E+00  0.00000000000E+00  0.45593999997E+02  0.45594000000E+02  0.51100000000E-03 0.  1.
         11   -1    0    0    0    0 -0.00000000000E+00 -0.00000000000E+00 -0.45593999997E+02  0.45594000000E+02  0.51100000000E-03 0. -1.
    9900012    2    1    2    0    0 -0.20575029634E+02  0.54198004680E+01 -0.37827459188E+02  0.47787277078E+02  0.20000027509E+02 0.  0.
        -12    1    1    2    0    0  0.20575029634E+02 -0.54198004680E+01  0.37827459188E+02  0.43400722922E+02  0.00000000000E+00 0.  1.
         11    1    3    3    0    0 -0.37106083396E+01 -0.78807272434E+00 -0.24669284130E+02  0.24959231812E+02  0.51100000000E-03 0. -1.
        -11    1    3    3    0    0  0.22602598597E+00 -0.27964288428E+00 -0.13923066251E+00  0.38558180399E+00  0.51100000000E-03 0.  1.
         12    1    3    3    0    0 -0.17090447281E+02  0.64875160766E+01 -0.13018944395E+02  0.22442463462E+02  0.00000000000E+00 0. -1.
</event>
<event>
 7    1  0.5541017E-010  0.4778727E+02  0.7816164E-02  0.1312668E+00
        -11   -1    0    0    0    0  0.00000000000E+00  0.00000000000E+00  0.45593999997E+02  0.45594000000E+02  0.51100000000E-03 0.  1.
         11   -1    0    0    0    0 -0.00000000000E+00 -0.00000000000E+00 -0.45593999997E+02  0.45594000000E+02  0.51100000000E-03 0. -1.
    9900012    2    1    2    0    0  0.42022939220E+02  0.46338157162E+01 -0.98093727752E+01  0.47787268865E+02  0.19999990064E+02 0.  0.
        -12    1    1    2    0    0 -0.42022939220E+02 -0.46338157162E+01  0.98093727752E+01  0.43400731135E+02  0.00000000000E+00 0.  1.
         11    1    3    3    0    0  0.27562439244E+02  0.98610738085E+01 -0.11236725193E+02  0.31355905776E+02  0.51100000000E-03 0. -1.
        -11    1    3    3    0    0  0.19545237023E+01  0.23024104288E+00 -0.15017891059E+01  0.24755897520E+01  0.51100000000E-03 0.  1.
        -12    1    3    3    0    0  0.12505976274E+02 -0.54574991352E+01  0.29291415232E+01  0.13955773337E+02  0.00000000000E+00 0.  1.
</event>
<event>
 7    1  0.5541017E-010  0.4778727E+02  0.7816164E-02  0.1312668E+00
        -11   -1    0    0    0    0  0.00000000000E+00  0.00000000000E+00  0.45593999997E+02  0.45594000000E+02  0.51100000000E-03 0.  1.
         11   -1    0    0    0    0 -0.00000000000E+00 -0.00000000000E+00 -0.45593999997E+02  0.45594000000E+02  0.51100000000E-03 0. -1.
    9900012    2    1    2    0    0  0.16505526637E+01 -0.15301371807E+02 -0.40580378030E+02  0.47787269772E+02  0.19999994199E+02 0.  0.
        -12    1    1    2    0    0 -0.16505526637E+01  0.15301371807E+02  0.40580378030E+02  0.43400730228E+02  0.00000000000E+00 0.  1.
         11    1    3    3    0    0  0.26428631377E+01 -0.59177627517E+01 -0.13361574858E+02  0.14850465464E+02  0.51100000000E-03 0. -1.
        -11    1    3    3    0    0  0.60061409399E+01 -0.29285879938E+01 -0.19708236363E+02  0.20810212335E+02  0.51100000000E-03 0.  1.
         12    1    3    3    0    0 -0.69984514138E+01 -0.64550210612E+01 -0.75105668096E+01  0.12126591974E+02  0.00000000000E+00 0. -1.
</event>
<event>
 7    1  0.5541017E-010  0.4778727E+02  0.7816164E-02  0.1312668E+00
        -11   -1    0    0    0    0  0.00000000000E+00  0.00000000000E+00  0.45593999997E+02  0.45594000000E+02  0.51100000000E-03 0.  1.
         11   -1    0    0    0    0 -0.00000000000E+00 -0.00000000000E+00 -0.45593999997E+02  0.45594000000E+02  0.51100000000E-03 0. -1.
    9900012    2    1    2    0    0 -0.22772501038E+02 -0.65954206987E+01 -0.36352950387E+02  0.47787269827E+02  0.19999994449E+02 0.  0.
        -12    1    1    2    0    0  0.22772501038E+02  0.65954206987E+01  0.36352950387E+02  0.43400730173E+02  0.00000000000E+00 0.  1.
         11    1    3    3    0    0 -0.75874767963E+01 -0.45276133256E+01 -0.26015385491E+02  0.27474886152E+02  0.51100000000E-03 0. -1.
        -11    1    3    3    0    0 -0.74178182103E+01 -0.35066052984E+01 -0.92071701755E+01  0.12332570317E+02  0.51100000000E-03 0.  1.
        -12    1    3    3    0    0 -0.77672060313E+01  0.14387979252E+01 -0.11303947201E+01  0.79798133578E+01  0.00000000000E+00 0.  1.
</event>
<event>
 7    1  0.5541017E-010  0.4778726E+02  0.7816164E-02  0.1312668E+00
        -11   -1    0    0    0    0  0.00000000000E+00  0.00000000000E+00  0.45593999997E+02  0.45594000000E+02  0.51100000000E-03 0.  1.
         11   -1    0    0    0    0 -0.00000000000E+00 -0.00000000000E+00 -0.45593999997E+02  0.45594000000E+02  0.51100000000E-03 0. -1.
    9900012    2    1    2    0    0  0.17480297757E+02 -0.77815275137E+01 -0.38955245038E+02  0.47787261572E+02  0.19999956811E+02 0.  0.
        -12    1    1    2    0    0 -0.17480297757E+02  0.77815275137E+01  0.38955245038E+02  0.43400738428E+02  0.00000000000E+00 0.  1.
         11    1    3    3    0    0  0.30351648019E+01  0.89916429365E+00 -0.49814466595E+01  0.59021634071E+01  0.51100000000E-03 0. -1.
        -11    1    3    3    0    0  0.11180055282E+02  0.57913080823E+00 -0.28553514721E+02  0.30669728264E+02  0.51100000000E-03 0.  1.
         12    1    3    3    0    0  0.32650776728E+01 -0.92598226156E+01 -0.54202836572E+01  0.11215369901E+02  0.00000000000E+00 0. -1.
</event>
<event>
 7    1  0.5541017E-010  0.4778727E+02  0.7816164E-02  0.1312668E+00
        -11   -1    0    0    0    0  0.00000000000E+00  0.00000000000E+00  0.45593999997E+02  0.45594000000E+02  0.51100000000E-03 0. -1.
         11   -1    0    0    0    0 -0.00000000000E+00 -0.00000000000E+00 -0.45593999997E+02  0.45594000000E+02  0.51100000000E-03 0.  1.
    9900012    2    1    2    0    0 -0.21837236990E+02  0.22536615447E+02  0.29980981644E+02  0.47787271717E+02  0.20000003066E+02 0.  0.
        -12    1    1    2    0    0  0.21837236990E+02 -0.22536615447E+02 -0.29980981644E+02  0.43400728283E+02  0.00000000000E+00 0.  1.
         11    1    3    3    0    0 -0.74474698116E+00  0.74356838111E+01  0.25298149712E+01  0.78894870463E+01  0.51100000000E-03 0. -1.
        -11    1    3    3    0    0 -0.14913577353E+02  0.16503429763E+02  0.18502203973E+02  0.28932845272E+02  0.51100000000E-03 0.  1.
         12    1    3    3    0    0 -0.61789126561E+01 -0.14024981274E+01  0.89489626999E+01  0.10964939399E+02  0.00000000000E+00 0. -1.
</event>
<event>
 7    1  0.7043361E-010  0.4778727E+02  0.7816164E-02  0.1312668E+00
        -11   -1    0    0    0    0  0.00000000000E+00  0.00000000000E+00  0.45593999997E+02  0.45594000000E+02  0.51100000000E-03 0.  1.
         11   -1    0    0    0    0 -0.00000000000E+00 -0.00000000000E+00 -0.45593999997E+02  0.45594000000E+02  0.51100000000E-03 0. -1.
    9900012    2    1    2    0    0 -0.22382863798E+02 -0.32569765840E+02 -0.17939937206E+02  0.47787267453E+02  0.19999983625E+02 0.  0.
        -12    1    1    2    0    0  0.22382863798E+02  0.32569765840E+02  0.17939937206E+02  0.43400732547E+02  0.00000000000E+00 0.  1.
         11    1    3    3    0    0 -0.86228298547E+01 -0.13864665012E+02 -0.30858296749E+01  0.16616391775E+02  0.51100000000E-03 0. -1.
        -11    1    3    3    0    0 -0.15029535232E+02 -0.18175232370E+02 -0.16678510037E+02  0.28885960228E+02  0.51100000000E-03 0.  1.
        -12    1    3    3    0    0  0.12695012886E+01 -0.52986845831E+00  0.18244025065E+01  0.22849154493E+01  0.00000000000E+00 0.  1.
</event>
<event>
 7    1  0.5541017E-010  0.4778725E+02  0.7816164E-02  0.1312668E+00
        -11   -1    0    0    0    0  0.00000000000E+00  0.00000000000E+00  0.45593999997E+02  0.45594000000E+02  0.51100000000E-03 0.  1.
         11   -1    0    0    0    0 -0.00000000000E+00 -0.00000000000E+00 -0.45593999997E+02  0.45594000000E+02  0.51100000000E-03 0. -1.
    9900012    2    1    2    0    0 -0.16705597440E+02  0.37259963322E+02 -0.14705212656E+02  0.47787249640E+02  0.19999902406E+02 0.  0.
        -12    1    1    2    0    0  0.16705597440E+02 -0.37259963322E+02  0.14705212656E+02  0.43400750360E+02  0.00000000000E+00 0.  1.
         11    1    3    3    0    0  0.20964870251E+01  0.86151704240E+01 -0.35456053895E+01  0.95492270431E+01  0.51100000000E-03 0. -1.
        -11    1    3    3    0    0 -0.45522117517E-01 -0.10353830832E+01  0.61618904100E+00  0.12057278248E+01  0.51100000000E-03 0.  1.
        -12    1    3    3    0    0 -0.18756562348E+02  0.29680175981E+02 -0.11775796307E+02  0.37032294772E+02  0.00000000000E+00 0.  1.
</event>
<event>
 7    1  0.5541017E-010  0.4778727E+02  0.7816164E-02  0.1312668E+00
        -11   -1    0    0    0    0  0.00000000000E+00  0.00000000000E+00  0.45593999997E+02  0.45594000000E+02  0.51100000000E-03 0.  1.
         11   -1    0    0    0    0 -0.00000000000E+00 -0.00000000000E+00 -0.45593999997E+02  0.45594000000E+02  0.51100000000E-03 0. -1.
    9900012    2    1    2    0    0 -0.19239939290E+02  0.79640266902E+01 -0.38079156823E+02  0.47787272249E+02  0.20000005492E+02 0.  0.
        -12    1    1    2    0    0  0.19239939290E+02 -0.79640266902E+01  0.38079156823E+02  0.43400727751E+02  0.00000000000E+00 0.  1.
         11    1    3    3    0    0 -0.44590960409E+01  0.76644849449E+01 -0.12172030194E+02  0.15059421844E+02  0.51100000000E-03 0. -1.
        -11    1    3    3    0    0 -0.58831425444E+01  0.67523989461E+01 -0.10473898159E+02  0.13780740206E+02  0.51100000000E-03 0.  1.
         12    1    3    3    0    0 -0.88977007045E+01 -0.64528572008E+01 -0.15433228470E+02  0.18947110199E+02  0.00000000000E+00 0. -1.
</event>
<event>
 7    1  0.5541017E-010  0.4778726E+02  0.7816164E-02  0.1312668E+00
        -11   -1    0    0    0    0  0.00000000000E+00  0.00000000000E+00  0.45593999997E+02  0.45594000000E+02  0.51100000000E-03 0. -1.
         11   -1    0    0    0    0 -0.00000000000E+00 -0.00000000000E+00 -0.45593999997E+02  0.45594000000E+02  0.51100000000E-03 0.  1.
    9900012    2    1    2    0    0 -0.51576206738E+00  0.11020217347E+02  0.41975151385E+02  0.47787256520E+02  0.19999933776E+02 0.  0.
        -12    1    1    2    0    0  0.51576206738E+00 -0.11020217347E+02 -0.41975151385E+02  0.43400743480E+02  0.00000000000E+00 0.  1.
         11    1    3    3    0    0  0.12413673431E+00  0.22593609326E+01  0.38970423666E+00  0.22960817506E+01  0.51100000000E-03 0.  1.
        -11    1    3    3    0    0 -0.64661665611E+01  0.52155282866E+01  0.92013166576E+01  0.12396663817E+02  0.51100000000E-03 0. -1.
         12    1    3    3    0    0  0.58262677594E+01  0.35453281276E+01  0.32384130490E+02  0.33094510952E+02  0.00000000000E+00 0. -1.
</event>
<event>
 7    1  0.5541017E-010  0.4778727E+02  0.7816164E-02  0.1312668E+00
        -11   -1    0    0    0    0  0.00000000000E+00  0.00000000000E+00  0.45593999997E+02  0.45594000000E+02  0.51100000000E-03 0. -1.
         11   -1    0    0    0    0 -0.00000000000E+00 -0.00000000000E+00 -0.45593999997E+02  0.45594000000E+02  0.51100000000E-03 0.  1.
    9900012    2    1    2    0    0  0.22814681088E+01 -0.30851621326E+02  0.30440035482E+02  0.47787269645E+02  0.19999993621E+02 0.  0.
        -12    1    1    2    0    0 -0.22814681088E+01  0.30851621326E+02 -0.30440035482E+02  0.43400730355E+02  0.00000000000E+00 0.  1.
         11    1    3    3    0    0 -0.23412712171E+01 -0.21404009737E+01 -0.18409999341E+01  0.36677170363E+01  0.51100000000E-03 0. -1.
        -11    1    3    3    0    0  0.35136788356E+01 -0.45965246815E+01  0.46038382213E+01  0.73938694022E+01  0.51100000000E-03 0.  1.
         12    1    3    3    0    0  0.11090604902E+01 -0.24114695670E+02  0.27677197195E+02  0.36725683207E+02  0.00000000000E+00 0. -1.
</event>
<event>
 7    1  0.5541017E-010  0.4778727E+02  0.7816164E-02  0.1312668E+00
        -11   -1    0    0    0    0  0.00000000000E+00  0.00000000000E+00  0.45593999997E+02  0.45594000000E+02  0.51100000000E-03 0.  1.
         11   -1    0    0    0    0 -0.00000000000E+00 -0.00000000000E+00 -0.45593999997E+02  0.45594000000E+02  0.51100000000E-03 0. -1.
    9900012    2    1    2    0    0  0.26863091680E+02 -0.30892943642E+02 -0.14409145130E+02  0.47787272762E+02  0.20000007830E+02 0.  0.
        -12    1    1    2    0    0 -0.26863091680E+02  0.30892943642E+02  0.14409145130E+02  0.43400727238E+02  0.00000000000E+00 0.  1.
         11    1    3    3    0    0 -0.21205315792E+01 -0.12295564152E+01 -0.19882830210E+00  0.24592673932E+01  0.51100000000E-03 0. -1.
        -11    1    3    3    0    0 -0.65900202892E-01 -0.63852596778E+00  0.12854530160E+01  0.14368186962E+01  0.51100000000E-03 0.  1.
         12    1    3    3    0    0  0.29049523462E+02 -0.29024861259E+02 -0.15495769844E+02  0.43891186672E+02  0.00000000000E+00 0. -1.
</event>
<event>
 7    1  0.5541017E-010  0.4778727E+02  0.7816164E-02  0.1312668E+00
        -11   -1    0    0    0    0  0.00000000000E+00  0.00000000000E+00  0.45593999997E+02  0.45594000000E+02  0.51100000000E-03 0.  1.
         11   -1    0    0    0    0 -0.00000000000E+00 -0.00000000000E+00 -0.45593999997E+02  0.45594000000E+02  0.51100000000E-03 0. -1.
    9900012    2    1    2    0    0 -0.11231482208E+02 -0.45319209216E+01 -0.41676601123E+02  0.47787267507E+02  0.19999983870E+02 0.  0.
        -12    1    1    2    0    0  0.11231482208E+02  0.45319209216E+01  0.41676601123E+02  0.43400732493E+02  0.00000000000E+00 0.  1.
         11    1    3    3    0    0 -0.15627131745E+02 -0.51626535157E+01 -0.29900737548E+02  0.34130841538E+02  0.51100000000E-03 0. -1.
        -11    1    3    3    0    0  0.11651649422E+01 -0.16674004414E+01 -0.11996373886E+01  0.23615595905E+01  0.51100000000E-03 0.  1.
        -12    1    3    3    0    0  0.32304845951E+01  0.22981330355E+01 -0.10576226186E+02  0.11294866379E+02  0.00000000000E+00 0.  1.
</event>
<event>
 7    1  0.5541017E-010  0.4778728E+02  0.7816164E-02  0.1312668E+00
        -11   -1    0    0    0    0  0.00000000000E+00  0.00000000000E+00  0.45593999997E+02  0.45594000000E+02  0.51100000000E-03 0. -1.
         11   -1    0    0    0    0 -0.00000000000E+00 -0.00000000000E+00 -0.45593999997E+02  0.45594000000E+02  0.51100000000E-03 0.  1.
    9900012    2    1    2    0    0  0.20188619061E+01 -0.17834102521E+02  0.39515717080E+02  0.47787275208E+02  0.20000018985E+02 0.  0.
        -12    1    1    2    0    0 -0.20188619061E+01  0.17834102521E+02 -0.39515717080E+02  0.43400724792E+02  0.00000000000E+00 0.  1.
         11    1    3    3    0    0 -0.25320557806E+01 -0.67320855611E+01  0.22617908206E+02  0.23733985219E+02  0.51100000000E-03 0.  1.
        -11    1    3    3    0    0 -0.37163903277E+01 -0.38385724453E+01  0.91464345086E+01  0.10592613463E+02  0.51100000000E-03 0. -1.
        -12    1    3    3    0    0  0.82673080144E+01 -0.72634445142E+01  0.77513743651E+01  0.13460676527E+02  0.00000000000E+00 0.  1.
</event>
<event>
 7    1  0.5541017E-010  0.4778727E+02  0.7816164E-02  0.1312668E+00
        -11   -1    0    0    0    0  0.00000000000E+00  0.00000000000E+00  0.45593999997E+02  0.45594000000E+02  0.51100000000E-03 0.  1.
         11   -1    0    0    0    0 -0.00000000000E+00 -0.00000000000E+00 -0.45593999997E+02  0.45594000000E+02  0.51100000000E-03 0. -1.
    9900012    2    1    2    0    0  0.28716812352E+02  0.32506386570E+02 -0.15175807641E+01  0.47787268084E+02  0.19999986501E+02 0.  0.
        -12    1    1    2    0    0 -0.28716812352E+02 -0.32506386570E+02  0.15175807641E+01  0.43400731916E+02  0.00000000000E+00 0.  1.
         11    1    3    3    0    0  0.14421843743E+02  0.75716590412E+01 -0.23121006614E+01  0.16451911966E+02  0.51100000000E-03 0. -1.
        -11    1    3    3    0    0  0.10880700693E+02  0.92189820192E+01 -0.35104060218E+01  0.14686804545E+02  0.51100000000E-03 0.  1.
        -12    1    3    3    0    0  0.34142679157E+01  0.15715745510E+02  0.43049259191E+01  0.16648551573E+02  0.00000000000E+00 0.  1.
</event>
<event>
 7    1  0.5541017E-010  0.4778727E+02  0.7816164E-02  0.1312668E+00
        -11   -1    0    0    0    0  0.00000000000E+00  0.00000000000E+00  0.45593999997E+02  0.45594000000E+02  0.51100000000E-03 0. -1.
         11   -1    0    0    0    0 -0.00000000000E+00 -0.00000000000E+00 -0.45593999997E+02  0.45594000000E+02  0.51100000000E-03 0.  1.
    9900012    2    1    2    0    0  0.37426602057E+02  0.18649677168E+02  0.11621637132E+02  0.47787269020E+02  0.19999990768E+02 0.  0.
        -12    1    1    2    0    0 -0.37426602057E+02 -0.18649677168E+02 -0.11621637132E+02  0.43400730980E+02  0.00000000000E+00 0.  1.
         11    1    3    3    0    0  0.27393922371E+01  0.12479301338E+00  0.22580498152E+01  0.35522714358E+01  0.51100000000E-03 0.  1.
        -11    1    3    3    0    0  0.21496156945E+02  0.13356192130E+01  0.38771182769E+01  0.21883799681E+02  0.51100000000E-03 0. -1.
         12    1    3    3    0    0  0.13191052875E+02  0.17189264941E+02  0.54864690399E+01  0.22351197903E+02  0.00000000000E+00 0. -1.
</event>
<event>
 7    1  0.5541017E-010  0.4778727E+02  0.7816164E-02  0.1312668E+00
        -11   -1    0    0    0    0  0.00000000000E+00  0.00000000000E+00  0.45593999997E+02  0.45594000000E+02  0.51100000000E-03 0.  1.
         11   -1    0    0    0    0 -0.00000000000E+00 -0.00000000000E+00 -0.45593999997E+02  0.45594000000E+02  0.51100000000E-03 0. -1.
    9900012    2    1    2    0    0  0.37005542392E+00 -0.42054493222E+02 -0.10719416310E+02  0.47787271582E+02  0.20000002450E+02 0.  0.
        -12    1    1    2    0    0 -0.37005542392E+00  0.42054493222E+02  0.10719416310E+02  0.43400728418E+02  0.00000000000E+00 0.  1.
         11    1    3    3    0    0 -0.31184958819E+01 -0.12058339185E+02 -0.87507651220E+01  0.15221841247E+02  0.51100000000E-03 0. -1.
        -11    1    3    3    0    0  0.18832513480E+01 -0.41613434377E+01 -0.46795361513E+01  0.65392257721E+01  0.51100000000E-03 0.  1.
         12    1    3    3    0    0  0.16052999578E+01 -0.25834810599E+02  0.27108849632E+01  0.26026204562E+02  0.00000000000E+00 0. -1.
</event>
<event>
 7    1  0.5541017E-010  0.4778726E+02  0.7816164E-02  0.1312668E+00
        -11   -1    0    0    0    0  0.00000000000E+00  0.00000000000E+00  0.45593999997E+02  0.45594000000E+02  0.51100000000E-03 0.  1.
         11   -1    0    0    0    0 -0.00000000000E+00 -0.00000000000E+00 -0.45593999997E+02  0.45594000000E+02  0.51100000000E-03 0. -1.
    9900012    2    1    2    0    0 -0.53463614306E+01  0.75759510280E+01 -0.42398647863E+02  0.47787263196E+02  0.19999964216E+02 0.  0.
        -12    1    1    2    0    0  0.53463614306E+01 -0.75759510280E+01  0.42398647863E+02  0.43400736804E+02  0.00000000000E+00 0.  1.
         11    1    3    3    0    0  0.11234496507E+01 -0.28778996525E+01 -0.49108048166E+01  0.58017626404E+01  0.51100000000E-03 0. -1.
        -11    1    3    3    0    0  0.30057043645E+01 -0.12113176952E+01 -0.11674779759E+02  0.12116188839E+02  0.51100000000E-03 0.  1.
         12    1    3    3    0    0 -0.94755154458E+01  0.11665168376E+02 -0.25813063287E+02  0.29869311717E+02  0.00000000000E+00 0. -1.
</event>
<event>
 7    1  0.5541017E-010  0.4778727E+02  0.7816164E-02  0.1312668E+00
        -11   -1    0    0    0    0  0.00000000000E+00  0.00000000000E+00  0.45593999997E+02  0.45594000000E+02  0.51100000000E-03 0.  1.
         11   -1    0    0    0    0 -0.00000000000E+00 -0.00000000000E+00 -0.45593999997E+02  0.45594000000E+02  0.51100000000E-03 0. -1.
    9900012    2    1    2    0    0  0.54485997007E+01  0.38146668710E+02 -0.19969165589E+02  0.47787272510E+02  0.20000006680E+02 0.  0.
        -12    1    1    2    0    0 -0.54485997007E+01 -0.38146668710E+02  0.19969165589E+02  0.43400727490E+02  0.00000000000E+00 0.  1.
         11    1    3    3    0    0  0.94978814516E+01  0.28861954587E+02 -0.17882104510E+02  0.35256089355E+02  0.51100000000E-03 0. -1.
        -11    1    3    3    0    0  0.10730608037E+01  0.43869575484E+01  0.12668089122E+01  0.46905928305E+01  0.51100000000E-03 0.  1.
        -12    1    3    3    0    0 -0.51223425546E+01  0.48977565751E+01 -0.33538699915E+01  0.78405903244E+01  0.00000000000E+00 0.  1.
</event>
<event>
 7    1  0.5541017E-010  0.4778728E+02  0.7816164E-02  0.1312668E+00
        -11   -1    0    0    0    0  0.00000000000E+00  0.00000000000E+00  0.45593999997E+02  0.45594000000E+02  0.51100000000E-03 0.  1.
         11   -1    0    0    0    0 -0.00000000000E+00 -0.00000000000E+00 -0.45593999997E+02  0.45594000000E+02  0.51100000000E-03 0. -1.
    9900012    2    1    2    0    0  0.28241115293E+02  0.32543825706E+02 -0.51924457338E+01  0.47787277918E+02  0.20000031338E+02 0.  0.
        -12    1    1    2    0    0 -0.28241115293E+02 -0.32543825706E+02  0.51924457338E+01  0.43400722082E+02  0.00000000000E+00 0.  1.
         11    1    3    3    0    0  0.86758601689E+01  0.14678773896E+02  0.98735631830E+00  0.17079573342E+02  0.51100000000E-03 0.  1.
        -11    1    3    3    0    0  0.16805350131E+02  0.20151930664E+02 -0.40837220237E+01  0.26555543458E+02  0.51100000000E-03 0. -1.
        -12    1    3    3    0    0  0.27599049930E+01 -0.22868788545E+01 -0.20960800284E+01  0.41521611182E+01  0.00000000000E+00 0.  1.
</event>
<event>
 7    1  0.5541017E-010  0.4778727E+02  0.7816164E-02  0.1312668E+00
        -11   -1    0    0    0    0  0.00000000000E+00  0.00000000000E+00  0.45593999997E+02  0.45594000000E+02  0.51100000000E-03 0.  1.
         11   -1    0    0    0    0 -0.00000000000E+00 -0.00000000000E+00 -0.45593999997E+02  0.45594000000E+02  0.51100000000E-03 0. -1.
    9900012    2    1    2    0    0 -0.13471883121E+02 -0.94107032663E+00 -0.41246165856E+02  0.47787269061E+02  0.19999990958E+02 0.  0.
        -12    1    1    2    0    0  0.13471883121E+02  0.94107032663E+00  0.41246165856E+02  0.43400730939E+02  0.00000000000E+00 0.  1.
         11    1    3    3    0    0 -0.83903600229E+01  0.27580470277E+00 -0.14530919535E+02  0.16781592068E+02  0.51100000000E-03 0.  1.
        -11    1    3    3    0    0 -0.81042967474E+01 -0.51796686139E+01 -0.22531103189E+02  0.24498146948E+02  0.51100000000E-03 0. -1.
        -12    1    3    3    0    0  0.30227736498E+01  0.39627935845E+01 -0.41841431322E+01  0.65075300447E+01  0.00000000000E+00 0.  1.
</event>
<event>
 7    1  0.5541017E-010  0.4778727E+02  0.7816164E-02  0.1312668E+00
        -11   -1    0    0    0    0  0.00000000000E+00  0.00000000000E+00  0.45593999997E+02  0.45594000000E+02  0.51100000000E-03 0.  1.
         11   -1    0    0    0    0 -0.00000000000E+00 -0.00000000000E+00 -0.45593999997E+02  0.45594000000E+02  0.51100000000E-03 0. -1.
    9900012    2    1    2    0    0 -0.41914034709E+02  0.81372665692E+01  0.77860112347E+01  0.47787269778E+02  0.19999994228E+02 0.  0.
        -12    1    1    2    0    0  0.41914034709E+02 -0.81372665692E+01 -0.77860112347E+01  0.43400730222E+02  0.00000000000E+00 0.  1.
         11    1    3    3    0    0 -0.56701712652E+01 -0.12689932267E+01  0.54984772118E+01  0.79996523609E+01  0.51100000000E-03 0. -1.
        -11    1    3    3    0    0 -0.91048110736E+01  0.44981218785E+01  0.62509532013E+01  0.11924978042E+02  0.51100000000E-03 0.  1.
         12    1    3    3    0    0 -0.27139052370E+02  0.49081379175E+01 -0.39634191785E+01  0.27862639375E+02  0.00000000000E+00 0. -1.
</event>
<event>
 7    1  0.5541017E-010  0.4778727E+02  0.7816164E-02  0.1312668E+00
        -11   -1    0    0    0    0  0.00000000000E+00  0.00000000000E+00  0.45593999997E+02  0.45594000000E+02  0.51100000000E-03 0.  1.
         11   -1    0    0    0    0 -0.00000000000E+00 -0.00000000000E+00 -0.45593999997E+02  0.45594000000E+02  0.51100000000E-03 0. -1.
    9900012    2    1    2    0    0 -0.48036046686E+01  0.31865510390E+02 -0.29071252725E+02  0.47787272987E+02  0.20000008859E+02 0.  0.
        -12    1    1    2    0    0  0.48036046686E+01 -0.31865510390E+02  0.29071252725E+02  0.43400727013E+02  0.00000000000E+00 0.  1.
         11    1    3    3    0    0 -0.71285012496E+01  0.27686213414E+02 -0.23653795141E+02  0.37105848166E+02  0.51100000000E-03 0. -1.
        -11    1    3    3    0    0  0.11288613163E+01  0.63086704954E+01 -0.25063733528E+01  0.68815375416E+01  0.51100000000E-03 0.  1.
        -12    1    3    3    0    0  0.11960352648E+01 -0.21293735196E+01 -0.29110842309E+01  0.37998872799E+01  0.00000000000E+00 0.  1.
</event>
<event>
 7    1  0.5541017E-010  0.4778727E+02  0.7816164E-02  0.1312668E+00
        -11   -1    0    0    0    0  0.00000000000E+00  0.00000000000E+00  0.45593999997E+02  0.45594000000E+02  0.51100000000E-03 0.  1.
         11   -1    0    0    0    0 -0.00000000000E+00 -0.00000000000E+00 -0.45593999997E+02  0.45594000000E+02  0.51100000000E-03 0. -1.
    9900012    2    1    2    0    0  0.39995398113E+02 -0.77520204876E+01  0.14963211099E+02  0.47787269842E+02  0.19999994516E+02 0.  0.
        -12    1    1    2    0    0 -0.39995398113E+02  0.77520204876E+01 -0.14963211099E+02  0.43400730158E+02  0.00000000000E+00 0.  1.
         11    1    3    3    0    0  0.26174384989E+02 -0.47757909867E+01  0.10687886635E+02  0.28672940730E+02  0.51100000000E-03 0. -1.
        -11    1    3    3    0    0  0.80181020994E+01 -0.58441789832E+01  0.69464887003E+01  0.12111898893E+02  0.51100000000E-03 0.  1.
        -12    1    3    3    0    0  0.58029110246E+01  0.28679494822E+01 -0.26711642365E+01  0.70024302189E+01  0.00000000000E+00 0.  1.
</event>
<event>
 7    1  0.5541017E-010  0.4778726E+02  0.7816164E-02  0.1312668E+00
        -11   -1    0    0    0    0  0.00000000000E+00  0.00000000000E+00  0.45593999997E+02  0.45594000000E+02  0.51100000000E-03 0. -1.
         11   -1    0    0    0    0 -0.00000000000E+00 -0.00000000000E+00 -0.45593999997E+02  0.45594000000E+02  0.51100000000E-03 0.  1.
    9900012    2    1    2    0    0 -0.47589264090E+01 -0.40309145622E+02  0.15367150666E+02  0.47787263590E+02  0.19999966012E+02 0.  0.
        -12    1    1    2    0    0  0.47589264090E+01  0.40309145622E+02 -0.15367150666E+02  0.43400736410E+02  0.00000000000E+00 0.  1.
         11    1    3    3    0    0 -0.34300960724E+00 -0.24862898714E+02  0.13141291095E+02  0.28124276345E+02  0.51100000000E-03 0. -1.
        -11    1    3    3    0    0 -0.33426758348E+01 -0.10239547857E+02  0.67251648910E+01  0.12698411914E+02  0.51100000000E-03 0.  1.
        -12    1    3    3    0    0 -0.10732409670E+01 -0.52066990511E+01 -0.44993053200E+01  0.69645753312E+01  0.00000000000E+00 0.  1.
</event>
<event>
 7    1  0.5541017E-010  0.4778727E+02  0.7816164E-02  0.1312668E+00
        -11   -1    0    0    0    0  0.00000000000E+00  0.00000000000E+00  0.45593999997E+02  0.45594000000E+02  0.51100000000E-03 0.  1.
         11   -1    0    0    0    0 -0.00000000000E+00 -0.00000000000E+00 -0.45593999997E+02  0.45594000000E+02  0.51100000000E-03 0. -1.
    9900012    2    1    2    0    0  0.16499870171E+02  0.31565721067E+02 -0.24798843737E+02  0.47787272900E+02  0.20000008458E+02 0.  0.
        -12    1    1    2    0    0 -0.16499870171E+02 -0.31565721067E+02  0.24798843737E+02  0.43400727100E+02  0.00000000000E+00 0.  1.
         11    1    3    3    0    0  0.80383076247E+01  0.96552474334E+01 -0.52748211846E+01  0.13625781859E+02  0.51100000000E-03 0. -1.
        -11    1    3    3    0    0  0.42938692090E+01  0.21943447344E+02 -0.19957889854E+02  0.29971145488E+02  0.51100000000E-03 0.  1.
         12    1    3    3    0    0  0.41676933374E+01 -0.32973710423E-01  0.43386730213E+00  0.41903455533E+01  0.00000000000E+00 0. -1.
</event>
<event>
 7    1  0.5541017E-010  0.4778726E+02  0.7816164E-02  0.1312668E+00
        -11   -1    0    0    0    0  0.00000000000E+00  0.00000000000E+00  0.45593999997E+02  0.45594000000E+02  0.51100000000E-03 0. -1.
         11   -1    0    0    0    0 -0.00000000000E+00 -0.00000000000E+00 -0.45593999997E+02  0.45594000000E+02  0.51100000000E-03 0.  1.
    9900012    2    1    2    0    0 -0.24621084030E+02 -0.35180373396E+02  0.63061452566E+01  0.47787263611E+02  0.19999966107E+02 0.  0.
        -12    1    1    2    0    0  0.24621084030E+02  0.35180373396E+02 -0.63061452566E+01  0.43400736389E+02  0.00000000000E+00 0.  1.
         11    1    3    3    0    0 -0.12106523518E+02 -0.12652357074E+02  0.81711362895E+01  0.19324014069E+02  0.51100000000E-03 0. -1.
        -11    1    3    3    0    0 -0.58781059463E+01 -0.17289372540E+02  0.32977985966E+01  0.18556670181E+02  0.51100000000E-03 0.  1.
        -12    1    3    3    0    0 -0.66364545656E+01 -0.52386437823E+01 -0.51627896295E+01  0.99065793610E+01  0.00000000000E+00 0.  1.
</event>
<event>
 7    1  0.5694172E-010  0.4778727E+02  0.7816164E-02  0.1312668E+00
        -11   -1    0    0    0    0  0.00000000000E+00  0.00000000000E+00  0.45593999997E+02  0.45594000000E+02  0.51100000000E-03 0. -1.
         11   -1    0    0    0    0 -0.00000000000E+00 -0.00000000000E+00 -0.45593999997E+02  0.45594000000E+02  0.51100000000E-03 0.  1.
    9900012    2    1    2    0    0  0.23010600664E+02 -0.33883993827E+02  0.14353065916E+02  0.47787270953E+02  0.19999999584E+02 0.  0.
        -12    1    1    2    0    0 -0.23010600664E+02  0.33883993827E+02 -0.14353065916E+02  0.43400729047E+02  0.00000000000E+00 0.  1.
         11    1    3    3    0    0  0.68160373805E+01 -0.16542219253E+02  0.12910000991E+02  0.22062898931E+02  0.51100000000E-03 0. -1.
        -11    1    3    3    0    0  0.36822811099E+01  0.31464030755E+00  0.17334534993E+01  0.40820404201E+01  0.51100000000E-03 0.  1.
         12    1    3    3    0    0  0.12512282174E+02 -0.17656414882E+02 -0.29038857363E+00  0.21642331602E+02  0.00000000000E+00 0. -1.
</event>
<event>
 7    1  0.5541017E-010  0.4778727E+02  0.7816164E-02  0.1312668E+00
        -11   -1    0    0    0    0  0.00000000000E+00  0.00000000000E+00  0.45593999997E+02  0.45594000000E+02  0.51100000000E-03 0.  1.
         11   -1    0    0    0    0 -0.00000000000E+00 -0.00000000000E+00 -0.45593999997E+02  0.45594000000E+02  0.51100000000E-03 0. -1.
    9900012    2    1    2    0    0  0.19402003673E+02  0.21887928550E+02 -0.32064060145E+02  0.47787272867E+02  0.20000008309E+02 0.  0.
        -12    1    1    2    0    0 -0.19402003673E+02 -0.21887928550E+02  0.32064060145E+02  0.43400727133E+02  0.00000000000E+00 0.  1.
         11    1    3    3    0    0 -0.26643328852E+01  0.64502514644E+00 -0.36634505124E+01  0.45755433646E+01  0.51100000000E-03 0. -1.
        -11    1    3    3    0    0  0.55881226579E+01  0.11993760247E+02 -0.82797675552E+01  0.15608713936E+02  0.51100000000E-03 0.  1.
        -12    1    3    3    0    0  0.16478213901E+02  0.92491431566E+01 -0.20120842077E+02  0.27603015567E+02  0.00000000000E+00 0.  1.
</event>
<event>
 7    1  0.5541017E-010  0.4778727E+02  0.7816164E-02  0.1312668E+00
        -11   -1    0    0    0    0  0.00000000000E+00  0.00000000000E+00  0.45593999997E+02  0.45594000000E+02  0.51100000000E-03 0.  1.
         11   -1    0    0    0    0 -0.00000000000E+00 -0.00000000000E+00 -0.45593999997E+02  0.45594000000E+02  0.51100000000E-03 0. -1.
    9900012    2    1    2    0    0 -0.24512186049E+02 -0.26832551717E+02 -0.23723198885E+02  0.47787271182E+02  0.20000000629E+02 0.  0.
        -12    1    1    2    0    0  0.24512186049E+02  0.26832551717E+02  0.23723198885E+02  0.43400728818E+02  0.00000000000E+00 0.  1.
         11    1    3    3    0    0 -0.41554066563E+01 -0.70910543941E+01 -0.11654432413E+02  0.14261004594E+02  0.51100000000E-03 0. -1.
        -11    1    3    3    0    0 -0.96908273544E+01 -0.15333050423E+02 -0.20703766151E+01  0.18256533890E+02  0.51100000000E-03 0.  1.
         12    1    3    3    0    0 -0.10665952039E+02 -0.44084469008E+01 -0.99983898568E+01  0.15269732699E+02  0.00000000000E+00 0. -1.
</event>
<event>
 7    1  0.5541017E-010  0.4778727E+02  0.7816164E-02  0.1312668E+00
        -11   -1    0    0    0    0  0.00000000000E+00  0.00000000000E+00  0.45593999997E+02  0.45594000000E+02  0.51100000000E-03 0.  1.
         11   -1    0    0    0    0 -0.00000000000E+00 -0.00000000000E+00 -0.45593999997E+02  0.45594000000E+02  0.51100000000E-03 0. -1.
    9900012    2    1    2    0    0  0.32883963509E+02  0.11648536468E+02 -0.25818203129E+02  0.47787273385E+02  0.20000010671E+02 0.  0.
        -12    1    1    2    0    0 -0.32883963509E+02 -0.11648536468E+02  0.25818203129E+02  0.43400726615E+02  0.00000000000E+00 0.  1.
         11    1    3    3    0    0 -0.55380825782E+00  0.53171364573E+01 -0.39853253512E+01  0.66679428693E+01  0.51100000000E-03 0. -1.
        -11    1    3    3    0    0  0.18577960380E+02  0.74227787429E+00 -0.14758843922E+02  0.23738472202E+02  0.51100000000E-03 0.  1.
        -12    1    3    3    0    0  0.14859811388E+02  0.55891221365E+01 -0.70740338554E+01  0.17380858314E+02  0.00000000000E+00 0.  1.
</event>
<event>
 7    1  0.5541017E-010  0.4778725E+02  0.7816164E-02  0.1312668E+00
        -11   -1    0    0    0    0  0.00000000000E+00  0.00000000000E+00  0.45593999997E+02  0.45594000000E+02  0.51100000000E-03 0. -1.
         11   -1    0    0    0    0 -0.00000000000E+00 -0.00000000000E+00 -0.45593999997E+02  0.45594000000E+02  0.51100000000E-03 0.  1.
    9900012    2    1    2    0    0 -0.40039057289E+02  0.10886216552E+02  0.12727509889E+02  0.47787247387E+02  0.19999892135E+02 0.  0.
        -12    1    1    2    0    0  0.40039057289E+02 -0.10886216552E+02 -0.12727509889E+02  0.43400752613E+02  0.00000000000E+00 0.  1.
         11    1    3    3    0    0 -0.26894091347E+02  0.60699574204E+01  0.10797836716E+02  0.29609623612E+02  0.51100000000E-03 0.  1.
        -11    1    3    3    0    0 -0.39128225991E+01 -0.18402804292E+01  0.47789187811E+01  0.64447558315E+01  0.51100000000E-03 0. -1.
        -12    1    3    3    0    0 -0.92321433433E+01  0.66565395609E+01 -0.28492456080E+01  0.11732867943E+02  0.00000000000E+00 0.  1.
</event>
<event>
 7    1  0.5541017E-010  0.4778727E+02  0.7816164E-02  0.1312668E+00
        -11   -1    0    0    0    0  0.00000000000E+00  0.00000000000E+00  0.45593999997E+02  0.45594000000E+02  0.51100000000E-03 0. -1.
         11   -1    0    0    0    0 -0.00000000000E+00 -0.00000000000E+00 -0.45593999997E+02  0.45594000000E+02  0.51100000000E-03 0.  1.
    9900012    2    1    2    0    0  0.17499529060E+02 -0.26917094531E+02 -0.29203759211E+02  0.47787273654E+02  0.20000011897E+02 0.  0.
        -12    1    1    2    0    0 -0.17499529060E+02  0.26917094531E+02  0.29203759211E+02  0.43400726346E+02  0.00000000000E+00 0.  1.
         11    1    3    3    0    0  0.12596500353E+02 -0.69330708859E+01 -0.67004141420E+01  0.15863002332E+02  0.51100000000E-03 0. -1.
        -11    1    3    3    0    0  0.52444815285E+01 -0.43478865907E+01 -0.88122603814E+01  0.11138430661E+02  0.51100000000E-03 0.  1.
        -12    1    3    3    0    0 -0.34145282225E+00 -0.15636137054E+02 -0.13691084688E+02  0.20785840660E+02  0.00000000000E+00 0.  1.
</event>
<event>
 7    1  0.5541017E-010  0.4778727E+02  0.7816164E-02  0.1312668E+00
        -11   -1    0    0    0    0  0.00000000000E+00  0.00000000000E+00  0.45593999997E+02  0.45594000000E+02  0.51100000000E-03 0. -1.
         11   -1    0    0    0    0 -0.00000000000E+00 -0.00000000000E+00 -0.45593999997E+02  0.45594000000E+02  0.51100000000E-03 0.  1.
    9900012    2    1    2    0    0 -0.32634339492E+01 -0.41235777261E+02  0.13137139837E+02  0.47787265323E+02  0.19999973913E+02 0.  0.
        -12    1    1    2    0    0  0.32634339492E+01  0.41235777261E+02 -0.13137139837E+02  0.43400734677E+02  0.00000000000E+00 0.  1.
         11    1    3    3    0    0 -0.19664120543E+01 -0.21215368872E+01 -0.21613095234E+01  0.36109492171E+01  0.51100000000E-03 0. -1.
        -11    1    3    3    0    0 -0.35262774830E+01 -0.42434337639E+01 -0.10212811589E+01  0.56110942304E+01  0.51100000000E-03 0.  1.
         12    1    3    3    0    0  0.22292555881E+01 -0.34870806609E+02  0.16319730519E+02  0.38565221875E+02  0.00000000000E+00 0. -1.
</event>
<event>
 7    1  0.5541017E-010  0.4778727E+02  0.7816164E-02  0.1312668E+00
        -11   -1    0    0    0    0  0.00000000000E+00  0.00000000000E+00  0.45593999997E+02  0.45594000000E+02  0.51100000000E-03 0.  1.
         11   -1    0    0    0    0 -0.00000000000E+00 -0.00000000000E+00 -0.45593999997E+02  0.45594000000E+02  0.51100000000E-03 0. -1.
    9900012    2    1    2    0    0  0.18096943787E+02  0.23899127369E+02 -0.31384004294E+02  0.47787269719E+02  0.19999993956E+02 0.  0.
        -12    1    1    2    0    0 -0.18096943787E+02 -0.23899127369E+02  0.31384004294E+02  0.43400730281E+02  0.00000000000E+00 0.  1.
         11    1    3    3    0    0  0.92602301718E+01  0.27165709271E+01 -0.10157835024E+02  0.14011182429E+02  0.51100000000E-03 0. -1.
        -11    1    3    3    0    0  0.11784740878E+01 -0.12657362952E+01  0.28854322299E+00  0.17533245556E+01  0.51100000000E-03 0.  1.
        -12    1    3    3    0    0  0.76582395277E+01  0.22448292737E+02 -0.21514712493E+02  0.32022762734E+02  0.00000000000E+00 0.  1.
</event>
<event>
 7    1  0.5541017E-010  0.4778723E+02  0.7816164E-02  0.1312668E+00
        -11   -1    0    0    0    0  0.00000000000E+00  0.00000000000E+00  0.45593999997E+02  0.45594000000E+02  0.51100000000E-03 0.  1.
         11   -1    0    0    0    0 -0.00000000000E+00 -0.00000000000E+00 -0.45593999997E+02  0.45594000000E+02  0.51100000000E-03 0. -1.
    9900012    2    1    2    0    0  0.46203852707E+01  0.29833456204E+02 -0.31180817187E+02  0.47787234689E+02  0.19999834242E+02 0.  0.
        -12    1    1    2    0    0 -0.46203852707E+01 -0.29833456204E+02  0.31180817187E+02  0.43400765311E+02  0.00000000000E+00 0.  1.
         11    1    3    3    0    0  0.48494134611E+01  0.18934179046E+02 -0.22145534760E+02  0.29537174156E+02  0.51100000000E-03 0. -1.
        -11    1    3    3    0    0  0.27010332634E+01  0.42859982615E+01 -0.97438151992E+01  0.10982135343E+02  0.51100000000E-03 0.  1.
        -12    1    3    3    0    0 -0.29300614539E+01  0.66132788962E+01  0.70853277240E+00  0.72679251903E+01  0.00000000000E+00 0.  1.
</event>
<event>
 7    1  0.5541017E-010  0.4778726E+02  0.7816164E-02  0.1312668E+00
        -11   -1    0    0    0    0  0.00000000000E+00  0.00000000000E+00  0.45593999997E+02  0.45594000000E+02  0.51100000000E-03 0.  1.
         11   -1    0    0    0    0 -0.00000000000E+00 -0.00000000000E+00 -0.45593999997E+02  0.45594000000E+02  0.51100000000E-03 0. -1.
    9900012    2    1    2    0    0 -0.13756952296E+01  0.96821256342E+01 -0.42284606450E+02  0.47787262255E+02  0.19999959925E+02 0.  0.
        -12    1    1    2    0    0  0.13756952296E+01 -0.96821256342E+01  0.42284606450E+02  0.43400737745E+02  0.00000000000E+00 0.  1.
         11    1    3    3    0    0  0.33698328298E+01  0.72122176467E+01 -0.11257270360E+02  0.13787602870E+02  0.51100000000E-03 0. -1.
        -11    1    3    3    0    0  0.34799040436E+01  0.17214739552E+01 -0.19107372085E+02  0.19497817134E+02  0.51100000000E-03 0.  1.
        -12    1    3    3    0    0 -0.82254321029E+01  0.74843403232E+00 -0.11919964006E+02  0.14501842251E+02  0.00000000000E+00 0.  1.
</event>
<event>
 7    1  0.5541017E-010  0.4778727E+02  0.7816164E-02  0.1312668E+00
        -11   -1    0    0    0    0  0.00000000000E+00  0.00000000000E+00  0.45593999997E+02  0.45594000000E+02  0.51100000000E-03 0.  1.
         11   -1    0    0    0    0 -0.00000000000E+00 -0.00000000000E+00 -0.45593999997E+02  0.45594000000E+02  0.51100000000E-03 0. -1.
    9900012    2    1    2    0    0 -0.34107299540E+02  0.23797654892E+02  0.12409140165E+02  0.47787273971E+02  0.20000013342E+02 0.  0.
        -12    1    1    2    0    0  0.34107299540E+02 -0.23797654892E+02 -0.12409140165E+02  0.43400726029E+02  0.00000000000E+00 0.  1.
         11    1    3    3    0    0 -0.17776682716E+02  0.10632157470E+02  0.11565154369E+02  0.23723532972E+02  0.51100000000E-03 0. -1.
        -11    1    3    3    0    0 -0.35093294843E+01  0.32331337687E+00  0.43322981948E+01  0.55846873573E+01  0.51100000000E-03 0.  1.
         12    1    3    3    0    0 -0.12821287340E+02  0.12842184045E+02 -0.34883123989E+01  0.18479053641E+02  0.00000000000E+00 0. -1.
</event>
<event>
 7    1  0.5541017E-010  0.4778729E+02  0.7816164E-02  0.1312668E+00
        -11   -1    0    0    0    0  0.00000000000E+00  0.00000000000E+00  0.45593999997E+02  0.45594000000E+02  0.51100000000E-03 0. -1.
         11   -1    0    0    0    0 -0.00000000000E+00 -0.00000000000E+00 -0.45593999997E+02  0.45594000000E+02  0.51100000000E-03 0.  1.
    9900012    2    1    2    0    0 -0.50104704093E+01  0.22417792267E+02  0.36823349309E+02  0.47787294036E+02  0.20000104825E+02 0.  0.
        -12    1    1    2    0    0  0.50104704093E+01 -0.22417792267E+02 -0.36823349309E+02  0.43400705964E+02  0.00000000000E+00 0.  1.
         11    1    3    3    0    0 -0.20491679557E+01 -0.22818050791E+01  0.31365396906E+00  0.30828724922E+01  0.51100000000E-03 0. -1.
        -11    1    3    3    0    0 -0.29498864942E+01  0.92555981608E+01  0.94784668750E+01  0.13572371282E+02  0.51100000000E-03 0.  1.
         12    1    3    3    0    0 -0.11415959386E-01  0.15443999185E+02  0.27031228465E+02  0.31132050262E+02  0.00000000000E+00 0. -1.
</event>
<event>
 7    1  0.5541017E-010  0.4778727E+02  0.7816164E-02  0.1312668E+00
        -11   -1    0    0    0    0  0.00000000000E+00  0.00000000000E+00  0.45593999997E+02  0.45594000000E+02  0.51100000000E-03 0. -1.
         11   -1    0    0    0    0 -0.00000000000E+00 -0.00000000000E+00 -0.45593999997E+02  0.45594000000E+02  0.51100000000E-03 0.  1.
    9900012    2    1    2    0    0  0.33959064255E+02 -0.31775297497E+01  0.26838568576E+02  0.47787268398E+02  0.19999987936E+02 0.  0.
        -12    1    1    2    0    0 -0.33959064255E+02  0.31775297497E+01 -0.26838568576E+02  0.43400731602E+02  0.00000000000E+00 0.  1.
         11    1    3    3    0    0  0.12867508313E+02  0.80056298259E+00  0.63416521200E+01  0.14367679811E+02  0.51100000000E-03 0.  1.
        -11    1    3    3    0    0  0.32812394898E+01  0.52631261167E+01  0.34899619236E+01  0.71166609867E+01  0.51100000000E-03 0. -1.
         12    1    3    3    0    0  0.17810316452E+02 -0.92412188490E+01  0.17006954532E+02  0.26302927601E+02  0.00000000000E+00 0. -1.
</event>
<event>
 7    1  0.5541017E-010  0.4778727E+02  0.7816164E-02  0.1312668E+00
        -11   -1    0    0    0    0  0.00000000000E+00  0.00000000000E+00  0.45593999997E+02  0.45594000000E+02  0.51100000000E-03 0.  1.
         11   -1    0    0    0    0 -0.00000000000E+00 -0.00000000000E+00 -0.45593999997E+02  0.45594000000E+02  0.51100000000E-03 0. -1.
    9900012    2    1    2    0    0  0.31783177841E+01  0.38191954260E+02 -0.20369000226E+02  0.47787271384E+02  0.20000001550E+02 0.  0.
        -12    1    1    2    0    0 -0.31783177841E+01 -0.38191954260E+02  0.20369000226E+02  0.43400728616E+02  0.00000000000E+00 0.  1.
         11    1    3    3    0    0  0.60459003110E+01  0.80672792412E+01 -0.92401181719E+01  0.13675294842E+02  0.51100000000E-03 0. -1.
        -11    1    3    3    0    0  0.30854275022E+01  0.11666069223E+02 -0.69134463377E+00  0.12086976117E+02  0.51100000000E-03 0.  1.
        -12    1    3    3    0    0 -0.59530100290E+01  0.18458605796E+02 -0.10437537420E+02  0.22025000425E+02  0.00000000000E+00 0.  1.
</event>
<event>
 7    1  0.5541017E-010  0.4778728E+02  0.7816164E-02  0.1312668E+00
        -11   -1    0    0    0    0  0.00000000000E+00  0.00000000000E+00  0.45593999997E+02  0.45594000000E+02  0.51100000000E-03 0.  1.
         11   -1    0    0    0    0 -0.00000000000E+00 -0.00000000000E+00 -0.45593999997E+02  0.45594000000E+02  0.51100000000E-03 0. -1.
    9900012    2    1    2    0    0 -0.21599735682E+02 -0.11393400564E+02 -0.35878467550E+02  0.47787278904E+02  0.20000035833E+02 0.  0.
        -12    1    1    2    0    0  0.21599735682E+02  0.11393400564E+02  0.35878467550E+02  0.43400721096E+02  0.00000000000E+00 0.  1.
         11    1    3    3    0    0 -0.53277840856E+01 -0.16468307277E+01 -0.10547456320E+02  0.11930891408E+02  0.51100000000E-03 0. -1.
        -11    1    3    3    0    0 -0.14758001442E+02 -0.52903390953E+01 -0.74338342642E+01  0.17350740227E+02  0.51100000000E-03 0.  1.
         12    1    3    3    0    0 -0.15139501548E+01 -0.44562307409E+01 -0.17897176966E+02  0.18505647269E+02  0.00000000000E+00 0. -1.
</event>
<event>
 7    1  0.5541017E-010  0.4778727E+02  0.7816164E-02  0.1312668E+00
        -11   -1    0    0    0    0  0.00000000000E+00  0.00000000000E+00  0.45593999997E+02  0.45594000000E+02  0.51100000000E-03 0. -1.
         11   -1    0    0    0    0 -0.00000000000E+00 -0.00000000000E+00 -0.45593999997E+02  0.45594000000E+02  0.51100000000E-03 0.  1.
    9900012    2    1    2    0    0  0.96327454831E+01  0.34475661931E+02  0.24541032929E+02  0.47787270186E+02  0.19999996088E+02 0.  0.
        -12    1    1    2    0    0 -0.96327454831E+01 -0.34475661931E+02 -0.24541032929E+02  0.43400729814E+02  0.00000000000E+00 0.  1.
         11    1    3    3    0    0  0.83766408182E+01  0.21647784644E+02  0.12295005278E+02  0.26267124822E+02  0.51100000000E-03 0. -1.
        -11    1    3    3    0    0  0.28074245207E+01  0.36142465699E+01 -0.15726825413E+01  0.48391880873E+01  0.51100000000E-03 0.  1.
         12    1    3    3    0    0 -0.15513198559E+01  0.92136307175E+01  0.13818710192E+02  0.16680957277E+02  0.00000000000E+00 0. -1.
</event>
<event>
 7    1  0.5541017E-010  0.4778727E+02  0.7816164E-02  0.1312668E+00
        -11   -1    0    0    0    0  0.00000000000E+00  0.00000000000E+00  0.45593999997E+02  0.45594000000E+02  0.51100000000E-03 0.  1.
         11   -1    0    0    0    0 -0.00000000000E+00 -0.00000000000E+00 -0.45593999997E+02  0.45594000000E+02  0.51100000000E-03 0. -1.
    9900012    2    1    2    0    0 -0.39394652258E+02  0.10809957088E+01 -0.18180102939E+02  0.47787270500E+02  0.19999997517E+02 0.  0.
        -12    1    1    2    0    0  0.39394652258E+02 -0.10809957088E+01  0.18180102939E+02  0.43400729500E+02  0.00000000000E+00 0.  1.
         11    1    3    3    0    0 -0.22897295468E+02  0.18776361033E+01 -0.42913887359E+01  0.23371514171E+02  0.51100000000E-03 0. -1.
        -11    1    3    3    0    0 -0.32343606306E+01  0.40214563395E+01 -0.90338018142E+00  0.52392075539E+01  0.51100000000E-03 0.  1.
         12    1    3    3    0    0 -0.13262996159E+02 -0.48180967340E+01 -0.12985334022E+02  0.19176548775E+02  0.00000000000E+00 0. -1.
</event>
<event>
 7    1  0.5541017E-010  0.4778727E+02  0.7816164E-02  0.1312668E+00
        -11   -1    0    0    0    0  0.00000000000E+00  0.00000000000E+00  0.45593999997E+02  0.45594000000E+02  0.51100000000E-03 0.  1.
         11   -1    0    0    0    0 -0.00000000000E+00 -0.00000000000E+00 -0.45593999997E+02  0.45594000000E+02  0.51100000000E-03 0. -1.
    9900012    2    1    2    0    0 -0.15849282276E+01 -0.15322940927E+00 -0.43371508932E+02  0.47787271161E+02  0.20000000532E+02 0.  0.
        -12    1    1    2    0    0  0.15849282276E+01  0.15322940927E+00  0.43371508932E+02  0.43400728839E+02  0.00000000000E+00 0.  1.
         11    1    3    3    0    0 -0.50173783191E+01 -0.27667695767E+01 -0.18736781217E+02  0.19593265928E+02  0.51100000000E-03 0. -1.
        -11    1    3    3    0    0 -0.20447138901E+01  0.13847986548E+01 -0.21737110364E+02  0.21876939673E+02  0.51100000000E-03 0.  1.
        -12    1    3    3    0    0  0.54771639816E+01  0.12287415126E+01 -0.28976173509E+01  0.63170655607E+01  0.00000000000E+00 0.  1.
</event>
<event>
 7    1  0.5541017E-010  0.4778727E+02  0.7816164E-02  0.1312668E+00
        -11   -1    0    0    0    0  0.00000000000E+00  0.00000000000E+00  0.45593999997E+02  0.45594000000E+02  0.51100000000E-03 0. -1.
         11   -1    0    0    0    0 -0.00000000000E+00 -0.00000000000E+00 -0.45593999997E+02  0.45594000000E+02  0.51100000000E-03 0.  1.
    9900012    2    1    2    0    0 -0.39194538362E+02  0.12108687239E+02  0.14170075129E+02  0.47787272204E+02  0.20000005285E+02 0.  0.
        -12    1    1    2    0    0  0.39194538362E+02 -0.12108687239E+02 -0.14170075129E+02  0.43400727796E+02  0.00000000000E+00 0.  1.
         11    1    3    3    0    0 -0.12615466334E+02  0.11954633718E+01 -0.19074107636E+00  0.12673417294E+02  0.51100000000E-03 0. -1.
        -11    1    3    3    0    0 -0.17554396153E+02  0.43723557352E+01  0.15857478958E+01  0.18160091289E+02  0.51100000000E-03 0.  1.
        -12    1    3    3    0    0 -0.90246758751E+01  0.65408681321E+01  0.12775068310E+02  0.16953763620E+02  0.00000000000E+00 0.  1.
</event>
<event>
 7    1  0.5541017E-010  0.4778727E+02  0.7816164E-02  0.1312668E+00
        -11   -1    0    0    0    0  0.00000000000E+00  0.00000000000E+00  0.45593999997E+02  0.45594000000E+02  0.51100000000E-03 0.  1.
         11   -1    0    0    0    0 -0.00000000000E+00 -0.00000000000E+00 -0.45593999997E+02  0.45594000000E+02  0.51100000000E-03 0. -1.
    9900012    2    1    2    0    0 -0.12746821534E+02  0.40324308257E+02 -0.97515047274E+01  0.47787272586E+02  0.20000007027E+02 0.  0.
        -12    1    1    2    0    0  0.12746821534E+02 -0.40324308257E+02  0.97515047274E+01  0.43400727414E+02  0.00000000000E+00 0.  1.
         11    1    3    3    0    0 -0.43811577698E+01  0.94000284443E+01 -0.89441966836E+01  0.13695025839E+02  0.51100000000E-03 0. -1.
        -11    1    3    3    0    0  0.25394262937E+01  0.22130907340E+01  0.24938394532E-01  0.33685425161E+01  0.51100000000E-03 0.  1.
        -12    1    3    3    0    0 -0.10905090058E+02  0.28711189079E+02 -0.83224643833E+00  0.30723704230E+02  0.00000000000E+00 0.  1.
</event>
<event>
 7    1  0.5541017E-010  0.4778727E+02  0.7816164E-02  0.1312668E+00
        -11   -1    0    0    0    0  0.00000000000E+00  0.00000000000E+00  0.45593999997E+02  0.45594000000E+02  0.51100000000E-03 0.  1.
         11   -1    0    0    0    0 -0.00000000000E+00 -0.00000000000E+00 -0.45593999997E+02  0.45594000000E+02  0.51100000000E-03 0. -1.
    9900012    2    1    2    0    0  0.18753987528E+01  0.35632407221E+02 -0.24707035814E+02  0.47787272085E+02  0.20000004746E+02 0.  0.
        -12    1    1    2    0    0 -0.18753987528E+01 -0.35632407221E+02  0.24707035814E+02  0.43400727915E+02  0.00000000000E+00 0.  1.
         11    1    3    3    0    0 -0.16250181847E+01  0.77851563388E+01 -0.17190310009E+01  0.81366093162E+01  0.51100000000E-03 0. -1.
        -11    1    3    3    0    0  0.51625261067E+01  0.13530917795E+01 -0.16333304624E+01  0.55812455444E+01  0.51100000000E-03 0.  1.
         12    1    3    3    0    0 -0.16621091691E+01  0.26494159102E+02 -0.21354674350E+02  0.34069417225E+02  0.00000000000E+00 0. -1.
</event>
<event>
 7    1  0.5541017E-010  0.4778727E+02  0.7816164E-02  0.1312668E+00
        -11   -1    0    0    0    0  0.00000000000E+00  0.00000000000E+00  0.45593999997E+02  0.45594000000E+02  0.51100000000E-03 0.  1.
         11   -1    0    0    0    0 -0.00000000000E+00 -0.00000000000E+00 -0.45593999997E+02  0.45594000000E+02  0.51100000000E-03 0. -1.
    9900012    2    1    2    0    0 -0.82283444988E+00 -0.42661665843E+02 -0.79327666834E+01  0.47787267561E+02  0.19999984117E+02 0.  0.
        -12    1    1    2    0    0  0.82283444988E+00  0.42661665843E+02  0.79327666834E+01  0.43400732439E+02  0.00000000000E+00 0.  1.
         11    1    3    3    0    0  0.37515956736E+01 -0.93977886005E+01  0.72944091266E+00  0.10145195167E+02  0.51100000000E-03 0. -1.
        -11    1    3    3    0    0  0.24574548051E+01 -0.17917858822E+02 -0.10075245082E+02  0.20702640233E+02  0.51100000000E-03 0.  1.
        -12    1    3    3    0    0 -0.70318849285E+01 -0.15346018420E+02  0.14130374857E+01  0.16939432161E+02  0.00000000000E+00 0.  1.
</event>
<event>
 7    1  0.5541017E-010  0.4778727E+02  0.7816164E-02  0.1312668E+00
        -11   -1    0    0    0    0  0.00000000000E+00  0.00000000000E+00  0.45593999997E+02  0.45594000000E+02  0.51100000000E-03 0.  1.
         11   -1    0    0    0    0 -0.00000000000E+00 -0.00000000000E+00 -0.45593999997E+02  0.45594000000E+02  0.51100000000E-03 0. -1.
    9900012    2    1    2    0    0  0.29298247127E+02 -0.31923179293E+02  0.24792394794E+01  0.47787270868E+02  0.19999999193E+02 0.  0.
        -12    1    1    2    0    0 -0.29298247127E+02  0.31923179293E+02 -0.24792394794E+01  0.43400729132E+02  0.00000000000E+00 0.  1.
         11    1    3    3    0    0  0.64073710270E+01 -0.99036750745E+01 -0.53193484089E+01  0.12939576933E+02  0.51100000000E-03 0. -1.
        -11    1    3    3    0    0  0.92408410965E+00 -0.59117847675E+01 -0.13103700566E+01  0.61253735009E+01  0.51100000000E-03 0.  1.
         12    1    3    3    0    0  0.21966791990E+02 -0.16107719451E+02  0.91089579449E+01  0.28722320433E+02  0.00000000000E+00 0. -1.
</event>
<event>
 7    1  0.5541017E-010  0.4778728E+02  0.7816164E-02  0.1312668E+00
        -11   -1    0    0    0    0  0.00000000000E+00  0.00000000000E+00  0.45593999997E+02  0.45594000000E+02  0.51100000000E-03 0. -1.
         11   -1    0    0    0    0 -0.00000000000E+00 -0.00000000000E+00 -0.45593999997E+02  0.45594000000E+02  0.51100000000E-03 0.  1.
    9900012    2    1    2    0    0 -0.42935274670E+02 -0.50208433376E+00 -0.63192379550E+01  0.47787278025E+02  0.20000031826E+02 0.  0.
        -12    1    1    2    0    0  0.42935274670E+02  0.50208433376E+00  0.63192379550E+01  0.43400721975E+02  0.00000000000E+00 0.  1.
         11    1    3    3    0    0 -0.19965196571E+02  0.24826300953E+01  0.33226233813E+01  0.20391477453E+02  0.51100000000E-03 0.  1.
        -11    1    3    3    0    0 -0.11472293770E+02  0.22451277861E+01 -0.31494833193E+00  0.11694157338E+02  0.51100000000E-03 0. -1.
        -12    1    3    3    0    0 -0.11497784328E+02 -0.52298422152E+01 -0.93269130044E+01  0.15701643234E+02  0.00000000000E+00 0.  1.
</event>
<event>
 7    1  0.6042457E-010  0.4778727E+02  0.7816164E-02  0.1312668E+00
        -11   -1    0    0    0    0  0.00000000000E+00  0.00000000000E+00  0.45593999997E+02  0.45594000000E+02  0.51100000000E-03 0. -1.
         11   -1    0    0    0    0 -0.00000000000E+00 -0.00000000000E+00 -0.45593999997E+02  0.45594000000E+02  0.51100000000E-03 0.  1.
    9900012    2    1    2    0    0 -0.13405870360E+02  0.32156696536E+02  0.25881513065E+02  0.47787271772E+02  0.20000003317E+02 0.  0.
        -12    1    1    2    0    0  0.13405870360E+02 -0.32156696536E+02 -0.25881513065E+02  0.43400728228E+02  0.00000000000E+00 0.  1.
         11    1    3    3    0    0 -0.54238398184E+01  0.14976529910E+02  0.13993483295E+02  0.21202171151E+02  0.51100000000E-03 0. -1.
        -11    1    3    3    0    0 -0.10335538523E+02  0.17971149882E+02  0.85505833723E+01  0.22425388757E+02  0.51100000000E-03 0.  1.
        -12    1    3    3    0    0  0.23535079820E+01 -0.79098325623E+00  0.33374463971E+01  0.41597118634E+01  0.00000000000E+00 0.  1.
</event>
<event>
 7    1  0.5541017E-010  0.4778727E+02  0.7816164E-02  0.1312668E+00
        -11   -1    0    0    0    0  0.00000000000E+00  0.00000000000E+00  0.45593999997E+02  0.45594000000E+02  0.51100000000E-03 0.  1.
         11   -1    0    0    0    0 -0.00000000000E+00 -0.00000000000E+00 -0.45593999997E+02  0.45594000000E+02  0.51100000000E-03 0. -1.
    9900012    2    1    2    0    0  0.28900239988E+02 -0.22085914170E+01 -0.32303584931E+02  0.47787270204E+02  0.19999996168E+02 0.  0.
        -12    1    1    2    0    0 -0.28900239988E+02  0.22085914170E+01  0.32303584931E+02  0.43400729796E+02  0.00000000000E+00 0.  1.
         11    1    3    3    0    0  0.15288352094E+02 -0.23375836897E+01 -0.10573289236E+02  0.18734792574E+02  0.51100000000E-03 0. -1.
        -11    1    3    3    0    0  0.29055959216E+01  0.53232567673E+01 -0.12834301341E+02  0.14195028758E+02  0.51100000000E-03 0.  1.
         12    1    3    3    0    0  0.10706291972E+02 -0.51942644946E+01 -0.88959943546E+01  0.14857448872E+02  0.00000000000E+00 0. -1.
</event>
<event>
 7    1  0.5541017E-010  0.4778727E+02  0.7816164E-02  0.1312668E+00
        -11   -1    0    0    0    0  0.00000000000E+00  0.00000000000E+00  0.45593999997E+02  0.45594000000E+02  0.51100000000E-03 0. -1.
         11   -1    0    0    0    0 -0.00000000000E+00 -0.00000000000E+00 -0.45593999997E+02  0.45594000000E+02  0.51100000000E-03 0.  1.
    9900012    2    1    2    0    0  0.43150385099E+02 -0.25279322402E+00 -0.46479897666E+01  0.47787269044E+02  0.19999990881E+02 0.  0.
        -12    1    1    2    0    0 -0.43150385099E+02  0.25279322402E+00  0.46479897666E+01  0.43400730956E+02  0.00000000000E+00 0.  1.
         11    1    3    3    0    0  0.58509141840E+01 -0.10409381689E+01 -0.41954676132E+01  0.72745238892E+01  0.51100000000E-03 0.  1.
        -11    1    3    3    0    0  0.17355833568E+02  0.26851448884E+01 -0.77434234013E+01  0.19193633532E+02  0.51100000000E-03 0. -1.
         12    1    3    3    0    0  0.19943637347E+02 -0.18969999435E+01  0.72909012479E+01  0.21319111624E+02  0.00000000000E+00 0. -1.
</event>
<event>
 7    1  0.5541017E-010  0.4778727E+02  0.7816164E-02  0.1312668E+00
        -11   -1    0    0    0    0  0.00000000000E+00  0.00000000000E+00  0.45593999997E+02  0.45594000000E+02  0.51100000000E-03 0.  1.
         11   -1    0    0    0    0 -0.00000000000E+00 -0.00000000000E+00 -0.45593999997E+02  0.45594000000E+02  0.51100000000E-03 0. -1.
    9900012    2    1    2    0    0 -0.37701458130E+02  0.20998431801E+02 -0.46140150115E+01  0.47787271691E+02  0.20000002949E+02 0.  0.
        -12    1    1    2    0    0  0.37701458130E+02 -0.20998431801E+02  0.46140150115E+01  0.43400728309E+02  0.00000000000E+00 0.  1.
         11    1    3    3    0    0 -0.17317027602E+02  0.15562724143E+02 -0.14603627738E+01  0.23328319430E+02  0.51100000000E-03 0. -1.
        -11    1    3    3    0    0 -0.49682610356E+01  0.53348524091E+01 -0.51331142007E+01  0.89158919691E+01  0.51100000000E-03 0.  1.
        -12    1    3    3    0    0 -0.15416169492E+02  0.10085524904E+00  0.19794619630E+01  0.15543060292E+02  0.00000000000E+00 0.  1.
</event>
<event>
 7    1  0.5541017E-010  0.4778727E+02  0.7816164E-02  0.1312668E+00
        -11   -1    0    0    0    0  0.00000000000E+00  0.00000000000E+00  0.45593999997E+02  0.45594000000E+02  0.51100000000E-03 0.  1.
         11   -1    0    0    0    0 -0.00000000000E+00 -0.00000000000E+00 -0.45593999997E+02  0.45594000000E+02  0.51100000000E-03 0. -1.
    9900012    2    1    2    0    0  0.18493225379E+02  0.34394368583E+02 -0.18938095510E+02  0.47787269168E+02  0.19999991445E+02 0.  0.
        -12    1    1    2    0    0 -0.18493225379E+02 -0.34394368583E+02  0.18938095510E+02  0.43400730832E+02  0.00000000000E+00 0.  1.
         11    1    3    3    0    0  0.12361227625E+02  0.23265045037E+02 -0.18553463679E+02  0.32222558615E+02  0.51100000000E-03 0. -1.
        -11    1    3    3    0    0  0.44563853123E+01  0.32520539571E+01 -0.39217199008E+01  0.67686861526E+01  0.51100000000E-03 0.  1.
        -12    1    3    3    0    0  0.16756124421E+01  0.78772695892E+01  0.35370880691E+01  0.87960244000E+01  0.00000000000E+00 0.  1.
</event>
<event>
 7    1  0.5541017E-010  0.4778726E+02  0.7816164E-02  0.1312668E+00
        -11   -1    0    0    0    0  0.00000000000E+00  0.00000000000E+00  0.45593999997E+02  0.45594000000E+02  0.51100000000E-03 0.  1.
         11   -1    0    0    0    0 -0.00000000000E+00 -0.00000000000E+00 -0.45593999997E+02  0.45594000000E+02  0.51100000000E-03 0. -1.
    9900012    2    1    2    0    0 -0.40676651212E+02  0.12464322872E+01 -0.15082456131E+02  0.47787262332E+02  0.19999960274E+02 0.  0.
        -12    1    1    2    0    0  0.40676651212E+02 -0.12464322872E+01  0.15082456131E+02  0.43400737668E+02  0.00000000000E+00 0.  1.
         11    1    3    3    0    0 -0.26686790646E+01 -0.16021311816E+01 -0.39852291412E+01  0.50567503243E+01  0.51100000000E-03 0. -1.
        -11    1    3    3    0    0 -0.11603259666E+02 -0.44393359433E+01 -0.88361134840E+01  0.15245335033E+02  0.51100000000E-03 0.  1.
        -12    1    3    3    0    0 -0.26404712481E+02  0.72878994122E+01 -0.22611135055E+01  0.27485176975E+02  0.00000000000E+00 0.  1.
</event>
<event>
 7    1  0.5541017E-010  0.4778727E+02  0.7816164E-02  0.1312668E+00
        -11   -1    0    0    0    0  0.00000000000E+00  0.00000000000E+00  0.45593999997E+02  0.45594000000E+02  0.51100000000E-03 0.  1.
         11   -1    0    0    0    0 -0.00000000000E+00 -0.00000000000E+00 -0.45593999997E+02  0.45594000000E+02  0.51100000000E-03 0. -1.
    9900012    2    1    2    0    0  0.41042344912E+02  0.13109675090E+02  0.52235498336E+01  0.47787272705E+02  0.20000007572E+02 0.  0.
        -12    1    1    2    0    0 -0.41042344912E+02 -0.13109675090E+02 -0.52235498336E+01  0.43400727295E+02  0.00000000000E+00 0.  1.
         11    1    3    3    0    0  0.73698841220E+01  0.27231543625E+01 -0.62277099646E+00  0.78815357406E+01  0.51100000000E-03 0. -1.
        -11    1    3    3    0    0  0.57721724358E+01  0.70275476402E+01 -0.42592498241E+01  0.10042191483E+02  0.51100000000E-03 0.  1.
         12    1    3    3    0    0  0.27900288354E+02  0.33589730871E+01  0.10105570654E+02  0.29863545481E+02  0.00000000000E+00 0. -1.
</event>
<event>
 7    1  0.5541017E-010  0.4778727E+02  0.7816164E-02  0.1312668E+00
        -11   -1    0    0    0    0  0.00000000000E+00  0.00000000000E+00  0.45593999997E+02  0.45594000000E+02  0.51100000000E-03 0.  1.
         11   -1    0    0    0    0 -0.00000000000E+00 -0.00000000000E+00 -0.45593999997E+02  0.45594000000E+02  0.51100000000E-03 0. -1.
    9900012    2    1    2    0    0  0.19312826071E+02 -0.37970738433E+02 -0.82982591574E+01  0.47787270363E+02  0.19999996894E+02 0.  0.
        -12    1    1    2    0    0 -0.19312826071E+02  0.37970738433E+02  0.82982591574E+01  0.43400729637E+02  0.00000000000E+00 0.  1.
         11    1    3    3    0    0  0.93432173311E+01 -0.14938528015E+02 -0.85130712350E+01  0.19568538818E+02  0.51100000000E-03 0. -1.
        -11    1    3    3    0    0 -0.20096935847E+01 -0.35699339771E+01 -0.30847266445E+01  0.51282390386E+01  0.51100000000E-03 0.  1.
         12    1    3    3    0    0  0.11979302325E+02 -0.19462276440E+02  0.32995387221E+01  0.23090492507E+02  0.00000000000E+00 0. -1.
</event>
<event>
 7    1  0.5541017E-010  0.4778727E+02  0.7816164E-02  0.1312668E+00
        -11   -1    0    0    0    0  0.00000000000E+00  0.00000000000E+00  0.45593999997E+02  0.45594000000E+02  0.51100000000E-03 0.  1.
         11   -1    0    0    0    0 -0.00000000000E+00 -0.00000000000E+00 -0.45593999997E+02  0.45594000000E+02  0.51100000000E-03 0. -1.
    9900012    2    1    2    0    0  0.78870062779E+01  0.39021435272E+02 -0.17284275287E+02  0.47787269005E+02  0.19999990701E+02 0.  0.
        -12    1    1    2    0    0 -0.78870062779E+01 -0.39021435272E+02  0.17284275287E+02  0.43400730995E+02  0.00000000000E+00 0.  1.
         11    1    3    3    0    0  0.60769536150E+01  0.18822877551E+02 -0.18576604003E+02  0.27135222517E+02  0.51100000000E-03 0. -1.
        -11    1    3    3    0    0  0.16349910814E+01  0.32014329366E+01 -0.10840333492E+00  0.35964037910E+01  0.51100000000E-03 0.  1.
        -12    1    3    3    0    0  0.17506158148E+00  0.16997124785E+02  0.14007320513E+01  0.17055642697E+02  0.00000000000E+00 0.  1.
</event>
<event>
 7    1  0.5541017E-010  0.4778727E+02  0.7816164E-02  0.1312668E+00
        -11   -1    0    0    0    0  0.00000000000E+00  0.00000000000E+00  0.45593999997E+02  0.45594000000E+02  0.51100000000E-03 0.  1.
         11   -1    0    0    0    0 -0.00000000000E+00 -0.00000000000E+00 -0.45593999997E+02  0.45594000000E+02  0.51100000000E-03 0. -1.
    9900012    2    1    2    0    0 -0.19407810619E+02 -0.31086533419E+02 -0.23250536826E+02  0.47787272636E+02  0.20000007257E+02 0.  0.
        -12    1    1    2    0    0  0.19407810619E+02  0.31086533419E+02  0.23250536826E+02  0.43400727364E+02  0.00000000000E+00 0.  1.
         11    1    3    3    0    0 -0.15354776691E+01 -0.13114856675E+02 -0.91802474397E+01  0.16082104980E+02  0.51100000000E-03 0. -1.
        -11    1    3    3    0    0 -0.69896326249E+01 -0.63447458864E+01 -0.12554871495E+02  0.15707818534E+02  0.51100000000E-03 0.  1.
         12    1    3    3    0    0 -0.10882700325E+02 -0.11626930857E+02 -0.15154178914E+01  0.15997349122E+02  0.00000000000E+00 0. -1.
</event>
<event>
 7    1  0.5541017E-010  0.4778727E+02  0.7816164E-02  0.1312668E+00
        -11   -1    0    0    0    0  0.00000000000E+00  0.00000000000E+00  0.45593999997E+02  0.45594000000E+02  0.51100000000E-03 0.  1.
         11   -1    0    0    0    0 -0.00000000000E+00 -0.00000000000E+00 -0.45593999997E+02  0.45594000000E+02  0.51100000000E-03 0. -1.
    9900012    2    1    2    0    0 -0.33915564922E+02  0.27079238193E+02  0.26995522411E+00  0.47787267738E+02  0.19999984924E+02 0.  0.
        -12    1    1    2    0    0  0.33915564922E+02 -0.27079238193E+02 -0.26995522411E+00  0.43400732262E+02  0.00000000000E+00 0.  1.
         11    1    3    3    0    0 -0.16985633675E+02  0.12859835322E+02 -0.91584545717E+01  0.23189747869E+02  0.51100000000E-03 0. -1.
        -11    1    3    3    0    0 -0.59214060340E+00 -0.44995533665E+00  0.49107115518E+00  0.89120224402E+00  0.51100000000E-03 0.  1.
         12    1    3    3    0    0 -0.16337790644E+02  0.14669358208E+02  0.89373386406E+01  0.23706317625E+02  0.00000000000E+00 0. -1.
</event>
<event>
 7    1  0.5541017E-010  0.4778727E+02  0.7816164E-02  0.1312668E+00
        -11   -1    0    0    0    0  0.00000000000E+00  0.00000000000E+00  0.45593999997E+02  0.45594000000E+02  0.51100000000E-03 0. -1.
         11   -1    0    0    0    0 -0.00000000000E+00 -0.00000000000E+00 -0.45593999997E+02  0.45594000000E+02  0.51100000000E-03 0.  1.
    9900012    2    1    2    0    0  0.15234147807E+02  0.36647859695E+02  0.17563544098E+02  0.47787274650E+02  0.20000016438E+02 0.  0.
        -12    1    1    2    0    0 -0.15234147807E+02 -0.36647859695E+02 -0.17563544098E+02  0.43400725350E+02  0.00000000000E+00 0.  1.
         11    1    3    3    0    0  0.20955619744E+01  0.20959611850E-01 -0.16463099222E+01  0.26649870385E+01  0.51100000000E-03 0. -1.
        -11    1    3    3    0    0  0.85233572239E+01  0.79447624919E+01  0.39224952355E+01  0.12294423067E+02  0.51100000000E-03 0.  1.
         12    1    3    3    0    0  0.46152286084E+01  0.28682137592E+02  0.15287358784E+02  0.32827864544E+02  0.00000000000E+00 0. -1.
</event>
<event>
 7    1  0.5541017E-010  0.4778727E+02  0.7816164E-02  0.1312668E+00
        -11   -1    0    0    0    0  0.00000000000E+00  0.00000000000E+00  0.45593999997E+02  0.45594000000E+02  0.51100000000E-03 0.  1.
         11   -1    0    0    0    0 -0.00000000000E+00 -0.00000000000E+00 -0.45593999997E+02  0.45594000000E+02  0.51100000000E-03 0. -1.
    9900012    2    1    2    0    0  0.72882598120E-01 -0.41356922168E+02  0.13161422264E+02  0.47787270063E+02  0.19999995523E+02 0.  0.
        -12    1    1    2    0    0 -0.72882598120E-01  0.41356922168E+02 -0.13161422264E+02  0.43400729937E+02  0.00000000000E+00 0.  1.
         11    1    3    3    0    0 -0.86937147303E-02 -0.95896357377E+01  0.60943042263E+01  0.11362294373E+02  0.51100000000E-03 0. -1.
        -11    1    3    3    0    0  0.96115532475E+00  0.73438859762E+00  0.35157581265E+01  0.37180238885E+01  0.51100000000E-03 0.  1.
         12    1    3    3    0    0 -0.87957901190E+00 -0.32501675028E+02  0.35513599108E+01  0.32706951801E+02  0.00000000000E+00 0. -1.
</event>
<event>
 7    1  0.5541017E-010  0.4778727E+02  0.7816164E-02  0.1312668E+00
        -11   -1    0    0    0    0  0.00000000000E+00  0.00000000000E+00  0.45593999997E+02  0.45594000000E+02  0.51100000000E-03 0.  1.
         11   -1    0    0    0    0 -0.00000000000E+00 -0.00000000000E+00 -0.45593999997E+02  0.45594000000E+02  0.51100000000E-03 0. -1.
    9900012    2    1    2    0    0  0.19499067090E+02 -0.38641410738E+02 -0.32017392901E+01  0.47787269871E+02  0.19999994651E+02 0.  0.
        -12    1    1    2    0    0 -0.19499067090E+02  0.38641410738E+02  0.32017392901E+01  0.43400730129E+02  0.00000000000E+00 0.  1.
         11    1    3    3    0    0  0.23962189643E+01 -0.40629993756E+01 -0.12777236233E+01  0.48869629802E+01  0.51100000000E-03 0. -1.
        -11    1    3    3    0    0  0.82835955911E+01 -0.32545187843E+02  0.28492874954E+00  0.33584049671E+02  0.51100000000E-03 0.  1.
        -12    1    3    3    0    0  0.88192525345E+01 -0.20332235193E+01 -0.22089444163E+01  0.93162572196E+01  0.00000000000E+00 0.  1.
</event>
<event>
 7    1  0.5541017E-010  0.4778727E+02  0.7816164E-02  0.1312668E+00
        -11   -1    0    0    0    0  0.00000000000E+00  0.00000000000E+00  0.45593999997E+02  0.45594000000E+02  0.51100000000E-03 0.  1.
         11   -1    0    0    0    0 -0.00000000000E+00 -0.00000000000E+00 -0.45593999997E+02  0.45594000000E+02  0.51100000000E-03 0. -1.
    9900012    2    1    2    0    0  0.24642163032E+02 -0.12410594882E+02 -0.33501700590E+02  0.47787274123E+02  0.20000014037E+02 0.  0.
        -12    1    1    2    0    0 -0.24642163032E+02  0.12410594882E+02  0.33501700590E+02  0.43400725877E+02  0.00000000000E+00 0.  1.
         11    1    3    3    0    0  0.72510770123E-01  0.25938454521E+01 -0.94050911395E+01  0.97564866445E+01  0.51100000000E-03 0. -1.
        -11    1    3    3    0    0  0.31922802040E+01 -0.44237966094E+00 -0.10571059309E+01  0.33917290392E+01  0.51100000000E-03 0.  1.
         12    1    3    3    0    0  0.21377372058E+02 -0.14562060673E+02 -0.23039503519E+02  0.34639058439E+02  0.00000000000E+00 0. -1.
</event>
<event>
 7    1  0.5541017E-010  0.4778727E+02  0.7816164E-02  0.1312668E+00
        -11   -1    0    0    0    0  0.00000000000E+00  0.00000000000E+00  0.45593999997E+02  0.45594000000E+02  0.51100000000E-03 0.  1.
         11   -1    0    0    0    0 -0.00000000000E+00 -0.00000000000E+00 -0.45593999997E+02  0.45594000000E+02  0.51100000000E-03 0. -1.
    9900012    2    1    2    0    0  0.22920654374E+02 -0.36666118515E+02  0.37233175260E+01  0.47787265706E+02  0.19999975658E+02 0.  0.
        -12    1    1    2    0    0 -0.22920654374E+02  0.36666118515E+02 -0.37233175260E+01  0.43400734294E+02  0.00000000000E+00 0.  1.
         11    1    3    3    0    0  0.32117041798E+00  0.13788554815E+00 -0.13686752034E+01  0.14125986463E+01  0.51100000000E-03 0.  1.
        -11    1    3    3    0    0  0.34152086104E+01 -0.26020909592E+01 -0.42725404322E+01  0.60571552084E+01  0.51100000000E-03 0. -1.
         12    1    3    3    0    0  0.19184275345E+02 -0.34201913104E+02  0.93645331617E+01  0.40317511851E+02  0.00000000000E+00 0. -1.
</event>
<event>
 7    1  0.5541017E-010  0.4778727E+02  0.7816164E-02  0.1312668E+00
        -11   -1    0    0    0    0  0.00000000000E+00  0.00000000000E+00  0.45593999997E+02  0.45594000000E+02  0.51100000000E-03 0.  1.
         11   -1    0    0    0    0 -0.00000000000E+00 -0.00000000000E+00 -0.45593999997E+02  0.45594000000E+02  0.51100000000E-03 0. -1.
    9900012    2    1    2    0    0  0.98822786735E+01  0.40715423558E+02 -0.11323336572E+02  0.47787273066E+02  0.20000009217E+02 0.  0.
        -12    1    1    2    0    0 -0.98822786735E+01 -0.40715423558E+02  0.11323336572E+02  0.43400726934E+02  0.00000000000E+00 0.  1.
         11    1    3    3    0    0 -0.33659084488E+01  0.36881951773E+01 -0.22220958196E+01  0.54653301314E+01  0.51100000000E-03 0. -1.
        -11    1    3    3    0    0  0.21007091008E+01 -0.20737697301E-01  0.10140257106E+01  0.23327359862E+01  0.51100000000E-03 0.  1.
         12    1    3    3    0    0  0.11147478022E+02  0.37047966078E+02 -0.10115266463E+02  0.39989206948E+02  0.00000000000E+00 0. -1.
</event>
<event>
 7    1  0.5541017E-010  0.4778727E+02  0.7816164E-02  0.1312668E+00
        -11   -1    0    0    0    0  0.00000000000E+00  0.00000000000E+00  0.45593999997E+02  0.45594000000E+02  0.51100000000E-03 0.  1.
         11   -1    0    0    0    0 -0.00000000000E+00 -0.00000000000E+00 -0.45593999997E+02  0.45594000000E+02  0.51100000000E-03 0. -1.
    9900012    2    1    2    0    0  0.37418952978E+02 -0.13798336944E+02 -0.17118739695E+02  0.47787269670E+02  0.19999993735E+02 0.  0.
        -12    1    1    2    0    0 -0.37418952978E+02  0.13798336944E+02  0.17118739695E+02  0.43400730330E+02  0.00000000000E+00 0.  1.
         11    1    3    3    0    0  0.30218874151E+02 -0.10694335354E+02 -0.11527767882E+02  0.34065210937E+02  0.51100000000E-03 0. -1.
        -11    1    3    3    0    0  0.61305998257E+01 -0.60500980876E+01 -0.60894883597E+01  0.10548450589E+02  0.51100000000E-03 0.  1.
        -12    1    3    3    0    0  0.10694790011E+01  0.29460964968E+01  0.49851654616E+00  0.31736081436E+01  0.00000000000E+00 0.  1.
</event>
<event>
 7    1  0.5541017E-010  0.4778727E+02  0.7816164E-02  0.1312668E+00
        -11   -1    0    0    0    0  0.00000000000E+00  0.00000000000E+00  0.45593999997E+02  0.45594000000E+02  0.51100000000E-03 0. -1.
         11   -1    0    0    0    0 -0.00000000000E+00 -0.00000000000E+00 -0.45593999997E+02  0.45594000000E+02  0.51100000000E-03 0.  1.
    9900012    2    1    2    0    0 -0.14587936489E+02 -0.33302618405E+02  0.23701288316E+02  0.47787270150E+02  0.19999995924E+02 0.  0.
        -12    1    1    2    0    0  0.14587936489E+02  0.33302618405E+02 -0.23701288316E+02  0.43400729850E+02  0.00000000000E+00 0.  1.
         11    1    3    3    0    0 -0.64876818849E+01 -0.23435598372E+02  0.16143046733E+02  0.29187587180E+02  0.51100000000E-03 0. -1.
        -11    1    3    3    0    0 -0.28277214553E+01 -0.65409033773E+01  0.96750756241E+01  0.12016093967E+02  0.51100000000E-03 0.  1.
         12    1    3    3    0    0 -0.52725331487E+01 -0.33261166557E+01 -0.21168340414E+01  0.65835890037E+01  0.00000000000E+00 0. -1.
</event>
<event>
 7    1  0.5541017E-010  0.4778727E+02  0.7816164E-02  0.1312668E+00
        -11   -1    0    0    0    0  0.00000000000E+00  0.00000000000E+00  0.45593999997E+02  0.45594000000E+02  0.51100000000E-03 0. -1.
         11   -1    0    0    0    0 -0.00000000000E+00 -0.00000000000E+00 -0.45593999997E+02  0.45594000000E+02  0.51100000000E-03 0.  1.
    9900012    2    1    2    0    0  0.39322790754E+02 -0.45065499692E+01 -0.17805408463E+02  0.47787269178E+02  0.19999991492E+02 0.  0.
        -12    1    1    2    0    0 -0.39322790754E+02  0.45065499692E+01  0.17805408463E+02  0.43400730822E+02  0.00000000000E+00 0.  1.
         11    1    3    3    0    0  0.20391493222E+02  0.22712086038E+01 -0.52793760502E+01  0.21185919760E+02  0.51100000000E-03 0.  1.
        -11    1    3    3    0    0  0.19552424273E+02 -0.36995667738E+01 -0.88838976732E+01  0.21792377736E+02  0.51100000000E-03 0. -1.
        -12    1    3    3    0    0 -0.62112674046E+00 -0.30781917992E+01 -0.36421347396E+01  0.48089716824E+01  0.00000000000E+00 0.  1.
</event>
<event>
 7    1  0.5541017E-010  0.4778728E+02  0.7816164E-02  0.1312668E+00
        -11   -1    0    0    0    0  0.00000000000E+00  0.00000000000E+00  0.45593999997E+02  0.45594000000E+02  0.51100000000E-03 0.  1.
         11   -1    0    0    0    0 -0.00000000000E+00 -0.00000000000E+00 -0.45593999997E+02  0.45594000000E+02  0.51100000000E-03 0. -1.
    9900012    2    1    2    0    0 -0.20426243065E+02 -0.14332312352E+02 -0.35510225288E+02  0.47787277851E+02  0.20000031032E+02 0.  0.
        -12    1    1    2    0    0  0.20426243065E+02  0.14332312352E+02  0.35510225288E+02  0.43400722149E+02  0.00000000000E+00 0.  1.
         11    1    3    3    0    0 -0.76292898026E+01 -0.29523912129E+01 -0.15032001056E+02  0.17113846230E+02  0.51100000000E-03 0. -1.
        -11    1    3    3    0    0  0.65440392209E+00  0.24087085506E-01  0.19992360159E+01  0.21037513135E+01  0.51100000000E-03 0.  1.
        -12    1    3    3    0    0 -0.13451357184E+02 -0.11404008225E+02 -0.22477460247E+02  0.28569680307E+02  0.00000000000E+00 0.  1.
</event>
<event>
 7    1  0.5541017E-010  0.4778726E+02  0.7816164E-02  0.1312668E+00
        -11   -1    0    0    0    0  0.00000000000E+00  0.00000000000E+00  0.45593999997E+02  0.45594000000E+02  0.51100000000E-03 0.  1.
         11   -1    0    0    0    0 -0.00000000000E+00 -0.00000000000E+00 -0.45593999997E+02  0.45594000000E+02  0.51100000000E-03 0. -1.
    9900012    2    1    2    0    0  0.20379550956E+02 -0.26906220628E+02 -0.27282834542E+02  0.47787264219E+02  0.19999968880E+02 0.  0.
        -12    1    1    2    0    0 -0.20379550956E+02  0.26906220628E+02  0.27282834542E+02  0.43400735781E+02  0.00000000000E+00 0.  1.
         11    1    3    3    0    0  0.97512159339E+01 -0.10346922975E+02 -0.26859770781E+01  0.14469260533E+02  0.51100000000E-03 0. -1.
        -11    1    3    3    0    0  0.32045543502E+01  0.57073569627E+00 -0.14048723230E+01  0.35452185156E+01  0.51100000000E-03 0.  1.
         12    1    3    3    0    0  0.74237806724E+01 -0.17130033350E+02 -0.23191985141E+02  0.29772785171E+02  0.00000000000E+00 0. -1.
</event>
<event>
 7    1  0.5541017E-010  0.4778727E+02  0.7816164E-02  0.1312668E+00
        -11   -1    0    0    0    0  0.00000000000E+00  0.00000000000E+00  0.45593999997E+02  0.45594000000E+02  0.51100000000E-03 0.  1.
         11   -1    0    0    0    0 -0.00000000000E+00 -0.00000000000E+00 -0.45593999997E+02  0.45594000000E+02  0.51100000000E-03 0. -1.
    9900012    2    1    2    0    0  0.21434768900E+02 -0.25354415454E+02 -0.27952238700E+02  0.47787270177E+02  0.19999996047E+02 0.  0.
        -12    1    1    2    0    0 -0.21434768900E+02  0.25354415454E+02  0.27952238700E+02  0.43400729823E+02  0.00000000000E+00 0.  1.
         11    1    3    3    0    0  0.98513236746E+01 -0.93053429617E+01 -0.10342383409E+02  0.17047078360E+02  0.51100000000E-03 0. -1.
        -11    1    3    3    0    0  0.25898107778E+01 -0.68181783988E+00 -0.11664932930E+02  0.11968402398E+02  0.51100000000E-03 0.  1.
        -12    1    3    3    0    0  0.89936344477E+01 -0.15367254652E+02 -0.59449223599E+01  0.18771789419E+02  0.00000000000E+00 0.  1.
</event>
<event>
 7    1  0.5541017E-010  0.4778727E+02  0.7816164E-02  0.1312668E+00
        -11   -1    0    0    0    0  0.00000000000E+00  0.00000000000E+00  0.45593999997E+02  0.45594000000E+02  0.51100000000E-03 0.  1.
         11   -1    0    0    0    0 -0.00000000000E+00 -0.00000000000E+00 -0.45593999997E+02  0.45594000000E+02  0.51100000000E-03 0. -1.
    9900012    2    1    2    0    0  0.23534475614E+02  0.33966764428E+02 -0.13266888574E+02  0.47787274654E+02  0.20000016458E+02 0.  0.
        -12    1    1    2    0    0 -0.23534475614E+02 -0.33966764428E+02  0.13266888574E+02  0.43400725346E+02  0.00000000000E+00 0.  1.
         11    1    3    3    0    0  0.82255284317E+01  0.14525026866E+02 -0.10283595688E+01  0.16724032023E+02  0.51100000000E-03 0. -1.
        -11    1    3    3    0    0  0.16375222241E+02  0.20998984034E+02 -0.11035559480E+02  0.28825141928E+02  0.51100000000E-03 0.  1.
        -12    1    3    3    0    0 -0.10662750586E+01 -0.15572464724E+01 -0.12029695253E+01  0.22381007026E+01  0.00000000000E+00 0.  1.
</event>
<event>
 7    1  0.5541017E-010  0.4778727E+02  0.7816164E-02  0.1312668E+00
        -11   -1    0    0    0    0  0.00000000000E+00  0.00000000000E+00  0.45593999997E+02  0.45594000000E+02  0.51100000000E-03 0. -1.
         11   -1    0    0    0    0 -0.00000000000E+00 -0.00000000000E+00 -0.45593999997E+02  0.45594000000E+02  0.51100000000E-03 0.  1.
    9900012    2    1    2    0    0  0.42033678311E+02  0.86954134301E+01  0.64173981442E+01  0.47787270443E+02  0.19999997260E+02 0.  0.
        -12    1    1    2    0    0 -0.42033678311E+02 -0.86954134301E+01 -0.64173981442E+01  0.43400729557E+02  0.00000000000E+00 0.  1.
         11    1    3    3    0    0  0.13107661703E+02  0.51347497544E+01  0.28143748107E+01  0.14356084292E+02  0.51100000000E-03 0. -1.
        -11    1    3    3    0    0  0.14263537840E+02 -0.16834794809E+00  0.95596170237E+01  0.17171579154E+02  0.51100000000E-03 0.  1.
         12    1    3    3    0    0  0.14662478768E+02  0.37290116238E+01 -0.59565936901E+01  0.16259606997E+02  0.00000000000E+00 0. -1.
</event>
<event>
 7    1  0.5541017E-010  0.4778727E+02  0.7816164E-02  0.1312668E+00
        -11   -1    0    0    0    0  0.00000000000E+00  0.00000000000E+00  0.45593999997E+02  0.45594000000E+02  0.51100000000E-03 0.  1.
         11   -1    0    0    0    0 -0.00000000000E+00 -0.00000000000E+00 -0.45593999997E+02  0.45594000000E+02  0.51100000000E-03 0. -1.
    9900012    2    1    2    0    0  0.22281892537E+02 -0.22828154699E+02 -0.29428146146E+02  0.47787272268E+02  0.20000005580E+02 0.  0.
        -12    1    1    2    0    0 -0.22281892537E+02  0.22828154699E+02  0.29428146146E+02  0.43400727732E+02  0.00000000000E+00 0.  1.
         11    1    3    3    0    0  0.51305073096E+01 -0.13100277807E+02 -0.13559432385E+02  0.19539641520E+02  0.51100000000E-03 0. -1.
        -11    1    3    3    0    0  0.58126380595E+01  0.17831040562E+01 -0.85954220091E+01  0.10528413986E+02  0.51100000000E-03 0.  1.
         12    1    3    3    0    0  0.11338747168E+02 -0.11510980949E+02 -0.72732917524E+01  0.17719216762E+02  0.00000000000E+00 0. -1.
</event>
<event>
 7    1  0.5541017E-010  0.4778727E+02  0.7816164E-02  0.1312668E+00
        -11   -1    0    0    0    0  0.00000000000E+00  0.00000000000E+00  0.45593999997E+02  0.45594000000E+02  0.51100000000E-03 0. -1.
         11   -1    0    0    0    0 -0.00000000000E+00 -0.00000000000E+00 -0.45593999997E+02  0.45594000000E+02  0.51100000000E-03 0.  1.
    9900012    2    1    2    0    0 -0.23010115926E+01 -0.15343165140E+02  0.40532899016E+02  0.47787271049E+02  0.20000000021E+02 0.  0.
        -12    1    1    2    0    0  0.23010115926E+01  0.15343165140E+02 -0.40532899016E+02  0.43400728951E+02  0.00000000000E+00 0.  1.
         11    1    3    3    0    0 -0.18841890928E+01 -0.39115245839E+01  0.40461755626E+01  0.59347898070E+01  0.51100000000E-03 0. -1.
        -11    1    3    3    0    0 -0.62699733409E+01 -0.68519307831E+01  0.75283505740E+01  0.11955650705E+02  0.51100000000E-03 0.  1.
         12    1    3    3    0    0  0.58531508411E+01 -0.45797097731E+01  0.28958372879E+02  0.29896830537E+02  0.00000000000E+00 0. -1.
</event>
<event>
 7    1  0.5541017E-010  0.4778727E+02  0.7816164E-02  0.1312668E+00
        -11   -1    0    0    0    0  0.00000000000E+00  0.00000000000E+00  0.45593999997E+02  0.45594000000E+02  0.51100000000E-03 0.  1.
         11   -1    0    0    0    0 -0.00000000000E+00 -0.00000000000E+00 -0.45593999997E+02  0.45594000000E+02  0.51100000000E-03 0. -1.
    9900012    2    1    2    0    0 -0.42884899417E+01  0.41246116380E+02 -0.12805865412E+02  0.47787269000E+02  0.19999990678E+02 0.  0.
        -12    1    1    2    0    0  0.42884899417E+01 -0.41246116380E+02  0.12805865412E+02  0.43400731000E+02  0.00000000000E+00 0.  1.
         11    1    3    3    0    0 -0.21512648969E+01  0.10418835863E+01 -0.22243967125E+01  0.32651804024E+01  0.51100000000E-03 0. -1.
        -11    1    3    3    0    0 -0.14635336055E+01 -0.68198910387E+00  0.11481960107E+01  0.19812607330E+01  0.51100000000E-03 0.  1.
         12    1    3    3    0    0 -0.67369143935E+00  0.40886221897E+02 -0.11729664711E+02  0.42540827865E+02  0.00000000000E+00 0. -1.
</event>
<event>
 7    1  0.5541017E-010  0.4778727E+02  0.7816164E-02  0.1312668E+00
        -11   -1    0    0    0    0  0.00000000000E+00  0.00000000000E+00  0.45593999997E+02  0.45594000000E+02  0.51100000000E-03 0. -1.
         11   -1    0    0    0    0 -0.00000000000E+00 -0.00000000000E+00 -0.45593999997E+02  0.45594000000E+02  0.51100000000E-03 0.  1.
    9900012    2    1    2    0    0 -0.26163235068E+02 -0.34424183024E+02  0.37528644955E+01  0.47787271457E+02  0.20000001883E+02 0.  0.
        -12    1    1    2    0    0  0.26163235068E+02  0.34424183024E+02 -0.37528644955E+01  0.43400728543E+02  0.00000000000E+00 0.  1.
         11    1    3    3    0    0 -0.17487868576E+02 -0.15430075762E+02  0.40846379322E+01  0.23676930812E+02  0.51100000000E-03 0. -1.
        -11    1    3    3    0    0 -0.11533522097E+02 -0.13679762859E+02 -0.15303174463E+01  0.17958282646E+02  0.51100000000E-03 0.  1.
        -12    1    3    3    0    0  0.28581556048E+01 -0.53143444025E+01  0.11985440097E+01  0.61520579998E+01  0.00000000000E+00 0.  1.
</event>
<event>
 7    1  0.5541017E-010  0.4778728E+02  0.7816164E-02  0.1312668E+00
        -11   -1    0    0    0    0  0.00000000000E+00  0.00000000000E+00  0.45593999997E+02  0.45594000000E+02  0.51100000000E-03 0. -1.
         11   -1    0    0    0    0 -0.00000000000E+00 -0.00000000000E+00 -0.45593999997E+02  0.45594000000E+02  0.51100000000E-03 0.  1.
    9900012    2    1    2    0    0  0.34086938785E+02  0.55007623769E+00  0.26858901173E+02  0.47787279363E+02  0.20000037926E+02 0.  0.
        -12    1    1    2    0    0 -0.34086938785E+02 -0.55007623769E+00 -0.26858901173E+02  0.43400720637E+02  0.00000000000E+00 0.  1.
         11    1    3    3    0    0  0.10474859512E+02 -0.63756336144E+00  0.11734619825E+02  0.15742632293E+02  0.51100000000E-03 0. -1.
        -11    1    3    3    0    0 -0.21064809400E+01 -0.44475798179E+00  0.26489198826E+01  0.34134803967E+01  0.51100000000E-03 0.  1.
         12    1    3    3    0    0  0.25718560214E+02  0.16323975809E+01  0.12475361465E+02  0.28631166672E+02  0.00000000000E+00 0. -1.
</event>
<event>
 7    1  0.5541017E-010  0.4778727E+02  0.7816164E-02  0.1312668E+00
        -11   -1    0    0    0    0  0.00000000000E+00  0.00000000000E+00  0.45593999997E+02  0.45594000000E+02  0.51100000000E-03 0. -1.
         11   -1    0    0    0    0 -0.00000000000E+00 -0.00000000000E+00 -0.45593999997E+02  0.45594000000E+02  0.51100000000E-03 0.  1.
    9900012    2    1    2    0    0 -0.20242091259E+02 -0.38351816399E+02  0.17376052202E+01  0.47787270150E+02  0.19999995920E+02 0.  0.
        -12    1    1    2    0    0  0.20242091259E+02  0.38351816399E+02 -0.17376052202E+01  0.43400729850E+02  0.00000000000E+00 0.  1.
         11    1    3    3    0    0 -0.48700669991E+00 -0.29962876621E+01  0.36103430937E+01  0.47169368021E+01  0.51100000000E-03 0.  1.
        -11    1    3    3    0    0 -0.10685826645E+02 -0.12409617110E+02  0.55721607527E+01  0.17298394827E+02  0.51100000000E-03 0. -1.
        -12    1    3    3    0    0 -0.90692579139E+01 -0.22945911628E+02 -0.74448986262E+01  0.25771938520E+02  0.00000000000E+00 0.  1.
</event>
<event>
 7    1  0.5541017E-010  0.4778727E+02  0.7816164E-02  0.1312668E+00
        -11   -1    0    0    0    0  0.00000000000E+00  0.00000000000E+00  0.45593999997E+02  0.45594000000E+02  0.51100000000E-03 0.  1.
         11   -1    0    0    0    0 -0.00000000000E+00 -0.00000000000E+00 -0.45593999997E+02  0.45594000000E+02  0.51100000000E-03 0. -1.
    9900012    2    1    2    0    0 -0.18764984770E+02  0.99517353084E+01 -0.37847876975E+02  0.47787268663E+02  0.19999989142E+02 0.  0.
        -12    1    1    2    0    0  0.18764984770E+02 -0.99517353084E+01  0.37847876975E+02  0.43400731337E+02  0.00000000000E+00 0.  1.
         11    1    3    3    0    0 -0.54494684170E+01  0.45577690680E+01 -0.12818670233E+02  0.14655656645E+02  0.51100000000E-03 0. -1.
        -11    1    3    3    0    0 -0.43741135289E+01  0.89707913067E+01 -0.19800134807E+02  0.22173256515E+02  0.51100000000E-03 0.  1.
        -12    1    3    3    0    0 -0.89414028242E+01 -0.35768250663E+01 -0.52290719350E+01  0.10958355503E+02  0.00000000000E+00 0.  1.
</event>
<event>
 7    1  0.5541017E-010  0.4778727E+02  0.7816164E-02  0.1312668E+00
        -11   -1    0    0    0    0  0.00000000000E+00  0.00000000000E+00  0.45593999997E+02  0.45594000000E+02  0.51100000000E-03 0. -1.
         11   -1    0    0    0    0 -0.00000000000E+00 -0.00000000000E+00 -0.45593999997E+02  0.45594000000E+02  0.51100000000E-03 0.  1.
    9900012    2    1    2    0    0 -0.11372564288E+02  0.25023589826E+02  0.33587319681E+02  0.47787270633E+02  0.19999998124E+02 0.  0.
        -12    1    1    2    0    0  0.11372564288E+02 -0.25023589826E+02 -0.33587319681E+02  0.43400729367E+02  0.00000000000E+00 0.  1.
         11    1    3    3    0    0 -0.51768190600E-01  0.24028574888E+01  0.22243784501E+00  0.24136865814E+01  0.51100000000E-03 0. -1.
        -11    1    3    3    0    0 -0.15058103016E+01  0.11671651850E+02  0.26800631051E+02  0.29270612337E+02  0.51100000000E-03 0.  1.
        -12    1    3    3    0    0 -0.98149857956E+01  0.10949080487E+02  0.65642507846E+01  0.16102971715E+02  0.00000000000E+00 0.  1.
</event>
<event>
 7    1  0.5541017E-010  0.4778727E+02  0.7816164E-02  0.1312668E+00
        -11   -1    0    0    0    0  0.00000000000E+00  0.00000000000E+00  0.45593999997E+02  0.45594000000E+02  0.51100000000E-03 0. -1.
         11   -1    0    0    0    0 -0.00000000000E+00 -0.00000000000E+00 -0.45593999997E+02  0.45594000000E+02  0.51100000000E-03 0.  1.
    9900012    2    1    2    0    0 -0.17217227865E+02 -0.18252287512E+02  0.35412490845E+02  0.47787269100E+02  0.19999991135E+02 0.  0.
        -12    1    1    2    0    0  0.17217227865E+02  0.18252287512E+02 -0.35412490845E+02  0.43400730900E+02  0.00000000000E+00 0.  1.
         11    1    3    3    0    0 -0.35692151972E+01 -0.33506739572E+01  0.19635216662E+01  0.52746308578E+01  0.51100000000E-03 0. -1.
        -11    1    3    3    0    0 -0.11577389919E+02 -0.95421151054E+01  0.92151288790E+01  0.17607001975E+02  0.51100000000E-03 0.  1.
         12    1    3    3    0    0 -0.20706227486E+01 -0.53594984492E+01  0.24233840300E+02  0.24905636267E+02  0.00000000000E+00 0. -1.
</event>
<event>
 7    1  0.5541017E-010  0.4778726E+02  0.7816164E-02  0.1312668E+00
        -11   -1    0    0    0    0  0.00000000000E+00  0.00000000000E+00  0.45593999997E+02  0.45594000000E+02  0.51100000000E-03 0. -1.
         11   -1    0    0    0    0 -0.00000000000E+00 -0.00000000000E+00 -0.45593999997E+02  0.45594000000E+02  0.51100000000E-03 0.  1.
    9900012    2    1    2    0    0 -0.34026691109E+02  0.82697213302E+01  0.25640209597E+02  0.47787258683E+02  0.19999943638E+02 0.  0.
        -12    1    1    2    0    0  0.34026691109E+02 -0.82697213302E+01 -0.25640209597E+02  0.43400741317E+02  0.00000000000E+00 0.  1.
         11    1    3    3    0    0 -0.98741302347E+01  0.47867874475E+01  0.13043192565E+00  0.10974005409E+02  0.51100000000E-03 0. -1.
        -11    1    3    3    0    0 -0.20029495958E+01 -0.26548482692E+01  0.17592775381E+01  0.37623242993E+01  0.51100000000E-03 0.  1.
         12    1    3    3    0    0 -0.22149611279E+02  0.61377821519E+01  0.23750500133E+02  0.33050928975E+02  0.00000000000E+00 0. -1.
</event>
<event>
 7    1  0.5541017E-010  0.4778727E+02  0.7816164E-02  0.1312668E+00
        -11   -1    0    0    0    0  0.00000000000E+00  0.00000000000E+00  0.45593999997E+02  0.45594000000E+02  0.51100000000E-03 0. -1.
         11   -1    0    0    0    0 -0.00000000000E+00 -0.00000000000E+00 -0.45593999997E+02  0.45594000000E+02  0.51100000000E-03 0.  1.
    9900012    2    1    2    0    0 -0.92645269103E+01  0.38803281168E+02  0.17090852646E+02  0.47787270370E+02  0.19999996923E+02 0.  0.
        -12    1    1    2    0    0  0.92645269103E+01 -0.38803281168E+02 -0.17090852646E+02  0.43400729630E+02  0.00000000000E+00 0.  1.
         11    1    3    3    0    0 -0.82601591050E+01  0.27824713972E+02  0.12875166425E+02  0.31752399071E+02  0.51100000000E-03 0. -1.
        -11    1    3    3    0    0 -0.20091360725E+01  0.37858229095E+01  0.70403613882E+01  0.82423159123E+01  0.51100000000E-03 0.  1.
         12    1    3    3    0    0  0.10047682673E+01  0.71927442870E+01 -0.28246751669E+01  0.77925553862E+01  0.00000000000E+00 0. -1.
</event>
<event>
 7    1  0.5541017E-010  0.4778727E+02  0.7816164E-02  0.1312668E+00
        -11   -1    0    0    0    0  0.00000000000E+00  0.00000000000E+00  0.45593999997E+02  0.45594000000E+02  0.51100000000E-03 0.  1.
         11   -1    0    0    0    0 -0.00000000000E+00 -0.00000000000E+00 -0.45593999997E+02  0.45594000000E+02  0.51100000000E-03 0. -1.
    9900012    2    1    2    0    0 -0.14007903458E+01  0.31312732640E+02 -0.30019555655E+02  0.47787272348E+02  0.20000005943E+02 0.  0.
        -12    1    1    2    0    0  0.14007903458E+01 -0.31312732640E+02  0.30019555655E+02  0.43400727652E+02  0.00000000000E+00 0.  1.
         11    1    3    3    0    0  0.14237251197E+01  0.21769107981E+02 -0.96601944939E+01  0.23858759679E+02  0.51100000000E-03 0. -1.
        -11    1    3    3    0    0  0.18499612758E+01  0.36349008259E+00 -0.13899715580E+01  0.23423285327E+01  0.51100000000E-03 0.  1.
        -12    1    3    3    0    0 -0.46744767413E+01  0.91801345771E+01 -0.18969389603E+02  0.21586184136E+02  0.00000000000E+00 0.  1.
</event>
<event>
 7    1  0.5541017E-010  0.4778727E+02  0.7816164E-02  0.1312668E+00
        -11   -1    0    0    0    0  0.00000000000E+00  0.00000000000E+00  0.45593999997E+02  0.45594000000E+02  0.51100000000E-03 0.  1.
         11   -1    0    0    0    0 -0.00000000000E+00 -0.00000000000E+00 -0.45593999997E+02  0.45594000000E+02  0.51100000000E-03 0. -1.
    9900012    2    1    2    0    0 -0.20059467675E+02  0.33736017342E+02 -0.18523556164E+02  0.47787271407E+02  0.20000001651E+02 0.  0.
        -12    1    1    2    0    0  0.20059467675E+02 -0.33736017342E+02  0.18523556164E+02  0.43400728593E+02  0.00000000000E+00 0.  1.
         11    1    3    3    0    0  0.10847118349E+01  0.32459567859E+01 -0.38207509659E+01  0.51294223286E+01  0.51100000000E-03 0. -1.
        -11    1    3    3    0    0  0.40527699503E+00  0.10349533460E+02 -0.56794245590E+01  0.11812406862E+02  0.51100000000E-03 0.  1.
        -12    1    3    3    0    0 -0.21549456505E+02  0.20140527096E+02 -0.90233806386E+01  0.30845442216E+02  0.00000000000E+00 0.  1.
</event>
<event>
 7    1  0.5541017E-010  0.4778728E+02  0.7816164E-02  0.1312668E+00
        -11   -1    0    0    0    0  0.00000000000E+00  0.00000000000E+00  0.45593999997E+02  0.45594000000E+02  0.51100000000E-03 0. -1.
         11   -1    0    0    0    0 -0.00000000000E+00 -0.00000000000E+00 -0.45593999997E+02  0.45594000000E+02  0.51100000000E-03 0.  1.
    9900012    2    1    2    0    0 -0.21872230488E+02  0.35285486843E+02 -0.12655516202E+02  0.47787284124E+02  0.20000059633E+02 0.  0.
        -12    1    1    2    0    0  0.21872230488E+02 -0.35285486843E+02  0.12655516202E+02  0.43400715876E+02  0.00000000000E+00 0.  1.
         11    1    3    3    0    0 -0.59504721169E+01  0.12410408938E+02 -0.70756891854E+00  0.13781401324E+02  0.51100000000E-03 0. -1.
        -11    1    3    3    0    0 -0.18292097493E+02  0.16853278631E+02 -0.11807781910E+02  0.27532844844E+02  0.51100000000E-03 0.  1.
        -12    1    3    3    0    0  0.23703391218E+01  0.60217992742E+01 -0.14016537389E+00  0.64730379563E+01  0.00000000000E+00 0.  1.
</event>
<event>
 7    1  0.5541017E-010  0.4778727E+02  0.7816164E-02  0.1312668E+00
        -11   -1    0    0    0    0  0.00000000000E+00  0.00000000000E+00  0.45593999997E+02  0.45594000000E+02  0.51100000000E-03 0.  1.
         11   -1    0    0    0    0 -0.00000000000E+00 -0.00000000000E+00 -0.45593999997E+02  0.45594000000E+02  0.51100000000E-03 0. -1.
    9900012    2    1    2    0    0 -0.32625021701E+02  0.21805026861E+02 -0.18541092044E+02  0.47787270379E+02  0.19999996967E+02 0.  0.
        -12    1    1    2    0    0  0.32625021701E+02 -0.21805026861E+02  0.18541092044E+02  0.43400729621E+02  0.00000000000E+00 0.  1.
         11    1    3    3    0    0 -0.17814286366E+02  0.59974441563E+01 -0.49501146040E+01  0.19437637974E+02  0.51100000000E-03 0. -1.
        -11    1    3    3    0    0 -0.16547934073E+02  0.11483223436E+02 -0.11884643960E+02  0.23386819042E+02  0.51100000000E-03 0.  1.
        -12    1    3    3    0    0  0.17371987379E+01  0.43243592684E+01 -0.17063334802E+01  0.49628133637E+01  0.00000000000E+00 0.  1.
</event>
<event>
 7    1  0.5541017E-010  0.4778727E+02  0.7816164E-02  0.1312668E+00
        -11   -1    0    0    0    0  0.00000000000E+00  0.00000000000E+00  0.45593999997E+02  0.45594000000E+02  0.51100000000E-03 0.  1.
         11   -1    0    0    0    0 -0.00000000000E+00 -0.00000000000E+00 -0.45593999997E+02  0.45594000000E+02  0.51100000000E-03 0. -1.
    9900012    2    1    2    0    0 -0.17484588675E+02  0.26024175591E+02 -0.30010911490E+02  0.47787269997E+02  0.19999995225E+02 0.  0.
        -12    1    1    2    0    0  0.17484588675E+02 -0.26024175591E+02  0.30010911490E+02  0.43400730003E+02  0.00000000000E+00 0.  1.
         11    1    3    3    0    0 -0.94777987945E+01  0.24439695449E+02 -0.26786829193E+02  0.37478815377E+02  0.51100000000E-03 0. -1.
        -11    1    3    3    0    0  0.81149912790E+00  0.35514742516E+00 -0.23363530716E+00  0.91610384022E+00  0.51100000000E-03 0.  1.
         12    1    3    3    0    0 -0.88182890088E+01  0.12293327173E+01 -0.29904469898E+01  0.93923507798E+01  0.00000000000E+00 0. -1.
</event>
<event>
 7    1  0.5541017E-010  0.4778727E+02  0.7816164E-02  0.1312668E+00
        -11   -1    0    0    0    0  0.00000000000E+00  0.00000000000E+00  0.45593999997E+02  0.45594000000E+02  0.51100000000E-03 0.  1.
         11   -1    0    0    0    0 -0.00000000000E+00 -0.00000000000E+00 -0.45593999997E+02  0.45594000000E+02  0.51100000000E-03 0. -1.
    9900012    2    1    2    0    0  0.18915043617E+02  0.30470602564E+02 -0.24441501672E+02  0.47787268444E+02  0.19999988141E+02 0.  0.
        -12    1    1    2    0    0 -0.18915043617E+02 -0.30470602564E+02  0.24441501672E+02  0.43400731556E+02  0.00000000000E+00 0.  1.
         11    1    3    3    0    0  0.84248605014E+01  0.95083427363E+01 -0.17504612441E+02  0.21628645658E+02  0.51100000000E-03 0. -1.
        -11    1    3    3    0    0 -0.14886194426E+00  0.62858141668E+01 -0.47913671566E+01  0.79051134785E+01  0.51100000000E-03 0.  1.
        -12    1    3    3    0    0  0.10639045060E+02  0.14676445661E+02 -0.21455220746E+01  0.18253509307E+02  0.00000000000E+00 0.  1.
</event>
<event>
 7    1  0.5541017E-010  0.4778727E+02  0.7816164E-02  0.1312668E+00
        -11   -1    0    0    0    0  0.00000000000E+00  0.00000000000E+00  0.45593999997E+02  0.45594000000E+02  0.51100000000E-03 0.  1.
         11   -1    0    0    0    0 -0.00000000000E+00 -0.00000000000E+00 -0.45593999997E+02  0.45594000000E+02  0.51100000000E-03 0. -1.
    9900012    2    1    2    0    0 -0.82817525660E+01 -0.36464239688E+02 -0.22031689148E+02  0.47787268113E+02  0.19999986636E+02 0.  0.
        -12    1    1    2    0    0  0.82817525660E+01  0.36464239688E+02  0.22031689148E+02  0.43400731887E+02  0.00000000000E+00 0.  1.
         11    1    3    3    0    0 -0.63768479279E+01 -0.27256744002E+02 -0.13159387057E+02  0.30931597939E+02  0.51100000000E-03 0. -1.
        -11    1    3    3    0    0 -0.63262899428E+01 -0.48217923736E+01 -0.37590045188E+01  0.87978259455E+01  0.51100000000E-03 0.  1.
         12    1    3    3    0    0  0.44213853047E+01 -0.43857033123E+01 -0.51132975721E+01  0.80578442289E+01  0.00000000000E+00 0. -1.
</event>
<event>
 7    1  0.5541017E-010  0.4778727E+02  0.7816164E-02  0.1312668E+00
        -11   -1    0    0    0    0  0.00000000000E+00  0.00000000000E+00  0.45593999997E+02  0.45594000000E+02  0.51100000000E-03 0.  1.
         11   -1    0    0    0    0 -0.00000000000E+00 -0.00000000000E+00 -0.45593999997E+02  0.45594000000E+02  0.51100000000E-03 0. -1.
    9900012    2    1    2    0    0  0.84899356123E+01 -0.24123718942E+01 -0.42493821652E+02  0.47787269321E+02  0.19999992142E+02 0.  0.
        -12    1    1    2    0    0 -0.84899356123E+01  0.24123718942E+01  0.42493821652E+02  0.43400730679E+02  0.00000000000E+00 0.  1.
         11    1    3    3    0    0  0.68713572789E+01 -0.38678887884E+01 -0.10397963888E+02  0.13049665429E+02  0.51100000000E-03 0. -1.
        -11    1    3    3    0    0 -0.28034667430E+01 -0.31410248454E+01 -0.36086361618E+01  0.55450624945E+01  0.51100000000E-03 0.  1.
        -12    1    3    3    0    0  0.44220450764E+01  0.45965417395E+01 -0.28487221602E+02  0.29192541397E+02  0.00000000000E+00 0.  1.
</event>
<event>
 7    1  0.5541017E-010  0.4778726E+02  0.7816164E-02  0.1312668E+00
        -11   -1    0    0    0    0  0.00000000000E+00  0.00000000000E+00  0.45593999997E+02  0.45594000000E+02  0.51100000000E-03 0. -1.
         11   -1    0    0    0    0 -0.00000000000E+00 -0.00000000000E+00 -0.45593999997E+02  0.45594000000E+02  0.51100000000E-03 0.  1.
    9900012    2    1    2    0    0  0.41403013195E+02  0.70563779323E+01 -0.10937199978E+02  0.47787259056E+02  0.19999945338E+02 0.  0.
        -12    1    1    2    0    0 -0.41403013195E+02 -0.70563779323E+01  0.10937199978E+02  0.43400740944E+02  0.00000000000E+00 0.  1.
         11    1    3    3    0    0  0.30852006368E+01 -0.62093979104E+00 -0.26484647514E+00  0.31581914302E+01  0.51100000000E-03 0. -1.
        -11    1    3    3    0    0  0.57481349256E+01  0.21507177525E+00  0.50931078885E+01  0.76829069509E+01  0.51100000000E-03 0.  1.
         12    1    3    3    0    0  0.32569677633E+02  0.74622459481E+01 -0.15765461391E+02  0.36946160674E+02  0.00000000000E+00 0. -1.
</event>
<event>
 7    1  0.5541017E-010  0.4778727E+02  0.7816164E-02  0.1312668E+00
        -11   -1    0    0    0    0  0.00000000000E+00  0.00000000000E+00  0.45593999997E+02  0.45594000000E+02  0.51100000000E-03 0.  1.
         11   -1    0    0    0    0 -0.00000000000E+00 -0.00000000000E+00 -0.45593999997E+02  0.45594000000E+02  0.51100000000E-03 0. -1.
    9900012    2    1    2    0    0 -0.38740682155E+02  0.19563860441E+02 -0.19506197854E+00  0.47787272605E+02  0.20000007117E+02 0.  0.
        -12    1    1    2    0    0  0.38740682155E+02 -0.19563860441E+02  0.19506197854E+00  0.43400727395E+02  0.00000000000E+00 0.  1.
         11    1    3    3    0    0 -0.10836248158E+02  0.29680355607E+01  0.29515328024E+01  0.11616585358E+02  0.51100000000E-03 0. -1.
        -11    1    3    3    0    0 -0.69076296259E+01  0.87739268833E+01  0.51244004050E+01  0.12286440484E+02  0.51100000000E-03 0.  1.
         12    1    3    3    0    0 -0.20996804372E+02  0.78218979966E+01 -0.82709951859E+01  0.23884246764E+02  0.00000000000E+00 0. -1.
</event>
<event>
 7    1  0.5541017E-010  0.4778727E+02  0.7816164E-02  0.1312668E+00
        -11   -1    0    0    0    0  0.00000000000E+00  0.00000000000E+00  0.45593999997E+02  0.45594000000E+02  0.51100000000E-03 0.  1.
         11   -1    0    0    0    0 -0.00000000000E+00 -0.00000000000E+00 -0.45593999997E+02  0.45594000000E+02  0.51100000000E-03 0. -1.
    9900012    2    1    2    0    0 -0.26775888358E+02 -0.16864321022E+02 -0.29703028479E+02  0.47787269341E+02  0.19999992236E+02 0.  0.
        -12    1    1    2    0    0  0.26775888358E+02  0.16864321022E+02  0.29703028479E+02  0.43400730659E+02  0.00000000000E+00 0.  1.
         11    1    3    3    0    0 -0.16493822160E+02 -0.59755758322E+01 -0.16838206691E+02  0.24316226698E+02  0.51100000000E-03 0. -1.
        -11    1    3    3    0    0 -0.59785113574E+01  0.15457104059E+01 -0.60829817022E+01  0.86680150761E+01  0.51100000000E-03 0.  1.
         12    1    3    3    0    0 -0.43035548398E+01 -0.12434455596E+02 -0.67818400857E+01  0.14803027568E+02  0.00000000000E+00 0. -1.
</event>
<event>
 7    1  0.5541018E-010  0.4778726E+02  0.7816164E-02  0.1312668E+00
        -11   -1    0    0    0    0  0.00000000000E+00  0.00000000000E+00  0.45593999997E+02  0.45594000000E+02  0.51100000000E-03 0.  1.
         11   -1    0    0    0    0 -0.00000000000E+00 -0.00000000000E+00 -0.45593999997E+02  0.45594000000E+02  0.51100000000E-03 0. -1.
    9900012    2    1    2    0    0  0.31402446268E+02 -0.29885431279E+02  0.20909112122E+01  0.47787256412E+02  0.19999933283E+02 0.  0.
        -12    1    1    2    0    0 -0.31402446268E+02  0.29885431279E+02 -0.20909112122E+01  0.43400743588E+02  0.00000000000E+00 0.  1.
         11    1    3    3    0    0  0.19861025373E+02 -0.25018901759E+02  0.21298472687E+01  0.32014715737E+02  0.51100000000E-03 0. -1.
        -11    1    3    3    0    0  0.58744780919E+01 -0.58574414586E+01  0.35157809012E+01  0.90099849556E+01  0.51100000000E-03 0.  1.
        -12    1    3    3    0    0  0.56669428028E+01  0.99091193832E+00 -0.35547169577E+01  0.67625557187E+01  0.00000000000E+00 0.  1.
</event>
<event>
 7    1  0.5541017E-010  0.4778727E+02  0.7816164E-02  0.1312668E+00
        -11   -1    0    0    0    0  0.00000000000E+00  0.00000000000E+00  0.45593999997E+02  0.45594000000E+02  0.51100000000E-03 0. -1.
         11   -1    0    0    0    0 -0.00000000000E+00 -0.00000000000E+00 -0.45593999997E+02  0.45594000000E+02  0.51100000000E-03 0.  1.
    9900012    2    1    2    0    0  0.16704245957E+02  0.35638129841E+02  0.18289765743E+02  0.47787266567E+02  0.19999979585E+02 0.  0.
        -12    1    1    2    0    0 -0.16704245957E+02 -0.35638129841E+02 -0.18289765743E+02  0.43400733433E+02  0.00000000000E+00 0.  1.
         11    1    3    3    0    0  0.18900345747E+01  0.50114941061E+01  0.21854429853E-01  0.53560976229E+01  0.51100000000E-03 0. -1.
        -11    1    3    3    0    0  0.12113679733E+02  0.64029814847E+01  0.87932916027E+01  0.16280705944E+02  0.51100000000E-03 0.  1.
         12    1    3    3    0    0  0.27005316499E+01  0.24223654251E+02  0.94746197108E+01  0.26150463000E+02  0.00000000000E+00 0. -1.
</event>
<event>
 7    1  0.5541017E-010  0.4778727E+02  0.7816164E-02  0.1312668E+00
        -11   -1    0    0    0    0  0.00000000000E+00  0.00000000000E+00  0.45593999997E+02  0.45594000000E+02  0.51100000000E-03 0.  1.
         11   -1    0    0    0    0 -0.00000000000E+00 -0.00000000000E+00 -0.45593999997E+02  0.45594000000E+02  0.51100000000E-03 0. -1.
    9900012    2    1    2    0    0  0.35341070879E+02  0.14490220709E+02 -0.20607413379E+02  0.47787271052E+02  0.20000000032E+02 0.  0.
        -12    1    1    2    0    0 -0.35341070879E+02 -0.14490220709E+02  0.20607413379E+02  0.43400728948E+02  0.00000000000E+00 0.  1.
         11    1    3    3    0    0  0.34609196976E+02  0.15171558599E+02 -0.17500222613E+02  0.41644093187E+02  0.51100000000E-03 0. -1.
        -11    1    3    3    0    0  0.28055784171E+01  0.46865485219E+00 -0.11483847155E+01  0.30675226716E+01  0.51100000000E-03 0.  1.
         12    1    3    3    0    0 -0.20737045142E+01 -0.11499927417E+01 -0.19588060510E+01  0.30756551925E+01  0.00000000000E+00 0. -1.
</event>
<event>
 7    1  0.5541017E-010  0.4778727E+02  0.7816164E-02  0.1312668E+00
        -11   -1    0    0    0    0  0.00000000000E+00  0.00000000000E+00  0.45593999997E+02  0.45594000000E+02  0.51100000000E-03 0. -1.
         11   -1    0    0    0    0 -0.00000000000E+00 -0.00000000000E+00 -0.45593999997E+02  0.45594000000E+02  0.51100000000E-03 0.  1.
    9900012    2    1    2    0    0  0.13927693205E+02  0.34881781745E+02  0.21746346982E+02  0.47787274859E+02  0.20000017390E+02 0.  0.
        -12    1    1    2    0    0 -0.13927693205E+02 -0.34881781745E+02 -0.21746346982E+02  0.43400725141E+02  0.00000000000E+00 0.  1.
         11    1    3    3    0    0  0.57541758656E+01  0.13765166325E+02  0.14138349035E+02  0.20554397523E+02  0.51100000000E-03 0. -1.
        -11    1    3    3    0    0 -0.13561006053E+01 -0.11817043561E+01  0.11621167460E+01  0.21414830444E+01  0.51100000000E-03 0.  1.
        -12    1    3    3    0    0  0.95296179443E+01  0.22298319776E+02  0.64458812014E+01  0.25091394291E+02  0.00000000000E+00 0.  1.
</event>
<event>
 7    1  0.5541017E-010  0.4778727E+02  0.7816164E-02  0.1312668E+00
        -11   -1    0    0    0    0  0.00000000000E+00  0.00000000000E+00  0.45593999997E+02  0.45594000000E+02  0.51100000000E-03 0.  1.
         11   -1    0    0    0    0 -0.00000000000E+00 -0.00000000000E+00 -0.45593999997E+02  0.45594000000E+02  0.51100000000E-03 0. -1.
    9900012    2    1    2    0    0  0.30233705421E+02 -0.28650252986E+02  0.12194651289E+02  0.47787268904E+02  0.19999990239E+02 0.  0.
        -12    1    1    2    0    0 -0.30233705421E+02  0.28650252986E+02 -0.12194651289E+02  0.43400731096E+02  0.00000000000E+00 0.  1.
         11    1    3    3    0    0  0.13953943339E+02 -0.17696774356E+02  0.48347770572E+01  0.23049152409E+02  0.51100000000E-03 0. -1.
        -11    1    3    3    0    0  0.14324328584E+02 -0.13979223984E+02  0.62729815319E+01  0.20975113590E+02  0.51100000000E-03 0.  1.
        -12    1    3    3    0    0  0.19554334976E+01  0.30257453542E+01  0.10868927004E+01  0.37630029039E+01  0.00000000000E+00 0.  1.
</event>
<event>
 7    1  0.5541017E-010  0.4778727E+02  0.7816164E-02  0.1312668E+00
        -11   -1    0    0    0    0  0.00000000000E+00  0.00000000000E+00  0.45593999997E+02  0.45594000000E+02  0.51100000000E-03 0. -1.
         11   -1    0    0    0    0 -0.00000000000E+00 -0.00000000000E+00 -0.45593999997E+02  0.45594000000E+02  0.51100000000E-03 0.  1.
    9900012    2    1    2    0    0  0.32648702824E+02  0.54842852281E+01  0.28064354417E+02  0.47787272248E+02  0.20000005490E+02 0.  0.
        -12    1    1    2    0    0 -0.32648702824E+02 -0.54842852281E+01 -0.28064354417E+02  0.43400727752E+02  0.00000000000E+00 0.  1.
         11    1    3    3    0    0  0.96198288743E+01 -0.42519270327E+01  0.11323258695E+02  0.15454325569E+02  0.51100000000E-03 0. -1.
        -11    1    3    3    0    0  0.92364103750E+00  0.89975609352E+00  0.61388096055E+01  0.62727711123E+01  0.51100000000E-03 0.  1.
         12    1    3    3    0    0  0.22105232912E+02  0.88364561673E+01  0.10602286116E+02  0.26060175567E+02  0.00000000000E+00 0. -1.
</event>
<event>
 7    1  0.5541017E-010  0.4778727E+02  0.7816164E-02  0.1312668E+00
        -11   -1    0    0    0    0  0.00000000000E+00  0.00000000000E+00  0.45593999997E+02  0.45594000000E+02  0.51100000000E-03 0. -1.
         11   -1    0    0    0    0 -0.00000000000E+00 -0.00000000000E+00 -0.45593999997E+02  0.45594000000E+02  0.51100000000E-03 0.  1.
    9900012    2    1    2    0    0 -0.41995236946E+02  0.11955040809E+01  0.10890086302E+02  0.47787272635E+02  0.20000007253E+02 0.  0.
        -12    1    1    2    0    0  0.41995236946E+02 -0.11955040809E+01 -0.10890086302E+02  0.43400727365E+02  0.00000000000E+00 0.  1.
         11    1    3    3    0    0 -0.34558021792E+01  0.13613720884E+01 -0.12561839735E+01  0.39209566564E+01  0.51100000000E-03 0. -1.
        -11    1    3    3    0    0 -0.24157506154E+02  0.49395995764E+00  0.15978515396E+02  0.28967948746E+02  0.51100000000E-03 0.  1.
        -12    1    3    3    0    0 -0.14381928612E+02 -0.65982796518E+00 -0.38322451197E+01  0.14898367233E+02  0.00000000000E+00 0.  1.
</event>
<event>
 7    1  0.5541017E-010  0.4778728E+02  0.7816164E-02  0.1312668E+00
        -11   -1    0    0    0    0  0.00000000000E+00  0.00000000000E+00  0.45593999997E+02  0.45594000000E+02  0.51100000000E-03 0. -1.
         11   -1    0    0    0    0 -0.00000000000E+00 -0.00000000000E+00 -0.45593999997E+02  0.45594000000E+02  0.51100000000E-03 0.  1.
    9900012    2    1    2    0    0 -0.14062346409E+02 -0.39982956153E+02  0.93400289221E+01  0.47787279851E+02  0.20000040151E+02 0.  0.
        -12    1    1    2    0    0  0.14062346409E+02  0.39982956153E+02 -0.93400289221E+01  0.43400720149E+02  0.00000000000E+00 0.  1.
         11    1    3    3    0    0  0.20259354609E+01 -0.10451998474E+01  0.23694974511E+01  0.32880656388E+01  0.51100000000E-03 0. -1.
        -11    1    3    3    0    0  0.96620648428E-01 -0.22303671226E+00  0.22610818644E+01  0.22741091406E+01  0.51100000000E-03 0.  1.
         12    1    3    3    0    0 -0.16184902518E+02 -0.38714719593E+02  0.47094496066E+01  0.42225105071E+02  0.00000000000E+00 0. -1.
</event>
<event>
 7    1  0.5541017E-010  0.4778728E+02  0.7816164E-02  0.1312668E+00
        -11   -1    0    0    0    0  0.00000000000E+00  0.00000000000E+00  0.45593999997E+02  0.45594000000E+02  0.51100000000E-03 0. -1.
         11   -1    0    0    0    0 -0.00000000000E+00 -0.00000000000E+00 -0.45593999997E+02  0.45594000000E+02  0.51100000000E-03 0.  1.
    9900012    2    1    2    0    0  0.17390953524E+02 -0.35110369898E+02  0.18666521901E+02  0.47787281357E+02  0.20000047018E+02 0.  0.
        -12    1    1    2    0    0 -0.17390953524E+02  0.35110369898E+02 -0.18666521901E+02  0.43400718643E+02  0.00000000000E+00 0.  1.
         11    1    3    3    0    0  0.12005884890E+02 -0.32577079541E+02  0.20110190870E+02  0.40122651464E+02  0.51100000000E-03 0. -1.
        -11    1    3    3    0    0  0.34339268823E+01 -0.38432347665E+01 -0.70910241709E+00  0.52024161505E+01  0.51100000000E-03 0.  1.
         12    1    3    3    0    0  0.19511417516E+01  0.13099444097E+01 -0.73456655185E+00  0.24622137418E+01  0.00000000000E+00 0. -1.
</event>
<event>
 7    1  0.5541017E-010  0.4778727E+02  0.7816164E-02  0.1312668E+00
        -11   -1    0    0    0    0  0.00000000000E+00  0.00000000000E+00  0.45593999997E+02  0.45594000000E+02  0.51100000000E-03 0. -1.
         11   -1    0    0    0    0 -0.00000000000E+00 -0.00000000000E+00 -0.45593999997E+02  0.45594000000E+02  0.51100000000E-03 0.  1.
    9900012    2    1    2    0    0  0.14251555827E+02  0.39037616202E+02  0.12513242287E+02  0.47787267809E+02  0.19999985247E+02 0.  0.
        -12    1    1    2    0    0 -0.14251555827E+02 -0.39037616202E+02 -0.12513242287E+02  0.43400732191E+02  0.00000000000E+00 0.  1.
         11    1    3    3    0    0  0.45551062763E+01  0.66230182762E+01  0.48075406850E+01  0.93662058473E+01  0.51100000000E-03 0. -1.
        -11    1    3    3    0    0 -0.20106801510E+01 -0.91920643659E+00 -0.19223264808E+00  0.22191729980E+01  0.51100000000E-03 0.  1.
         12    1    3    3    0    0  0.11707129701E+02  0.33333804362E+02  0.78979342497E+01  0.36201888963E+02  0.00000000000E+00 0. -1.
</event>
<event>
 7    1  0.5541017E-010  0.4778726E+02  0.7816164E-02  0.1312668E+00
        -11   -1    0    0    0    0  0.00000000000E+00  0.00000000000E+00  0.45593999997E+02  0.45594000000E+02  0.51100000000E-03 0.  1.
         11   -1    0    0    0    0 -0.00000000000E+00 -0.00000000000E+00 -0.45593999997E+02  0.45594000000E+02  0.51100000000E-03 0. -1.
    9900012    2    1    2    0    0 -0.13037517000E+02 -0.77000057983E+01 -0.40673788453E+02  0.47787262611E+02  0.19999961548E+02 0.  0.
        -12    1    1    2    0    0  0.13037517000E+02  0.77000057983E+01  0.40673788453E+02  0.43400737389E+02  0.00000000000E+00 0.  1.
         11    1    3    3    0    0 -0.27592444374E+01 -0.43190789217E+01 -0.28159405084E+01  0.58478537777E+01  0.51100000000E-03 0. -1.
        -11    1    3    3    0    0 -0.10402063452E+02 -0.81736871452E+01 -0.26818346273E+02  0.29903775392E+02  0.51100000000E-03 0.  1.
        -12    1    3    3    0    0  0.12379088974E+00  0.47927602686E+01 -0.11039501671E+02  0.12035633441E+02  0.00000000000E+00 0.  1.
</event>
<event>
 7    1  0.5541017E-010  0.4778726E+02  0.7816164E-02  0.1312668E+00
        -11   -1    0    0    0    0  0.00000000000E+00  0.00000000000E+00  0.45593999997E+02  0.45594000000E+02  0.51100000000E-03 0.  1.
         11   -1    0    0    0    0 -0.00000000000E+00 -0.00000000000E+00 -0.45593999997E+02  0.45594000000E+02  0.51100000000E-03 0. -1.
    9900012    2    1    2    0    0 -0.42563601356E+02 -0.83526152177E+01 -0.14825542351E+01  0.47787259126E+02  0.19999945659E+02 0.  0.
        -12    1    1    2    0    0  0.42563601356E+02  0.83526152177E+01  0.14825542351E+01  0.43400740874E+02  0.00000000000E+00 0.  1.
         11    1    3    3    0    0 -0.21208700941E+02 -0.85635915423E+01 -0.49824434749E+01  0.23408734245E+02  0.51100000000E-03 0. -1.
        -11    1    3    3    0    0 -0.10013436506E+02  0.55804198816E+01  0.28553884172E+01  0.11813688670E+02  0.51100000000E-03 0.  1.
         12    1    3    3    0    0 -0.11341463908E+02 -0.53694435570E+01  0.64450082260E+00  0.12564836211E+02  0.00000000000E+00 0. -1.
</event>
<event>
 7    1  0.5954362E-010  0.4778728E+02  0.7816164E-02  0.1312668E+00
        -11   -1    0    0    0    0  0.00000000000E+00  0.00000000000E+00  0.45593999997E+02  0.45594000000E+02  0.51100000000E-03 0. -1.
         11   -1    0    0    0    0 -0.00000000000E+00 -0.00000000000E+00 -0.45593999997E+02  0.45594000000E+02  0.51100000000E-03 0.  1.
    9900012    2    1    2    0    0  0.33322612965E+02 -0.10487367374E+02  0.25753475650E+02  0.47787275153E+02  0.20000018732E+02 0.  0.
        -12    1    1    2    0    0 -0.33322612965E+02  0.10487367374E+02 -0.25753475650E+02  0.43400724847E+02  0.00000000000E+00 0.  1.
         11    1    3    3    0    0  0.16696959237E+02 -0.46466300473E+00  0.14378654127E+02  0.22039738071E+02  0.51100000000E-03 0. -1.
        -11    1    3    3    0    0  0.18677569191E+02 -0.90921398929E+01  0.10842577826E+02  0.23432458106E+02  0.51100000000E-03 0.  1.
        -12    1    3    3    0    0 -0.20519154633E+01 -0.93056447598E+00  0.53224369692E+00  0.23150789761E+01  0.00000000000E+00 0.  1.
</event>
<event>
 7    1  0.5541017E-010  0.4778726E+02  0.7816164E-02  0.1312668E+00
        -11   -1    0    0    0    0  0.00000000000E+00  0.00000000000E+00  0.45593999997E+02  0.45594000000E+02  0.51100000000E-03 0.  1.
         11   -1    0    0    0    0 -0.00000000000E+00 -0.00000000000E+00 -0.45593999997E+02  0.45594000000E+02  0.51100000000E-03 0. -1.
    9900012    2    1    2    0    0 -0.12640482446E+02 -0.28983894009E+02 -0.29728380730E+02  0.47787256582E+02  0.19999934060E+02 0.  0.
        -12    1    1    2    0    0  0.12640482446E+02  0.28983894009E+02  0.29728380730E+02  0.43400743418E+02  0.00000000000E+00 0.  1.
         11    1    3    3    0    0  0.91072390890E+00 -0.64754290274E+01 -0.65562895630E+01  0.92598883483E+01  0.51100000000E-03 0. -1.
        -11    1    3    3    0    0 -0.29667309377E+01  0.77071342229E+00  0.11129765353E+01  0.32610134415E+01  0.51100000000E-03 0.  1.
         12    1    3    3    0    0 -0.10584475417E+02 -0.23279178404E+02 -0.24285067702E+02  0.35266354792E+02  0.00000000000E+00 0. -1.
</event>
<event>
 7    1  0.5541017E-010  0.4778727E+02  0.7816164E-02  0.1312668E+00
        -11   -1    0    0    0    0  0.00000000000E+00  0.00000000000E+00  0.45593999997E+02  0.45594000000E+02  0.51100000000E-03 0. -1.
         11   -1    0    0    0    0 -0.00000000000E+00 -0.00000000000E+00 -0.45593999997E+02  0.45594000000E+02  0.51100000000E-03 0.  1.
    9900012    2    1    2    0    0  0.20560153332E+02  0.32241809807E+02  0.20527276349E+02  0.47787270986E+02  0.19999999732E+02 0.  0.
        -12    1    1    2    0    0 -0.20560153332E+02 -0.32241809807E+02 -0.20527276349E+02  0.43400729014E+02  0.00000000000E+00 0.  1.
         11    1    3    3    0    0  0.68783614284E+01  0.12624250147E+02  0.38489875343E+01  0.14882817375E+02  0.51100000000E-03 0. -1.
        -11    1    3    3    0    0  0.66620409448E+01  0.18008634574E+02  0.61761681141E+01  0.20170244461E+02  0.51100000000E-03 0.  1.
        -12    1    3    3    0    0  0.70197509585E+01  0.16089250857E+01  0.10502120701E+02  0.12734209149E+02  0.00000000000E+00 0.  1.
</event>
<event>
 7    1  0.5541017E-010  0.4778728E+02  0.7816164E-02  0.1312668E+00
        -11   -1    0    0    0    0  0.00000000000E+00  0.00000000000E+00  0.45593999997E+02  0.45594000000E+02  0.51100000000E-03 0. -1.
         11   -1    0    0    0    0 -0.00000000000E+00 -0.00000000000E+00 -0.45593999997E+02  0.45594000000E+02  0.51100000000E-03 0.  1.
    9900012    2    1    2    0    0  0.15686912701E+02 -0.39695303943E+02  0.78629726665E+01  0.47787277375E+02  0.20000028864E+02 0.  0.
        -12    1    1    2    0    0 -0.15686912701E+02  0.39695303943E+02 -0.78629726665E+01  0.43400722625E+02  0.00000000000E+00 0.  1.
         11    1    3    3    0    0  0.18509105352E+02 -0.36070818586E+02  0.62398631401E+01  0.41019834552E+02  0.51100000000E-03 0. -1.
        -11    1    3    3    0    0  0.51156205912E+00 -0.31361657726E+01  0.50535387891E+00  0.32175478703E+01  0.51100000000E-03 0.  1.
         12    1    3    3    0    0 -0.33337547108E+01 -0.48831958421E+00  0.11177556476E+01  0.35498949527E+01  0.00000000000E+00 0. -1.
</event>
<event>
 7    1  0.5541017E-010  0.4778727E+02  0.7816164E-02  0.1312668E+00
        -11   -1    0    0    0    0  0.00000000000E+00  0.00000000000E+00  0.45593999997E+02  0.45594000000E+02  0.51100000000E-03 0.  1.
         11   -1    0    0    0    0 -0.00000000000E+00 -0.00000000000E+00 -0.45593999997E+02  0.45594000000E+02  0.51100000000E-03 0. -1.
    9900012    2    1    2    0    0 -0.10897682348E+02  0.14071421785E+02 -0.39583573494E+02  0.47787266341E+02  0.19999978556E+02 0.  0.
        -12    1    1    2    0    0  0.10897682348E+02 -0.14071421785E+02  0.39583573494E+02  0.43400733659E+02  0.00000000000E+00 0.  1.
         11    1    3    3    0    0 -0.53059261074E+01  0.77377091581E+01 -0.59880449704E+01  0.11130214630E+02  0.51100000000E-03 0. -1.
        -11    1    3    3    0    0  0.79240749518E+00 -0.22540884174E+01 -0.14915805595E+01  0.28166712727E+01  0.51100000000E-03 0.  1.
         12    1    3    3    0    0 -0.63841637355E+01  0.85878010438E+01 -0.32103947964E+02  0.33840380439E+02  0.00000000000E+00 0. -1.
</event>
<event>
 7    1  0.5541017E-010  0.4778727E+02  0.7816164E-02  0.1312668E+00
        -11   -1    0    0    0    0  0.00000000000E+00  0.00000000000E+00  0.45593999997E+02  0.45594000000E+02  0.51100000000E-03 0.  1.
         11   -1    0    0    0    0 -0.00000000000E+00 -0.00000000000E+00 -0.45593999997E+02  0.45594000000E+02  0.51100000000E-03 0. -1.
    9900012    2    1    2    0    0 -0.20394308497E+02  0.38254293127E+02  0.20748318508E+01  0.47787266263E+02  0.19999978200E+02 0.  0.
        -12    1    1    2    0    0  0.20394308497E+02 -0.38254293127E+02 -0.20748318508E+01  0.43400733737E+02  0.00000000000E+00 0.  1.
         11    1    3    3    0    0 -0.38211745492E+01  0.17806910699E+02  0.92030444600E+00  0.18235525879E+02  0.51100000000E-03 0. -1.
        -11    1    3    3    0    0  0.13756268818E+01 -0.51998497298E+00 -0.11331973026E+01  0.18565748242E+01  0.51100000000E-03 0.  1.
         12    1    3    3    0    0 -0.17948760829E+02  0.20967367401E+02  0.22877247074E+01  0.27695165560E+02  0.00000000000E+00 0. -1.
</event>
<event>
 7    1  0.5541017E-010  0.4778727E+02  0.7816164E-02  0.1312668E+00
        -11   -1    0    0    0    0  0.00000000000E+00  0.00000000000E+00  0.45593999997E+02  0.45594000000E+02  0.51100000000E-03 0.  1.
         11   -1    0    0    0    0 -0.00000000000E+00 -0.00000000000E+00 -0.45593999997E+02  0.45594000000E+02  0.51100000000E-03 0. -1.
    9900012    2    1    2    0    0 -0.22346925177E+02  0.21780043522E+02 -0.30164019009E+02  0.47787269551E+02  0.19999993193E+02 0.  0.
        -12    1    1    2    0    0  0.22346925177E+02 -0.21780043522E+02  0.30164019009E+02  0.43400730449E+02  0.00000000000E+00 0.  1.
         11    1    3    3    0    0 -0.10070921886E+02  0.11440420151E+02 -0.19747062795E+02  0.24945002909E+02  0.51100000000E-03 0. -1.
        -11    1    3    3    0    0 -0.14127958199E+02  0.87757757539E+01 -0.11466029992E+02  0.20201071432E+02  0.51100000000E-03 0.  1.
         12    1    3    3    0    0  0.18519549075E+01  0.15638476171E+01  0.10490737777E+01  0.26411952104E+01  0.00000000000E+00 0. -1.
</event>
<event>
 7    1  0.5541017E-010  0.4778727E+02  0.7816164E-02  0.1312668E+00
        -11   -1    0    0    0    0  0.00000000000E+00  0.00000000000E+00  0.45593999997E+02  0.45594000000E+02  0.51100000000E-03 0.  1.
         11   -1    0    0    0    0 -0.00000000000E+00 -0.00000000000E+00 -0.45593999997E+02  0.45594000000E+02  0.51100000000E-03 0. -1.
    9900012    2    1    2    0    0 -0.13737306098E+01 -0.22518597548E+02 -0.37076261764E+02  0.47787267774E+02  0.19999985088E+02 0.  0.
        -12    1    1    2    0    0  0.13737306098E+01  0.22518597548E+02  0.37076261764E+02  0.43400732226E+02  0.00000000000E+00 0.  1.
         11    1    3    3    0    0  0.29472784593E+01 -0.13695097179E+02 -0.15658845196E+02  0.21010510945E+02  0.51100000000E-03 0. -1.
        -11    1    3    3    0    0 -0.78230118724E-01 -0.76068699718E+01 -0.35913609309E+01  0.84123994387E+01  0.51100000000E-03 0.  1.
         12    1    3    3    0    0 -0.42427789504E+01 -0.12166303978E+01 -0.17826055638E+02  0.18364357390E+02  0.00000000000E+00 0. -1.
</event>
<event>
 7    1  0.5541017E-010  0.4778728E+02  0.7816164E-02  0.1312668E+00
        -11   -1    0    0    0    0  0.00000000000E+00  0.00000000000E+00  0.45593999997E+02  0.45594000000E+02  0.51100000000E-03 0.  1.
         11   -1    0    0    0    0 -0.00000000000E+00 -0.00000000000E+00 -0.45593999997E+02  0.45594000000E+02  0.51100000000E-03 0. -1.
    9900012    2    1    2    0    0 -0.43172246473E+02 -0.23099352738E+00 -0.44414637699E+01  0.47787276228E+02  0.20000023633E+02 0.  0.
        -12    1    1    2    0    0  0.43172246473E+02  0.23099352738E+00  0.44414637699E+01  0.43400723772E+02  0.00000000000E+00 0.  1.
         11    1    3    3    0    0 -0.86484012561E+01 -0.57566530454E+01 -0.21455175949E+01  0.10608352586E+02  0.51100000000E-03 0. -1.
        -11    1    3    3    0    0 -0.49883600051E+01 -0.26713526903E+01  0.24420055270E+01  0.61630554104E+01  0.51100000000E-03 0.  1.
        -12    1    3    3    0    0 -0.29535485212E+02  0.81970122083E+01 -0.47379517020E+01  0.31015868232E+02  0.00000000000E+00 0.  1.
</event>
<event>
 7    1  0.5541017E-010  0.4778727E+02  0.7816164E-02  0.1312668E+00
        -11   -1    0    0    0    0  0.00000000000E+00  0.00000000000E+00  0.45593999997E+02  0.45594000000E+02  0.51100000000E-03 0.  1.
         11   -1    0    0    0    0 -0.00000000000E+00 -0.00000000000E+00 -0.45593999997E+02  0.45594000000E+02  0.51100000000E-03 0. -1.
    9900012    2    1    2    0    0 -0.66275701636E+01  0.22651424186E+02 -0.36422675495E+02  0.47787274267E+02  0.20000014692E+02 0.  0.
        -12    1    1    2    0    0  0.66275701636E+01 -0.22651424186E+02  0.36422675495E+02  0.43400725733E+02  0.00000000000E+00 0.  1.
         11    1    3    3    0    0 -0.97780069579E+01  0.13398594232E+02 -0.19216399339E+02  0.25385069456E+02  0.51100000000E-03 0. -1.
        -11    1    3    3    0    0 -0.27190937801E+01  0.64340192856E+01 -0.50751328089E+01  0.86340632637E+01  0.51100000000E-03 0.  1.
        -12    1    3    3    0    0  0.58695305745E+01  0.28188106681E+01 -0.12131143347E+02  0.13768141547E+02  0.00000000000E+00 0.  1.
</event>
<event>
 7    1  0.5541017E-010  0.4778727E+02  0.7816164E-02  0.1312668E+00
        -11   -1    0    0    0    0  0.00000000000E+00  0.00000000000E+00  0.45593999997E+02  0.45594000000E+02  0.51100000000E-03 0.  1.
         11   -1    0    0    0    0 -0.00000000000E+00 -0.00000000000E+00 -0.45593999997E+02  0.45594000000E+02  0.51100000000E-03 0. -1.
    9900012    2    1    2    0    0  0.24624812466E+02 -0.35217751040E+02  0.60788062828E+01  0.47787271169E+02  0.20000000566E+02 0.  0.
        -12    1    1    2    0    0 -0.24624812466E+02  0.35217751040E+02 -0.60788062828E+01  0.43400728831E+02  0.00000000000E+00 0.  1.
         11    1    3    3    0    0 -0.25532166701E+01 -0.26979700548E+00  0.16567908452E+01  0.30555951883E+01  0.51100000000E-03 0.  1.
        -11    1    3    3    0    0  0.24148653787E+01 -0.46183148360E+01  0.17021214734E+01  0.54824834239E+01  0.51100000000E-03 0. -1.
        -12    1    3    3    0    0  0.24763163757E+02 -0.30329639198E+02  0.27198939642E+01  0.39249192556E+02  0.00000000000E+00 0.  1.
</event>
<event>
 7    1  0.5541017E-010  0.4778727E+02  0.7816164E-02  0.1312668E+00
        -11   -1    0    0    0    0  0.00000000000E+00  0.00000000000E+00  0.45593999997E+02  0.45594000000E+02  0.51100000000E-03 0.  1.
         11   -1    0    0    0    0 -0.00000000000E+00 -0.00000000000E+00 -0.45593999997E+02  0.45594000000E+02  0.51100000000E-03 0. -1.
    9900012    2    1    2    0    0  0.17850729806E+02  0.19187982194E+02 -0.34594736389E+02  0.47787274187E+02  0.20000014327E+02 0.  0.
        -12    1    1    2    0    0 -0.17850729806E+02 -0.19187982194E+02  0.34594736389E+02  0.43400725813E+02  0.00000000000E+00 0.  1.
         11    1    3    3    0    0  0.81470576201E+01  0.63551720598E+01 -0.17215204577E+02  0.20077998622E+02  0.51100000000E-03 0. -1.
        -11    1    3    3    0    0  0.13409037639E+02  0.99127063483E+01 -0.14983183875E+02  0.22417846392E+02  0.51100000000E-03 0.  1.
        -12    1    3    3    0    0 -0.37053654529E+01  0.29201037862E+01 -0.23963479374E+01  0.52914291735E+01  0.00000000000E+00 0.  1.
</event>
<event>
 7    1  0.5541017E-010  0.4778727E+02  0.7816164E-02  0.1312668E+00
        -11   -1    0    0    0    0  0.00000000000E+00  0.00000000000E+00  0.45593999997E+02  0.45594000000E+02  0.51100000000E-03 0.  1.
         11   -1    0    0    0    0 -0.00000000000E+00 -0.00000000000E+00 -0.45593999997E+02  0.45594000000E+02  0.51100000000E-03 0. -1.
    9900012    2    1    2    0    0 -0.24939429752E+02  0.35518620839E+02 -0.27575275788E+00  0.47787267031E+02  0.19999981702E+02 0.  0.
        -12    1    1    2    0    0  0.24939429752E+02 -0.35518620839E+02  0.27575275788E+00  0.43400732969E+02  0.00000000000E+00 0.  1.
         11    1    3    3    0    0 -0.65078200809E+01  0.79465647867E+01 -0.32109029969E+01  0.10761482818E+02  0.51100000000E-03 0. -1.
        -11    1    3    3    0    0 -0.19911603600E+02  0.24747330178E+02  0.63085760165E+01  0.32383644645E+02  0.51100000000E-03 0.  1.
        -12    1    3    3    0    0  0.14799939295E+01  0.28247258741E+01 -0.33734257775E+01  0.46421395683E+01  0.00000000000E+00 0.  1.
</event>
<event>
 7    1  0.5541017E-010  0.4778727E+02  0.7816164E-02  0.1312668E+00
        -11   -1    0    0    0    0  0.00000000000E+00  0.00000000000E+00  0.45593999997E+02  0.45594000000E+02  0.51100000000E-03 0.  1.
         11   -1    0    0    0    0 -0.00000000000E+00 -0.00000000000E+00 -0.45593999997E+02  0.45594000000E+02  0.51100000000E-03 0. -1.
    9900012    2    1    2    0    0 -0.31772513699E+02 -0.28952752494E+02  0.59890422725E+01  0.47787272690E+02  0.20000007503E+02 0.  0.
        -12    1    1    2    0    0  0.31772513699E+02  0.28952752494E+02 -0.59890422725E+01  0.43400727310E+02  0.00000000000E+00 0.  1.
         11    1    3    3    0    0 -0.23192679340E+02 -0.19044702902E+02  0.13033576594E+01  0.30038305962E+02  0.51100000000E-03 0. -1.
        -11    1    3    3    0    0 -0.57265324212E+01 -0.97751355464E+01 -0.10132823473E+01  0.11374233596E+02  0.51100000000E-03 0.  1.
        -12    1    3    3    0    0 -0.28533019371E+01 -0.13291404482E+00  0.56989669604E+01  0.63747331319E+01  0.00000000000E+00 0.  1.
</event>
<event>
 7    1  0.5541017E-010  0.4778724E+02  0.7816164E-02  0.1312668E+00
        -11   -1    0    0    0    0  0.00000000000E+00  0.00000000000E+00  0.45593999997E+02  0.45594000000E+02  0.51100000000E-03 0. -1.
         11   -1    0    0    0    0 -0.00000000000E+00 -0.00000000000E+00 -0.45593999997E+02  0.45594000000E+02  0.51100000000E-03 0.  1.
    9900012    2    1    2    0    0  0.75091832301E+01 -0.36981941250E+02  0.21437679075E+02  0.47787240841E+02  0.19999862292E+02 0.  0.
        -12    1    1    2    0    0 -0.75091832301E+01  0.36981941250E+02 -0.21437679075E+02  0.43400759159E+02  0.00000000000E+00 0.  1.
         11    1    3    3    0    0  0.16221462647E+01 -0.49937308609E+01  0.80810197627E+01  0.96369905615E+01  0.51100000000E-03 0. -1.
        -11    1    3    3    0    0 -0.23026722709E+01 -0.42656539306E+00 -0.96998401481E+00  0.25347833974E+01  0.51100000000E-03 0.  1.
        -12    1    3    3    0    0  0.81897092363E+01 -0.31561644996E+02  0.14326643327E+02  0.35615466883E+02  0.00000000000E+00 0.  1.
</event>
