<event>
 7    1  0.6046695E-013  0.5052884E+02  0.7816164E-02  0.1300439E+00
        -11   -1    0    0    0    0  0.00000000000E+00  0.00000000000E+00  0.45593999997E+02  0.45594000000E+02  0.51100000000E-03 0.  1.
         11   -1    0    0    0    0 -0.00000000000E+00 -0.00000000000E+00 -0.45593999997E+02  0.45594000000E+02  0.51100000000E-03 0. -1.
    9900012    2    1    2    0    0 -0.20868050476E+02  0.28758686398E+02  0.19764350537E+02  0.50528842038E+02  0.29999945859E+02 0.  0.
         12    1    1    2    0    0  0.20868050476E+02 -0.28758686398E+02 -0.19764350537E+02  0.40659157962E+02  0.00000000000E+00 0. -1.
         11    1    3    3    0    0  0.28179727331E+01 -0.36580579368E+00  0.70578886849E+00  0.29279553260E+01  0.51100000000E-03 0. -1.
        -11    1    3    3    0    0 -0.23165821053E+02  0.19532554264E+02  0.52087842815E+01  0.30745851347E+02  0.51100000000E-03 0.  1.
        -12    1    3    3    0    0 -0.52020215705E+00  0.95919379275E+01  0.13849777387E+02  0.16855035365E+02  0.00000000000E+00 0.  1.
</event>
<event>
 7    1  0.6046695E-013  0.5052883E+02  0.7816164E-02  0.1300439E+00
        -11   -1    0    0    0    0  0.00000000000E+00  0.00000000000E+00  0.45593999997E+02  0.45594000000E+02  0.51100000000E-03 0.  1.
         11   -1    0    0    0    0 -0.00000000000E+00 -0.00000000000E+00 -0.45593999997E+02  0.45594000000E+02  0.51100000000E-03 0. -1.
    9900012    2    1    2    0    0  0.26696001126E+02 -0.27718417268E+02  0.13121769689E+02  0.50528831640E+02  0.29999914252E+02 0.  0.
         12    1    1    2    0    0 -0.26696001126E+02  0.27718417268E+02 -0.13121769689E+02  0.40659168360E+02  0.00000000000E+00 0. -1.
         11    1    3    3    0    0  0.52400887131E+00 -0.14443497735E+02 -0.12012213672E+01  0.14502832315E+02  0.51100000000E-03 0. -1.
        -11    1    3    3    0    0  0.15686557389E+02  0.55982850164E+00  0.69060596440E+01  0.17148619499E+02  0.51100000000E-03 0.  1.
        -12    1    3    3    0    0  0.10485434867E+02 -0.13834748035E+02  0.74169314124E+01  0.18877379826E+02  0.00000000000E+00 0.  1.
</event>
<event>
 7    1  0.6046695E-013  0.5052888E+02  0.7816164E-02  0.1300439E+00
        -11   -1    0    0    0    0  0.00000000000E+00  0.00000000000E+00  0.45593999997E+02  0.45594000000E+02  0.51100000000E-03 0.  1.
         11   -1    0    0    0    0 -0.00000000000E+00 -0.00000000000E+00 -0.45593999997E+02  0.45594000000E+02  0.51100000000E-03 0. -1.
    9900012    2    1    2    0    0  0.26536820420E+02  0.11907742527E+02 -0.28410687833E+02  0.50528876138E+02  0.30000049510E+02 0.  0.
         12    1    1    2    0    0 -0.26536820420E+02 -0.11907742527E+02  0.28410687833E+02  0.40659123862E+02  0.00000000000E+00 0. -1.
         11    1    3    3    0    0  0.26241853168E+02  0.35559161712E+01 -0.26163417307E+02  0.37226385844E+02  0.51100000000E-03 0. -1.
        -11    1    3    3    0    0  0.15418369488E+01  0.33068871462E+01  0.38411219212E+01  0.52978280124E+01  0.51100000000E-03 0.  1.
         12    1    3    3    0    0 -0.12468696977E+01  0.50449392093E+01 -0.60883924466E+01  0.80046622823E+01  0.00000000000E+00 0. -1.
</event>
<event>
 7    1  0.6046695E-013  0.5052883E+02  0.7816164E-02  0.1300439E+00
        -11   -1    0    0    0    0  0.00000000000E+00  0.00000000000E+00  0.45593999997E+02  0.45594000000E+02  0.51100000000E-03 0.  1.
         11   -1    0    0    0    0 -0.00000000000E+00 -0.00000000000E+00 -0.45593999997E+02  0.45594000000E+02  0.51100000000E-03 0. -1.
    9900012    2    1    2    0    0  0.16603287306E+01  0.93259098864E+01  0.39540343447E+02  0.50528830719E+02  0.29999911454E+02 0.  0.
         12    1    1    2    0    0 -0.16603287306E+01 -0.93259098864E+01 -0.39540343447E+02  0.40659169281E+02  0.00000000000E+00 0. -1.
         11    1    3    3    0    0  0.15097213083E+01 -0.89005130599E+01  0.12009458629E+02  0.15024163470E+02  0.51100000000E-03 0. -1.
        -11    1    3    3    0    0  0.16620277748E+00  0.61702650647E+01  0.20800646684E+02  0.21697158733E+02  0.51100000000E-03 0.  1.
         12    1    3    3    0    0 -0.15595355198E-01  0.12056157882E+02  0.67302381335E+01  0.13807508516E+02  0.00000000000E+00 0. -1.
</event>
<event>
 7    1  0.6046695E-013  0.5052885E+02  0.7816164E-02  0.1300439E+00
        -11   -1    0    0    0    0  0.00000000000E+00  0.00000000000E+00  0.45593999997E+02  0.45594000000E+02  0.51100000000E-03 0.  1.
         11   -1    0    0    0    0 -0.00000000000E+00 -0.00000000000E+00 -0.45593999997E+02  0.45594000000E+02  0.51100000000E-03 0. -1.
    9900012    2    1    2    0    0  0.20053069610E+02  0.37208382129E+01  0.35173801356E+02  0.50528849251E+02  0.29999967784E+02 0.  0.
         12    1    1    2    0    0 -0.20053069610E+02 -0.37208382129E+01 -0.35173801356E+02  0.40659150749E+02  0.00000000000E+00 0. -1.
         11    1    3    3    0    0 -0.48186335187E+01  0.20952461153E+01  0.22028330817E+00  0.52590693348E+01  0.51100000000E-03 0. -1.
        -11    1    3    3    0    0  0.16707243008E+02 -0.57599846405E+01  0.19805916528E+02  0.26543995964E+02  0.51100000000E-03 0.  1.
         12    1    3    3    0    0  0.81644601206E+01  0.73855767382E+01  0.15147601520E+02  0.18725783952E+02  0.00000000000E+00 0. -1.
</event>
<event>
 7    1  0.6046695E-013  0.5052886E+02  0.7816164E-02  0.1300439E+00
        -11   -1    0    0    0    0  0.00000000000E+00  0.00000000000E+00  0.45593999997E+02  0.45594000000E+02  0.51100000000E-03 0.  1.
         11   -1    0    0    0    0 -0.00000000000E+00 -0.00000000000E+00 -0.45593999997E+02  0.45594000000E+02  0.51100000000E-03 0. -1.
    9900012    2    1    2    0    0 -0.23913368468E+02 -0.71053161646E+01  0.32106552049E+02  0.50528863342E+02  0.30000010614E+02 0.  0.
         12    1    1    2    0    0  0.23913368468E+02  0.71053161646E+01 -0.32106552049E+02  0.40659136658E+02  0.00000000000E+00 0. -1.
         11    1    3    3    0    0  0.10897962415E+01 -0.96880315326E+01  0.91642776527E+01  0.13380194168E+02  0.51100000000E-03 0. -1.
        -11    1    3    3    0    0 -0.19651426847E+02  0.70308388373E+01  0.21647415818E+02  0.30070282402E+02  0.51100000000E-03 0.  1.
        -12    1    3    3    0    0 -0.53517378625E+01 -0.44481234693E+01  0.12948585786E+01  0.70783867714E+01  0.00000000000E+00 0.  1.
</event>
<event>
 7    1  0.6046695E-013  0.5052887E+02  0.7816164E-02  0.1300439E+00
        -11   -1    0    0    0    0  0.00000000000E+00  0.00000000000E+00  0.45593999997E+02  0.45594000000E+02  0.51100000000E-03 0.  1.
         11   -1    0    0    0    0 -0.00000000000E+00 -0.00000000000E+00 -0.45593999997E+02  0.45594000000E+02  0.51100000000E-03 0. -1.
    9900012    2    1    2    0    0 -0.38956046816E+02 -0.11079182922E+02  0.35837617222E+01  0.50528865408E+02  0.30000016893E+02 0.  0.
         12    1    1    2    0    0  0.38956046816E+02  0.11079182922E+02 -0.35837617222E+01  0.40659134592E+02  0.00000000000E+00 0. -1.
         11    1    3    3    0    0 -0.10387076932E+01 -0.21608758779E+01  0.23132940825E+01  0.33316104222E+01  0.51100000000E-03 0. -1.
        -11    1    3    3    0    0 -0.27920994010E+02  0.52751378165E+01 -0.47771547349E+01  0.28813715364E+02  0.51100000000E-03 0.  1.
        -12    1    3    3    0    0 -0.99963451128E+01 -0.14193444860E+02  0.60476223746E+01  0.18383539621E+02  0.00000000000E+00 0.  1.
</event>
<event>
 7    1  0.6046695E-013  0.5052887E+02  0.7816164E-02  0.1300439E+00
        -11   -1    0    0    0    0  0.00000000000E+00  0.00000000000E+00  0.45593999997E+02  0.45594000000E+02  0.51100000000E-03 0.  1.
         11   -1    0    0    0    0 -0.00000000000E+00 -0.00000000000E+00 -0.45593999997E+02  0.45594000000E+02  0.51100000000E-03 0. -1.
    9900012    2    1    2    0    0 -0.20564759675E+02  0.35044905398E+02 -0.14527389041E+01  0.50528865908E+02  0.30000018413E+02 0.  0.
         12    1    1    2    0    0  0.20564759675E+02 -0.35044905398E+02  0.14527389041E+01  0.40659134092E+02  0.00000000000E+00 0. -1.
         11    1    3    3    0    0 -0.73029729515E+01  0.10504340866E+01  0.71154570204E+00  0.74123628653E+01  0.51100000000E-03 0. -1.
        -11    1    3    3    0    0 -0.55159248574E+01  0.34810590122E+02 -0.11673358487E+01  0.35264221031E+02  0.51100000000E-03 0.  1.
        -12    1    3    3    0    0 -0.77458618658E+01 -0.81611881130E+00 -0.99694875748E+00  0.78522820112E+01  0.00000000000E+00 0.  1.
</event>
<event>
 7    1  0.6046695E-013  0.5052886E+02  0.7816164E-02  0.1300439E+00
        -11   -1    0    0    0    0  0.00000000000E+00  0.00000000000E+00  0.45593999997E+02  0.45594000000E+02  0.51100000000E-03 0.  1.
         11   -1    0    0    0    0 -0.00000000000E+00 -0.00000000000E+00 -0.45593999997E+02  0.45594000000E+02  0.51100000000E-03 0. -1.
    9900012    2    1    2    0    0  0.60462213674E+01  0.40177051007E+02 -0.15536506805E+01  0.50528855262E+02  0.29999986053E+02 0.  0.
         12    1    1    2    0    0 -0.60462213674E+01 -0.40177051007E+02  0.15536506805E+01  0.40659144738E+02  0.00000000000E+00 0. -1.
         11    1    3    3    0    0  0.44265061991E+00  0.60103671680E+01 -0.94273073089E+00  0.60999339798E+01  0.51100000000E-03 0. -1.
        -11    1    3    3    0    0  0.14463470002E+02  0.29789647144E+02 -0.52212556910E+01  0.33524268116E+02  0.51100000000E-03 0.  1.
        -12    1    3    3    0    0 -0.88598992542E+01  0.43770366948E+01  0.46103357414E+01  0.10904653166E+02  0.00000000000E+00 0.  1.
</event>
<event>
 7    1  0.6046695E-013  0.5052884E+02  0.7816164E-02  0.1300439E+00
        -11   -1    0    0    0    0  0.00000000000E+00  0.00000000000E+00  0.45593999997E+02  0.45594000000E+02  0.51100000000E-03 0.  1.
         11   -1    0    0    0    0 -0.00000000000E+00 -0.00000000000E+00 -0.45593999997E+02  0.45594000000E+02  0.51100000000E-03 0. -1.
    9900012    2    1    2    0    0 -0.38126136250E+01  0.29386250595E+02  0.27840253401E+02  0.50528837981E+02  0.29999933527E+02 0.  0.
         12    1    1    2    0    0  0.38126136250E+01 -0.29386250595E+02 -0.27840253401E+02  0.40659162019E+02  0.00000000000E+00 0. -1.
         11    1    3    3    0    0  0.82595341945E+01  0.11133810791E+02  0.40071655242E+01  0.14430489376E+02  0.51100000000E-03 0. -1.
        -11    1    3    3    0    0 -0.68937309432E+01  0.19949636021E+02  0.15689527467E+02  0.26299672547E+02  0.51100000000E-03 0.  1.
         12    1    3    3    0    0 -0.51784168763E+01 -0.16971962168E+01  0.81435604095E+01  0.97986760578E+01  0.00000000000E+00 0. -1.
</event>
<event>
 7    1  0.6046695E-013  0.5052886E+02  0.7816164E-02  0.1300439E+00
        -11   -1    0    0    0    0  0.00000000000E+00  0.00000000000E+00  0.45593999997E+02  0.45594000000E+02  0.51100000000E-03 0. -1.
         11   -1    0    0    0    0 -0.00000000000E+00 -0.00000000000E+00 -0.45593999997E+02  0.45594000000E+02  0.51100000000E-03 0.  1.
    9900012    2    1    2    0    0 -0.35321448097E+02  0.19409642822E+02 -0.53690834249E+01  0.50528856047E+02  0.29999988441E+02 0.  0.
         12    1    1    2    0    0  0.35321448097E+02 -0.19409642822E+02  0.53690834249E+01  0.40659143953E+02  0.00000000000E+00 0. -1.
         11    1    3    3    0    0 -0.22258687816E+02  0.99829016888E+01 -0.83299185826E+01  0.25777801560E+02  0.51100000000E-03 0.  1.
        -11    1    3    3    0    0 -0.41580157158E+01 -0.30405940140E+01  0.72014861892E+01  0.88541352060E+01  0.51100000000E-03 0. -1.
         12    1    3    3    0    0 -0.89047445651E+01  0.12467335147E+02 -0.42406510316E+01  0.15896919281E+02  0.00000000000E+00 0. -1.
</event>
<event>
 7    1  0.6046695E-013  0.5052885E+02  0.7816164E-02  0.1300439E+00
        -11   -1    0    0    0    0  0.00000000000E+00  0.00000000000E+00  0.45593999997E+02  0.45594000000E+02  0.51100000000E-03 0. -1.
         11   -1    0    0    0    0 -0.00000000000E+00 -0.00000000000E+00 -0.45593999997E+02  0.45594000000E+02  0.51100000000E-03 0.  1.
    9900012    2    1    2    0    0  0.18842967722E+02 -0.16258300076E+02 -0.32152396874E+02  0.50528851230E+02  0.29999973799E+02 0.  0.
         12    1    1    2    0    0 -0.18842967722E+02  0.16258300076E+02  0.32152396874E+02  0.40659148770E+02  0.00000000000E+00 0. -1.
         11    1    3    3    0    0  0.88983363652E+00 -0.15934014957E+01  0.39223156711E+01  0.43261175102E+01  0.51100000000E-03 0. -1.
        -11    1    3    3    0    0  0.12340077473E+02 -0.49027009446E+00 -0.23054742590E+02  0.26154139882E+02  0.51100000000E-03 0.  1.
         12    1    3    3    0    0  0.56130566125E+01 -0.14174628486E+02 -0.13019969956E+02  0.20048593838E+02  0.00000000000E+00 0. -1.
</event>
<event>
 7    1  0.6046695E-013  0.5052887E+02  0.7816164E-02  0.1300439E+00
        -11   -1    0    0    0    0  0.00000000000E+00  0.00000000000E+00  0.45593999997E+02  0.45594000000E+02  0.51100000000E-03 0. -1.
         11   -1    0    0    0    0 -0.00000000000E+00 -0.00000000000E+00 -0.45593999997E+02  0.45594000000E+02  0.51100000000E-03 0.  1.
    9900012    2    1    2    0    0 -0.26273004901E+01 -0.38102584860E+02 -0.13944717281E+02  0.50528870386E+02  0.30000032026E+02 0.  0.
         12    1    1    2    0    0  0.26273004901E+01  0.38102584860E+02  0.13944717281E+02  0.40659129614E+02  0.00000000000E+00 0. -1.
         11    1    3    3    0    0  0.56954714931E+01 -0.14937694802E+02 -0.71664823464E+01  0.17519463205E+02  0.51100000000E-03 0.  1.
        -11    1    3    3    0    0 -0.62852139565E+01  0.99287532942E+00 -0.60115175242E+01  0.87537454329E+01  0.51100000000E-03 0. -1.
        -12    1    3    3    0    0 -0.20375580267E+01 -0.24157765388E+02 -0.76671741031E+00  0.24255661748E+02  0.00000000000E+00 0.  1.
</event>
<event>
 7    1  0.6046695E-013  0.5052886E+02  0.7816164E-02  0.1300439E+00
        -11   -1    0    0    0    0  0.00000000000E+00  0.00000000000E+00  0.45593999997E+02  0.45594000000E+02  0.51100000000E-03 0.  1.
         11   -1    0    0    0    0 -0.00000000000E+00 -0.00000000000E+00 -0.45593999997E+02  0.45594000000E+02  0.51100000000E-03 0. -1.
    9900012    2    1    2    0    0 -0.36461620186E+02 -0.17951610214E+02 -0.12065937517E+01  0.50528856817E+02  0.29999990782E+02 0.  0.
         12    1    1    2    0    0  0.36461620186E+02  0.17951610214E+02  0.12065937517E+01  0.40659143183E+02  0.00000000000E+00 0. -1.
         11    1    3    3    0    0  0.24772997861E+01 -0.87786493778E+01 -0.28448901762E+01  0.95548469116E+01  0.51100000000E-03 0. -1.
        -11    1    3    3    0    0 -0.18103606102E+02 -0.69364782438E+01  0.42780661436E+01  0.19853391008E+02  0.51100000000E-03 0.  1.
         12    1    3    3    0    0 -0.20835313870E+02 -0.22364825922E+01 -0.26397697190E+01  0.21120618897E+02  0.00000000000E+00 0. -1.
</event>
<event>
 7    1  0.6046695E-013  0.5052886E+02  0.7816164E-02  0.1300439E+00
        -11   -1    0    0    0    0  0.00000000000E+00  0.00000000000E+00  0.45593999997E+02  0.45594000000E+02  0.51100000000E-03 0. -1.
         11   -1    0    0    0    0 -0.00000000000E+00 -0.00000000000E+00 -0.45593999997E+02  0.45594000000E+02  0.51100000000E-03 0.  1.
    9900012    2    1    2    0    0 -0.20335743845E+01  0.35399076396E+02 -0.19898132056E+02  0.50528859653E+02  0.29999999401E+02 0.  0.
         12    1    1    2    0    0  0.20335743845E+01 -0.35399076396E+02  0.19898132056E+02  0.40659140347E+02  0.00000000000E+00 0. -1.
         11    1    3    3    0    0  0.23314582237E+01  0.44807706825E+01 -0.14103135056E+02  0.14980367887E+02  0.51100000000E-03 0. -1.
        -11    1    3    3    0    0  0.41396816131E+01  0.19566396063E+02 -0.72873944871E+01  0.21285838894E+02  0.51100000000E-03 0.  1.
         12    1    3    3    0    0 -0.85047142213E+01  0.11351909650E+02  0.14923974870E+01  0.14262652872E+02  0.00000000000E+00 0. -1.
</event>
<event>
 7    1  0.6046695E-013  0.5052885E+02  0.7816164E-02  0.1300439E+00
        -11   -1    0    0    0    0  0.00000000000E+00  0.00000000000E+00  0.45593999997E+02  0.45594000000E+02  0.51100000000E-03 0. -1.
         11   -1    0    0    0    0 -0.00000000000E+00 -0.00000000000E+00 -0.45593999997E+02  0.45594000000E+02  0.51100000000E-03 0.  1.
    9900012    2    1    2    0    0  0.91843921649E+01 -0.90786812538E+01 -0.38553740150E+02  0.50528851063E+02  0.29999973290E+02 0.  0.
         12    1    1    2    0    0 -0.91843921649E+01  0.90786812538E+01  0.38553740150E+02  0.40659148937E+02  0.00000000000E+00 0. -1.
         11    1    3    3    0    0 -0.46239644863E+01 -0.35501232621E+01  0.26708452376E+00  0.58357310725E+01  0.51100000000E-03 0. -1.
        -11    1    3    3    0    0  0.13485770651E+02 -0.21329266037E+01 -0.38956168386E+02  0.41279516004E+02  0.51100000000E-03 0.  1.
        -12    1    3    3    0    0  0.32258600042E+00 -0.33956313881E+01  0.13534371239E+00  0.34136039858E+01  0.00000000000E+00 0.  1.
</event>
<event>
 7    1  0.6046695E-013  0.5052886E+02  0.7816164E-02  0.1300439E+00
        -11   -1    0    0    0    0  0.00000000000E+00  0.00000000000E+00  0.45593999997E+02  0.45594000000E+02  0.51100000000E-03 0. -1.
         11   -1    0    0    0    0 -0.00000000000E+00 -0.00000000000E+00 -0.45593999997E+02  0.45594000000E+02  0.51100000000E-03 0.  1.
    9900012    2    1    2    0    0  0.27880229741E+02  0.10816203383E+02  0.27547559493E+02  0.50528862035E+02  0.30000006642E+02 0.  0.
         12    1    1    2    0    0 -0.27880229741E+02 -0.10816203383E+02 -0.27547559493E+02  0.40659137965E+02  0.00000000000E+00 0. -1.
         11    1    3    3    0    0  0.81379308448E+01 -0.14397927641E+00  0.24401751261E+02  0.25723376788E+02  0.51100000000E-03 0. -1.
        -11    1    3    3    0    0  0.81248969055E+00  0.44104508729E+01  0.14026008845E+01  0.46988834740E+01  0.51100000000E-03 0.  1.
         12    1    3    3    0    0  0.18929809205E+02  0.65497317862E+01  0.17432073474E+01  0.20106601774E+02  0.00000000000E+00 0. -1.
</event>
<event>
 7    1  0.6046695E-013  0.5052886E+02  0.7816164E-02  0.1300439E+00
        -11   -1    0    0    0    0  0.00000000000E+00  0.00000000000E+00  0.45593999997E+02  0.45594000000E+02  0.51100000000E-03 0. -1.
         11   -1    0    0    0    0 -0.00000000000E+00 -0.00000000000E+00 -0.45593999997E+02  0.45594000000E+02  0.51100000000E-03 0.  1.
    9900012    2    1    2    0    0 -0.30078652603E+02 -0.18746657376E+01 -0.27293325726E+02  0.50528863964E+02  0.30000012505E+02 0.  0.
         12    1    1    2    0    0  0.30078652603E+02  0.18746657376E+01  0.27293325726E+02  0.40659136036E+02  0.00000000000E+00 0. -1.
         11    1    3    3    0    0 -0.20563705752E+02  0.41729641035E+01 -0.18894959930E+01  0.21067743568E+02  0.51100000000E-03 0. -1.
        -11    1    3    3    0    0 -0.31509640595E+01 -0.67900745426E+01 -0.81997041326E+01  0.11102649905E+02  0.51100000000E-03 0.  1.
         12    1    3    3    0    0 -0.63639827908E+01  0.74244470149E+00 -0.17204125600E+02  0.18358470491E+02  0.00000000000E+00 0. -1.
</event>
<event>
 7    1  0.6046695E-013  0.5052885E+02  0.7816164E-02  0.1300439E+00
        -11   -1    0    0    0    0  0.00000000000E+00  0.00000000000E+00  0.45593999997E+02  0.45594000000E+02  0.51100000000E-03 0.  1.
         11   -1    0    0    0    0 -0.00000000000E+00 -0.00000000000E+00 -0.45593999997E+02  0.45594000000E+02  0.51100000000E-03 0. -1.
    9900012    2    1    2    0    0  0.12591276425E+02 -0.31535328394E+02  0.22364026712E+02  0.50528845192E+02  0.29999955446E+02 0.  0.
         12    1    1    2    0    0 -0.12591276425E+02  0.31535328394E+02 -0.22364026712E+02  0.40659154808E+02  0.00000000000E+00 0. -1.
         11    1    3    3    0    0  0.19147735191E+02 -0.20117845608E+02  0.63801867954E+01  0.28496846468E+02  0.51100000000E-03 0. -1.
        -11    1    3    3    0    0  0.17310130301E+00 -0.22489065486E+01  0.75312127094E+01  0.78617243567E+01  0.51100000000E-03 0.  1.
         12    1    3    3    0    0 -0.67295600687E+01 -0.91685762376E+01  0.84526272069E+01  0.14170274367E+02  0.00000000000E+00 0. -1.
</event>
<event>
 7    1  0.6046695E-013  0.5052885E+02  0.7816164E-02  0.1300439E+00
        -11   -1    0    0    0    0  0.00000000000E+00  0.00000000000E+00  0.45593999997E+02  0.45594000000E+02  0.51100000000E-03 0.  1.
         11   -1    0    0    0    0 -0.00000000000E+00 -0.00000000000E+00 -0.45593999997E+02  0.45594000000E+02  0.51100000000E-03 0. -1.
    9900012    2    1    2    0    0 -0.36014263909E+01 -0.22267088990E+02  0.33828584410E+02  0.50528847927E+02  0.29999963759E+02 0.  0.
         12    1    1    2    0    0  0.36014263909E+01  0.22267088990E+02 -0.33828584410E+02  0.40659152073E+02  0.00000000000E+00 0. -1.
         11    1    3    3    0    0  0.10404530893E+02 -0.31817175999E+01  0.32105586089E+01  0.11343953316E+02  0.51100000000E-03 0. -1.
        -11    1    3    3    0    0 -0.76751484965E+01 -0.11858167488E+02  0.22693975895E+02  0.26730891920E+02  0.51100000000E-03 0.  1.
         12    1    3    3    0    0 -0.63308087872E+01 -0.72272039015E+01  0.79240499058E+01  0.12454002692E+02  0.00000000000E+00 0. -1.
</event>
<event>
 7    1  0.6046695E-013  0.5052885E+02  0.7816164E-02  0.1300439E+00
        -11   -1    0    0    0    0  0.00000000000E+00  0.00000000000E+00  0.45593999997E+02  0.45594000000E+02  0.51100000000E-03 0. -1.
         11   -1    0    0    0    0 -0.00000000000E+00 -0.00000000000E+00 -0.45593999997E+02  0.45594000000E+02  0.51100000000E-03 0.  1.
    9900012    2    1    2    0    0 -0.29214555287E+02  0.27238221792E+02 -0.75997261080E+01  0.50528846001E+02  0.29999957904E+02 0.  0.
         12    1    1    2    0    0  0.29214555287E+02 -0.27238221792E+02  0.75997261080E+01  0.40659153999E+02  0.00000000000E+00 0. -1.
         11    1    3    3    0    0 -0.17150312706E+02  0.24407809114E+01  0.69653173402E+01  0.18671001132E+02  0.51100000000E-03 0. -1.
        -11    1    3    3    0    0 -0.94277039226E+01  0.13378131852E+02 -0.10538247189E+02  0.19465627839E+02  0.51100000000E-03 0.  1.
         12    1    3    3    0    0 -0.26365386584E+01  0.11419309029E+02 -0.40267962595E+01  0.12392217030E+02  0.00000000000E+00 0. -1.
</event>
<event>
 7    1  0.6046695E-013  0.5052886E+02  0.7816164E-02  0.1300439E+00
        -11   -1    0    0    0    0  0.00000000000E+00  0.00000000000E+00  0.45593999997E+02  0.45594000000E+02  0.51100000000E-03 0. -1.
         11   -1    0    0    0    0 -0.00000000000E+00 -0.00000000000E+00 -0.45593999997E+02  0.45594000000E+02  0.51100000000E-03 0.  1.
    9900012    2    1    2    0    0 -0.16369232416E+01 -0.21217993018E+02 -0.34645098683E+02  0.50528860705E+02  0.30000002600E+02 0.  0.
         12    1    1    2    0    0  0.16369232416E+01  0.21217993018E+02  0.34645098683E+02  0.40659139295E+02  0.00000000000E+00 0. -1.
         11    1    3    3    0    0  0.66415676175E+01  0.31595863338E+01 -0.10242208997E+02  0.12609371579E+02  0.51100000000E-03 0. -1.
        -11    1    3    3    0    0 -0.69597443251E+01 -0.22252898840E+02 -0.26022651161E+02  0.34940061843E+02  0.51100000000E-03 0.  1.
        -12    1    3    3    0    0 -0.13187465340E+01 -0.21246805121E+01  0.16197614754E+01  0.29794272833E+01  0.00000000000E+00 0.  1.
</event>
<event>
 7    1  0.6046695E-013  0.5052886E+02  0.7816164E-02  0.1300439E+00
        -11   -1    0    0    0    0  0.00000000000E+00  0.00000000000E+00  0.45593999997E+02  0.45594000000E+02  0.51100000000E-03 0.  1.
         11   -1    0    0    0    0 -0.00000000000E+00 -0.00000000000E+00 -0.45593999997E+02  0.45594000000E+02  0.51100000000E-03 0. -1.
    9900012    2    1    2    0    0 -0.12202128305E+02  0.25096593910E+02  0.29570847467E+02  0.50528856121E+02  0.29999988664E+02 0.  0.
         12    1    1    2    0    0  0.12202128305E+02 -0.25096593910E+02 -0.29570847467E+02  0.40659143879E+02  0.00000000000E+00 0. -1.
         11    1    3    3    0    0 -0.90334899617E+01  0.27142419297E+02  0.11107741694E+02  0.30687078583E+02  0.51100000000E-03 0. -1.
        -11    1    3    3    0    0  0.57851785564E+00  0.17789953443E+01  0.57646991864E+01  0.60606323362E+01  0.51100000000E-03 0.  1.
         12    1    3    3    0    0 -0.37471561991E+01 -0.38248207308E+01  0.12698406587E+02  0.13781145201E+02  0.00000000000E+00 0. -1.
</event>
<event>
 7    1  0.6046695E-013  0.5052886E+02  0.7816164E-02  0.1300439E+00
        -11   -1    0    0    0    0  0.00000000000E+00  0.00000000000E+00  0.45593999997E+02  0.45594000000E+02  0.51100000000E-03 0. -1.
         11   -1    0    0    0    0 -0.00000000000E+00 -0.00000000000E+00 -0.45593999997E+02  0.45594000000E+02  0.51100000000E-03 0.  1.
    9900012    2    1    2    0    0  0.34125596542E+02 -0.20917445269E+02 -0.71463290482E+01  0.50528857427E+02  0.29999992634E+02 0.  0.
         12    1    1    2    0    0 -0.34125596542E+02  0.20917445269E+02  0.71463290482E+01  0.40659142573E+02  0.00000000000E+00 0. -1.
         11    1    3    3    0    0  0.28734329462E+02 -0.32809073862E+01  0.28787532782E+01  0.29063951273E+02  0.51100000000E-03 0. -1.
        -11    1    3    3    0    0  0.56130567441E+01 -0.13175332571E+02 -0.88904618237E+01  0.16856337267E+02  0.51100000000E-03 0.  1.
         12    1    3    3    0    0 -0.22178966424E+00 -0.44612053125E+01 -0.11346205028E+01  0.46085688864E+01  0.00000000000E+00 0. -1.
</event>
<event>
 7    1  0.6046695E-013  0.5052886E+02  0.7816164E-02  0.1300439E+00
        -11   -1    0    0    0    0  0.00000000000E+00  0.00000000000E+00  0.45593999997E+02  0.45594000000E+02  0.51100000000E-03 0. -1.
         11   -1    0    0    0    0 -0.00000000000E+00 -0.00000000000E+00 -0.45593999997E+02  0.45594000000E+02  0.51100000000E-03 0.  1.
    9900012    2    1    2    0    0  0.35965641198E+02  0.14469280253E+02 -0.12258808827E+02  0.50528858202E+02  0.29999994992E+02 0.  0.
         12    1    1    2    0    0 -0.35965641198E+02 -0.14469280253E+02  0.12258808827E+02  0.40659141798E+02  0.00000000000E+00 0. -1.
         11    1    3    3    0    0  0.25370419809E+02  0.10524967176E+02 -0.11159182041E+02  0.29647267655E+02  0.51100000000E-03 0. -1.
        -11    1    3    3    0    0  0.11247293247E+02 -0.23373842070E+01  0.46001230120E+01  0.12374413210E+02  0.51100000000E-03 0.  1.
         12    1    3    3    0    0 -0.65207185724E+00  0.62816972849E+01 -0.56997497978E+01  0.85071773370E+01  0.00000000000E+00 0. -1.
</event>
<event>
 7    1  0.6046695E-013  0.5052886E+02  0.7816164E-02  0.1300439E+00
        -11   -1    0    0    0    0  0.00000000000E+00  0.00000000000E+00  0.45593999997E+02  0.45594000000E+02  0.51100000000E-03 0.  1.
         11   -1    0    0    0    0 -0.00000000000E+00 -0.00000000000E+00 -0.45593999997E+02  0.45594000000E+02  0.51100000000E-03 0. -1.
    9900012    2    1    2    0    0  0.36255683320E+02  0.18385699354E+02  0.81058324412E+00  0.50528861311E+02  0.30000004441E+02 0.  0.
         12    1    1    2    0    0 -0.36255683320E+02 -0.18385699354E+02 -0.81058324412E+00  0.40659138689E+02  0.00000000000E+00 0. -1.
         11    1    3    3    0    0 -0.25886849212E+00 -0.48412186953E+01 -0.41337511501E+01  0.63712094758E+01  0.51100000000E-03 0. -1.
        -11    1    3    3    0    0  0.17427631355E+02  0.15373545666E+02  0.24574427522E+01  0.23368938062E+02  0.51100000000E-03 0.  1.
         12    1    3    3    0    0  0.19086920457E+02  0.78533723829E+01  0.24868916420E+01  0.20788713774E+02  0.00000000000E+00 0. -1.
</event>
<event>
 7    1  0.6046695E-013  0.5052886E+02  0.7816164E-02  0.1300439E+00
        -11   -1    0    0    0    0  0.00000000000E+00  0.00000000000E+00  0.45593999997E+02  0.45594000000E+02  0.51100000000E-03 0.  1.
         11   -1    0    0    0    0 -0.00000000000E+00 -0.00000000000E+00 -0.45593999997E+02  0.45594000000E+02  0.51100000000E-03 0. -1.
    9900012    2    1    2    0    0  0.39292226198E+02  0.49206252441E+01  0.92235546000E+01  0.50528861398E+02  0.30000004704E+02 0.  0.
         12    1    1    2    0    0 -0.39292226198E+02 -0.49206252441E+01 -0.92235546000E+01  0.40659138602E+02  0.00000000000E+00 0. -1.
         11    1    3    3    0    0  0.77822749746E+01  0.70066374012E+01  0.42611591663E+01  0.11305496413E+02  0.51100000000E-03 0. -1.
        -11    1    3    3    0    0  0.12665801003E+02  0.80866394223E+00 -0.90285763122E+01  0.15575353701E+02  0.51100000000E-03 0.  1.
        -12    1    3    3    0    0  0.18844150221E+02 -0.28946760994E+01  0.13990971746E+02  0.23648011284E+02  0.00000000000E+00 0.  1.
</event>
<event>
 7    1  0.6046695E-013  0.5052886E+02  0.7816164E-02  0.1300439E+00
        -11   -1    0    0    0    0  0.00000000000E+00  0.00000000000E+00  0.45593999997E+02  0.45594000000E+02  0.51100000000E-03 0. -1.
         11   -1    0    0    0    0 -0.00000000000E+00 -0.00000000000E+00 -0.45593999997E+02  0.45594000000E+02  0.51100000000E-03 0.  1.
    9900012    2    1    2    0    0  0.40140246420E+02 -0.64671359645E+01 -0.32016872196E+00  0.50528859105E+02  0.29999997737E+02 0.  0.
         12    1    1    2    0    0 -0.40140246420E+02  0.64671359645E+01  0.32016872196E+00  0.40659140895E+02  0.00000000000E+00 0. -1.
         11    1    3    3    0    0 -0.80781827778E+00 -0.39448529289E+01 -0.78381575279E+01  0.88119889182E+01  0.51100000000E-03 0. -1.
        -11    1    3    3    0    0  0.11481874014E+02 -0.54100407638E+00  0.17729871306E+01  0.11630545985E+02  0.51100000000E-03 0.  1.
         12    1    3    3    0    0  0.29466190684E+02 -0.19812789592E+01  0.57450016753E+01  0.30086324202E+02  0.00000000000E+00 0. -1.
</event>
<event>
 7    1  0.6046695E-013  0.5052886E+02  0.7816164E-02  0.1300439E+00
        -11   -1    0    0    0    0  0.00000000000E+00  0.00000000000E+00  0.45593999997E+02  0.45594000000E+02  0.51100000000E-03 0.  1.
         11   -1    0    0    0    0 -0.00000000000E+00 -0.00000000000E+00 -0.45593999997E+02  0.45594000000E+02  0.51100000000E-03 0. -1.
    9900012    2    1    2    0    0  0.17240643594E+02  0.26890797572E+02  0.25155733489E+02  0.50528859418E+02  0.29999998686E+02 0.  0.
         12    1    1    2    0    0 -0.17240643594E+02 -0.26890797572E+02 -0.25155733489E+02  0.40659140582E+02  0.00000000000E+00 0. -1.
         11    1    3    3    0    0 -0.17040739133E+01  0.96229176645E+01  0.35090158412E+01  0.10383525640E+02  0.51100000000E-03 0. -1.
        -11    1    3    3    0    0  0.13551439545E+02 -0.20724493602E+01  0.94974442433E+01  0.16677470058E+02  0.51100000000E-03 0.  1.
        -12    1    3    3    0    0  0.53932779614E+01  0.19340329267E+02  0.12149273404E+02  0.23467863720E+02  0.00000000000E+00 0.  1.
</event>
<event>
 7    1  0.6046695E-013  0.5052885E+02  0.7816164E-02  0.1300439E+00
        -11   -1    0    0    0    0  0.00000000000E+00  0.00000000000E+00  0.45593999997E+02  0.45594000000E+02  0.51100000000E-03 0. -1.
         11   -1    0    0    0    0 -0.00000000000E+00 -0.00000000000E+00 -0.45593999997E+02  0.45594000000E+02  0.51100000000E-03 0.  1.
    9900012    2    1    2    0    0 -0.16547801176E+02  0.32267494551E+02 -0.18388738586E+02  0.50528848077E+02  0.29999964214E+02 0.  0.
         12    1    1    2    0    0  0.16547801176E+02 -0.32267494551E+02  0.18388738586E+02  0.40659151923E+02  0.00000000000E+00 0. -1.
         11    1    3    3    0    0 -0.12044172148E+01  0.69857836204E+01  0.25978621665E+01  0.75498795829E+01  0.51100000000E-03 0. -1.
        -11    1    3    3    0    0 -0.17672465292E+02  0.24130944674E+02 -0.24462324653E+02  0.38639666769E+02  0.51100000000E-03 0.  1.
        -12    1    3    3    0    0  0.23290813313E+01  0.11507662562E+01  0.34757239004E+01  0.43393017245E+01  0.00000000000E+00 0.  1.
</event>
<event>
 7    1  0.6046695E-013  0.5052885E+02  0.7816164E-02  0.1300439E+00
        -11   -1    0    0    0    0  0.00000000000E+00  0.00000000000E+00  0.45593999997E+02  0.45594000000E+02  0.51100000000E-03 0.  1.
         11   -1    0    0    0    0 -0.00000000000E+00 -0.00000000000E+00 -0.45593999997E+02  0.45594000000E+02  0.51100000000E-03 0. -1.
    9900012    2    1    2    0    0  0.15059619808E+02 -0.28784776027E+02  0.24450167800E+02  0.50528853610E+02  0.29999981034E+02 0.  0.
         12    1    1    2    0    0 -0.15059619808E+02  0.28784776027E+02 -0.24450167800E+02  0.40659146390E+02  0.00000000000E+00 0. -1.
         11    1    3    3    0    0  0.14556525501E+01  0.10741975606E+01 -0.18718949385E+01  0.26032317737E+01  0.51100000000E-03 0. -1.
        -11    1    3    3    0    0  0.17221726875E+02 -0.31515658771E+02  0.22335115667E+02  0.42292812822E+02  0.51100000000E-03 0.  1.
        -12    1    3    3    0    0 -0.36177596164E+01  0.16566851837E+01  0.39869470715E+01  0.56328090142E+01  0.00000000000E+00 0.  1.
</event>
<event>
 7    1  0.6046695E-013  0.5052886E+02  0.7816164E-02  0.1300439E+00
        -11   -1    0    0    0    0  0.00000000000E+00  0.00000000000E+00  0.45593999997E+02  0.45594000000E+02  0.51100000000E-03 0.  1.
         11   -1    0    0    0    0 -0.00000000000E+00 -0.00000000000E+00 -0.45593999997E+02  0.45594000000E+02  0.51100000000E-03 0. -1.
    9900012    2    1    2    0    0 -0.16095875488E+02 -0.37028997041E+02  0.47897365696E+01  0.50528863192E+02  0.30000010158E+02 0.  0.
         12    1    1    2    0    0  0.16095875488E+02  0.37028997041E+02 -0.47897365696E+01  0.40659136808E+02  0.00000000000E+00 0. -1.
         11    1    3    3    0    0 -0.45337972834E+01  0.88643845306E+00 -0.60928432509E+01  0.76461644031E+01  0.51100000000E-03 0. -1.
        -11    1    3    3    0    0 -0.14106439149E+02 -0.32234208427E+02  0.10113808739E+02  0.36610448588E+02  0.51100000000E-03 0.  1.
         12    1    3    3    0    0  0.25443609443E+01 -0.56812270669E+01  0.76877108132E+00  0.62722502004E+01  0.00000000000E+00 0. -1.
</event>
<event>
 7    1  0.6046695E-013  0.5052888E+02  0.7816164E-02  0.1300439E+00
        -11   -1    0    0    0    0  0.00000000000E+00  0.00000000000E+00  0.45593999997E+02  0.45594000000E+02  0.51100000000E-03 0.  1.
         11   -1    0    0    0    0 -0.00000000000E+00 -0.00000000000E+00 -0.45593999997E+02  0.45594000000E+02  0.51100000000E-03 0. -1.
    9900012    2    1    2    0    0  0.13694794619E+02  0.31255110817E+00  0.38282094587E+02  0.50528882279E+02  0.30000068177E+02 0.  0.
         12    1    1    2    0    0 -0.13694794619E+02 -0.31255110817E+00 -0.38282094587E+02  0.40659117721E+02  0.00000000000E+00 0. -1.
         11    1    3    3    0    0  0.59730585178E+01 -0.83325487927E+01  0.21425168414E+02  0.23751771287E+02  0.51100000000E-03 0.  1.
        -11    1    3    3    0    0  0.39597471365E+01  0.12911984382E+02  0.65623702944E+01  0.15015446787E+02  0.51100000000E-03 0. -1.
         12    1    3    3    0    0  0.37619889651E+01 -0.42668844813E+01  0.10294555878E+02  0.11761664205E+02  0.00000000000E+00 0. -1.
</event>
<event>
 7    1  0.6046695E-013  0.5052886E+02  0.7816164E-02  0.1300439E+00
        -11   -1    0    0    0    0  0.00000000000E+00  0.00000000000E+00  0.45593999997E+02  0.45594000000E+02  0.51100000000E-03 0.  1.
         11   -1    0    0    0    0 -0.00000000000E+00 -0.00000000000E+00 -0.45593999997E+02  0.45594000000E+02  0.51100000000E-03 0. -1.
    9900012    2    1    2    0    0 -0.78995531405E+01  0.18131401321E+02  0.35524850410E+02  0.50528860187E+02  0.30000001024E+02 0.  0.
         12    1    1    2    0    0  0.78995531405E+01 -0.18131401321E+02 -0.35524850410E+02  0.40659139813E+02  0.00000000000E+00 0. -1.
         11    1    3    3    0    0 -0.83588264843E+00  0.14333284733E+01 -0.12166885533E+01  0.20575377545E+01  0.51100000000E-03 0. -1.
        -11    1    3    3    0    0 -0.36771074991E+00  0.21514281148E+02  0.33044075573E+02  0.39432352647E+02  0.51100000000E-03 0.  1.
        -12    1    3    3    0    0 -0.66959597422E+01 -0.48162083002E+01  0.36974633902E+01  0.90389697854E+01  0.00000000000E+00 0.  1.
</event>
<event>
 7    1  0.6046695E-013  0.5052886E+02  0.7816164E-02  0.1300439E+00
        -11   -1    0    0    0    0  0.00000000000E+00  0.00000000000E+00  0.45593999997E+02  0.45594000000E+02  0.51100000000E-03 0.  1.
         11   -1    0    0    0    0 -0.00000000000E+00 -0.00000000000E+00 -0.45593999997E+02  0.45594000000E+02  0.51100000000E-03 0. -1.
    9900012    2    1    2    0    0  0.22511428245E+02 -0.80005913666E+01  0.32899725569E+02  0.50528858268E+02  0.29999995192E+02 0.  0.
         12    1    1    2    0    0 -0.22511428245E+02  0.80005913666E+01 -0.32899725569E+02  0.40659141732E+02  0.00000000000E+00 0. -1.
         11    1    3    3    0    0  0.57673217115E+01 -0.12913657962E+01  0.89417544765E+01  0.10718423332E+02  0.51100000000E-03 0. -1.
        -11    1    3    3    0    0  0.16824712592E+01 -0.16778774007E+01 -0.56962993792E+01  0.61720182265E+01  0.51100000000E-03 0.  1.
        -12    1    3    3    0    0  0.15061635274E+02 -0.50313481697E+01  0.29654270472E+02  0.33638416710E+02  0.00000000000E+00 0.  1.
</event>
<event>
 7    1  0.6046695E-013  0.5052886E+02  0.7816164E-02  0.1300439E+00
        -11   -1    0    0    0    0  0.00000000000E+00  0.00000000000E+00  0.45593999997E+02  0.45594000000E+02  0.51100000000E-03 0. -1.
         11   -1    0    0    0    0 -0.00000000000E+00 -0.00000000000E+00 -0.45593999997E+02  0.45594000000E+02  0.51100000000E-03 0.  1.
    9900012    2    1    2    0    0  0.12182313475E+02  0.35710807136E+02  0.15149097409E+02  0.50528860065E+02  0.30000000654E+02 0.  0.
         12    1    1    2    0    0 -0.12182313475E+02 -0.35710807136E+02 -0.15149097409E+02  0.40659139935E+02  0.00000000000E+00 0. -1.
         11    1    3    3    0    0  0.96425497440E+01  0.11409093508E+02  0.11883588014E+02  0.19088369354E+02  0.51100000000E-03 0. -1.
        -11    1    3    3    0    0 -0.83076206533E+01  0.12930786722E+02 -0.96483065496E-01  0.15369811821E+02  0.51100000000E-03 0.  1.
        -12    1    3    3    0    0  0.10847384384E+02  0.11370926907E+02  0.33619924604E+01  0.16070678890E+02  0.00000000000E+00 0.  1.
</event>
<event>
 7    1  0.6046695E-013  0.5052886E+02  0.7816164E-02  0.1300439E+00
        -11   -1    0    0    0    0  0.00000000000E+00  0.00000000000E+00  0.45593999997E+02  0.45594000000E+02  0.51100000000E-03 0.  1.
         11   -1    0    0    0    0 -0.00000000000E+00 -0.00000000000E+00 -0.45593999997E+02  0.45594000000E+02  0.51100000000E-03 0. -1.
    9900012    2    1    2    0    0  0.23737684111E+01 -0.34418623047E+02  0.21514868836E+02  0.50528856256E+02  0.29999989076E+02 0.  0.
         12    1    1    2    0    0 -0.23737684111E+01  0.34418623047E+02 -0.21514868836E+02  0.40659143744E+02  0.00000000000E+00 0. -1.
         11    1    3    3    0    0 -0.18572714855E+01  0.20263981884E+01  0.77029857939E+01  0.81787369068E+01  0.51100000000E-03 0. -1.
        -11    1    3    3    0    0  0.71574055202E+01 -0.18197193537E+02  0.13687559072E+02  0.23868715508E+02  0.51100000000E-03 0.  1.
         12    1    3    3    0    0 -0.29263656237E+01 -0.18247827699E+02  0.12432397049E+00  0.18481403841E+02  0.00000000000E+00 0. -1.
</event>
<event>
 7    1  0.6046695E-013  0.5052886E+02  0.7816164E-02  0.1300439E+00
        -11   -1    0    0    0    0  0.00000000000E+00  0.00000000000E+00  0.45593999997E+02  0.45594000000E+02  0.51100000000E-03 0.  1.
         11   -1    0    0    0    0 -0.00000000000E+00 -0.00000000000E+00 -0.45593999997E+02  0.45594000000E+02  0.51100000000E-03 0. -1.
    9900012    2    1    2    0    0  0.26184902235E+02  0.12570606868E+02  0.28451646555E+02  0.50528862604E+02  0.30000008372E+02 0.  0.
         12    1    1    2    0    0 -0.26184902235E+02 -0.12570606868E+02 -0.28451646555E+02  0.40659137396E+02  0.00000000000E+00 0. -1.
         11    1    3    3    0    0  0.15055881407E+01  0.94693840206E+01  0.21149429391E+02  0.23221420999E+02  0.51100000000E-03 0. -1.
        -11    1    3    3    0    0  0.11629155313E+02 -0.98071041783E+00 -0.27699029469E+00  0.11673721347E+02  0.51100000000E-03 0.  1.
        -12    1    3    3    0    0  0.13050158781E+02  0.40819332655E+01  0.75792074580E+01  0.15633720258E+02  0.00000000000E+00 0.  1.
</event>
<event>
 7    1  0.6046695E-013  0.5052887E+02  0.7816164E-02  0.1300439E+00
        -11   -1    0    0    0    0  0.00000000000E+00  0.00000000000E+00  0.45593999997E+02  0.45594000000E+02  0.51100000000E-03 0. -1.
         11   -1    0    0    0    0 -0.00000000000E+00 -0.00000000000E+00 -0.45593999997E+02  0.45594000000E+02  0.51100000000E-03 0.  1.
    9900012    2    1    2    0    0  0.30229480845E+02  0.27180505572E+02  0.75086157772E+00  0.50528865868E+02  0.30000018292E+02 0.  0.
         12    1    1    2    0    0 -0.30229480845E+02 -0.27180505572E+02 -0.75086157772E+00  0.40659134132E+02  0.00000000000E+00 0. -1.
         11    1    3    3    0    0  0.80515881570E+01 -0.49302671175E+01  0.25118328387E+00  0.94445062869E+01  0.51100000000E-03 0. -1.
        -11    1    3    3    0    0  0.10845143974E+02  0.22511836623E+02 -0.45477516090E+01  0.25398464145E+02  0.51100000000E-03 0.  1.
         12    1    3    3    0    0  0.11332748714E+02  0.95989360659E+01  0.50474299028E+01  0.15685895436E+02  0.00000000000E+00 0. -1.
</event>
<event>
 7    1  0.6046695E-013  0.5052886E+02  0.7816164E-02  0.1300439E+00
        -11   -1    0    0    0    0  0.00000000000E+00  0.00000000000E+00  0.45593999997E+02  0.45594000000E+02  0.51100000000E-03 0.  1.
         11   -1    0    0    0    0 -0.00000000000E+00 -0.00000000000E+00 -0.45593999997E+02  0.45594000000E+02  0.51100000000E-03 0. -1.
    9900012    2    1    2    0    0  0.40664492310E+01  0.26749483860E+02  0.30349547255E+02  0.50528856936E+02  0.29999991141E+02 0.  0.
         12    1    1    2    0    0 -0.40664492310E+01 -0.26749483860E+02 -0.30349547255E+02  0.40659143064E+02  0.00000000000E+00 0. -1.
         11    1    3    3    0    0  0.11877263488E+02  0.34405818256E+01  0.62099742602E+01  0.13837296406E+02  0.51100000000E-03 0. -1.
        -11    1    3    3    0    0 -0.28089374833E+01  0.13103477988E+02  0.20980805239E+02  0.24895490634E+02  0.51100000000E-03 0.  1.
         12    1    3    3    0    0 -0.50018767736E+01  0.10205424047E+02  0.31587677558E+01  0.11796069895E+02  0.00000000000E+00 0. -1.
</event>
<event>
 7    1  0.6046695E-013  0.5052887E+02  0.7816164E-02  0.1300439E+00
        -11   -1    0    0    0    0  0.00000000000E+00  0.00000000000E+00  0.45593999997E+02  0.45594000000E+02  0.51100000000E-03 0. -1.
         11   -1    0    0    0    0 -0.00000000000E+00 -0.00000000000E+00 -0.45593999997E+02  0.45594000000E+02  0.51100000000E-03 0.  1.
    9900012    2    1    2    0    0  0.17671800784E+02  0.32938175981E+02 -0.15998407532E+02  0.50528867896E+02  0.30000024456E+02 0.  0.
         12    1    1    2    0    0 -0.17671800784E+02 -0.32938175981E+02  0.15998407532E+02  0.40659132104E+02  0.00000000000E+00 0. -1.
         11    1    3    3    0    0  0.22437600165E+01  0.11597944836E+02  0.22150825444E+01  0.12018875753E+02  0.51100000000E-03 0. -1.
        -11    1    3    3    0    0  0.20828752820E+02  0.16099084242E+02 -0.15238135009E+02  0.30417399893E+02  0.51100000000E-03 0.  1.
        -12    1    3    3    0    0 -0.54007120525E+01  0.52411469029E+01 -0.29753550681E+01  0.80925922492E+01  0.00000000000E+00 0.  1.
</event>
<event>
 7    1  0.6046695E-013  0.5052888E+02  0.7816164E-02  0.1300439E+00
        -11   -1    0    0    0    0  0.00000000000E+00  0.00000000000E+00  0.45593999997E+02  0.45594000000E+02  0.51100000000E-03 0. -1.
         11   -1    0    0    0    0 -0.00000000000E+00 -0.00000000000E+00 -0.45593999997E+02  0.45594000000E+02  0.51100000000E-03 0.  1.
    9900012    2    1    2    0    0  0.28527900766E+02  0.65417230656E+01  0.28222838811E+02  0.50528881794E+02  0.30000066700E+02 0.  0.
         12    1    1    2    0    0 -0.28527900766E+02 -0.65417230656E+01 -0.28222838811E+02  0.40659118206E+02  0.00000000000E+00 0. -1.
         11    1    3    3    0    0  0.39915764364E+01  0.10815739440E+02  0.12506624466E+02  0.17009660722E+02  0.51100000000E-03 0. -1.
        -11    1    3    3    0    0  0.25807596500E+02 -0.66638800150E+01  0.15427624676E+02  0.30796930648E+02  0.51100000000E-03 0.  1.
        -12    1    3    3    0    0 -0.12712721702E+01  0.23898636404E+01  0.28858966874E+00  0.27222904230E+01  0.00000000000E+00 0.  1.
</event>
<event>
 7    1  0.6046695E-013  0.5052886E+02  0.7816164E-02  0.1300439E+00
        -11   -1    0    0    0    0  0.00000000000E+00  0.00000000000E+00  0.45593999997E+02  0.45594000000E+02  0.51100000000E-03 0.  1.
         11   -1    0    0    0    0 -0.00000000000E+00 -0.00000000000E+00 -0.45593999997E+02  0.45594000000E+02  0.51100000000E-03 0. -1.
    9900012    2    1    2    0    0 -0.38416092384E+02 -0.19043387919E+01  0.13181155645E+02  0.50528861736E+02  0.30000005732E+02 0.  0.
         12    1    1    2    0    0  0.38416092384E+02  0.19043387919E+01 -0.13181155645E+02  0.40659138264E+02  0.00000000000E+00 0. -1.
         11    1    3    3    0    0 -0.80045057279E+01 -0.10735004385E+02  0.39128410194E+01  0.13950726010E+02  0.51100000000E-03 0. -1.
        -11    1    3    3    0    0 -0.23421755514E+02  0.12985883674E+02  0.45138263955E+01  0.27158542581E+02  0.51100000000E-03 0.  1.
        -12    1    3    3    0    0 -0.69898311421E+01 -0.41552180805E+01  0.47544882298E+01  0.94195931451E+01  0.00000000000E+00 0.  1.
</event>
<event>
 7    1  0.6046695E-013  0.5052889E+02  0.7816164E-02  0.1300439E+00
        -11   -1    0    0    0    0  0.00000000000E+00  0.00000000000E+00  0.45593999997E+02  0.45594000000E+02  0.51100000000E-03 0.  1.
         11   -1    0    0    0    0 -0.00000000000E+00 -0.00000000000E+00 -0.45593999997E+02  0.45594000000E+02  0.51100000000E-03 0. -1.
    9900012    2    1    2    0    0  0.91506079104E+01 -0.19409660070E+02  0.34535416082E+02  0.50528886715E+02  0.30000081659E+02 0.  0.
         12    1    1    2    0    0 -0.91506079104E+01  0.19409660070E+02 -0.34535416082E+02  0.40659113285E+02  0.00000000000E+00 0. -1.
         11    1    3    3    0    0  0.59180811347E+01  0.64801911355E+01  0.72566116805E+01  0.11387492033E+02  0.51100000000E-03 0. -1.
        -11    1    3    3    0    0  0.61093870025E+01 -0.13168429100E+02  0.18053167146E+02  0.23165685373E+02  0.51100000000E-03 0.  1.
         12    1    3    3    0    0 -0.28768602268E+01 -0.12721422105E+02  0.92256372551E+01  0.15975709308E+02  0.00000000000E+00 0. -1.
</event>
<event>
 7    1  0.6046695E-013  0.5052886E+02  0.7816164E-02  0.1300439E+00
        -11   -1    0    0    0    0  0.00000000000E+00  0.00000000000E+00  0.45593999997E+02  0.45594000000E+02  0.51100000000E-03 0.  1.
         11   -1    0    0    0    0 -0.00000000000E+00 -0.00000000000E+00 -0.45593999997E+02  0.45594000000E+02  0.51100000000E-03 0. -1.
    9900012    2    1    2    0    0  0.53368949199E+01 -0.32326731522E+02  0.24076240264E+02  0.50528863714E+02  0.30000011746E+02 0.  0.
         12    1    1    2    0    0 -0.53368949199E+01  0.32326731522E+02 -0.24076240264E+02  0.40659136286E+02  0.00000000000E+00 0. -1.
         11    1    3    3    0    0 -0.61068884092E+01 -0.25351520001E+00  0.81920963919E+00  0.61668031178E+01  0.51100000000E-03 0. -1.
        -11    1    3    3    0    0  0.15268515474E+01 -0.22884186889E+02  0.20058701441E+02  0.30469144868E+02  0.51100000000E-03 0.  1.
        -12    1    3    3    0    0  0.99169317817E+01 -0.91890294327E+01  0.31983291838E+01  0.13892915729E+02  0.00000000000E+00 0.  1.
</event>
<event>
 7    1  0.6046695E-013  0.5052886E+02  0.7816164E-02  0.1300439E+00
        -11   -1    0    0    0    0  0.00000000000E+00  0.00000000000E+00  0.45593999997E+02  0.45594000000E+02  0.51100000000E-03 0. -1.
         11   -1    0    0    0    0 -0.00000000000E+00 -0.00000000000E+00 -0.45593999997E+02  0.45594000000E+02  0.51100000000E-03 0.  1.
    9900012    2    1    2    0    0  0.30958176050E+02 -0.20955887339E+02 -0.15987732056E+02  0.50528862592E+02  0.30000008333E+02 0.  0.
         12    1    1    2    0    0 -0.30958176050E+02  0.20955887339E+02  0.15987732056E+02  0.40659137408E+02  0.00000000000E+00 0. -1.
         11    1    3    3    0    0 -0.25683673239E+00  0.56729543558E+01 -0.44788951733E+01  0.72324877093E+01  0.51100000000E-03 0. -1.
        -11    1    3    3    0    0  0.61171921212E+01 -0.96705239775E+01 -0.34801826503E+01  0.11960382309E+02  0.51100000000E-03 0.  1.
        -12    1    3    3    0    0  0.25097820661E+02 -0.16958317717E+02 -0.80286542324E+01  0.31335992573E+02  0.00000000000E+00 0.  1.
</event>
<event>
 7    1  0.6046695E-013  0.5052882E+02  0.7816164E-02  0.1300439E+00
        -11   -1    0    0    0    0  0.00000000000E+00  0.00000000000E+00  0.45593999997E+02  0.45594000000E+02  0.51100000000E-03 0.  1.
         11   -1    0    0    0    0 -0.00000000000E+00 -0.00000000000E+00 -0.45593999997E+02  0.45594000000E+02  0.51100000000E-03 0. -1.
    9900012    2    1    2    0    0 -0.18913071675E+02  0.33465062335E+02  0.13249685781E+02  0.50528820833E+02  0.29999881403E+02 0.  0.
         12    1    1    2    0    0  0.18913071675E+02 -0.33465062335E+02 -0.13249685781E+02  0.40659179167E+02  0.00000000000E+00 0. -1.
         11    1    3    3    0    0 -0.99350233576E+01  0.15221135441E+00  0.26557576969E+01  0.10284984522E+02  0.51100000000E-03 0. -1.
        -11    1    3    3    0    0 -0.10407260142E+02  0.24994945945E+02  0.14754439179E+02  0.30834264419E+02  0.51100000000E-03 0.  1.
         12    1    3    3    0    0  0.14292118249E+01  0.83179050354E+01 -0.41605110952E+01  0.94095718920E+01  0.00000000000E+00 0. -1.
</event>
<event>
 7    1  0.6046695E-013  0.5052886E+02  0.7816164E-02  0.1300439E+00
        -11   -1    0    0    0    0  0.00000000000E+00  0.00000000000E+00  0.45593999997E+02  0.45594000000E+02  0.51100000000E-03 0. -1.
         11   -1    0    0    0    0 -0.00000000000E+00 -0.00000000000E+00 -0.45593999997E+02  0.45594000000E+02  0.51100000000E-03 0.  1.
    9900012    2    1    2    0    0  0.20424620564E+02 -0.25451330228E+02 -0.24253464609E+02  0.50528857349E+02  0.29999992399E+02 0.  0.
         12    1    1    2    0    0 -0.20424620564E+02  0.25451330228E+02  0.24253464609E+02  0.40659142651E+02  0.00000000000E+00 0. -1.
         11    1    3    3    0    0  0.81303765745E-01 -0.25922728145E-01 -0.45488799245E+00  0.46282354840E+00  0.51100000000E-03 0. -1.
        -11    1    3    3    0    0 -0.20268458487E+01 -0.90461153379E+01 -0.20048458868E+02  0.22088028659E+02  0.51100000000E-03 0.  1.
        -12    1    3    3    0    0  0.22370162647E+02 -0.16379292162E+02 -0.37501177478E+01  0.27978005142E+02  0.00000000000E+00 0.  1.
</event>
<event>
 7    1  0.6046695E-013  0.5052884E+02  0.7816164E-02  0.1300439E+00
        -11   -1    0    0    0    0  0.00000000000E+00  0.00000000000E+00  0.45593999997E+02  0.45594000000E+02  0.51100000000E-03 0.  1.
         11   -1    0    0    0    0 -0.00000000000E+00 -0.00000000000E+00 -0.45593999997E+02  0.45594000000E+02  0.51100000000E-03 0. -1.
    9900012    2    1    2    0    0  0.29246844288E+02 -0.22261070859E+02  0.17384889678E+02  0.50528836633E+02  0.29999929430E+02 0.  0.
         12    1    1    2    0    0 -0.29246844288E+02  0.22261070859E+02 -0.17384889678E+02  0.40659163367E+02  0.00000000000E+00 0. -1.
         11    1    3    3    0    0  0.30762167844E+02 -0.25885029688E+02  0.20535866998E+02  0.45144961690E+02  0.51100000000E-03 0.  1.
        -11    1    3    3    0    0 -0.13540608698E+01  0.19591041759E+01 -0.27981877073E+01  0.36744284886E+01  0.51100000000E-03 0. -1.
        -12    1    3    3    0    0 -0.16126268641E+00  0.16648546529E+01 -0.35278961309E+00  0.17094464544E+01  0.00000000000E+00 0.  1.
</event>
<event>
 7    1  0.6046695E-013  0.5052887E+02  0.7816164E-02  0.1300439E+00
        -11   -1    0    0    0    0  0.00000000000E+00  0.00000000000E+00  0.45593999997E+02  0.45594000000E+02  0.51100000000E-03 0. -1.
         11   -1    0    0    0    0 -0.00000000000E+00 -0.00000000000E+00 -0.45593999997E+02  0.45594000000E+02  0.51100000000E-03 0.  1.
    9900012    2    1    2    0    0 -0.36917688375E+02  0.11512936923E+02  0.12557934371E+02  0.50528866374E+02  0.30000019831E+02 0.  0.
         12    1    1    2    0    0  0.36917688375E+02 -0.11512936923E+02 -0.12557934371E+02  0.40659133626E+02  0.00000000000E+00 0. -1.
         11    1    3    3    0    0  0.27498987385E+01 -0.51938801270E+00  0.71912094743E+01  0.77165536960E+01  0.51100000000E-03 0. -1.
        -11    1    3    3    0    0 -0.16744965895E+02  0.48232865881E+01  0.68809787960E+01  0.18735150007E+02  0.51100000000E-03 0.  1.
         12    1    3    3    0    0 -0.22922621218E+02  0.72090383479E+01 -0.15142538988E+01  0.24077162671E+02  0.00000000000E+00 0. -1.
</event>
<event>
 7    1  0.6046695E-013  0.5052886E+02  0.7816164E-02  0.1300439E+00
        -11   -1    0    0    0    0  0.00000000000E+00  0.00000000000E+00  0.45593999997E+02  0.45594000000E+02  0.51100000000E-03 0. -1.
         11   -1    0    0    0    0 -0.00000000000E+00 -0.00000000000E+00 -0.45593999997E+02  0.45594000000E+02  0.51100000000E-03 0.  1.
    9900012    2    1    2    0    0 -0.33571362226E+02  0.66449253280E+00 -0.22927882231E+02  0.50528859630E+02  0.29999999331E+02 0.  0.
         12    1    1    2    0    0  0.33571362226E+02 -0.66449253280E+00  0.22927882231E+02  0.40659140370E+02  0.00000000000E+00 0. -1.
         11    1    3    3    0    0 -0.17937107844E+02  0.94471498300E+00 -0.90020764290E+00  0.17984512734E+02  0.51100000000E-03 0. -1.
        -11    1    3    3    0    0 -0.13429661432E+02 -0.64627545263E+00 -0.25259587837E+02  0.28615035490E+02  0.51100000000E-03 0.  1.
        -12    1    3    3    0    0 -0.22045929494E+01  0.36605300243E+00  0.32319132491E+01  0.39293114057E+01  0.00000000000E+00 0.  1.
</event>
<event>
 7    1  0.6046695E-013  0.5052889E+02  0.7816164E-02  0.1300439E+00
        -11   -1    0    0    0    0  0.00000000000E+00  0.00000000000E+00  0.45593999997E+02  0.45594000000E+02  0.51100000000E-03 0.  1.
         11   -1    0    0    0    0 -0.00000000000E+00 -0.00000000000E+00 -0.45593999997E+02  0.45594000000E+02  0.51100000000E-03 0. -1.
    9900012    2    1    2    0    0 -0.94909539399E+01 -0.36286382616E+02 -0.15696617108E+02  0.50528885909E+02  0.30000079209E+02 0.  0.
         12    1    1    2    0    0  0.94909539399E+01  0.36286382616E+02  0.15696617108E+02  0.40659114091E+02  0.00000000000E+00 0. -1.
         11    1    3    3    0    0 -0.11053587586E+02 -0.10420994685E+02 -0.95377174759E+01  0.17937307035E+02  0.51100000000E-03 0. -1.
        -11    1    3    3    0    0  0.21789450630E+00 -0.25321040768E+02  0.94642978492E+00  0.25339658900E+02  0.51100000000E-03 0.  1.
        -12    1    3    3    0    0  0.13447391399E+01 -0.54434716266E+00 -0.71053294171E+01  0.72519199743E+01  0.00000000000E+00 0.  1.
</event>
<event>
 7    1  0.6046695E-013  0.5052891E+02  0.7816164E-02  0.1300439E+00
        -11   -1    0    0    0    0  0.00000000000E+00  0.00000000000E+00  0.45593999997E+02  0.45594000000E+02  0.51100000000E-03 0. -1.
         11   -1    0    0    0    0 -0.00000000000E+00 -0.00000000000E+00 -0.45593999997E+02  0.45594000000E+02  0.51100000000E-03 0.  1.
    9900012    2    1    2    0    0  0.28977898833E+02 -0.25285741361E+02 -0.13193734010E+02  0.50528905641E+02  0.30000139188E+02 0.  0.
         12    1    1    2    0    0 -0.28977898833E+02  0.25285741361E+02  0.13193734010E+02  0.40659094359E+02  0.00000000000E+00 0. -1.
         11    1    3    3    0    0  0.70536969252E+01 -0.12651131483E+01 -0.10409173984E+02  0.12637486098E+02  0.51100000000E-03 0.  1.
        -11    1    3    3    0    0  0.24418156527E+02 -0.23418677237E+02  0.35744923695E+00  0.33835020052E+02  0.51100000000E-03 0. -1.
        -12    1    3    3    0    0 -0.24939546197E+01 -0.60195097559E+00 -0.31420092637E+01  0.40563994916E+01  0.00000000000E+00 0.  1.
</event>
<event>
 7    1  0.6046695E-013  0.5052886E+02  0.7816164E-02  0.1300439E+00
        -11   -1    0    0    0    0  0.00000000000E+00  0.00000000000E+00  0.45593999997E+02  0.45594000000E+02  0.51100000000E-03 0.  1.
         11   -1    0    0    0    0 -0.00000000000E+00 -0.00000000000E+00 -0.45593999997E+02  0.45594000000E+02  0.51100000000E-03 0. -1.
    9900012    2    1    2    0    0 -0.89320844761E+01  0.15943488012E+02  0.36320640595E+02  0.50528857408E+02  0.29999992576E+02 0.  0.
         12    1    1    2    0    0  0.89320844761E+01 -0.15943488012E+02 -0.36320640595E+02  0.40659142592E+02  0.00000000000E+00 0. -1.
         11    1    3    3    0    0  0.73222032905E+01  0.16484252771E+02  0.23638394940E+02  0.29734138058E+02  0.51100000000E-03 0. -1.
        -11    1    3    3    0    0 -0.61311356132E+01  0.86967596827E+00  0.57005230865E+01  0.84168357426E+01  0.51100000000E-03 0.  1.
         12    1    3    3    0    0 -0.10123152153E+02 -0.14104407267E+01  0.69817225685E+01  0.12377883607E+02  0.00000000000E+00 0. -1.
</event>
<event>
 7    1  0.6046695E-013  0.5052886E+02  0.7816164E-02  0.1300439E+00
        -11   -1    0    0    0    0  0.00000000000E+00  0.00000000000E+00  0.45593999997E+02  0.45594000000E+02  0.51100000000E-03 0.  1.
         11   -1    0    0    0    0 -0.00000000000E+00 -0.00000000000E+00 -0.45593999997E+02  0.45594000000E+02  0.51100000000E-03 0. -1.
    9900012    2    1    2    0    0  0.37445528394E+02  0.88414103543E+01  0.13146380208E+02  0.50528862695E+02  0.30000008649E+02 0.  0.
         12    1    1    2    0    0 -0.37445528394E+02 -0.88414103543E+01 -0.13146380208E+02  0.40659137305E+02  0.00000000000E+00 0. -1.
         11    1    3    3    0    0  0.66338569368E+00 -0.47672829548E+00 -0.10634523119E+01  0.13410001965E+01  0.51100000000E-03 0. -1.
        -11    1    3    3    0    0  0.21851310721E+02  0.16531871386E+02  0.77580386435E-01  0.27400521358E+02  0.51100000000E-03 0.  1.
        -12    1    3    3    0    0  0.14930831980E+02 -0.72137327363E+01  0.14132252134E+02  0.21787341141E+02  0.00000000000E+00 0.  1.
</event>
<event>
 7    1  0.6046695E-013  0.5052878E+02  0.7816164E-02  0.1300439E+00
        -11   -1    0    0    0    0  0.00000000000E+00  0.00000000000E+00  0.45593999997E+02  0.45594000000E+02  0.51100000000E-03 0.  1.
         11   -1    0    0    0    0 -0.00000000000E+00 -0.00000000000E+00 -0.45593999997E+02  0.45594000000E+02  0.51100000000E-03 0. -1.
    9900012    2    1    2    0    0  0.94488253301E+01 -0.19632550208E+02  0.34328635581E+02  0.50528775356E+02  0.29999743172E+02 0.  0.
         12    1    1    2    0    0 -0.94488253301E+01  0.19632550208E+02 -0.34328635581E+02  0.40659224644E+02  0.00000000000E+00 0. -1.
         11    1    3    3    0    0  0.82324361059E+01 -0.18445717138E+02  0.14486004704E+02  0.24856826377E+02  0.51100000000E-03 0. -1.
        -11    1    3    3    0    0  0.60230017849E+01  0.44938430094E+01  0.48776211828E+01  0.89589265070E+01  0.51100000000E-03 0.  1.
         12    1    3    3    0    0 -0.48066125607E+01 -0.56806760788E+01  0.14965009694E+02  0.16713022473E+02  0.00000000000E+00 0. -1.
</event>
<event>
 7    1  0.6046695E-013  0.5052881E+02  0.7816164E-02  0.1300439E+00
        -11   -1    0    0    0    0  0.00000000000E+00  0.00000000000E+00  0.45593999997E+02  0.45594000000E+02  0.51100000000E-03 0.  1.
         11   -1    0    0    0    0 -0.00000000000E+00 -0.00000000000E+00 -0.45593999997E+02  0.45594000000E+02  0.51100000000E-03 0. -1.
    9900012    2    1    2    0    0  0.25996907907E+02  0.29261895149E+02 -0.11003280024E+02  0.50528807931E+02  0.29999842187E+02 0.  0.
         12    1    1    2    0    0 -0.25996907907E+02 -0.29261895149E+02  0.11003280024E+02  0.40659192069E+02  0.00000000000E+00 0. -1.
         11    1    3    3    0    0  0.65865818788E+00  0.98140623290E+01 -0.13366290947E+02  0.16595402494E+02  0.51100000000E-03 0. -1.
        -11    1    3    3    0    0  0.16201582731E+02  0.10578936460E+02  0.67078598430E+01  0.20479271559E+02  0.51100000000E-03 0.  1.
        -12    1    3    3    0    0  0.91366669874E+01  0.88688963595E+01 -0.43448489207E+01  0.13454133878E+02  0.00000000000E+00 0.  1.
</event>
<event>
 7    1  0.6046695E-013  0.5052886E+02  0.7816164E-02  0.1300439E+00
        -11   -1    0    0    0    0  0.00000000000E+00  0.00000000000E+00  0.45593999997E+02  0.45594000000E+02  0.51100000000E-03 0.  1.
         11   -1    0    0    0    0 -0.00000000000E+00 -0.00000000000E+00 -0.45593999997E+02  0.45594000000E+02  0.51100000000E-03 0. -1.
    9900012    2    1    2    0    0 -0.65061630018E+01 -0.26922800104E+00  0.40134309723E+02  0.50528862556E+02  0.30000008226E+02 0.  0.
         12    1    1    2    0    0  0.65061630018E+01  0.26922800104E+00 -0.40134309723E+02  0.40659137444E+02  0.00000000000E+00 0. -1.
         11    1    3    3    0    0 -0.26119342400E+01 -0.22565979722E+01  0.64964827097E+00  0.35123322763E+01  0.51100000000E-03 0. -1.
        -11    1    3    3    0    0  0.20023416517E+01  0.24126344916E+01  0.40832705312E+02  0.40952899783E+02  0.51100000000E-03 0.  1.
        -12    1    3    3    0    0 -0.58965704135E+01 -0.42526452041E+00 -0.13480438599E+01  0.60636304968E+01  0.00000000000E+00 0.  1.
</event>
<event>
 7    1  0.6046695E-013  0.5052888E+02  0.7816164E-02  0.1300439E+00
        -11   -1    0    0    0    0  0.00000000000E+00  0.00000000000E+00  0.45593999997E+02  0.45594000000E+02  0.51100000000E-03 0. -1.
         11   -1    0    0    0    0 -0.00000000000E+00 -0.00000000000E+00 -0.45593999997E+02  0.45594000000E+02  0.51100000000E-03 0.  1.
    9900012    2    1    2    0    0  0.11552221413E+01  0.34228425179E+02  0.21914486381E+02  0.50528876279E+02  0.30000049937E+02 0.  0.
         12    1    1    2    0    0 -0.11552221413E+01 -0.34228425179E+02 -0.21914486381E+02  0.40659123721E+02  0.00000000000E+00 0. -1.
         11    1    3    3    0    0 -0.56860897611E+01 -0.33977383647E+01  0.51059878518E+01  0.83634535313E+01  0.51100000000E-03 0. -1.
        -11    1    3    3    0    0  0.68575193934E+01  0.21998458226E+02  0.99615041346E+01  0.25103571488E+02  0.51100000000E-03 0.  1.
         12    1    3    3    0    0 -0.16207491071E-01  0.15627705317E+02  0.68469943948E+01  0.17061851260E+02  0.00000000000E+00 0. -1.
</event>
<event>
 7    1  0.6046695E-013  0.5052886E+02  0.7816164E-02  0.1300439E+00
        -11   -1    0    0    0    0  0.00000000000E+00  0.00000000000E+00  0.45593999997E+02  0.45594000000E+02  0.51100000000E-03 0. -1.
         11   -1    0    0    0    0 -0.00000000000E+00 -0.00000000000E+00 -0.45593999997E+02  0.45594000000E+02  0.51100000000E-03 0.  1.
    9900012    2    1    2    0    0 -0.22335305708E+02 -0.30789490112E+02 -0.14363392234E+02  0.50528860573E+02  0.30000002198E+02 0.  0.
         12    1    1    2    0    0  0.22335305708E+02  0.30789490112E+02  0.14363392234E+02  0.40659139427E+02  0.00000000000E+00 0. -1.
         11    1    3    3    0    0 -0.23393929809E+01 -0.14927569843E+01  0.44832304968E+01  0.52726121498E+01  0.51100000000E-03 0. -1.
        -11    1    3    3    0    0 -0.26848099733E+01 -0.16107457165E+02 -0.16749459263E+02  0.23392365566E+02  0.51100000000E-03 0.  1.
        -12    1    3    3    0    0 -0.17311102754E+02 -0.13189275963E+02 -0.20971634684E+01  0.21863882857E+02  0.00000000000E+00 0.  1.
</event>
<event>
 7    1  0.6046695E-013  0.5052886E+02  0.7816164E-02  0.1300439E+00
        -11   -1    0    0    0    0  0.00000000000E+00  0.00000000000E+00  0.45593999997E+02  0.45594000000E+02  0.51100000000E-03 0. -1.
         11   -1    0    0    0    0 -0.00000000000E+00 -0.00000000000E+00 -0.45593999997E+02  0.45594000000E+02  0.51100000000E-03 0.  1.
    9900012    2    1    2    0    0  0.28238685140E+02  0.16856794190E+02  0.23907970888E+02  0.50528856861E+02  0.29999990915E+02 0.  0.
         12    1    1    2    0    0 -0.28238685140E+02 -0.16856794190E+02 -0.23907970888E+02  0.40659143139E+02  0.00000000000E+00 0. -1.
         11    1    3    3    0    0  0.13275047661E+01  0.63490046880E+00  0.72063021627E+01  0.73550090843E+01  0.51100000000E-03 0. -1.
        -11    1    3    3    0    0  0.15468664334E+02  0.18986352104E+02  0.23360729640E+01  0.24601186550E+02  0.51100000000E-03 0.  1.
        -12    1    3    3    0    0  0.11442516040E+02 -0.27644583828E+01  0.14365595761E+02  0.18572661227E+02  0.00000000000E+00 0.  1.
</event>
<event>
 7    1  0.6046695E-013  0.5052886E+02  0.7816164E-02  0.1300439E+00
        -11   -1    0    0    0    0  0.00000000000E+00  0.00000000000E+00  0.45593999997E+02  0.45594000000E+02  0.51100000000E-03 0. -1.
         11   -1    0    0    0    0 -0.00000000000E+00 -0.00000000000E+00 -0.45593999997E+02  0.45594000000E+02  0.51100000000E-03 0.  1.
    9900012    2    1    2    0    0 -0.19123329205E+02 -0.31725098811E+02 -0.16762507960E+02  0.50528864648E+02  0.30000014584E+02 0.  0.
         12    1    1    2    0    0  0.19123329205E+02  0.31725098811E+02  0.16762507960E+02  0.40659135352E+02  0.00000000000E+00 0. -1.
         11    1    3    3    0    0  0.24609758400E+01 -0.26401397397E+01  0.57285887557E+01  0.67707805549E+01  0.51100000000E-03 0. -1.
        -11    1    3    3    0    0 -0.13221762921E+02 -0.22051365264E+02 -0.19939130019E+02  0.32536850353E+02  0.51100000000E-03 0.  1.
         12    1    3    3    0    0 -0.83625421236E+01 -0.70335938082E+01 -0.25519666969E+01  0.11221233740E+02  0.00000000000E+00 0. -1.
</event>
<event>
 7    1  0.6046695E-013  0.5052887E+02  0.7816164E-02  0.1300439E+00
        -11   -1    0    0    0    0  0.00000000000E+00  0.00000000000E+00  0.45593999997E+02  0.45594000000E+02  0.51100000000E-03 0. -1.
         11   -1    0    0    0    0 -0.00000000000E+00 -0.00000000000E+00 -0.45593999997E+02  0.45594000000E+02  0.51100000000E-03 0.  1.
    9900012    2    1    2    0    0  0.16733015014E+02 -0.26444654396E+02 -0.25958653804E+02  0.50528865173E+02  0.30000016179E+02 0.  0.
         12    1    1    2    0    0 -0.16733015014E+02  0.26444654396E+02  0.25958653804E+02  0.40659134827E+02  0.00000000000E+00 0. -1.
         11    1    3    3    0    0  0.64010205655E+01 -0.14037513485E+02 -0.11931886696E+02  0.19503711685E+02  0.51100000000E-03 0. -1.
        -11    1    3    3    0    0  0.11376309291E+02  0.12900247489E+00 -0.14507382257E+02  0.18436409491E+02  0.51100000000E-03 0.  1.
        -12    1    3    3    0    0 -0.10443148418E+01 -0.12536143386E+02  0.48061514878E+00  0.12588743997E+02  0.00000000000E+00 0.  1.
</event>
<event>
 7    1  0.6046695E-013  0.5052885E+02  0.7816164E-02  0.1300439E+00
        -11   -1    0    0    0    0  0.00000000000E+00  0.00000000000E+00  0.45593999997E+02  0.45594000000E+02  0.51100000000E-03 0.  1.
         11   -1    0    0    0    0 -0.00000000000E+00 -0.00000000000E+00 -0.45593999997E+02  0.45594000000E+02  0.51100000000E-03 0. -1.
    9900012    2    1    2    0    0 -0.49298150724E+01  0.21588990179E+02  0.34099538490E+02  0.50528854672E+02  0.29999984260E+02 0.  0.
         12    1    1    2    0    0  0.49298150724E+01 -0.21588990179E+02 -0.34099538490E+02  0.40659145328E+02  0.00000000000E+00 0. -1.
         11    1    3    3    0    0  0.31917817015E+01 -0.31196034516E+01  0.10389361686E+02  0.11307441471E+02  0.51100000000E-03 0. -1.
        -11    1    3    3    0    0 -0.92460996311E+01  0.21578352328E+02  0.26116025910E+02  0.35116412931E+02  0.51100000000E-03 0.  1.
        -12    1    3    3    0    0  0.11245028572E+01  0.31302413027E+01 -0.24058491056E+01  0.41050002689E+01  0.00000000000E+00 0.  1.
</event>
<event>
 7    1  0.6046695E-013  0.5052886E+02  0.7816164E-02  0.1300439E+00
        -11   -1    0    0    0    0  0.00000000000E+00  0.00000000000E+00  0.45593999997E+02  0.45594000000E+02  0.51100000000E-03 0. -1.
         11   -1    0    0    0    0 -0.00000000000E+00 -0.00000000000E+00 -0.45593999997E+02  0.45594000000E+02  0.51100000000E-03 0.  1.
    9900012    2    1    2    0    0  0.26796294481E+02  0.22294866020E+02 -0.20929954369E+02  0.50528862790E+02  0.30000008935E+02 0.  0.
         12    1    1    2    0    0 -0.26796294481E+02 -0.22294866020E+02  0.20929954369E+02  0.40659137210E+02  0.00000000000E+00 0. -1.
         11    1    3    3    0    0  0.11266046849E+02 -0.40778157565E+01 -0.12209056833E+02  0.17105948146E+02  0.51100000000E-03 0. -1.
        -11    1    3    3    0    0  0.66970962314E+01  0.20696314163E+02 -0.63150976899E+01  0.22651025958E+02  0.51100000000E-03 0.  1.
         12    1    3    3    0    0  0.88331514007E+01  0.56763676144E+01 -0.24057998459E+01  0.10771888686E+02  0.00000000000E+00 0. -1.
</event>
<event>
 7    1  0.6046695E-013  0.5052886E+02  0.7816164E-02  0.1300439E+00
        -11   -1    0    0    0    0  0.00000000000E+00  0.00000000000E+00  0.45593999997E+02  0.45594000000E+02  0.51100000000E-03 0.  1.
         11   -1    0    0    0    0 -0.00000000000E+00 -0.00000000000E+00 -0.45593999997E+02  0.45594000000E+02  0.51100000000E-03 0. -1.
    9900012    2    1    2    0    0 -0.32310600515E+02  0.21458674773E+02  0.12194930556E+02  0.50528856380E+02  0.29999989454E+02 0.  0.
         12    1    1    2    0    0  0.32310600515E+02 -0.21458674773E+02 -0.12194930556E+02  0.40659143620E+02  0.00000000000E+00 0. -1.
         11    1    3    3    0    0  0.51408160608E+01  0.68321407977E+01  0.54500799631E+00  0.85675650933E+01  0.51100000000E-03 0. -1.
        -11    1    3    3    0    0 -0.26937218302E+02  0.10949004219E+02  0.97033035377E+01  0.30653686941E+02  0.51100000000E-03 0.  1.
         12    1    3    3    0    0 -0.10514198273E+02  0.36775297561E+01  0.19466190216E+01  0.11307604346E+02  0.00000000000E+00 0. -1.
</event>
<event>
 7    1  0.6046695E-013  0.5052887E+02  0.7816164E-02  0.1300439E+00
        -11   -1    0    0    0    0  0.00000000000E+00  0.00000000000E+00  0.45593999997E+02  0.45594000000E+02  0.51100000000E-03 0. -1.
         11   -1    0    0    0    0 -0.00000000000E+00 -0.00000000000E+00 -0.45593999997E+02  0.45594000000E+02  0.51100000000E-03 0.  1.
    9900012    2    1    2    0    0 -0.39577253778E+02 -0.76770228585E+01  0.52791162115E+01  0.50528871080E+02  0.30000034135E+02 0.  0.
         12    1    1    2    0    0  0.39577253778E+02  0.76770228585E+01 -0.52791162115E+01  0.40659128920E+02  0.00000000000E+00 0. -1.
         11    1    3    3    0    0  0.27699166985E+01 -0.50887633109E+01  0.32480317365E+01  0.66421126890E+01  0.51100000000E-03 0. -1.
        -11    1    3    3    0    0 -0.29605098288E+02 -0.17529265181E+01  0.64945183013E+01  0.30359732612E+02  0.51100000000E-03 0.  1.
         12    1    3    3    0    0 -0.12742072188E+02 -0.83533302947E+00 -0.44634338262E+01  0.13527025779E+02  0.00000000000E+00 0. -1.
</event>
<event>
 7    1  0.6046695E-013  0.5052886E+02  0.7816164E-02  0.1300439E+00
        -11   -1    0    0    0    0  0.00000000000E+00  0.00000000000E+00  0.45593999997E+02  0.45594000000E+02  0.51100000000E-03 0. -1.
         11   -1    0    0    0    0 -0.00000000000E+00 -0.00000000000E+00 -0.45593999997E+02  0.45594000000E+02  0.51100000000E-03 0.  1.
    9900012    2    1    2    0    0  0.20883678464E+02  0.26736990476E+02 -0.22409180805E+02  0.50528855023E+02  0.29999985329E+02 0.  0.
         12    1    1    2    0    0 -0.20883678464E+02 -0.26736990476E+02  0.22409180805E+02  0.40659144977E+02  0.00000000000E+00 0. -1.
         11    1    3    3    0    0  0.10236416369E+02  0.20340694200E+02 -0.77654978073E+00  0.22784448434E+02  0.51100000000E-03 0. -1.
        -11    1    3    3    0    0  0.54834306199E+01  0.95964285885E+01 -0.16092779848E+02  0.19522730765E+02  0.51100000000E-03 0.  1.
         12    1    3    3    0    0  0.51638314750E+01 -0.32001323124E+01 -0.55398511756E+01  0.82216758247E+01  0.00000000000E+00 0. -1.
</event>
<event>
 7    1  0.6046695E-013  0.5052886E+02  0.7816164E-02  0.1300439E+00
        -11   -1    0    0    0    0  0.00000000000E+00  0.00000000000E+00  0.45593999997E+02  0.45594000000E+02  0.51100000000E-03 0.  1.
         11   -1    0    0    0    0 -0.00000000000E+00 -0.00000000000E+00 -0.45593999997E+02  0.45594000000E+02  0.51100000000E-03 0. -1.
    9900012    2    1    2    0    0  0.24546382581E+02  0.24605748603E+02  0.21099709700E+02  0.50528861893E+02  0.30000006211E+02 0.  0.
         12    1    1    2    0    0 -0.24546382581E+02 -0.24605748603E+02 -0.21099709700E+02  0.40659138107E+02  0.00000000000E+00 0. -1.
         11    1    3    3    0    0  0.60210180441E+01 -0.14768533227E+01  0.91467363905E+01  0.11049730353E+02  0.51100000000E-03 0. -1.
        -11    1    3    3    0    0  0.22251516474E+02  0.18986957701E+02  0.70673772905E+01  0.30092895676E+02  0.51100000000E-03 0.  1.
        -12    1    3    3    0    0 -0.37261519372E+01  0.70956442250E+01  0.48855960192E+01  0.93862358638E+01  0.00000000000E+00 0.  1.
</event>
<event>
 7    1  0.6046695E-013  0.5052886E+02  0.7816164E-02  0.1300439E+00
        -11   -1    0    0    0    0  0.00000000000E+00  0.00000000000E+00  0.45593999997E+02  0.45594000000E+02  0.51100000000E-03 0.  1.
         11   -1    0    0    0    0 -0.00000000000E+00 -0.00000000000E+00 -0.45593999997E+02  0.45594000000E+02  0.51100000000E-03 0. -1.
    9900012    2    1    2    0    0 -0.15360478408E+02 -0.14489355021E+02  0.34745933893E+02  0.50528860463E+02  0.30000001862E+02 0.  0.
         12    1    1    2    0    0  0.15360478408E+02  0.14489355021E+02 -0.34745933893E+02  0.40659139537E+02  0.00000000000E+00 0. -1.
         11    1    3    3    0    0 -0.22214065308E+01 -0.18118602194E+02  0.94237350745E+01  0.20543251336E+02  0.51100000000E-03 0. -1.
        -11    1    3    3    0    0  0.27276390499E+00  0.19106305443E+01  0.10396538412E+01  0.21922111201E+01  0.51100000000E-03 0.  1.
         12    1    3    3    0    0 -0.13411835782E+02  0.17186166296E+01  0.24282544977E+02  0.27793398006E+02  0.00000000000E+00 0. -1.
</event>
<event>
 7    1  0.6046695E-013  0.5052886E+02  0.7816164E-02  0.1300439E+00
        -11   -1    0    0    0    0  0.00000000000E+00  0.00000000000E+00  0.45593999997E+02  0.45594000000E+02  0.51100000000E-03 0. -1.
         11   -1    0    0    0    0 -0.00000000000E+00 -0.00000000000E+00 -0.45593999997E+02  0.45594000000E+02  0.51100000000E-03 0.  1.
    9900012    2    1    2    0    0 -0.26388421403E+02  0.81864009312E+01 -0.29829509877E+02  0.50528860759E+02  0.30000002762E+02 0.  0.
         12    1    1    2    0    0  0.26388421403E+02 -0.81864009312E+01  0.29829509877E+02  0.40659139241E+02  0.00000000000E+00 0. -1.
         11    1    3    3    0    0 -0.55317966541E+01  0.61110540785E+01  0.16037035366E+01  0.83974770894E+01  0.51100000000E-03 0. -1.
        -11    1    3    3    0    0 -0.21380754805E+02  0.69370697883E+01 -0.28935687217E+02  0.36640600544E+02  0.51100000000E-03 0.  1.
         12    1    3    3    0    0  0.52413005653E+00 -0.48617229356E+01 -0.24975261970E+01  0.54907831248E+01  0.00000000000E+00 0. -1.
</event>
<event>
 7    1  0.6046695E-013  0.5052891E+02  0.7816164E-02  0.1300439E+00
        -11   -1    0    0    0    0  0.00000000000E+00  0.00000000000E+00  0.45593999997E+02  0.45594000000E+02  0.51100000000E-03 0.  1.
         11   -1    0    0    0    0 -0.00000000000E+00 -0.00000000000E+00 -0.45593999997E+02  0.45594000000E+02  0.51100000000E-03 0. -1.
    9900012    2    1    2    0    0  0.28529778348E+02  0.16266692599E+02  0.23970991230E+02  0.50528905553E+02  0.30000138920E+02 0.  0.
         12    1    1    2    0    0 -0.28529778348E+02 -0.16266692599E+02 -0.23970991230E+02  0.40659094447E+02  0.00000000000E+00 0. -1.
         11    1    3    3    0    0  0.15217075650E+02  0.47871956948E+01 -0.98508862414E+00  0.15982710465E+02  0.51100000000E-03 0. -1.
        -11    1    3    3    0    0  0.16722601360E+02  0.11575715229E+02  0.22579158636E+02  0.30388500856E+02  0.51100000000E-03 0.  1.
         12    1    3    3    0    0 -0.34098986621E+01 -0.96218324941E-01  0.23769212186E+01  0.41576942325E+01  0.00000000000E+00 0. -1.
</event>
<event>
 7    1  0.6046695E-013  0.5052883E+02  0.7816164E-02  0.1300439E+00
        -11   -1    0    0    0    0  0.00000000000E+00  0.00000000000E+00  0.45593999997E+02  0.45594000000E+02  0.51100000000E-03 0.  1.
         11   -1    0    0    0    0 -0.00000000000E+00 -0.00000000000E+00 -0.45593999997E+02  0.45594000000E+02  0.51100000000E-03 0. -1.
    9900012    2    1    2    0    0 -0.31633711565E+02 -0.13781349101E+02  0.21506993227E+02  0.50528830701E+02  0.29999911399E+02 0.  0.
         12    1    1    2    0    0  0.31633711565E+02  0.13781349101E+02 -0.21506993227E+02  0.40659169299E+02  0.00000000000E+00 0. -1.
         11    1    3    3    0    0 -0.14559191268E+02  0.53359851805E+01  0.92788436637E+01  0.18070410295E+02  0.51100000000E-03 0. -1.
        -11    1    3    3    0    0 -0.16919760467E+02 -0.21411013366E+02  0.12718772057E+02  0.30107755654E+02  0.51100000000E-03 0.  1.
        -12    1    3    3    0    0 -0.15475983065E+00  0.22936790848E+01 -0.49062249377E+00  0.23506647529E+01  0.00000000000E+00 0.  1.
</event>
<event>
 7    1  0.6046695E-013  0.5052886E+02  0.7816164E-02  0.1300439E+00
        -11   -1    0    0    0    0  0.00000000000E+00  0.00000000000E+00  0.45593999997E+02  0.45594000000E+02  0.51100000000E-03 0.  1.
         11   -1    0    0    0    0 -0.00000000000E+00 -0.00000000000E+00 -0.45593999997E+02  0.45594000000E+02  0.51100000000E-03 0. -1.
    9900012    2    1    2    0    0  0.18201551380E+02  0.30645701763E+02  0.19562975898E+02  0.50528861603E+02  0.30000005329E+02 0.  0.
         12    1    1    2    0    0 -0.18201551380E+02 -0.30645701763E+02 -0.19562975898E+02  0.40659138397E+02  0.00000000000E+00 0. -1.
         11    1    3    3    0    0  0.78223815386E+01  0.17323325552E+02  0.34243610275E+01  0.19313557669E+02  0.51100000000E-03 0. -1.
        -11    1    3    3    0    0  0.12072649702E+02 -0.64192171648E+00  0.10664179219E+02  0.16120969357E+02  0.51100000000E-03 0.  1.
        -12    1    3    3    0    0 -0.16934798610E+01  0.13964297927E+02  0.54744356520E+01  0.15094334578E+02  0.00000000000E+00 0.  1.
</event>
<event>
 7    1  0.6046695E-013  0.5052888E+02  0.7816164E-02  0.1300439E+00
        -11   -1    0    0    0    0  0.00000000000E+00  0.00000000000E+00  0.45593999997E+02  0.45594000000E+02  0.51100000000E-03 0.  1.
         11   -1    0    0    0    0 -0.00000000000E+00 -0.00000000000E+00 -0.45593999997E+02  0.45594000000E+02  0.51100000000E-03 0. -1.
    9900012    2    1    2    0    0 -0.30659228867E+02  0.50420270457E+01  0.26225063319E+02  0.50528876823E+02  0.30000051593E+02 0.  0.
         12    1    1    2    0    0  0.30659228867E+02 -0.50420270457E+01 -0.26225063319E+02  0.40659123177E+02  0.00000000000E+00 0. -1.
         11    1    3    3    0    0 -0.99461546171E+01  0.11407120612E+02  0.64500495628E+01  0.16451490265E+02  0.51100000000E-03 0. -1.
        -11    1    3    3    0    0 -0.11642133466E+01 -0.67497787152E+01  0.91352677173E+00  0.69100967319E+01  0.51100000000E-03 0.  1.
        -12    1    3    3    0    0 -0.19548860903E+02  0.38468514891E+00  0.18861486984E+02  0.27167289826E+02  0.00000000000E+00 0.  1.
</event>
<event>
 7    1  0.6046695E-013  0.5052885E+02  0.7816164E-02  0.1300439E+00
        -11   -1    0    0    0    0  0.00000000000E+00  0.00000000000E+00  0.45593999997E+02  0.45594000000E+02  0.51100000000E-03 0.  1.
         11   -1    0    0    0    0 -0.00000000000E+00 -0.00000000000E+00 -0.45593999997E+02  0.45594000000E+02  0.51100000000E-03 0. -1.
    9900012    2    1    2    0    0 -0.12612725976E+02  0.28963251525E+02  0.25597184003E+02  0.50528848209E+02  0.29999964617E+02 0.  0.
         12    1    1    2    0    0  0.12612725976E+02 -0.28963251525E+02 -0.25597184003E+02  0.40659151791E+02  0.00000000000E+00 0. -1.
         11    1    3    3    0    0  0.18114727233E+01  0.37725905658E+01  0.83373675529E+01  0.93287497007E+01  0.51100000000E-03 0.  1.
        -11    1    3    3    0    0 -0.18375028729E+01  0.99019279255E+00 -0.53673478521E+01  0.57589340855E+01  0.51100000000E-03 0. -1.
        -12    1    3    3    0    0 -0.12586695827E+02  0.24200468166E+02  0.22627164302E+02  0.35441164423E+02  0.00000000000E+00 0.  1.
</event>
<event>
 7    1  0.6046695E-013  0.5052886E+02  0.7816164E-02  0.1300439E+00
        -11   -1    0    0    0    0  0.00000000000E+00  0.00000000000E+00  0.45593999997E+02  0.45594000000E+02  0.51100000000E-03 0.  1.
         11   -1    0    0    0    0 -0.00000000000E+00 -0.00000000000E+00 -0.45593999997E+02  0.45594000000E+02  0.51100000000E-03 0. -1.
    9900012    2    1    2    0    0  0.19444617598E+02 -0.23805157815E+02  0.26615543968E+02  0.50528857450E+02  0.29999992706E+02 0.  0.
         12    1    1    2    0    0 -0.19444617598E+02  0.23805157815E+02 -0.26615543968E+02  0.40659142550E+02  0.00000000000E+00 0. -1.
         11    1    3    3    0    0 -0.45207698527E+00  0.54191532650E+01  0.90440702030E+01  0.10553047039E+02  0.51100000000E-03 0. -1.
        -11    1    3    3    0    0  0.12801181195E+02 -0.22519718331E+02  0.14774195079E+02  0.29820878494E+02  0.51100000000E-03 0.  1.
        -12    1    3    3    0    0  0.70955133892E+01 -0.67045927496E+01  0.27972786863E+01  0.10154931917E+02  0.00000000000E+00 0.  1.
</event>
<event>
 7    1  0.6046695E-013  0.5052882E+02  0.7816164E-02  0.1300439E+00
        -11   -1    0    0    0    0  0.00000000000E+00  0.00000000000E+00  0.45593999997E+02  0.45594000000E+02  0.51100000000E-03 0.  1.
         11   -1    0    0    0    0 -0.00000000000E+00 -0.00000000000E+00 -0.45593999997E+02  0.45594000000E+02  0.51100000000E-03 0. -1.
    9900012    2    1    2    0    0  0.98673064581E+01  0.22009626288E+02  0.32731962778E+02  0.50528821782E+02  0.29999884288E+02 0.  0.
         12    1    1    2    0    0 -0.98673064581E+01 -0.22009626288E+02 -0.32731962778E+02  0.40659178218E+02  0.00000000000E+00 0. -1.
         11    1    3    3    0    0  0.65729226502E+01  0.20021145129E+02  0.41101612243E+01  0.21469582902E+02  0.51100000000E-03 0. -1.
        -11    1    3    3    0    0  0.11866413599E+01 -0.69759881016E+00  0.12765567691E+02  0.12839566992E+02  0.51100000000E-03 0.  1.
         12    1    3    3    0    0  0.21077424480E+01  0.26860799690E+01  0.15856233862E+02  0.16219671887E+02  0.00000000000E+00 0. -1.
</event>
<event>
 7    1  0.6046695E-013  0.5052885E+02  0.7816164E-02  0.1300439E+00
        -11   -1    0    0    0    0  0.00000000000E+00  0.00000000000E+00  0.45593999997E+02  0.45594000000E+02  0.51100000000E-03 0. -1.
         11   -1    0    0    0    0 -0.00000000000E+00 -0.00000000000E+00 -0.45593999997E+02  0.45594000000E+02  0.51100000000E-03 0.  1.
    9900012    2    1    2    0    0  0.24935336012E+01 -0.36726299111E+02 -0.17266374007E+02  0.50528850629E+02  0.29999971971E+02 0.  0.
         12    1    1    2    0    0 -0.24935336012E+01  0.36726299111E+02  0.17266374007E+02  0.40659149371E+02  0.00000000000E+00 0. -1.
         11    1    3    3    0    0  0.30158020616E+01 -0.95993011613E+01 -0.15092480318E+02  0.18139035456E+02  0.51100000000E-03 0. -1.
        -11    1    3    3    0    0 -0.86039879408E+01 -0.18988415110E+02 -0.14829990180E+01  0.20899468970E+02  0.51100000000E-03 0.  1.
         12    1    3    3    0    0  0.80817194804E+01 -0.81385828400E+01 -0.69089467092E+00  0.11490346202E+02  0.00000000000E+00 0. -1.
</event>
<event>
 7    1  0.6046695E-013  0.5052883E+02  0.7816164E-02  0.1300439E+00
        -11   -1    0    0    0    0  0.00000000000E+00  0.00000000000E+00  0.45593999997E+02  0.45594000000E+02  0.51100000000E-03 0. -1.
         11   -1    0    0    0    0 -0.00000000000E+00 -0.00000000000E+00 -0.45593999997E+02  0.45594000000E+02  0.51100000000E-03 0.  1.
    9900012    2    1    2    0    0  0.21570931263E+02 -0.19315772968E+02 -0.28544072994E+02  0.50528828046E+02  0.29999903328E+02 0.  0.
         12    1    1    2    0    0 -0.21570931263E+02  0.19315772968E+02  0.28544072994E+02  0.40659171954E+02  0.00000000000E+00 0. -1.
         11    1    3    3    0    0 -0.37039737299E+01 -0.70219467181E+01 -0.83657265035E+00  0.79829199648E+01  0.51100000000E-03 0. -1.
        -11    1    3    3    0    0  0.11275582236E+02 -0.13944160638E+02 -0.12821250085E+02  0.22044564515E+02  0.51100000000E-03 0.  1.
         12    1    3    3    0    0  0.13999322757E+02  0.16503343879E+01 -0.14886250258E+02  0.20501343566E+02  0.00000000000E+00 0. -1.
</event>
<event>
 7    1  0.6046695E-013  0.5052884E+02  0.7816164E-02  0.1300439E+00
        -11   -1    0    0    0    0  0.00000000000E+00  0.00000000000E+00  0.45593999997E+02  0.45594000000E+02  0.51100000000E-03 0.  1.
         11   -1    0    0    0    0 -0.00000000000E+00 -0.00000000000E+00 -0.45593999997E+02  0.45594000000E+02  0.51100000000E-03 0. -1.
    9900012    2    1    2    0    0 -0.18419420855E+02 -0.98184556564E+00  0.36234345732E+02  0.50528844869E+02  0.29999954463E+02 0.  0.
         12    1    1    2    0    0  0.18419420855E+02  0.98184556564E+00 -0.36234345732E+02  0.40659155131E+02  0.00000000000E+00 0. -1.
         11    1    3    3    0    0 -0.10592420984E+02  0.32589368620E+01  0.15522376858E+01  0.11190598458E+02  0.51100000000E-03 0. -1.
        -11    1    3    3    0    0 -0.12888564615E+02 -0.40075944070E+01  0.25082331462E+02  0.28483315512E+02  0.51100000000E-03 0.  1.
         12    1    3    3    0    0  0.50615647441E+01 -0.23318802063E+00  0.95997765851E+01  0.10854930898E+02  0.00000000000E+00 0. -1.
</event>
<event>
 7    1  0.6046695E-013  0.5052887E+02  0.7816164E-02  0.1300439E+00
        -11   -1    0    0    0    0  0.00000000000E+00  0.00000000000E+00  0.45593999997E+02  0.45594000000E+02  0.51100000000E-03 0. -1.
         11   -1    0    0    0    0 -0.00000000000E+00 -0.00000000000E+00 -0.45593999997E+02  0.45594000000E+02  0.51100000000E-03 0.  1.
    9900012    2    1    2    0    0 -0.10399148109E+02 -0.34146546645E+02 -0.19468849629E+02  0.50528867754E+02  0.30000024024E+02 0.  0.
         12    1    1    2    0    0  0.10399148109E+02  0.34146546645E+02  0.19468849629E+02  0.40659132246E+02  0.00000000000E+00 0. -1.
         11    1    3    3    0    0 -0.11536378590E+02 -0.33695491520E+02 -0.65187542617E+01  0.36207296739E+02  0.51100000000E-03 0. -1.
        -11    1    3    3    0    0  0.86532315272E+00 -0.30949237962E+01 -0.90354815331E+01  0.95899564263E+01  0.51100000000E-03 0.  1.
         12    1    3    3    0    0  0.27190732834E+00  0.26438686711E+01 -0.39146138341E+01  0.47316145886E+01  0.00000000000E+00 0. -1.
</event>
<event>
 7    1  0.6046695E-013  0.5052886E+02  0.7816164E-02  0.1300439E+00
        -11   -1    0    0    0    0  0.00000000000E+00  0.00000000000E+00  0.45593999997E+02  0.45594000000E+02  0.51100000000E-03 0. -1.
         11   -1    0    0    0    0 -0.00000000000E+00 -0.00000000000E+00 -0.45593999997E+02  0.45594000000E+02  0.51100000000E-03 0.  1.
    9900012    2    1    2    0    0  0.18299902698E+02 -0.10338976538E+02 -0.34804957531E+02  0.50528856584E+02  0.29999990072E+02 0.  0.
         12    1    1    2    0    0 -0.18299902698E+02  0.10338976538E+02  0.34804957531E+02  0.40659143416E+02  0.00000000000E+00 0. -1.
         11    1    3    3    0    0  0.32842846394E+01  0.25311953390E+01 -0.19364949687E+02  0.19803907495E+02  0.51100000000E-03 0.  1.
        -11    1    3    3    0    0  0.63711062304E+01 -0.15802531190E+02 -0.74590597179E+01  0.18599692437E+02  0.51100000000E-03 0. -1.
         12    1    3    3    0    0  0.86445118285E+01  0.29323593126E+01 -0.79809481261E+01  0.12125256652E+02  0.00000000000E+00 0. -1.
</event>
<event>
 7    1  0.6046695E-013  0.5052886E+02  0.7816164E-02  0.1300439E+00
        -11   -1    0    0    0    0  0.00000000000E+00  0.00000000000E+00  0.45593999997E+02  0.45594000000E+02  0.51100000000E-03 0.  1.
         11   -1    0    0    0    0 -0.00000000000E+00 -0.00000000000E+00 -0.45593999997E+02  0.45594000000E+02  0.51100000000E-03 0. -1.
    9900012    2    1    2    0    0  0.22144218947E+00  0.40658102348E+02  0.18874239027E+00  0.50528856541E+02  0.29999989941E+02 0.  0.
         12    1    1    2    0    0 -0.22144218947E+00 -0.40658102348E+02 -0.18874239027E+00  0.40659143459E+02  0.00000000000E+00 0. -1.
         11    1    3    3    0    0 -0.73294684614E+01  0.48386569441E+01  0.84529115412E+01  0.12189562040E+02  0.51100000000E-03 0. -1.
        -11    1    3    3    0    0  0.82989842100E+01  0.28499760663E+02 -0.43358470973E+01  0.29998484413E+02  0.51100000000E-03 0.  1.
         12    1    3    3    0    0 -0.74807355919E+00  0.73196847405E+01 -0.39283220536E+01  0.83408100870E+01  0.00000000000E+00 0. -1.
</event>
<event>
 7    1  0.6046695E-013  0.5052885E+02  0.7816164E-02  0.1300439E+00
        -11   -1    0    0    0    0  0.00000000000E+00  0.00000000000E+00  0.45593999997E+02  0.45594000000E+02  0.51100000000E-03 0.  1.
         11   -1    0    0    0    0 -0.00000000000E+00 -0.00000000000E+00 -0.45593999997E+02  0.45594000000E+02  0.51100000000E-03 0. -1.
    9900012    2    1    2    0    0  0.14596352362E+02 -0.21687406101E+02  0.31141126047E+02  0.50528845838E+02  0.29999957410E+02 0.  0.
         12    1    1    2    0    0 -0.14596352362E+02  0.21687406101E+02 -0.31141126047E+02  0.40659154162E+02  0.00000000000E+00 0. -1.
         11    1    3    3    0    0  0.17499442970E+02 -0.46935901032E+01  0.17852315067E+02  0.25435515443E+02  0.51100000000E-03 0.  1.
        -11    1    3    3    0    0 -0.77023916472E+01 -0.87911137221E+01  0.61508540413E+01  0.13207706964E+02  0.51100000000E-03 0. -1.
         12    1    3    3    0    0  0.47993010390E+01 -0.82027022755E+01  0.71379569383E+01  0.11885623431E+02  0.00000000000E+00 0. -1.
</event>
<event>
 7    1  0.6046695E-013  0.5052885E+02  0.7816164E-02  0.1300439E+00
        -11   -1    0    0    0    0  0.00000000000E+00  0.00000000000E+00  0.45593999997E+02  0.45594000000E+02  0.51100000000E-03 0.  1.
         11   -1    0    0    0    0 -0.00000000000E+00 -0.00000000000E+00 -0.45593999997E+02  0.45594000000E+02  0.51100000000E-03 0. -1.
    9900012    2    1    2    0    0 -0.14723195644E+02  0.37720953430E+02  0.36773980744E+01  0.50528854974E+02  0.29999985180E+02 0.  0.
         12    1    1    2    0    0  0.14723195644E+02 -0.37720953430E+02 -0.36773980744E+01  0.40659145026E+02  0.00000000000E+00 0. -1.
         11    1    3    3    0    0 -0.97436633630E+00  0.22843751461E+01 -0.18002745268E+01  0.30673682854E+01  0.51100000000E-03 0. -1.
        -11    1    3    3    0    0 -0.13514091764E+02  0.24876401470E+02  0.16027808479E+02  0.32532394182E+02  0.51100000000E-03 0.  1.
        -12    1    3    3    0    0 -0.23473754331E+00  0.10560176813E+02 -0.10550135877E+02  0.14929092507E+02  0.00000000000E+00 0.  1.
</event>
<event>
 7    1  0.6046695E-013  0.5052886E+02  0.7816164E-02  0.1300439E+00
        -11   -1    0    0    0    0  0.00000000000E+00  0.00000000000E+00  0.45593999997E+02  0.45594000000E+02  0.51100000000E-03 0.  1.
         11   -1    0    0    0    0 -0.00000000000E+00 -0.00000000000E+00 -0.45593999997E+02  0.45594000000E+02  0.51100000000E-03 0. -1.
    9900012    2    1    2    0    0 -0.21367734752E+02 -0.21319501207E+02  0.27240858526E+02  0.50528860888E+02  0.30000003154E+02 0.  0.
         12    1    1    2    0    0  0.21367734752E+02  0.21319501207E+02 -0.27240858526E+02  0.40659139112E+02  0.00000000000E+00 0. -1.
         11    1    3    3    0    0  0.14069511035E+00  0.16166595587E+01 -0.32903772593E+01  0.36687826336E+01  0.51100000000E-03 0. -1.
        -11    1    3    3    0    0 -0.14187246356E+02 -0.15417176187E+02  0.29681474667E+02  0.36331215496E+02  0.51100000000E-03 0.  1.
         12    1    3    3    0    0 -0.73211835062E+01 -0.75189845783E+01  0.84976111788E+00  0.10528862758E+02  0.00000000000E+00 0. -1.
</event>
<event>
 7    1  0.6046695E-013  0.5052883E+02  0.7816164E-02  0.1300439E+00
        -11   -1    0    0    0    0  0.00000000000E+00  0.00000000000E+00  0.45593999997E+02  0.45594000000E+02  0.51100000000E-03 0.  1.
         11   -1    0    0    0    0 -0.00000000000E+00 -0.00000000000E+00 -0.45593999997E+02  0.45594000000E+02  0.51100000000E-03 0. -1.
    9900012    2    1    2    0    0  0.80216690315E+01  0.14676769068E+02  0.37059590926E+02  0.50528831244E+02  0.29999913050E+02 0.  0.
         12    1    1    2    0    0 -0.80216690315E+01 -0.14676769068E+02 -0.37059590926E+02  0.40659168756E+02  0.00000000000E+00 0. -1.
         11    1    3    3    0    0  0.48979362670E+01 -0.13472947777E+01 -0.11888721791E+00  0.50812515511E+01  0.51100000000E-03 0. -1.
        -11    1    3    3    0    0 -0.66895921577E+01  0.13129928052E+02  0.15022147593E+02  0.21043064712E+02  0.51100000000E-03 0.  1.
        -12    1    3    3    0    0  0.98133249222E+01  0.28941357938E+01  0.22156330550E+02  0.24404514981E+02  0.00000000000E+00 0.  1.
</event>
<event>
 7    1  0.6046695E-013  0.5052886E+02  0.7816164E-02  0.1300439E+00
        -11   -1    0    0    0    0  0.00000000000E+00  0.00000000000E+00  0.45593999997E+02  0.45594000000E+02  0.51100000000E-03 0.  1.
         11   -1    0    0    0    0 -0.00000000000E+00 -0.00000000000E+00 -0.45593999997E+02  0.45594000000E+02  0.51100000000E-03 0. -1.
    9900012    2    1    2    0    0 -0.37017235329E+02  0.94181191730E+01  0.13935171231E+02  0.50528859854E+02  0.30000000013E+02 0.  0.
         12    1    1    2    0    0  0.37017235329E+02 -0.94181191730E+01 -0.13935171231E+02  0.40659140146E+02  0.00000000000E+00 0. -1.
         11    1    3    3    0    0 -0.37121562764E+01 -0.69390393622E+01  0.26435485616E+01  0.83017299853E+01  0.51100000000E-03 0. -1.
        -11    1    3    3    0    0 -0.24599482795E+02  0.67145993928E+01  0.77216299164E+00  0.25511108066E+02  0.51100000000E-03 0.  1.
         12    1    3    3    0    0 -0.87055962569E+01  0.96425591424E+01  0.10519459678E+02  0.16716021803E+02  0.00000000000E+00 0. -1.
</event>
<event>
 7    1  0.6046695E-013  0.5052885E+02  0.7816164E-02  0.1300439E+00
        -11   -1    0    0    0    0  0.00000000000E+00  0.00000000000E+00  0.45593999997E+02  0.45594000000E+02  0.51100000000E-03 0. -1.
         11   -1    0    0    0    0 -0.00000000000E+00 -0.00000000000E+00 -0.45593999997E+02  0.45594000000E+02  0.51100000000E-03 0.  1.
    9900012    2    1    2    0    0 -0.13246393708E+01  0.40110161431E+02 -0.65258229198E+01  0.50528854851E+02  0.29999984805E+02 0.  0.
         12    1    1    2    0    0  0.13246393708E+01 -0.40110161431E+02  0.65258229198E+01  0.40659145149E+02  0.00000000000E+00 0. -1.
         11    1    3    3    0    0  0.12991583392E+02  0.12620987836E+02 -0.34341708870E-01  0.18112751106E+02  0.51100000000E-03 0. -1.
        -11    1    3    3    0    0 -0.91887325944E+01  0.12743314783E+02 -0.59349016472E+01  0.16794282842E+02  0.51100000000E-03 0.  1.
         12    1    3    3    0    0 -0.51274901687E+01  0.14745858812E+02 -0.55657956368E+00  0.15621820904E+02  0.00000000000E+00 0. -1.
</event>
<event>
 7    1  0.6046695E-013  0.5052886E+02  0.7816164E-02  0.1300439E+00
        -11   -1    0    0    0    0  0.00000000000E+00  0.00000000000E+00  0.45593999997E+02  0.45594000000E+02  0.51100000000E-03 0.  1.
         11   -1    0    0    0    0 -0.00000000000E+00 -0.00000000000E+00 -0.45593999997E+02  0.45594000000E+02  0.51100000000E-03 0. -1.
    9900012    2    1    2    0    0 -0.26141676540E+02  0.69954009004E+01  0.30345395892E+02  0.50528856651E+02  0.29999990275E+02 0.  0.
         12    1    1    2    0    0  0.26141676540E+02 -0.69954009004E+01 -0.30345395892E+02  0.40659143349E+02  0.00000000000E+00 0. -1.
         11    1    3    3    0    0 -0.21505689236E+02 -0.26796469685E+01  0.15794456598E+02  0.26816786476E+02  0.51100000000E-03 0. -1.
        -11    1    3    3    0    0  0.49814779941E+01  0.72499622523E+01  0.71764675936E+01  0.11352478278E+02  0.51100000000E-03 0.  1.
        -12    1    3    3    0    0 -0.96174652976E+01  0.24250856166E+01  0.73744717006E+01  0.12359591897E+02  0.00000000000E+00 0.  1.
</event>
<event>
 7    1  0.6046695E-013  0.5052886E+02  0.7816164E-02  0.1300439E+00
        -11   -1    0    0    0    0  0.00000000000E+00  0.00000000000E+00  0.45593999997E+02  0.45594000000E+02  0.51100000000E-03 0.  1.
         11   -1    0    0    0    0 -0.00000000000E+00 -0.00000000000E+00 -0.45593999997E+02  0.45594000000E+02  0.51100000000E-03 0. -1.
    9900012    2    1    2    0    0  0.30088584313E+01 -0.72179532844E+01  0.39900045150E+02  0.50528859802E+02  0.29999999853E+02 0.  0.
         12    1    1    2    0    0 -0.30088584313E+01  0.72179532844E+01 -0.39900045150E+02  0.40659140198E+02  0.00000000000E+00 0. -1.
         11    1    3    3    0    0 -0.52660505263E+01  0.63319497324E+01  0.35763319511E+01  0.89785870851E+01  0.51100000000E-03 0. -1.
        -11    1    3    3    0    0  0.97516819827E+01 -0.67110495203E+01  0.15002273092E+02  0.19110250792E+02  0.51100000000E-03 0.  1.
         12    1    3    3    0    0 -0.14767730251E+01 -0.68388534965E+01  0.21321440108E+02  0.22440021925E+02  0.00000000000E+00 0. -1.
</event>
<event>
 7    1  0.6046695E-013  0.5052887E+02  0.7816164E-02  0.1300439E+00
        -11   -1    0    0    0    0  0.00000000000E+00  0.00000000000E+00  0.45593999997E+02  0.45594000000E+02  0.51100000000E-03 0. -1.
         11   -1    0    0    0    0 -0.00000000000E+00 -0.00000000000E+00 -0.45593999997E+02  0.45594000000E+02  0.51100000000E-03 0.  1.
    9900012    2    1    2    0    0 -0.33723404006E+01 -0.39477682721E+02 -0.91271497854E+01  0.50528868480E+02  0.30000026231E+02 0.  0.
         12    1    1    2    0    0  0.33723404006E+01  0.39477682721E+02  0.91271497854E+01  0.40659131520E+02  0.00000000000E+00 0. -1.
         11    1    3    3    0    0  0.89227220788E+01 -0.93761833695E+01  0.23205416089E+01  0.13149627276E+02  0.51100000000E-03 0. -1.
        -11    1    3    3    0    0 -0.85089093870E+01 -0.28573074062E+02 -0.13594389485E+02  0.32766286424E+02  0.51100000000E-03 0.  1.
         12    1    3    3    0    0 -0.37861530925E+01 -0.15284252892E+01  0.21466980910E+01  0.46129547795E+01  0.00000000000E+00 0. -1.
</event>
<event>
 7    1  0.6046695E-013  0.5052884E+02  0.7816164E-02  0.1300439E+00
        -11   -1    0    0    0    0  0.00000000000E+00  0.00000000000E+00  0.45593999997E+02  0.45594000000E+02  0.51100000000E-03 0.  1.
         11   -1    0    0    0    0 -0.00000000000E+00 -0.00000000000E+00 -0.45593999997E+02  0.45594000000E+02  0.51100000000E-03 0. -1.
    9900012    2    1    2    0    0  0.84064029197E+01  0.72978375540E+01  0.39105513725E+02  0.50528840555E+02  0.29999941352E+02 0.  0.
         12    1    1    2    0    0 -0.84064029197E+01 -0.72978375540E+01 -0.39105513725E+02  0.40659159445E+02  0.00000000000E+00 0. -1.
         11    1    3    3    0    0  0.47655451256E+01 -0.99029591302E+01  0.64170797465E+01  0.12726269391E+02  0.51100000000E-03 0. -1.
        -11    1    3    3    0    0  0.57575313754E+01  0.10741103055E+02  0.21265835101E+02  0.24510328541E+02  0.51100000000E-03 0.  1.
         12    1    3    3    0    0 -0.21166735812E+01  0.64596936295E+01  0.11422598878E+02  0.13292242623E+02  0.00000000000E+00 0. -1.
</event>
<event>
 7    1  0.6046695E-013  0.5052886E+02  0.7816164E-02  0.1300439E+00
        -11   -1    0    0    0    0  0.00000000000E+00  0.00000000000E+00  0.45593999997E+02  0.45594000000E+02  0.51100000000E-03 0.  1.
         11   -1    0    0    0    0 -0.00000000000E+00 -0.00000000000E+00 -0.45593999997E+02  0.45594000000E+02  0.51100000000E-03 0. -1.
    9900012    2    1    2    0    0 -0.14479007743E+02 -0.32352074509E+02  0.19921531577E+02  0.50528858216E+02  0.29999995032E+02 0.  0.
         12    1    1    2    0    0  0.14479007743E+02  0.32352074509E+02 -0.19921531577E+02  0.40659141784E+02  0.00000000000E+00 0. -1.
         11    1    3    3    0    0 -0.17242898453E+02 -0.19013174128E+02 -0.28387309675E-01  0.25667472481E+02  0.51100000000E-03 0. -1.
        -11    1    3    3    0    0  0.18139649382E+01 -0.19451153011E+01  0.75022453478E+01  0.79597504892E+01  0.51100000000E-03 0.  1.
         12    1    3    3    0    0  0.94992577163E+00 -0.11393785080E+02  0.12447673539E+02  0.16901635245E+02  0.00000000000E+00 0. -1.
</event>
<event>
 7    1  0.6046695E-013  0.5052888E+02  0.7816164E-02  0.1300439E+00
        -11   -1    0    0    0    0  0.00000000000E+00  0.00000000000E+00  0.45593999997E+02  0.45594000000E+02  0.51100000000E-03 0.  1.
         11   -1    0    0    0    0 -0.00000000000E+00 -0.00000000000E+00 -0.45593999997E+02  0.45594000000E+02  0.51100000000E-03 0. -1.
    9900012    2    1    2    0    0 -0.21595409766E+02  0.34133713469E+02 -0.46574885149E+01  0.50528876579E+02  0.30000050848E+02 0.  0.
         12    1    1    2    0    0  0.21595409766E+02 -0.34133713469E+02  0.46574885149E+01  0.40659123421E+02  0.00000000000E+00 0. -1.
         11    1    3    3    0    0  0.19971816545E+01  0.11440033316E+01 -0.57475863022E+01  0.61913025080E+01  0.51100000000E-03 0. -1.
        -11    1    3    3    0    0 -0.20947479334E+02  0.16513029059E+02 -0.38126350272E+01  0.26944632216E+02  0.51100000000E-03 0.  1.
         12    1    3    3    0    0 -0.26451120867E+01  0.16476681078E+02  0.49027328146E+01  0.17392941854E+02  0.00000000000E+00 0. -1.
</event>
<event>
 7    1  0.6046695E-013  0.5052886E+02  0.7816164E-02  0.1300439E+00
        -11   -1    0    0    0    0  0.00000000000E+00  0.00000000000E+00  0.45593999997E+02  0.45594000000E+02  0.51100000000E-03 0.  1.
         11   -1    0    0    0    0 -0.00000000000E+00 -0.00000000000E+00 -0.45593999997E+02  0.45594000000E+02  0.51100000000E-03 0. -1.
    9900012    2    1    2    0    0 -0.29512219450E+02 -0.10392445023E+02  0.25965199279E+02  0.50528861003E+02  0.30000003504E+02 0.  0.
         12    1    1    2    0    0  0.29512219450E+02  0.10392445023E+02 -0.25965199279E+02  0.40659138997E+02  0.00000000000E+00 0. -1.
         11    1    3    3    0    0 -0.89283479230E+01  0.55750886201E+01  0.18826127885E+02  0.21568961522E+02  0.51100000000E-03 0. -1.
        -11    1    3    3    0    0 -0.45629259726E+01 -0.84934351301E+01  0.57520617695E+01  0.11226974152E+02  0.51100000000E-03 0.  1.
         12    1    3    3    0    0 -0.16020945554E+02 -0.74740985128E+01  0.13870096249E+01  0.17732925329E+02  0.00000000000E+00 0. -1.
</event>
<event>
 7    1  0.6046695E-013  0.5052886E+02  0.7816164E-02  0.1300439E+00
        -11   -1    0    0    0    0  0.00000000000E+00  0.00000000000E+00  0.45593999997E+02  0.45594000000E+02  0.51100000000E-03 0.  1.
         11   -1    0    0    0    0 -0.00000000000E+00 -0.00000000000E+00 -0.45593999997E+02  0.45594000000E+02  0.51100000000E-03 0. -1.
    9900012    2    1    2    0    0  0.21192051076E+02 -0.43574863953E+01  0.34424921161E+02  0.50528856951E+02  0.29999991190E+02 0.  0.
         12    1    1    2    0    0 -0.21192051076E+02  0.43574863953E+01 -0.34424921161E+02  0.40659143049E+02  0.00000000000E+00 0. -1.
         11    1    3    3    0    0 -0.49898212434E+01  0.27337504902E+01  0.31521320698E+01  0.65044326909E+01  0.51100000000E-03 0. -1.
        -11    1    3    3    0    0  0.12381315516E+02 -0.83250486368E+01  0.24296093595E+02  0.28511463887E+02  0.51100000000E-03 0.  1.
        -12    1    3    3    0    0  0.13800556803E+02  0.12338117514E+01  0.69766954963E+01  0.15512960374E+02  0.00000000000E+00 0.  1.
</event>
<event>
 7    1  0.6046695E-013  0.5052886E+02  0.7816164E-02  0.1300439E+00
        -11   -1    0    0    0    0  0.00000000000E+00  0.00000000000E+00  0.45593999997E+02  0.45594000000E+02  0.51100000000E-03 0.  1.
         11   -1    0    0    0    0 -0.00000000000E+00 -0.00000000000E+00 -0.45593999997E+02  0.45594000000E+02  0.51100000000E-03 0. -1.
    9900012    2    1    2    0    0 -0.13148101684E+02 -0.19173298658E+02  0.33356825642E+02  0.50528858638E+02  0.29999996317E+02 0.  0.
         12    1    1    2    0    0  0.13148101684E+02  0.19173298658E+02 -0.33356825642E+02  0.40659141362E+02  0.00000000000E+00 0. -1.
         11    1    3    3    0    0  0.26673867365E+01  0.55399304671E+01  0.66732806431E+00  0.61847480618E+01  0.51100000000E-03 0. -1.
        -11    1    3    3    0    0 -0.12248128443E+02 -0.20559740570E+02  0.22874824318E+02  0.33105545917E+02  0.51100000000E-03 0.  1.
         12    1    3    3    0    0 -0.35673599775E+01 -0.41534885554E+01  0.98146732602E+01  0.11238564659E+02  0.00000000000E+00 0. -1.
</event>
<event>
 7    1  0.6046695E-013  0.5052887E+02  0.7816164E-02  0.1300439E+00
        -11   -1    0    0    0    0  0.00000000000E+00  0.00000000000E+00  0.45593999997E+02  0.45594000000E+02  0.51100000000E-03 0.  1.
         11   -1    0    0    0    0 -0.00000000000E+00 -0.00000000000E+00 -0.45593999997E+02  0.45594000000E+02  0.51100000000E-03 0. -1.
    9900012    2    1    2    0    0 -0.38258032602E+02 -0.28575062537E+01  0.13465611311E+02  0.50528867095E+02  0.30000022023E+02 0.  0.
         12    1    1    2    0    0  0.38258032602E+02  0.28575062537E+01 -0.13465611311E+02  0.40659132905E+02  0.00000000000E+00 0. -1.
         11    1    3    3    0    0 -0.21895547359E+02 -0.77956669137E+01  0.80223973251E+01  0.24587522769E+02  0.51100000000E-03 0. -1.
        -11    1    3    3    0    0  0.10197666910E+01 -0.18141287348E+01  0.69287919935E+01  0.72345798718E+01  0.51100000000E-03 0.  1.
        -12    1    3    3    0    0 -0.17382251934E+02  0.67522893948E+01 -0.14855780073E+01  0.18706764455E+02  0.00000000000E+00 0.  1.
</event>
<event>
 7    1  0.6046695E-013  0.5052886E+02  0.7816164E-02  0.1300439E+00
        -11   -1    0    0    0    0  0.00000000000E+00  0.00000000000E+00  0.45593999997E+02  0.45594000000E+02  0.51100000000E-03 0.  1.
         11   -1    0    0    0    0 -0.00000000000E+00 -0.00000000000E+00 -0.45593999997E+02  0.45594000000E+02  0.51100000000E-03 0. -1.
    9900012    2    1    2    0    0 -0.38873942003E+02  0.31218179618E+00  0.11911539665E+02  0.50528860788E+02  0.30000002851E+02 0.  0.
         12    1    1    2    0    0  0.38873942003E+02 -0.31218179618E+00 -0.11911539665E+02  0.40659139212E+02  0.00000000000E+00 0. -1.
         11    1    3    3    0    0 -0.17826088043E+02  0.46970801116E+01 -0.67597134513E+01  0.19634808445E+02  0.51100000000E-03 0. -1.
        -11    1    3    3    0    0 -0.16902502155E+02 -0.73605105127E+01  0.10375979221E+02  0.21154967246E+02  0.51100000000E-03 0.  1.
         12    1    3    3    0    0 -0.41453518049E+01  0.29756121972E+01  0.82952738945E+01  0.97390850966E+01  0.00000000000E+00 0. -1.
</event>
<event>
 7    1  0.6046695E-013  0.5052887E+02  0.7816164E-02  0.1300439E+00
        -11   -1    0    0    0    0  0.00000000000E+00  0.00000000000E+00  0.45593999997E+02  0.45594000000E+02  0.51100000000E-03 0.  1.
         11   -1    0    0    0    0 -0.00000000000E+00 -0.00000000000E+00 -0.45593999997E+02  0.45594000000E+02  0.51100000000E-03 0. -1.
    9900012    2    1    2    0    0  0.47362657703E+01  0.40011940513E+02  0.54568477874E+01  0.50528870830E+02  0.30000033375E+02 0.  0.
         12    1    1    2    0    0 -0.47362657703E+01 -0.40011940513E+02 -0.54568477874E+01  0.40659129170E+02  0.00000000000E+00 0. -1.
         11    1    3    3    0    0  0.78624586051E+01  0.13884554146E+02 -0.55607940899E+01  0.16897382351E+02  0.51100000000E-03 0. -1.
        -11    1    3    3    0    0  0.35037238521E+01  0.19038633868E+02  0.13515028922E+02  0.23609355506E+02  0.51100000000E-03 0.  1.
         12    1    3    3    0    0 -0.66299166869E+01  0.70887524997E+01 -0.24973870445E+01  0.10022132973E+02  0.00000000000E+00 0. -1.
</event>
<event>
 7    1  0.6046695E-013  0.5052886E+02  0.7816164E-02  0.1300439E+00
        -11   -1    0    0    0    0  0.00000000000E+00  0.00000000000E+00  0.45593999997E+02  0.45594000000E+02  0.51100000000E-03 0.  1.
         11   -1    0    0    0    0 -0.00000000000E+00 -0.00000000000E+00 -0.45593999997E+02  0.45594000000E+02  0.51100000000E-03 0. -1.
    9900012    2    1    2    0    0 -0.70461823200E+00 -0.39328335206E+01  0.40462356311E+02  0.50528856569E+02  0.29999990026E+02 0.  0.
         12    1    1    2    0    0  0.70461823200E+00  0.39328335206E+01 -0.40462356311E+02  0.40659143431E+02  0.00000000000E+00 0. -1.
         11    1    3    3    0    0 -0.29834793227E+01 -0.90690946123E+01  0.90566381264E+01  0.13159495445E+02  0.51100000000E-03 0. -1.
        -11    1    3    3    0    0 -0.48400177356E+01  0.50605680784E+01  0.29032333831E+02  0.29864887893E+02  0.51100000000E-03 0.  1.
        -12    1    3    3    0    0  0.71188788263E+01  0.75693013345E-01  0.23733843534E+01  0.75044732303E+01  0.00000000000E+00 0.  1.
</event>
<event>
 7    1  0.6046695E-013  0.5052885E+02  0.7816164E-02  0.1300439E+00
        -11   -1    0    0    0    0  0.00000000000E+00  0.00000000000E+00  0.45593999997E+02  0.45594000000E+02  0.51100000000E-03 0.  1.
         11   -1    0    0    0    0 -0.00000000000E+00 -0.00000000000E+00 -0.45593999997E+02  0.45594000000E+02  0.51100000000E-03 0. -1.
    9900012    2    1    2    0    0 -0.24578266017E+02  0.54740616540E+01  0.31923495658E+02  0.50528854825E+02  0.29999984725E+02 0.  0.
         12    1    1    2    0    0  0.24578266017E+02 -0.54740616540E+01 -0.31923495658E+02  0.40659145175E+02  0.00000000000E+00 0. -1.
         11    1    3    3    0    0 -0.11285485692E+02 -0.15381091544E+01  0.28165282220E+02  0.30381097575E+02  0.51100000000E-03 0. -1.
        -11    1    3    3    0    0 -0.15054947591E+02  0.79604675305E+01  0.50535535740E+01  0.17763977433E+02  0.51100000000E-03 0.  1.
        -12    1    3    3    0    0  0.17621672659E+01 -0.94829672208E+00 -0.12953401360E+01  0.23837798166E+01  0.00000000000E+00 0.  1.
</event>
<event>
 7    1  0.6046695E-013  0.5052882E+02  0.7816164E-02  0.1300439E+00
        -11   -1    0    0    0    0  0.00000000000E+00  0.00000000000E+00  0.45593999997E+02  0.45594000000E+02  0.51100000000E-03 0.  1.
         11   -1    0    0    0    0 -0.00000000000E+00 -0.00000000000E+00 -0.45593999997E+02  0.45594000000E+02  0.51100000000E-03 0. -1.
    9900012    2    1    2    0    0  0.21239407125E+02  0.59631900878E+01  0.34154011320E+02  0.50528824649E+02  0.29999893002E+02 0.  0.
         12    1    1    2    0    0 -0.21239407125E+02 -0.59631900878E+01 -0.34154011320E+02  0.40659175351E+02  0.00000000000E+00 0. -1.
         11    1    3    3    0    0 -0.12094395609E+00  0.82767503764E+01  0.19763092354E+02  0.21426596647E+02  0.51100000000E-03 0. -1.
        -11    1    3    3    0    0  0.17257822715E+02  0.39157138679E+01  0.11488307985E+02  0.21098494746E+02  0.51100000000E-03 0.  1.
         12    1    3    3    0    0  0.41025283657E+01 -0.62292741565E+01  0.29026109812E+01  0.80037332550E+01  0.00000000000E+00 0. -1.
</event>
<event>
 7    1  0.6046695E-013  0.5052886E+02  0.7816164E-02  0.1300439E+00
        -11   -1    0    0    0    0  0.00000000000E+00  0.00000000000E+00  0.45593999997E+02  0.45594000000E+02  0.51100000000E-03 0.  1.
         11   -1    0    0    0    0 -0.00000000000E+00 -0.00000000000E+00 -0.45593999997E+02  0.45594000000E+02  0.51100000000E-03 0. -1.
    9900012    2    1    2    0    0 -0.29828584865E+00  0.81892636034E+01  0.39824772010E+02  0.50528862301E+02  0.30000007449E+02 0.  0.
         12    1    1    2    0    0  0.29828584865E+00 -0.81892636034E+01 -0.39824772010E+02  0.40659137699E+02  0.00000000000E+00 0. -1.
         11    1    3    3    0    0  0.86292871021E+01 -0.12525110432E+01  0.23493372564E+01  0.90306569866E+01  0.51100000000E-03 0. -1.
        -11    1    3    3    0    0 -0.96334201671E+01  0.24017270474E+01  0.15456933044E+02  0.18370842558E+02  0.51100000000E-03 0.  1.
         12    1    3    3    0    0  0.70584721633E+00  0.70400475992E+01  0.22018501710E+02  0.23127362756E+02  0.00000000000E+00 0. -1.
</event>
<event>
 7    1  0.6046695E-013  0.5052886E+02  0.7816164E-02  0.1300439E+00
        -11   -1    0    0    0    0  0.00000000000E+00  0.00000000000E+00  0.45593999997E+02  0.45594000000E+02  0.51100000000E-03 0. -1.
         11   -1    0    0    0    0 -0.00000000000E+00 -0.00000000000E+00 -0.45593999997E+02  0.45594000000E+02  0.51100000000E-03 0.  1.
    9900012    2    1    2    0    0 -0.20652771033E+02  0.32121375891E+02 -0.13958721708E+02  0.50528860164E+02  0.30000000956E+02 0.  0.
         12    1    1    2    0    0  0.20652771033E+02 -0.32121375891E+02  0.13958721708E+02  0.40659139836E+02  0.00000000000E+00 0. -1.
         11    1    3    3    0    0  0.30029039880E+01 -0.92810740517E+00 -0.25084430752E+01  0.40213309538E+01  0.51100000000E-03 0. -1.
        -11    1    3    3    0    0 -0.26871611548E+02  0.27697427318E+02 -0.11485549078E+02  0.40263492460E+02  0.51100000000E-03 0.  1.
        -12    1    3    3    0    0  0.32159365271E+01  0.53520559780E+01  0.35270445207E-01  0.62440367505E+01  0.00000000000E+00 0.  1.
</event>
<event>
 7    1  0.6046695E-013  0.5052886E+02  0.7816164E-02  0.1300439E+00
        -11   -1    0    0    0    0  0.00000000000E+00  0.00000000000E+00  0.45593999997E+02  0.45594000000E+02  0.51100000000E-03 0. -1.
         11   -1    0    0    0    0 -0.00000000000E+00 -0.00000000000E+00 -0.45593999997E+02  0.45594000000E+02  0.51100000000E-03 0.  1.
    9900012    2    1    2    0    0  0.40151716811E+02  0.37934198453E+01 -0.51590002531E+01  0.50528859814E+02  0.29999999892E+02 0.  0.
         12    1    1    2    0    0 -0.40151716811E+02 -0.37934198453E+01  0.51590002531E+01  0.40659140186E+02  0.00000000000E+00 0. -1.
         11    1    3    3    0    0  0.83359795299E-02 -0.58281174167E+01  0.48420644149E+01  0.75771109382E+01  0.51100000000E-03 0. -1.
        -11    1    3    3    0    0  0.23372177127E+02  0.25260856324E+01 -0.67015253137E+01  0.24444840234E+02  0.51100000000E-03 0.  1.
         12    1    3    3    0    0  0.16771203705E+02  0.70954516295E+01 -0.32995393543E+01  0.18506908642E+02  0.00000000000E+00 0. -1.
</event>
<event>
 7    1  0.6046695E-013  0.5052886E+02  0.7816164E-02  0.1300439E+00
        -11   -1    0    0    0    0  0.00000000000E+00  0.00000000000E+00  0.45593999997E+02  0.45594000000E+02  0.51100000000E-03 0.  1.
         11   -1    0    0    0    0 -0.00000000000E+00 -0.00000000000E+00 -0.45593999997E+02  0.45594000000E+02  0.51100000000E-03 0. -1.
    9900012    2    1    2    0    0  0.31612337326E+01 -0.31900298068E+02  0.25010870447E+02  0.50528855197E+02  0.29999985858E+02 0.  0.
         12    1    1    2    0    0 -0.31612337326E+01  0.31900298068E+02 -0.25010870447E+02  0.40659144803E+02  0.00000000000E+00 0. -1.
         11    1    3    3    0    0  0.10453808996E+02 -0.28775611402E+00  0.31791303150E+01  0.10930315454E+02  0.51100000000E-03 0. -1.
        -11    1    3    3    0    0 -0.66393641092E+01 -0.27874045874E+02  0.16534835177E+02  0.33082387516E+02  0.51100000000E-03 0.  1.
         12    1    3    3    0    0 -0.65321115375E+00 -0.37384960805E+01  0.52969049549E+01  0.65161522279E+01  0.00000000000E+00 0. -1.
</event>
<event>
 7    1  0.6046695E-013  0.5052885E+02  0.7816164E-02  0.1300439E+00
        -11   -1    0    0    0    0  0.00000000000E+00  0.00000000000E+00  0.45593999997E+02  0.45594000000E+02  0.51100000000E-03 0. -1.
         11   -1    0    0    0    0 -0.00000000000E+00 -0.00000000000E+00 -0.45593999997E+02  0.45594000000E+02  0.51100000000E-03 0.  1.
    9900012    2    1    2    0    0 -0.63677665577E+01 -0.34096179419E+02 -0.21214814358E+02  0.50528852811E+02  0.29999978604E+02 0.  0.
         12    1    1    2    0    0  0.63677665577E+01  0.34096179419E+02  0.21214814358E+02  0.40659147189E+02  0.00000000000E+00 0. -1.
         11    1    3    3    0    0 -0.13362596035E+01 -0.10339659195E+01 -0.12545851180E+02  0.12659109658E+02  0.51100000000E-03 0. -1.
        -11    1    3    3    0    0 -0.75326119443E+01 -0.20313357932E+02  0.97925238421E+00  0.21687131868E+02  0.51100000000E-03 0.  1.
         12    1    3    3    0    0  0.25011049901E+01 -0.12748855567E+02 -0.96482155623E+01  0.16182611285E+02  0.00000000000E+00 0. -1.
</event>
<event>
 7    1  0.6046695E-013  0.5052885E+02  0.7816164E-02  0.1300439E+00
        -11   -1    0    0    0    0  0.00000000000E+00  0.00000000000E+00  0.45593999997E+02  0.45594000000E+02  0.51100000000E-03 0.  1.
         11   -1    0    0    0    0 -0.00000000000E+00 -0.00000000000E+00 -0.45593999997E+02  0.45594000000E+02  0.51100000000E-03 0. -1.
    9900012    2    1    2    0    0 -0.19970723191E+02 -0.10106688708E+02  0.33943946459E+02  0.50528850444E+02  0.29999971410E+02 0.  0.
         12    1    1    2    0    0  0.19970723191E+02  0.10106688708E+02 -0.33943946459E+02  0.40659149556E+02  0.00000000000E+00 0. -1.
         11    1    3    3    0    0 -0.10876542252E+01  0.45983508587E+01  0.73792957943E+01  0.87625241234E+01  0.51100000000E-03 0. -1.
        -11    1    3    3    0    0 -0.53995216574E+01 -0.17428301771E+02  0.17576044983E+02  0.25334125094E+02  0.51100000000E-03 0.  1.
        -12    1    3    3    0    0 -0.13483547308E+02  0.27232622052E+01  0.89886056818E+01  0.16432201227E+02  0.00000000000E+00 0.  1.
</event>
<event>
 7    1  0.6046695E-013  0.5052886E+02  0.7816164E-02  0.1300439E+00
        -11   -1    0    0    0    0  0.00000000000E+00  0.00000000000E+00  0.45593999997E+02  0.45594000000E+02  0.51100000000E-03 0.  1.
         11   -1    0    0    0    0 -0.00000000000E+00 -0.00000000000E+00 -0.45593999997E+02  0.45594000000E+02  0.51100000000E-03 0. -1.
    9900012    2    1    2    0    0  0.34114799560E+02  0.22092065882E+02  0.11344447300E+01  0.50528857254E+02  0.29999992110E+02 0.  0.
         12    1    1    2    0    0 -0.34114799560E+02 -0.22092065882E+02 -0.11344447300E+01  0.40659142746E+02  0.00000000000E+00 0. -1.
         11    1    3    3    0    0 -0.14522347890E+00  0.33788867099E+01  0.67967380232E+01  0.75916805303E+01  0.51100000000E-03 0. -1.
        -11    1    3    3    0    0  0.17954636278E+02  0.11873955833E+01 -0.60871846117E+01  0.18995596567E+02  0.51100000000E-03 0.  1.
        -12    1    3    3    0    0  0.16305386761E+02  0.17525783588E+02  0.42489131851E+00  0.23941580158E+02  0.00000000000E+00 0.  1.
</event>
<event>
 7    1  0.6046695E-013  0.5052886E+02  0.7816164E-02  0.1300439E+00
        -11   -1    0    0    0    0  0.00000000000E+00  0.00000000000E+00  0.45593999997E+02  0.45594000000E+02  0.51100000000E-03 0.  1.
         11   -1    0    0    0    0 -0.00000000000E+00 -0.00000000000E+00 -0.45593999997E+02  0.45594000000E+02  0.51100000000E-03 0. -1.
    9900012    2    1    2    0    0  0.36158129880E+01  0.11975130252E+02  0.38687048287E+02  0.50528861381E+02  0.30000004653E+02 0.  0.
         12    1    1    2    0    0 -0.36158129880E+01 -0.11975130252E+02 -0.38687048287E+02  0.40659138619E+02  0.00000000000E+00 0. -1.
         11    1    3    3    0    0 -0.35569639945E+01 -0.64958630114E+00 -0.99443998348E+00  0.37500488480E+01  0.51100000000E-03 0. -1.
        -11    1    3    3    0    0  0.12935036952E+02  0.12543250623E+02  0.34955231172E+02  0.39325774038E+02  0.51100000000E-03 0.  1.
        -12    1    3    3    0    0 -0.57622599692E+01  0.81465930263E-01  0.47262570983E+01  0.74530384951E+01  0.00000000000E+00 0.  1.
</event>
<event>
 7    1  0.6046695E-013  0.5052886E+02  0.7816164E-02  0.1300439E+00
        -11   -1    0    0    0    0  0.00000000000E+00  0.00000000000E+00  0.45593999997E+02  0.45594000000E+02  0.51100000000E-03 0. -1.
         11   -1    0    0    0    0 -0.00000000000E+00 -0.00000000000E+00 -0.45593999997E+02  0.45594000000E+02  0.51100000000E-03 0.  1.
    9900012    2    1    2    0    0  0.87205448365E+01  0.24782470079E+02 -0.31031384268E+02  0.50528861605E+02  0.30000005334E+02 0.  0.
         12    1    1    2    0    0 -0.87205448365E+01 -0.24782470079E+02  0.31031384268E+02  0.40659138395E+02  0.00000000000E+00 0. -1.
         11    1    3    3    0    0  0.39323509322E+01  0.12658182637E+02 -0.33419987236E+02  0.35952587092E+02  0.51100000000E-03 0. -1.
        -11    1    3    3    0    0 -0.63558731392E+00  0.65904939142E+01  0.13661220890E+01  0.67605377811E+01  0.51100000000E-03 0.  1.
         12    1    3    3    0    0  0.54237812182E+01  0.55337935278E+01  0.10224808785E+01  0.78157367317E+01  0.00000000000E+00 0. -1.
</event>
<event>
 7    1  0.6046695E-013  0.5052888E+02  0.7816164E-02  0.1300439E+00
        -11   -1    0    0    0    0  0.00000000000E+00  0.00000000000E+00  0.45593999997E+02  0.45594000000E+02  0.51100000000E-03 0. -1.
         11   -1    0    0    0    0 -0.00000000000E+00 -0.00000000000E+00 -0.45593999997E+02  0.45594000000E+02  0.51100000000E-03 0.  1.
    9900012    2    1    2    0    0 -0.24397736135E+02  0.18672760779E+02 -0.26631610584E+02  0.50528877949E+02  0.30000055015E+02 0.  0.
         12    1    1    2    0    0  0.24397736135E+02 -0.18672760779E+02  0.26631610584E+02  0.40659122051E+02  0.00000000000E+00 0. -1.
         11    1    3    3    0    0 -0.21026156260E+02  0.80559947142E+01 -0.19928132006E+02  0.30068733651E+02  0.51100000000E-03 0.  1.
        -11    1    3    3    0    0  0.38224388667E+01 -0.22794001600E+01 -0.63802439768E+00  0.44959736846E+01  0.51100000000E-03 0. -1.
        -12    1    3    3    0    0 -0.71940187425E+01  0.12896166225E+02 -0.60654541807E+01  0.15964170614E+02  0.00000000000E+00 0.  1.
</event>
<event>
 7    1  0.6046695E-013  0.5052886E+02  0.7816164E-02  0.1300439E+00
        -11   -1    0    0    0    0  0.00000000000E+00  0.00000000000E+00  0.45593999997E+02  0.45594000000E+02  0.51100000000E-03 0.  1.
         11   -1    0    0    0    0 -0.00000000000E+00 -0.00000000000E+00 -0.45593999997E+02  0.45594000000E+02  0.51100000000E-03 0. -1.
    9900012    2    1    2    0    0 -0.26105911106E+02 -0.15525149371E+02  0.27029920152E+02  0.50528862760E+02  0.30000008845E+02 0.  0.
         12    1    1    2    0    0  0.26105911106E+02  0.15525149371E+02 -0.27029920152E+02  0.40659137240E+02  0.00000000000E+00 0. -1.
         11    1    3    3    0    0  0.67941385703E+00  0.24762167440E+01 -0.43616539968E+01  0.50613514402E+01  0.51100000000E-03 0. -1.
        -11    1    3    3    0    0 -0.15018892045E+02 -0.10015915696E+02  0.21850196693E+02  0.28342843564E+02  0.51100000000E-03 0.  1.
         12    1    3    3    0    0 -0.11766432918E+02 -0.79854504190E+01  0.95413774559E+01  0.17124667756E+02  0.00000000000E+00 0. -1.
</event>
<event>
 7    1  0.6046695E-013  0.5052886E+02  0.7816164E-02  0.1300439E+00
        -11   -1    0    0    0    0  0.00000000000E+00  0.00000000000E+00  0.45593999997E+02  0.45594000000E+02  0.51100000000E-03 0.  1.
         11   -1    0    0    0    0 -0.00000000000E+00 -0.00000000000E+00 -0.45593999997E+02  0.45594000000E+02  0.51100000000E-03 0. -1.
    9900012    2    1    2    0    0 -0.19688429778E+02  0.35556869401E+02  0.11138070305E+01  0.50528858410E+02  0.29999995622E+02 0.  0.
         12    1    1    2    0    0  0.19688429778E+02 -0.35556869401E+02 -0.11138070305E+01  0.40659141590E+02  0.00000000000E+00 0. -1.
         11    1    3    3    0    0  0.65727443490E+01  0.50918190480E+01 -0.24163322015E+01  0.86583053228E+01  0.51100000000E-03 0. -1.
        -11    1    3    3    0    0 -0.15443908691E+02  0.12003091422E+02  0.56729655518E+01  0.20365928846E+02  0.51100000000E-03 0.  1.
        -12    1    3    3    0    0 -0.10817265436E+02  0.18461958931E+02 -0.21428263198E+01  0.21504624241E+02  0.00000000000E+00 0.  1.
</event>
<event>
 7    1  0.6046695E-013  0.5052886E+02  0.7816164E-02  0.1300439E+00
        -11   -1    0    0    0    0  0.00000000000E+00  0.00000000000E+00  0.45593999997E+02  0.45594000000E+02  0.51100000000E-03 0.  1.
         11   -1    0    0    0    0 -0.00000000000E+00 -0.00000000000E+00 -0.45593999997E+02  0.45594000000E+02  0.51100000000E-03 0. -1.
    9900012    2    1    2    0    0 -0.11868870890E+02  0.58692551661E+01  0.38442786166E+02  0.50528855142E+02  0.29999985689E+02 0.  0.
         12    1    1    2    0    0  0.11868870890E+02 -0.58692551661E+01 -0.38442786166E+02  0.40659144858E+02  0.00000000000E+00 0. -1.
         11    1    3    3    0    0  0.80705393867E+01  0.47305944807E+01  0.17989510934E+02  0.20276455164E+02  0.51100000000E-03 0.  1.
        -11    1    3    3    0    0 -0.56032190269E+01  0.45509996979E+00  0.12815280473E+02  0.13994091371E+02  0.51100000000E-03 0. -1.
         12    1    3    3    0    0 -0.14336191249E+02  0.68356071567E+00  0.76379947595E+01  0.16258308606E+02  0.00000000000E+00 0. -1.
</event>
<event>
 7    1  0.6046695E-013  0.5052886E+02  0.7816164E-02  0.1300439E+00
        -11   -1    0    0    0    0  0.00000000000E+00  0.00000000000E+00  0.45593999997E+02  0.45594000000E+02  0.51100000000E-03 0.  1.
         11   -1    0    0    0    0 -0.00000000000E+00 -0.00000000000E+00 -0.45593999997E+02  0.45594000000E+02  0.51100000000E-03 0. -1.
    9900012    2    1    2    0    0  0.27561795544E+02 -0.25215731930E+02  0.16052421164E+02  0.50528856679E+02  0.29999990360E+02 0.  0.
         12    1    1    2    0    0 -0.27561795544E+02  0.25215731930E+02 -0.16052421164E+02  0.40659143321E+02  0.00000000000E+00 0. -1.
         11    1    3    3    0    0  0.15852294675E+02 -0.31646542181E+01  0.15577524266E+02  0.22449266030E+02  0.51100000000E-03 0. -1.
        -11    1    3    3    0    0  0.63073476873E+01 -0.13491931823E+02  0.65552652985E+01  0.16272257452E+02  0.51100000000E-03 0.  1.
         12    1    3    3    0    0  0.54021531815E+01 -0.85591458890E+01 -0.60803683998E+01  0.11807333197E+02  0.00000000000E+00 0. -1.
</event>
<event>
 7    1  0.6046695E-013  0.5052886E+02  0.7816164E-02  0.1300439E+00
        -11   -1    0    0    0    0  0.00000000000E+00  0.00000000000E+00  0.45593999997E+02  0.45594000000E+02  0.51100000000E-03 0.  1.
         11   -1    0    0    0    0 -0.00000000000E+00 -0.00000000000E+00 -0.45593999997E+02  0.45594000000E+02  0.51100000000E-03 0. -1.
    9900012    2    1    2    0    0 -0.10402400800E+02  0.35819514937E+02  0.16183887017E+02  0.50528858448E+02  0.29999995739E+02 0.  0.
         12    1    1    2    0    0  0.10402400800E+02 -0.35819514937E+02 -0.16183887017E+02  0.40659141552E+02  0.00000000000E+00 0. -1.
         11    1    3    3    0    0 -0.57429283994E+01  0.15098412395E+02 -0.60129650780E+01  0.17236560931E+02  0.51100000000E-03 0. -1.
        -11    1    3    3    0    0  0.34426269159E+01  0.85590894304E+01  0.42757082128E+01  0.10168154844E+02  0.51100000000E-03 0.  1.
         12    1    3    3    0    0 -0.81020993170E+01  0.12162013112E+02  0.17921143883E+02  0.23124142673E+02  0.00000000000E+00 0. -1.
</event>
<event>
 7    1  0.6046695E-013  0.5052886E+02  0.7816164E-02  0.1300439E+00
        -11   -1    0    0    0    0  0.00000000000E+00  0.00000000000E+00  0.45593999997E+02  0.45594000000E+02  0.51100000000E-03 0.  1.
         11   -1    0    0    0    0 -0.00000000000E+00 -0.00000000000E+00 -0.45593999997E+02  0.45594000000E+02  0.51100000000E-03 0. -1.
    9900012    2    1    2    0    0 -0.33995029753E+02 -0.21419610191E+02  0.62212722241E+01  0.50528856173E+02  0.29999988823E+02 0.  0.
         12    1    1    2    0    0  0.33995029753E+02  0.21419610191E+02 -0.62212722241E+01  0.40659143827E+02  0.00000000000E+00 0. -1.
         11    1    3    3    0    0  0.19259362836E+01 -0.10678691844E+02  0.33790278331E+01  0.11364924964E+02  0.51100000000E-03 0. -1.
        -11    1    3    3    0    0 -0.11981367714E+02 -0.89668651444E+01 -0.20089275537E+00  0.14966569446E+02  0.51100000000E-03 0.  1.
         12    1    3    3    0    0 -0.23939598323E+02 -0.17740532029E+01  0.30431371463E+01  0.24197361764E+02  0.00000000000E+00 0. -1.
</event>
<event>
 7    1  0.6046695E-013  0.5052886E+02  0.7816164E-02  0.1300439E+00
        -11   -1    0    0    0    0  0.00000000000E+00  0.00000000000E+00  0.45593999997E+02  0.45594000000E+02  0.51100000000E-03 0.  1.
         11   -1    0    0    0    0 -0.00000000000E+00 -0.00000000000E+00 -0.45593999997E+02  0.45594000000E+02  0.51100000000E-03 0. -1.
    9900012    2    1    2    0    0 -0.21495905810E+02  0.17894601939E+02  0.29510593237E+02  0.50528857629E+02  0.29999993249E+02 0.  0.
         12    1    1    2    0    0  0.21495905810E+02 -0.17894601939E+02 -0.29510593237E+02  0.40659142371E+02  0.00000000000E+00 0. -1.
         11    1    3    3    0    0  0.13063737738E+01  0.73372500078E+00 -0.34399655998E+01  0.37521098602E+01  0.51100000000E-03 0. -1.
        -11    1    3    3    0    0 -0.16886232462E+02  0.17942393437E+02  0.32511687827E+02  0.40793187846E+02  0.51100000000E-03 0.  1.
        -12    1    3    3    0    0 -0.59160471219E+01 -0.78151649926E+00  0.43887100959E+00  0.59835599228E+01  0.00000000000E+00 0.  1.
</event>
<event>
 7    1  0.6046695E-013  0.5052886E+02  0.7816164E-02  0.1300439E+00
        -11   -1    0    0    0    0  0.00000000000E+00  0.00000000000E+00  0.45593999997E+02  0.45594000000E+02  0.51100000000E-03 0.  1.
         11   -1    0    0    0    0 -0.00000000000E+00 -0.00000000000E+00 -0.45593999997E+02  0.45594000000E+02  0.51100000000E-03 0. -1.
    9900012    2    1    2    0    0  0.98840175441E+00 -0.28064524536E+02  0.29403590542E+02  0.50528860656E+02  0.30000002449E+02 0.  0.
         12    1    1    2    0    0 -0.98840175441E+00  0.28064524536E+02 -0.29403590542E+02  0.40659139344E+02  0.00000000000E+00 0. -1.
         11    1    3    3    0    0  0.29344760711E+01 -0.46419820739E+01  0.84710585384E+00  0.55566839010E+01  0.51100000000E-03 0. -1.
        -11    1    3    3    0    0 -0.10601726091E+02 -0.93134208264E+00  0.86445758647E+01  0.13711042496E+02  0.51100000000E-03 0.  1.
        -12    1    3    3    0    0  0.86556517742E+01 -0.22491200380E+02  0.19911908823E+02  0.31261134259E+02  0.00000000000E+00 0.  1.
</event>
<event>
 7    1  0.6046695E-013  0.5052885E+02  0.7816164E-02  0.1300439E+00
        -11   -1    0    0    0    0  0.00000000000E+00  0.00000000000E+00  0.45593999997E+02  0.45594000000E+02  0.51100000000E-03 0. -1.
         11   -1    0    0    0    0 -0.00000000000E+00 -0.00000000000E+00 -0.45593999997E+02  0.45594000000E+02  0.51100000000E-03 0.  1.
    9900012    2    1    2    0    0 -0.21598381321E+02  0.12387755802E+02 -0.32143740607E+02  0.50528848143E+02  0.29999964416E+02 0.  0.
         12    1    1    2    0    0  0.21598381321E+02 -0.12387755802E+02  0.32143740607E+02  0.40659151857E+02  0.00000000000E+00 0. -1.
         11    1    3    3    0    0  0.20952696702E+01  0.47792140200E+01 -0.16080205346E+01  0.54604736004E+01  0.51100000000E-03 0. -1.
        -11    1    3    3    0    0 -0.11772802424E+02  0.30163894887E+01 -0.29902637841E+02  0.32277937241E+02  0.51100000000E-03 0.  1.
        -12    1    3    3    0    0 -0.11920848567E+02  0.45921522934E+01 -0.63308223179E+00  0.12790437302E+02  0.00000000000E+00 0.  1.
</event>
<event>
 7    1  0.6046695E-013  0.5052889E+02  0.7816164E-02  0.1300439E+00
        -11   -1    0    0    0    0  0.00000000000E+00  0.00000000000E+00  0.45593999997E+02  0.45594000000E+02  0.51100000000E-03 0.  1.
         11   -1    0    0    0    0 -0.00000000000E+00 -0.00000000000E+00 -0.45593999997E+02  0.45594000000E+02  0.51100000000E-03 0. -1.
    9900012    2    1    2    0    0  0.17741606817E+02  0.22841570620E+02  0.28577289068E+02  0.50528887721E+02  0.30000084718E+02 0.  0.
         12    1    1    2    0    0 -0.17741606817E+02 -0.22841570620E+02 -0.28577289068E+02  0.40659112279E+02  0.00000000000E+00 0. -1.
         11    1    3    3    0    0 -0.37266433421E+01  0.81702022074E+01  0.11225173294E+02  0.14375137928E+02  0.51100000000E-03 0. -1.
        -11    1    3    3    0    0  0.12857077242E+02  0.87569108450E+01  0.20037839205E+02  0.25367359401E+02  0.51100000000E-03 0.  1.
        -12    1    3    3    0    0  0.86111729169E+01  0.59144575679E+01 -0.26857234316E+01  0.10786390391E+02  0.00000000000E+00 0.  1.
</event>
<event>
 7    1  0.6046695E-013  0.5052885E+02  0.7816164E-02  0.1300439E+00
        -11   -1    0    0    0    0  0.00000000000E+00  0.00000000000E+00  0.45593999997E+02  0.45594000000E+02  0.51100000000E-03 0. -1.
         11   -1    0    0    0    0 -0.00000000000E+00 -0.00000000000E+00 -0.45593999997E+02  0.45594000000E+02  0.51100000000E-03 0.  1.
    9900012    2    1    2    0    0  0.84647884350E+01 -0.15823660200E+02 -0.36484589701E+02  0.50528854030E+02  0.29999982309E+02 0.  0.
         12    1    1    2    0    0 -0.84647884350E+01  0.15823660200E+02  0.36484589701E+02  0.40659145970E+02  0.00000000000E+00 0. -1.
         11    1    3    3    0    0  0.96564024660E+01  0.47275748108E+00 -0.90346656796E+01  0.13232338887E+02  0.51100000000E-03 0. -1.
        -11    1    3    3    0    0  0.70609331259E+00 -0.10453841131E+02 -0.14461549268E+01  0.10576990427E+02  0.51100000000E-03 0.  1.
         12    1    3    3    0    0 -0.18977073437E+01 -0.58425765498E+01 -0.26003769095E+02  0.26719524716E+02  0.00000000000E+00 0. -1.
</event>
<event>
 7    1  0.6046695E-013  0.5052886E+02  0.7816164E-02  0.1300439E+00
        -11   -1    0    0    0    0  0.00000000000E+00  0.00000000000E+00  0.45593999997E+02  0.45594000000E+02  0.51100000000E-03 0. -1.
         11   -1    0    0    0    0 -0.00000000000E+00 -0.00000000000E+00 -0.45593999997E+02  0.45594000000E+02  0.51100000000E-03 0.  1.
    9900012    2    1    2    0    0  0.96953273273E+01  0.32167104555E+02  0.22900742486E+02  0.50528855963E+02  0.29999988184E+02 0.  0.
         12    1    1    2    0    0 -0.96953273273E+01 -0.32167104555E+02 -0.22900742486E+02  0.40659144037E+02  0.00000000000E+00 0. -1.
         11    1    3    3    0    0 -0.86671071594E+01  0.93618522900E+01  0.30142785610E+01  0.13109115161E+02  0.51100000000E-03 0. -1.
        -11    1    3    3    0    0  0.14419601146E+02  0.85186016259E+01  0.88594308099E+01  0.18946793539E+02  0.51100000000E-03 0.  1.
         12    1    3    3    0    0  0.39428333411E+01  0.14286650639E+02  0.11027033115E+02  0.18472947262E+02  0.00000000000E+00 0. -1.
</event>
<event>
 7    1  0.6046695E-013  0.5052886E+02  0.7816164E-02  0.1300439E+00
        -11   -1    0    0    0    0  0.00000000000E+00  0.00000000000E+00  0.45593999997E+02  0.45594000000E+02  0.51100000000E-03 0. -1.
         11   -1    0    0    0    0 -0.00000000000E+00 -0.00000000000E+00 -0.45593999997E+02  0.45594000000E+02  0.51100000000E-03 0.  1.
    9900012    2    1    2    0    0  0.35125297251E+02  0.12602790514E+02 -0.16141530186E+02  0.50528857948E+02  0.29999994218E+02 0.  0.
         12    1    1    2    0    0 -0.35125297251E+02 -0.12602790514E+02  0.16141530186E+02  0.40659142052E+02  0.00000000000E+00 0. -1.
         11    1    3    3    0    0  0.86312995803E+01 -0.89403728621E+01 -0.33905598803E+01  0.12881207083E+02  0.51100000000E-03 0. -1.
        -11    1    3    3    0    0  0.72061248642E+01  0.10721737183E+02 -0.20548634984E+01  0.13080762517E+02  0.51100000000E-03 0.  1.
         12    1    3    3    0    0  0.19287872806E+02  0.10821426193E+02 -0.10696106807E+02  0.24566888347E+02  0.00000000000E+00 0. -1.
</event>
<event>
 7    1  0.6046695E-013  0.5052885E+02  0.7816164E-02  0.1300439E+00
        -11   -1    0    0    0    0  0.00000000000E+00  0.00000000000E+00  0.45593999997E+02  0.45594000000E+02  0.51100000000E-03 0. -1.
         11   -1    0    0    0    0 -0.00000000000E+00 -0.00000000000E+00 -0.45593999997E+02  0.45594000000E+02  0.51100000000E-03 0.  1.
    9900012    2    1    2    0    0 -0.14954390831E+02 -0.31680244855E+02 -0.20637218853E+02  0.50528849478E+02  0.29999968473E+02 0.  0.
         12    1    1    2    0    0  0.14954390831E+02  0.31680244855E+02  0.20637218853E+02  0.40659150522E+02  0.00000000000E+00 0. -1.
         11    1    3    3    0    0  0.26724877670E+00  0.24121559152E+01 -0.51717756198E+01  0.57128960599E+01  0.51100000000E-03 0. -1.
        -11    1    3    3    0    0 -0.18805045610E+02 -0.23711949204E+02 -0.73007466823E+01  0.31131771197E+02  0.51100000000E-03 0.  1.
         12    1    3    3    0    0  0.35834060028E+01 -0.10380451566E+02 -0.81646965505E+01  0.13684182221E+02  0.00000000000E+00 0. -1.
</event>
<event>
 7    1  0.6046695E-013  0.5052886E+02  0.7816164E-02  0.1300439E+00
        -11   -1    0    0    0    0  0.00000000000E+00  0.00000000000E+00  0.45593999997E+02  0.45594000000E+02  0.51100000000E-03 0.  1.
         11   -1    0    0    0    0 -0.00000000000E+00 -0.00000000000E+00 -0.45593999997E+02  0.45594000000E+02  0.51100000000E-03 0. -1.
    9900012    2    1    2    0    0  0.19890183842E+01 -0.10214492407E+02  0.39304881017E+02  0.50528859317E+02  0.29999998381E+02 0.  0.
         12    1    1    2    0    0 -0.19890183842E+01  0.10214492407E+02 -0.39304881017E+02  0.40659140683E+02  0.00000000000E+00 0. -1.
         11    1    3    3    0    0  0.10829038003E+02 -0.12337525105E+02  0.90872286477E+01  0.18763270358E+02  0.51100000000E-03 0. -1.
        -11    1    3    3    0    0 -0.75262930016E+01  0.31159802273E+01  0.24855607227E+02  0.26156368823E+02  0.51100000000E-03 0.  1.
         12    1    3    3    0    0 -0.13137266173E+01 -0.99294752910E+00  0.53620451424E+01  0.56092201356E+01  0.00000000000E+00 0. -1.
</event>
<event>
 7    1  0.6046695E-013  0.5052886E+02  0.7816164E-02  0.1300439E+00
        -11   -1    0    0    0    0  0.00000000000E+00  0.00000000000E+00  0.45593999997E+02  0.45594000000E+02  0.51100000000E-03 0.  1.
         11   -1    0    0    0    0 -0.00000000000E+00 -0.00000000000E+00 -0.45593999997E+02  0.45594000000E+02  0.51100000000E-03 0. -1.
    9900012    2    1    2    0    0  0.22067425728E+02 -0.19298850719E+02  0.28173541945E+02  0.50528863474E+02  0.30000011016E+02 0.  0.
         12    1    1    2    0    0 -0.22067425728E+02  0.19298850719E+02 -0.28173541945E+02  0.40659136526E+02  0.00000000000E+00 0. -1.
         11    1    3    3    0    0  0.14046497628E+00  0.12536406897E+01 -0.13393710606E+01  0.18399077389E+01  0.51100000000E-03 0. -1.
        -11    1    3    3    0    0  0.21820100703E+02 -0.24168535895E+02  0.19293300319E+02  0.37847937321E+02  0.51100000000E-03 0.  1.
        -12    1    3    3    0    0  0.10686004806E+00  0.36160444862E+01  0.10219612687E+02  0.10841018415E+02  0.00000000000E+00 0.  1.
</event>
<event>
 7    1  0.6046695E-013  0.5052886E+02  0.7816164E-02  0.1300439E+00
        -11   -1    0    0    0    0  0.00000000000E+00  0.00000000000E+00  0.45593999997E+02  0.45594000000E+02  0.51100000000E-03 0. -1.
         11   -1    0    0    0    0 -0.00000000000E+00 -0.00000000000E+00 -0.45593999997E+02  0.45594000000E+02  0.51100000000E-03 0.  1.
    9900012    2    1    2    0    0 -0.28774380360E+02 -0.26172115873E+02 -0.11841484368E+02  0.50528863679E+02  0.30000011638E+02 0.  0.
         12    1    1    2    0    0  0.28774380360E+02  0.26172115873E+02  0.11841484368E+02  0.40659136321E+02  0.00000000000E+00 0. -1.
         11    1    3    3    0    0 -0.22152789456E+02 -0.64568645466E+01 -0.32597929037E+01  0.23303721387E+02  0.51100000000E-03 0. -1.
        -11    1    3    3    0    0 -0.82719695732E+01 -0.20668258158E+02 -0.44886021766E+01  0.22710128262E+02  0.51100000000E-03 0.  1.
         12    1    3    3    0    0  0.16503786697E+01  0.95300683162E+00 -0.40930892875E+01  0.45150140299E+01  0.00000000000E+00 0. -1.
</event>
<event>
 7    1  0.6046695E-013  0.5052887E+02  0.7816164E-02  0.1300439E+00
        -11   -1    0    0    0    0  0.00000000000E+00  0.00000000000E+00  0.45593999997E+02  0.45594000000E+02  0.51100000000E-03 0.  1.
         11   -1    0    0    0    0 -0.00000000000E+00 -0.00000000000E+00 -0.45593999997E+02  0.45594000000E+02  0.51100000000E-03 0. -1.
    9900012    2    1    2    0    0  0.22018265286E+02  0.26000141374E+02  0.22189045544E+02  0.50528866957E+02  0.30000021603E+02 0.  0.
         12    1    1    2    0    0 -0.22018265286E+02 -0.26000141374E+02 -0.22189045544E+02  0.40659133043E+02  0.00000000000E+00 0. -1.
         11    1    3    3    0    0 -0.21639228745E+01  0.75703282653E+01  0.17815913158E+02  0.19478172249E+02  0.51100000000E-03 0. -1.
        -11    1    3    3    0    0  0.13617314873E+02  0.11806923811E+02  0.45176012423E+01  0.18580727528E+02  0.51100000000E-03 0.  1.
         12    1    3    3    0    0  0.10564873287E+02  0.66228892977E+01 -0.14446885667E+00  0.12469967180E+02  0.00000000000E+00 0. -1.
</event>
<event>
 7    1  0.6046695E-013  0.5052885E+02  0.7816164E-02  0.1300439E+00
        -11   -1    0    0    0    0  0.00000000000E+00  0.00000000000E+00  0.45593999997E+02  0.45594000000E+02  0.51100000000E-03 0.  1.
         11   -1    0    0    0    0 -0.00000000000E+00 -0.00000000000E+00 -0.45593999997E+02  0.45594000000E+02  0.51100000000E-03 0. -1.
    9900012    2    1    2    0    0  0.89925772787E+01  0.30992571821E+02  0.24733791895E+02  0.50528850775E+02  0.29999972416E+02 0.  0.
         12    1    1    2    0    0 -0.89925772787E+01 -0.30992571821E+02 -0.24733791895E+02  0.40659149225E+02  0.00000000000E+00 0. -1.
         11    1    3    3    0    0 -0.59982499780E+01  0.74994539243E+01  0.95128497687E+01  0.13517215799E+02  0.51100000000E-03 0. -1.
        -11    1    3    3    0    0  0.12449249178E+02  0.13914689089E+02  0.18780118239E+02  0.26481979134E+02  0.51100000000E-03 0.  1.
         12    1    3    3    0    0  0.25415780787E+01  0.95784288080E+01 -0.35591761129E+01  0.10529655843E+02  0.00000000000E+00 0. -1.
</event>
<event>
 7    1  0.6046695E-013  0.5052886E+02  0.7816164E-02  0.1300439E+00
        -11   -1    0    0    0    0  0.00000000000E+00  0.00000000000E+00  0.45593999997E+02  0.45594000000E+02  0.51100000000E-03 0.  1.
         11   -1    0    0    0    0 -0.00000000000E+00 -0.00000000000E+00 -0.45593999997E+02  0.45594000000E+02  0.51100000000E-03 0. -1.
    9900012    2    1    2    0    0 -0.38806592055E+02 -0.11095138759E+02  0.49103731702E+01  0.50528862581E+02  0.30000008301E+02 0.  0.
         12    1    1    2    0    0  0.38806592055E+02  0.11095138759E+02 -0.49103731702E+01  0.40659137419E+02  0.00000000000E+00 0. -1.
         11    1    3    3    0    0  0.39646669904E+01  0.23886419711E+01  0.29983153366E+01  0.55148970915E+01  0.51100000000E-03 0. -1.
        -11    1    3    3    0    0 -0.20694511471E+02 -0.50074913046E+01  0.37868943301E-01  0.21291763865E+02  0.51100000000E-03 0.  1.
         12    1    3    3    0    0 -0.22076747575E+02 -0.84762894251E+01  0.18741888903E+01  0.23722201624E+02  0.00000000000E+00 0. -1.
</event>
<event>
 7    1  0.6046695E-013  0.5052886E+02  0.7816164E-02  0.1300439E+00
        -11   -1    0    0    0    0  0.00000000000E+00  0.00000000000E+00  0.45593999997E+02  0.45594000000E+02  0.51100000000E-03 0.  1.
         11   -1    0    0    0    0 -0.00000000000E+00 -0.00000000000E+00 -0.45593999997E+02  0.45594000000E+02  0.51100000000E-03 0. -1.
    9900012    2    1    2    0    0  0.14363872290E+00  0.35900745330E+02  0.19086167521E+02  0.50528856649E+02  0.29999990272E+02 0.  0.
         12    1    1    2    0    0 -0.14363872290E+00 -0.35900745330E+02 -0.19086167521E+02  0.40659143351E+02  0.00000000000E+00 0. -1.
         11    1    3    3    0    0  0.83679026589E+01  0.27194354251E+02  0.12341044638E+02  0.31013804685E+02  0.51100000000E-03 0. -1.
        -11    1    3    3    0    0 -0.96303336576E+01  0.95310278480E+01  0.10485171975E+01  0.13589819968E+02  0.51100000000E-03 0.  1.
        -12    1    3    3    0    0  0.14060697216E+01 -0.82463676906E+00  0.56966056859E+01  0.59252319957E+01  0.00000000000E+00 0.  1.
</event>
<event>
 7    1  0.6046695E-013  0.5052882E+02  0.7816164E-02  0.1300439E+00
        -11   -1    0    0    0    0  0.00000000000E+00  0.00000000000E+00  0.45593999997E+02  0.45594000000E+02  0.51100000000E-03 0.  1.
         11   -1    0    0    0    0 -0.00000000000E+00 -0.00000000000E+00 -0.45593999997E+02  0.45594000000E+02  0.51100000000E-03 0. -1.
    9900012    2    1    2    0    0  0.22922838080E+02  0.25394574799E+02  0.21973339865E+02  0.50528823918E+02  0.29999890781E+02 0.  0.
         12    1    1    2    0    0 -0.22922838080E+02 -0.25394574799E+02 -0.21973339865E+02  0.40659176082E+02  0.00000000000E+00 0. -1.
         11    1    3    3    0    0 -0.36942360833E+01  0.16450791216E+02  0.86421006652E+01  0.18946287659E+02  0.51100000000E-03 0. -1.
        -11    1    3    3    0    0  0.97122373367E+01  0.41985785312E+01  0.78958564575E+01  0.13202278789E+02  0.51100000000E-03 0.  1.
         12    1    3    3    0    0  0.16904836826E+02  0.47452050514E+01  0.54353827425E+01  0.18380257470E+02  0.00000000000E+00 0. -1.
</event>
<event>
 7    1  0.6046695E-013  0.5052885E+02  0.7816164E-02  0.1300439E+00
        -11   -1    0    0    0    0  0.00000000000E+00  0.00000000000E+00  0.45593999997E+02  0.45594000000E+02  0.51100000000E-03 0.  1.
         11   -1    0    0    0    0 -0.00000000000E+00 -0.00000000000E+00 -0.45593999997E+02  0.45594000000E+02  0.51100000000E-03 0. -1.
    9900012    2    1    2    0    0 -0.36266629188E+02 -0.16806539355E+02  0.74457076516E+01  0.50528847031E+02  0.29999961035E+02 0.  0.
         12    1    1    2    0    0  0.36266629188E+02  0.16806539355E+02 -0.74457076516E+01  0.40659152969E+02  0.00000000000E+00 0. -1.
         11    1    3    3    0    0 -0.17564259327E+02  0.14188906660E+01 -0.28872109806E+01  0.17856439845E+02  0.51100000000E-03 0. -1.
        -11    1    3    3    0    0 -0.75787572706E+01 -0.10886553033E+02  0.13551230500E+02  0.18962870221E+02  0.51100000000E-03 0.  1.
        -12    1    3    3    0    0 -0.11123612590E+02 -0.73388769885E+01 -0.32183118679E+01  0.13709536965E+02  0.00000000000E+00 0.  1.
</event>
<event>
 7    1  0.6046695E-013  0.5052887E+02  0.7816164E-02  0.1300439E+00
        -11   -1    0    0    0    0  0.00000000000E+00  0.00000000000E+00  0.45593999997E+02  0.45594000000E+02  0.51100000000E-03 0.  1.
         11   -1    0    0    0    0 -0.00000000000E+00 -0.00000000000E+00 -0.45593999997E+02  0.45594000000E+02  0.51100000000E-03 0. -1.
    9900012    2    1    2    0    0 -0.17897841655E+02  0.28933755863E+02  0.22263636333E+02  0.50528874739E+02  0.30000045256E+02 0.  0.
         12    1    1    2    0    0  0.17897841655E+02 -0.28933755863E+02 -0.22263636333E+02  0.40659125261E+02  0.00000000000E+00 0. -1.
         11    1    3    3    0    0  0.37179950278E+01  0.38161610428E+01  0.11204769849E+02  0.12406991568E+02  0.51100000000E-03 0. -1.
        -11    1    3    3    0    0 -0.12846002513E+02  0.13299864321E+02 -0.18013513924E+01  0.18578240999E+02  0.51100000000E-03 0.  1.
         12    1    3    3    0    0 -0.87698341693E+01  0.11817730499E+02  0.12860217877E+02  0.19543642172E+02  0.00000000000E+00 0. -1.
</event>
<event>
 7    1  0.6046695E-013  0.5052885E+02  0.7816164E-02  0.1300439E+00
        -11   -1    0    0    0    0  0.00000000000E+00  0.00000000000E+00  0.45593999997E+02  0.45594000000E+02  0.51100000000E-03 0.  1.
         11   -1    0    0    0    0 -0.00000000000E+00 -0.00000000000E+00 -0.45593999997E+02  0.45594000000E+02  0.51100000000E-03 0. -1.
    9900012    2    1    2    0    0 -0.25961305111E+02  0.17824393599E+02  0.25719022333E+02  0.50528849984E+02  0.29999970012E+02 0.  0.
         12    1    1    2    0    0  0.25961305111E+02 -0.17824393599E+02 -0.25719022333E+02  0.40659150016E+02  0.00000000000E+00 0. -1.
         11    1    3    3    0    0  0.47025659244E+01 -0.35132511317E+00  0.77241421379E+01  0.90498578793E+01  0.51100000000E-03 0. -1.
        -11    1    3    3    0    0 -0.84989200407E+01  0.10675264748E+02  0.93141590102E+01  0.16521091902E+02  0.51100000000E-03 0.  1.
         12    1    3    3    0    0 -0.22164950995E+02  0.75004539637E+01  0.86807211848E+01  0.24957900203E+02  0.00000000000E+00 0. -1.
</event>
<event>
 7    1  0.6046695E-013  0.5052886E+02  0.7816164E-02  0.1300439E+00
        -11   -1    0    0    0    0  0.00000000000E+00  0.00000000000E+00  0.45593999997E+02  0.45594000000E+02  0.51100000000E-03 0. -1.
         11   -1    0    0    0    0 -0.00000000000E+00 -0.00000000000E+00 -0.45593999997E+02  0.45594000000E+02  0.51100000000E-03 0.  1.
    9900012    2    1    2    0    0  0.19305941008E+02  0.15018115177E+02  0.32479264860E+02  0.50528858500E+02  0.29999995895E+02 0.  0.
         12    1    1    2    0    0 -0.19305941008E+02 -0.15018115177E+02 -0.32479264860E+02  0.40659141500E+02  0.00000000000E+00 0. -1.
         11    1    3    3    0    0  0.84788853095E+01  0.30540729561E+01 -0.15592175150E+01  0.91460383355E+01  0.51100000000E-03 0. -1.
        -11    1    3    3    0    0  0.14494304337E+02  0.11082109836E+02  0.21045230660E+02  0.27853182052E+02  0.51100000000E-03 0.  1.
         12    1    3    3    0    0 -0.36672486382E+01  0.88193238512E+00  0.12993251715E+02  0.13529638112E+02  0.00000000000E+00 0. -1.
</event>
<event>
 7    1  0.6046695E-013  0.5052886E+02  0.7816164E-02  0.1300439E+00
        -11   -1    0    0    0    0  0.00000000000E+00  0.00000000000E+00  0.45593999997E+02  0.45594000000E+02  0.51100000000E-03 0.  1.
         11   -1    0    0    0    0 -0.00000000000E+00 -0.00000000000E+00 -0.45593999997E+02  0.45594000000E+02  0.51100000000E-03 0. -1.
    9900012    2    1    2    0    0 -0.32722183368E+02 -0.20573214213E+02 -0.12616140281E+02  0.50528862982E+02  0.30000009521E+02 0.  0.
         12    1    1    2    0    0  0.32722183368E+02  0.20573214213E+02  0.12616140281E+02  0.40659137018E+02  0.00000000000E+00 0. -1.
         11    1    3    3    0    0 -0.90258157223E+01 -0.35897615168E+00  0.90773731565E+00  0.90784470382E+01  0.51100000000E-03 0. -1.
        -11    1    3    3    0    0 -0.16916809075E+02 -0.20839225374E+02 -0.18856137189E+02  0.32802525108E+02  0.51100000000E-03 0.  1.
        -12    1    3    3    0    0 -0.67795585706E+01  0.62498731253E+00  0.53322595927E+01  0.86478908363E+01  0.00000000000E+00 0.  1.
</event>
<event>
 7    1  0.6046695E-013  0.5052887E+02  0.7816164E-02  0.1300439E+00
        -11   -1    0    0    0    0  0.00000000000E+00  0.00000000000E+00  0.45593999997E+02  0.45594000000E+02  0.51100000000E-03 0.  1.
         11   -1    0    0    0    0 -0.00000000000E+00 -0.00000000000E+00 -0.45593999997E+02  0.45594000000E+02  0.51100000000E-03 0. -1.
    9900012    2    1    2    0    0  0.88249760355E+00  0.40555887041E+02  0.27578654495E+01  0.50528873133E+02  0.30000040376E+02 0.  0.
         12    1    1    2    0    0 -0.88249760355E+00 -0.40555887041E+02 -0.27578654495E+01  0.40659126867E+02  0.00000000000E+00 0. -1.
         11    1    3    3    0    0  0.52533694546E+01  0.30822138323E+02  0.40598776112E+01  0.31529108898E+02  0.51100000000E-03 0. -1.
        -11    1    3    3    0    0  0.27337065905E+01 -0.27593149994E+01  0.18250542146E+01  0.42915957564E+01  0.51100000000E-03 0.  1.
         12    1    3    3    0    0 -0.71045784416E+01  0.12493063718E+02 -0.31270663763E+01  0.14708168479E+02  0.00000000000E+00 0. -1.
</event>
<event>
 7    1  0.6046695E-013  0.5052886E+02  0.7816164E-02  0.1300439E+00
        -11   -1    0    0    0    0  0.00000000000E+00  0.00000000000E+00  0.45593999997E+02  0.45594000000E+02  0.51100000000E-03 0. -1.
         11   -1    0    0    0    0 -0.00000000000E+00 -0.00000000000E+00 -0.45593999997E+02  0.45594000000E+02  0.51100000000E-03 0.  1.
    9900012    2    1    2    0    0  0.11133405020E+02 -0.32448501922E+02 -0.21824470008E+02  0.50528862338E+02  0.30000007562E+02 0.  0.
         12    1    1    2    0    0 -0.11133405020E+02  0.32448501922E+02  0.21824470008E+02  0.40659137662E+02  0.00000000000E+00 0. -1.
         11    1    3    3    0    0 -0.51617409046E+01  0.39067279630E+00  0.27907063552E+00  0.51840211304E+01  0.51100000000E-03 0. -1.
        -11    1    3    3    0    0  0.12875088842E+02 -0.27805616581E+02 -0.10767435166E+02  0.32478575807E+02  0.51100000000E-03 0.  1.
        -12    1    3    3    0    0  0.34200570834E+01 -0.50335581374E+01 -0.11336105477E+02  0.12866265401E+02  0.00000000000E+00 0.  1.
</event>
<event>
 7    1  0.6046695E-013  0.5052886E+02  0.7816164E-02  0.1300439E+00
        -11   -1    0    0    0    0  0.00000000000E+00  0.00000000000E+00  0.45593999997E+02  0.45594000000E+02  0.51100000000E-03 0.  1.
         11   -1    0    0    0    0 -0.00000000000E+00 -0.00000000000E+00 -0.45593999997E+02  0.45594000000E+02  0.51100000000E-03 0. -1.
    9900012    2    1    2    0    0 -0.19975057765E+01 -0.22633078639E+02  0.33718229398E+02  0.50528864843E+02  0.30000015176E+02 0.  0.
         12    1    1    2    0    0  0.19975057765E+01  0.22633078639E+02 -0.33718229398E+02  0.40659135157E+02  0.00000000000E+00 0. -1.
         11    1    3    3    0    0  0.93385156474E+01 -0.16664337294E+02  0.25191731585E+02  0.31615365765E+02  0.51100000000E-03 0. -1.
        -11    1    3    3    0    0 -0.54443779352E+01 -0.79712068989E+01  0.19280397198E+01  0.98437151497E+01  0.51100000000E-03 0.  1.
         12    1    3    3    0    0 -0.58916434888E+01  0.20024655543E+01  0.65984580930E+01  0.90697839279E+01  0.00000000000E+00 0. -1.
</event>
<event>
 7    1  0.6046695E-013  0.5052886E+02  0.7816164E-02  0.1300439E+00
        -11   -1    0    0    0    0  0.00000000000E+00  0.00000000000E+00  0.45593999997E+02  0.45594000000E+02  0.51100000000E-03 0. -1.
         11   -1    0    0    0    0 -0.00000000000E+00 -0.00000000000E+00 -0.45593999997E+02  0.45594000000E+02  0.51100000000E-03 0.  1.
    9900012    2    1    2    0    0  0.34370577319E+01 -0.23659875294E+02 -0.32887121873E+02  0.50528857733E+02  0.29999993566E+02 0.  0.
         12    1    1    2    0    0 -0.34370577319E+01  0.23659875294E+02  0.32887121873E+02  0.40659142267E+02  0.00000000000E+00 0. -1.
         11    1    3    3    0    0 -0.42964772891E+01 -0.25630089418E+01  0.35666206618E+01  0.61440634061E+01  0.51100000000E-03 0. -1.
        -11    1    3    3    0    0  0.12844002415E+01 -0.17918306182E+02 -0.28230791542E+02  0.33461813635E+02  0.51100000000E-03 0.  1.
        -12    1    3    3    0    0  0.64491347795E+01 -0.31785601698E+01 -0.82229509932E+01  0.10922980692E+02  0.00000000000E+00 0.  1.
</event>
<event>
 7    1  0.6046695E-013  0.5052886E+02  0.7816164E-02  0.1300439E+00
        -11   -1    0    0    0    0  0.00000000000E+00  0.00000000000E+00  0.45593999997E+02  0.45594000000E+02  0.51100000000E-03 0. -1.
         11   -1    0    0    0    0 -0.00000000000E+00 -0.00000000000E+00 -0.45593999997E+02  0.45594000000E+02  0.51100000000E-03 0.  1.
    9900012    2    1    2    0    0  0.63516370225E+01  0.39106557897E+02 -0.91378268153E+01  0.50528855367E+02  0.29999986372E+02 0.  0.
         12    1    1    2    0    0 -0.63516370225E+01 -0.39106557897E+02  0.91378268153E+01  0.40659144633E+02  0.00000000000E+00 0. -1.
         11    1    3    3    0    0  0.10552430577E+02  0.17434336088E+02  0.30856199801E+01  0.20611426851E+02  0.51100000000E-03 0. -1.
        -11    1    3    3    0    0  0.10292835068E+01  0.84490931921E+01 -0.13153467851E+02  0.15667173231E+02  0.51100000000E-03 0.  1.
         12    1    3    3    0    0 -0.52300770617E+01  0.13223128617E+02  0.93002105518E+00  0.14250255284E+02  0.00000000000E+00 0. -1.
</event>
<event>
 7    1  0.6046695E-013  0.5052886E+02  0.7816164E-02  0.1300439E+00
        -11   -1    0    0    0    0  0.00000000000E+00  0.00000000000E+00  0.45593999997E+02  0.45594000000E+02  0.51100000000E-03 0.  1.
         11   -1    0    0    0    0 -0.00000000000E+00 -0.00000000000E+00 -0.45593999997E+02  0.45594000000E+02  0.51100000000E-03 0. -1.
    9900012    2    1    2    0    0 -0.24345504611E+02  0.11785584136E+02  0.30357247411E+02  0.50528855166E+02  0.29999985764E+02 0.  0.
         12    1    1    2    0    0  0.24345504611E+02 -0.11785584136E+02 -0.30357247411E+02  0.40659144834E+02  0.00000000000E+00 0. -1.
         11    1    3    3    0    0 -0.73920912064E+01 -0.85127110916E+01  0.14705325264E+02  0.18529863840E+02  0.51100000000E-03 0. -1.
        -11    1    3    3    0    0 -0.13943955741E+02  0.16600364631E+02  0.16385425295E+02  0.27175138821E+02  0.51100000000E-03 0.  1.
         12    1    3    3    0    0 -0.30094576641E+01  0.36979305964E+01 -0.73350314796E+00  0.48238525056E+01  0.00000000000E+00 0. -1.
</event>
<event>
 7    1  0.6046695E-013  0.5052886E+02  0.7816164E-02  0.1300439E+00
        -11   -1    0    0    0    0  0.00000000000E+00  0.00000000000E+00  0.45593999997E+02  0.45594000000E+02  0.51100000000E-03 0.  1.
         11   -1    0    0    0    0 -0.00000000000E+00 -0.00000000000E+00 -0.45593999997E+02  0.45594000000E+02  0.51100000000E-03 0. -1.
    9900012    2    1    2    0    0  0.29346170922E+02 -0.58105608274E+01  0.27535532481E+02  0.50528856945E+02  0.29999991171E+02 0.  0.
         12    1    1    2    0    0 -0.29346170922E+02  0.58105608274E+01 -0.27535532481E+02  0.40659143055E+02  0.00000000000E+00 0. -1.
         11    1    3    3    0    0  0.59597535807E+01  0.15893083957E+01  0.19150873117E+02  0.20119654702E+02  0.51100000000E-03 0. -1.
        -11    1    3    3    0    0  0.25647276421E+02 -0.75451282772E+01  0.87171868782E+01  0.28119407815E+02  0.51100000000E-03 0.  1.
        -12    1    3    3    0    0 -0.22608590799E+01  0.14525905399E+00 -0.33252751462E+00  0.22897944274E+01  0.00000000000E+00 0.  1.
</event>
<event>
 7    1  0.6046695E-013  0.5052885E+02  0.7816164E-02  0.1300439E+00
        -11   -1    0    0    0    0  0.00000000000E+00  0.00000000000E+00  0.45593999997E+02  0.45594000000E+02  0.51100000000E-03 0.  1.
         11   -1    0    0    0    0 -0.00000000000E+00 -0.00000000000E+00 -0.45593999997E+02  0.45594000000E+02  0.51100000000E-03 0. -1.
    9900012    2    1    2    0    0  0.47827919469E+01  0.30604631747E+02  0.26337193556E+02  0.50528851612E+02  0.29999974961E+02 0.  0.
         12    1    1    2    0    0 -0.47827919469E+01 -0.30604631747E+02 -0.26337193556E+02  0.40659148388E+02  0.00000000000E+00 0. -1.
         11    1    3    3    0    0 -0.90157692012E+01  0.13622017381E+02  0.70729518872E+00  0.16350648873E+02  0.51100000000E-03 0. -1.
        -11    1    3    3    0    0  0.47475264663E+01  0.90394994293E+01  0.14814102532E+02  0.17991920175E+02  0.51100000000E-03 0.  1.
         12    1    3    3    0    0  0.90510346819E+01  0.79431149371E+01  0.10815795835E+02  0.16186282565E+02  0.00000000000E+00 0. -1.
</event>
<event>
 7    1  0.6046695E-013  0.5052886E+02  0.7816164E-02  0.1300439E+00
        -11   -1    0    0    0    0  0.00000000000E+00  0.00000000000E+00  0.45593999997E+02  0.45594000000E+02  0.51100000000E-03 0. -1.
         11   -1    0    0    0    0 -0.00000000000E+00 -0.00000000000E+00 -0.45593999997E+02  0.45594000000E+02  0.51100000000E-03 0.  1.
    9900012    2    1    2    0    0  0.18537085427E+02 -0.34530326078E+02 -0.10825828803E+02  0.50528861735E+02  0.30000005729E+02 0.  0.
         12    1    1    2    0    0 -0.18537085427E+02  0.34530326078E+02  0.10825828803E+02  0.40659138265E+02  0.00000000000E+00 0. -1.
         11    1    3    3    0    0 -0.16816891334E+01 -0.16373570681E+02 -0.96128006257E+01  0.19061160282E+02  0.51100000000E-03 0. -1.
        -11    1    3    3    0    0  0.14438074744E+02 -0.13162508751E+02 -0.81307142517E+01  0.21161714331E+02  0.51100000000E-03 0.  1.
         12    1    3    3    0    0  0.57806998159E+01 -0.49942466471E+01  0.69176860740E+01  0.10305987122E+02  0.00000000000E+00 0. -1.
</event>
<event>
 7    1  0.6046695E-013  0.5052886E+02  0.7816164E-02  0.1300439E+00
        -11   -1    0    0    0    0  0.00000000000E+00  0.00000000000E+00  0.45593999997E+02  0.45594000000E+02  0.51100000000E-03 0. -1.
         11   -1    0    0    0    0 -0.00000000000E+00 -0.00000000000E+00 -0.45593999997E+02  0.45594000000E+02  0.51100000000E-03 0.  1.
    9900012    2    1    2    0    0 -0.77616163009E+01 -0.33938267024E+02 -0.21002786401E+02  0.50528859665E+02  0.29999999438E+02 0.  0.
         12    1    1    2    0    0  0.77616163009E+01  0.33938267024E+02  0.21002786401E+02  0.40659140335E+02  0.00000000000E+00 0. -1.
         11    1    3    3    0    0 -0.11668287265E+02 -0.87653153645E+01 -0.16198049603E+02  0.21802671679E+02  0.51100000000E-03 0. -1.
        -11    1    3    3    0    0 -0.14044074629E+01 -0.19830846814E+02 -0.66630631834E+01  0.20967385553E+02  0.51100000000E-03 0.  1.
         12    1    3    3    0    0  0.53110784271E+01 -0.53421048453E+01  0.18583263855E+01  0.77588024329E+01  0.00000000000E+00 0. -1.
</event>
<event>
 7    1  0.6046695E-013  0.5052891E+02  0.7816164E-02  0.1300439E+00
        -11   -1    0    0    0    0  0.00000000000E+00  0.00000000000E+00  0.45593999997E+02  0.45594000000E+02  0.51100000000E-03 0. -1.
         11   -1    0    0    0    0 -0.00000000000E+00 -0.00000000000E+00 -0.45593999997E+02  0.45594000000E+02  0.51100000000E-03 0.  1.
    9900012    2    1    2    0    0 -0.35655791043E+02 -0.18165184602E+02 -0.72008249819E+01  0.50528914337E+02  0.30000165619E+02 0.  0.
         12    1    1    2    0    0  0.35655791043E+02  0.18165184602E+02  0.72008249819E+01  0.40659085663E+02  0.00000000000E+00 0. -1.
         11    1    3    3    0    0 -0.11644206747E+02  0.18776606894E+01  0.65570615949E+01  0.13494747773E+02  0.51100000000E-03 0. -1.
        -11    1    3    3    0    0 -0.11455934689E+02 -0.18403693933E+02 -0.77797564505E+01  0.23031695567E+02  0.51100000000E-03 0.  1.
        -12    1    3    3    0    0 -0.12555649607E+02 -0.16391513578E+01 -0.59781301263E+01  0.14002470998E+02  0.00000000000E+00 0.  1.
</event>
<event>
 7    1  0.6046695E-013  0.5052885E+02  0.7816164E-02  0.1300439E+00
        -11   -1    0    0    0    0  0.00000000000E+00  0.00000000000E+00  0.45593999997E+02  0.45594000000E+02  0.51100000000E-03 0.  1.
         11   -1    0    0    0    0 -0.00000000000E+00 -0.00000000000E+00 -0.45593999997E+02  0.45594000000E+02  0.51100000000E-03 0. -1.
    9900012    2    1    2    0    0  0.90901008744E+01 -0.37911860853E+02  0.11542421747E+02  0.50528848176E+02  0.29999964515E+02 0.  0.
         12    1    1    2    0    0 -0.90901008744E+01  0.37911860853E+02 -0.11542421747E+02  0.40659151824E+02  0.00000000000E+00 0. -1.
         11    1    3    3    0    0  0.63205379972E+01  0.29472244550E+01  0.13497958585E+01  0.71033289156E+01  0.51100000000E-03 0. -1.
        -11    1    3    3    0    0  0.48599108395E+01 -0.14783275006E+02  0.63441719636E+00  0.15574544575E+02  0.51100000000E-03 0.  1.
         12    1    3    3    0    0 -0.20903479623E+01 -0.26075810302E+02  0.95582086921E+01  0.27850974686E+02  0.00000000000E+00 0. -1.
</event>
<event>
 7    1  0.6046695E-013  0.5052886E+02  0.7816164E-02  0.1300439E+00
        -11   -1    0    0    0    0  0.00000000000E+00  0.00000000000E+00  0.45593999997E+02  0.45594000000E+02  0.51100000000E-03 0. -1.
         11   -1    0    0    0    0 -0.00000000000E+00 -0.00000000000E+00 -0.45593999997E+02  0.45594000000E+02  0.51100000000E-03 0.  1.
    9900012    2    1    2    0    0  0.10321858256E+02 -0.31580762692E+02 -0.23436733670E+02  0.50528858160E+02  0.29999994863E+02 0.  0.
         12    1    1    2    0    0 -0.10321858256E+02  0.31580762692E+02  0.23436733670E+02  0.40659141840E+02  0.00000000000E+00 0. -1.
         11    1    3    3    0    0  0.38448586761E+01 -0.76846714886E+01 -0.94842043630E+00  0.86450341649E+01  0.51100000000E-03 0. -1.
        -11    1    3    3    0    0  0.38266080197E+01 -0.27289845312E+02 -0.24732518292E+02  0.37028044067E+02  0.51100000000E-03 0.  1.
        -12    1    3    3    0    0  0.26503915601E+01  0.33937541088E+01  0.22442050580E+01  0.48557799286E+01  0.00000000000E+00 0.  1.
</event>
<event>
 7    1  0.6046695E-013  0.5052885E+02  0.7816164E-02  0.1300439E+00
        -11   -1    0    0    0    0  0.00000000000E+00  0.00000000000E+00  0.45593999997E+02  0.45594000000E+02  0.51100000000E-03 0. -1.
         11   -1    0    0    0    0 -0.00000000000E+00 -0.00000000000E+00 -0.45593999997E+02  0.45594000000E+02  0.51100000000E-03 0.  1.
    9900012    2    1    2    0    0 -0.53440690329E+01  0.36787590579E+02 -0.16470590854E+02  0.50528852721E+02  0.29999978330E+02 0.  0.
         12    1    1    2    0    0  0.53440690329E+01 -0.36787590579E+02  0.16470590854E+02  0.40659147279E+02  0.00000000000E+00 0. -1.
         11    1    3    3    0    0 -0.65042510194E+01  0.65025536125E+01  0.96082115498E+00  0.92472516111E+01  0.51100000000E-03 0. -1.
        -11    1    3    3    0    0  0.98839485195E+01  0.25394656811E+02 -0.14456336009E+02  0.30847474515E+02  0.51100000000E-03 0.  1.
        -12    1    3    3    0    0 -0.87237665331E+01  0.48903801548E+01 -0.29750759998E+01  0.10434126594E+02  0.00000000000E+00 0.  1.
</event>
<event>
 7    1  0.6046695E-013  0.5052886E+02  0.7816164E-02  0.1300439E+00
        -11   -1    0    0    0    0  0.00000000000E+00  0.00000000000E+00  0.45593999997E+02  0.45594000000E+02  0.51100000000E-03 0. -1.
         11   -1    0    0    0    0 -0.00000000000E+00 -0.00000000000E+00 -0.45593999997E+02  0.45594000000E+02  0.51100000000E-03 0.  1.
    9900012    2    1    2    0    0 -0.13369384309E+02 -0.28117260916E+02 -0.26150431441E+02  0.50528857575E+02  0.29999993084E+02 0.  0.
         12    1    1    2    0    0  0.13369384309E+02  0.28117260916E+02  0.26150431441E+02  0.40659142425E+02  0.00000000000E+00 0. -1.
         11    1    3    3    0    0 -0.93303379034E+01  0.17115283863E+01 -0.12964200396E+02  0.16064091228E+02  0.51100000000E-03 0. -1.
        -11    1    3    3    0    0  0.29329701933E+01 -0.76963207715E+01 -0.11249342258E+01  0.83127098378E+01  0.51100000000E-03 0.  1.
         12    1    3    3    0    0 -0.69720165992E+01 -0.22132468530E+02 -0.12061296819E+02  0.26152056509E+02  0.00000000000E+00 0. -1.
</event>
<event>
 7    1  0.6046695E-013  0.5052887E+02  0.7816164E-02  0.1300439E+00
        -11   -1    0    0    0    0  0.00000000000E+00  0.00000000000E+00  0.45593999997E+02  0.45594000000E+02  0.51100000000E-03 0.  1.
         11   -1    0    0    0    0 -0.00000000000E+00 -0.00000000000E+00 -0.45593999997E+02  0.45594000000E+02  0.51100000000E-03 0. -1.
    9900012    2    1    2    0    0  0.35176974978E+01  0.29371615741E+02  0.27894425433E+02  0.50528868465E+02  0.30000026187E+02 0.  0.
         12    1    1    2    0    0 -0.35176974978E+01 -0.29371615741E+02 -0.27894425433E+02  0.40659131535E+02  0.00000000000E+00 0. -1.
         11    1    3    3    0    0 -0.66819693381E+01  0.98231055237E+00  0.19739401441E+01  0.70363405411E+01  0.51100000000E-03 0. -1.
        -11    1    3    3    0    0  0.12216924494E+01  0.25446963269E+02  0.18803488829E+02  0.31664043716E+02  0.51100000000E-03 0.  1.
        -12    1    3    3    0    0  0.89779743865E+01  0.29423419198E+01  0.71169964596E+01  0.11828484208E+02  0.00000000000E+00 0.  1.
</event>
<event>
 7    1  0.6046695E-013  0.5052886E+02  0.7816164E-02  0.1300439E+00
        -11   -1    0    0    0    0  0.00000000000E+00  0.00000000000E+00  0.45593999997E+02  0.45594000000E+02  0.51100000000E-03 0.  1.
         11   -1    0    0    0    0 -0.00000000000E+00 -0.00000000000E+00 -0.45593999997E+02  0.45594000000E+02  0.51100000000E-03 0. -1.
    9900012    2    1    2    0    0 -0.14066156749E+02 -0.61625043850E+01  0.37647478261E+02  0.50528857788E+02  0.29999993733E+02 0.  0.
         12    1    1    2    0    0  0.14066156749E+02  0.61625043850E+01 -0.37647478261E+02  0.40659142212E+02  0.00000000000E+00 0. -1.
         11    1    3    3    0    0 -0.17937906704E+02 -0.26993925693E+00  0.93785329614E+01  0.20243474131E+02  0.51100000000E-03 0. -1.
        -11    1    3    3    0    0  0.42193561394E+01 -0.20688661977E+01  0.24349111221E+02  0.24798435255E+02  0.51100000000E-03 0.  1.
         12    1    3    3    0    0 -0.34760618481E+00 -0.38236989304E+01  0.39198340788E+01  0.54869484028E+01  0.00000000000E+00 0. -1.
</event>
<event>
 7    1  0.6046695E-013  0.5052886E+02  0.7816164E-02  0.1300439E+00
        -11   -1    0    0    0    0  0.00000000000E+00  0.00000000000E+00  0.45593999997E+02  0.45594000000E+02  0.51100000000E-03 0. -1.
         11   -1    0    0    0    0 -0.00000000000E+00 -0.00000000000E+00 -0.45593999997E+02  0.45594000000E+02  0.51100000000E-03 0.  1.
    9900012    2    1    2    0    0 -0.26165321837E+02  0.20149515039E+02 -0.23717893566E+02  0.50528862057E+02  0.30000006707E+02 0.  0.
         12    1    1    2    0    0  0.26165321837E+02 -0.20149515039E+02  0.23717893566E+02  0.40659137943E+02  0.00000000000E+00 0. -1.
         11    1    3    3    0    0 -0.13126980478E+02  0.73285802414E+01 -0.19748773722E+02  0.24820148440E+02  0.51100000000E-03 0.  1.
        -11    1    3    3    0    0 -0.13341053404E+02  0.16775311086E+02 -0.32651733193E+01  0.21680777777E+02  0.51100000000E-03 0. -1.
        -12    1    3    3    0    0  0.30271204520E+00 -0.39543762887E+01 -0.70394652497E+00  0.40279358392E+01  0.00000000000E+00 0.  1.
</event>
<event>
 7    1  0.6046695E-013  0.5052886E+02  0.7816164E-02  0.1300439E+00
        -11   -1    0    0    0    0  0.00000000000E+00  0.00000000000E+00  0.45593999997E+02  0.45594000000E+02  0.51100000000E-03 0.  1.
         11   -1    0    0    0    0 -0.00000000000E+00 -0.00000000000E+00 -0.45593999997E+02  0.45594000000E+02  0.51100000000E-03 0. -1.
    9900012    2    1    2    0    0 -0.10333093197E+02  0.38970498151E+02 -0.52624111864E+01  0.50528861880E+02  0.30000006171E+02 0.  0.
         12    1    1    2    0    0  0.10333093197E+02 -0.38970498151E+02  0.52624111864E+01  0.40659138120E+02  0.00000000000E+00 0. -1.
         11    1    3    3    0    0  0.50378449968E+01  0.12192853795E+02  0.28342838105E+01  0.13493655207E+02  0.51100000000E-03 0. -1.
        -11    1    3    3    0    0 -0.17986125298E+02  0.15452965371E+02 -0.17124561236E+01  0.23774510473E+02  0.51100000000E-03 0.  1.
        -12    1    3    3    0    0  0.26151871048E+01  0.11324678985E+02 -0.63842388733E+01  0.13260696200E+02  0.00000000000E+00 0.  1.
</event>
<event>
 7    1  0.6046695E-013  0.5052888E+02  0.7816164E-02  0.1300439E+00
        -11   -1    0    0    0    0  0.00000000000E+00  0.00000000000E+00  0.45593999997E+02  0.45594000000E+02  0.51100000000E-03 0.  1.
         11   -1    0    0    0    0 -0.00000000000E+00 -0.00000000000E+00 -0.45593999997E+02  0.45594000000E+02  0.51100000000E-03 0. -1.
    9900012    2    1    2    0    0  0.33190783107E+02  0.35419001126E+01  0.23216185380E+02  0.50528875523E+02  0.30000047640E+02 0.  0.
         12    1    1    2    0    0 -0.33190783107E+02 -0.35419001126E+01 -0.23216185380E+02  0.40659124477E+02  0.00000000000E+00 0. -1.
         11    1    3    3    0    0  0.19163582844E+01  0.67800069993E+01  0.40350418935E+00  0.70571764805E+01  0.51100000000E-03 0. -1.
        -11    1    3    3    0    0  0.32862724990E+02 -0.50252073560E+01  0.23799092242E+02  0.40885305362E+02  0.51100000000E-03 0.  1.
        -12    1    3    3    0    0 -0.15883001674E+01  0.17871004693E+01 -0.98641105172E+00  0.25863936808E+01  0.00000000000E+00 0.  1.
</event>
<event>
 7    1  0.6046695E-013  0.5052887E+02  0.7816164E-02  0.1300439E+00
        -11   -1    0    0    0    0  0.00000000000E+00  0.00000000000E+00  0.45593999997E+02  0.45594000000E+02  0.51100000000E-03 0.  1.
         11   -1    0    0    0    0 -0.00000000000E+00 -0.00000000000E+00 -0.45593999997E+02  0.45594000000E+02  0.51100000000E-03 0. -1.
    9900012    2    1    2    0    0  0.33324520017E+02  0.95804093517E+01  0.21233398965E+02  0.50528866840E+02  0.30000021248E+02 0.  0.
         12    1    1    2    0    0 -0.33324520017E+02 -0.95804093517E+01 -0.21233398965E+02  0.40659133160E+02  0.00000000000E+00 0. -1.
         11    1    3    3    0    0  0.82947177091E+01 -0.14412976851E+01 -0.52321706191E+01  0.99123806696E+01  0.51100000000E-03 0. -1.
        -11    1    3    3    0    0  0.18367378609E+02  0.80606731832E+01  0.95891784574E+01  0.22232575040E+02  0.51100000000E-03 0.  1.
         12    1    3    3    0    0  0.66624236983E+01  0.29610338536E+01  0.16876391126E+02  0.18383911131E+02  0.00000000000E+00 0. -1.
</event>
<event>
 7    1  0.6046695E-013  0.5052886E+02  0.7816164E-02  0.1300439E+00
        -11   -1    0    0    0    0  0.00000000000E+00  0.00000000000E+00  0.45593999997E+02  0.45594000000E+02  0.51100000000E-03 0.  1.
         11   -1    0    0    0    0 -0.00000000000E+00 -0.00000000000E+00 -0.45593999997E+02  0.45594000000E+02  0.51100000000E-03 0. -1.
    9900012    2    1    2    0    0  0.31680035366E+02  0.23565447053E+02  0.97062199516E+01  0.50528860297E+02  0.30000001359E+02 0.  0.
         12    1    1    2    0    0 -0.31680035366E+02 -0.23565447053E+02 -0.97062199516E+01  0.40659139703E+02  0.00000000000E+00 0. -1.
         11    1    3    3    0    0  0.86069866063E+01  0.11208424597E+01 -0.14046881250E+01  0.87925909293E+01  0.51100000000E-03 0. -1.
        -11    1    3    3    0    0  0.26149063824E+02  0.18799711795E+02  0.15051776398E+02  0.35549383615E+02  0.51100000000E-03 0.  1.
        -12    1    3    3    0    0 -0.30760150641E+01  0.36448927987E+01 -0.39408683213E+01  0.61868857525E+01  0.00000000000E+00 0.  1.
</event>
<event>
 7    1  0.6046695E-013  0.5052886E+02  0.7816164E-02  0.1300439E+00
        -11   -1    0    0    0    0  0.00000000000E+00  0.00000000000E+00  0.45593999997E+02  0.45594000000E+02  0.51100000000E-03 0.  1.
         11   -1    0    0    0    0 -0.00000000000E+00 -0.00000000000E+00 -0.45593999997E+02  0.45594000000E+02  0.51100000000E-03 0. -1.
    9900012    2    1    2    0    0 -0.25726910808E+02 -0.21011713190E+02  0.23447809198E+02  0.50528858505E+02  0.29999995913E+02 0.  0.
         12    1    1    2    0    0  0.25726910808E+02  0.21011713190E+02 -0.23447809198E+02  0.40659141495E+02  0.00000000000E+00 0. -1.
         11    1    3    3    0    0 -0.12867360691E+02 -0.16784735686E+02 -0.10308688413E+01  0.21174489699E+02  0.51100000000E-03 0. -1.
        -11    1    3    3    0    0 -0.12927274415E+02 -0.12074507811E+01  0.17874350005E+02  0.22092187523E+02  0.51100000000E-03 0.  1.
         12    1    3    3    0    0  0.67724297524E-01 -0.30195267225E+01  0.66043280334E+01  0.72621812826E+01  0.00000000000E+00 0. -1.
</event>
<event>
 7    1  0.6046695E-013  0.5052886E+02  0.7816164E-02  0.1300439E+00
        -11   -1    0    0    0    0  0.00000000000E+00  0.00000000000E+00  0.45593999997E+02  0.45594000000E+02  0.51100000000E-03 0.  1.
         11   -1    0    0    0    0 -0.00000000000E+00 -0.00000000000E+00 -0.45593999997E+02  0.45594000000E+02  0.51100000000E-03 0. -1.
    9900012    2    1    2    0    0  0.39613519517E+02  0.80253200535E+01  0.44192014395E+01  0.50528855495E+02  0.29999986764E+02 0.  0.
         12    1    1    2    0    0 -0.39613519517E+02 -0.80253200535E+01 -0.44192014395E+01  0.40659144505E+02  0.00000000000E+00 0. -1.
         11    1    3    3    0    0  0.28509031901E+02 -0.54262777775E+01 -0.25915583868E+01  0.29136327250E+02  0.51100000000E-03 0.  1.
        -11    1    3    3    0    0  0.39288234736E+01  0.46471886624E+01 -0.24993740323E+01  0.65786691029E+01  0.51100000000E-03 0. -1.
         12    1    3    3    0    0  0.71756641420E+01  0.88044091687E+01  0.95101338586E+01  0.14813859143E+02  0.00000000000E+00 0. -1.
</event>
<event>
 7    1  0.6046695E-013  0.5052886E+02  0.7816164E-02  0.1300439E+00
        -11   -1    0    0    0    0  0.00000000000E+00  0.00000000000E+00  0.45593999997E+02  0.45594000000E+02  0.51100000000E-03 0.  1.
         11   -1    0    0    0    0 -0.00000000000E+00 -0.00000000000E+00 -0.45593999997E+02  0.45594000000E+02  0.51100000000E-03 0. -1.
    9900012    2    1    2    0    0 -0.24960580889E+02 -0.20053573698E+02  0.25059717314E+02  0.50528857753E+02  0.29999993626E+02 0.  0.
         12    1    1    2    0    0  0.24960580889E+02  0.20053573698E+02 -0.25059717314E+02  0.40659142247E+02  0.00000000000E+00 0. -1.
         11    1    3    3    0    0 -0.23138387245E+02 -0.19539180776E+02  0.15115932151E+02  0.33847539863E+02  0.51100000000E-03 0. -1.
        -11    1    3    3    0    0  0.37169744362E+01  0.19251219237E+01  0.97669531390E+01  0.10626164278E+02  0.51100000000E-03 0.  1.
        -12    1    3    3    0    0 -0.55391680802E+01 -0.24395148455E+01  0.17683202491E+00  0.60551536122E+01  0.00000000000E+00 0.  1.
</event>
<event>
 7    1  0.6046695E-013  0.5052886E+02  0.7816164E-02  0.1300439E+00
        -11   -1    0    0    0    0  0.00000000000E+00  0.00000000000E+00  0.45593999997E+02  0.45594000000E+02  0.51100000000E-03 0.  1.
         11   -1    0    0    0    0 -0.00000000000E+00 -0.00000000000E+00 -0.45593999997E+02  0.45594000000E+02  0.51100000000E-03 0. -1.
    9900012    2    1    2    0    0 -0.22166508840E+02 -0.27636324131E+02  0.19951060676E+02  0.50528863908E+02  0.30000012335E+02 0.  0.
         12    1    1    2    0    0  0.22166508840E+02  0.27636324131E+02 -0.19951060676E+02  0.40659136092E+02  0.00000000000E+00 0. -1.
         11    1    3    3    0    0  0.10140492294E+01 -0.76288978940E+01  0.54482911295E+01  0.94293295313E+01  0.51100000000E-03 0. -1.
        -11    1    3    3    0    0 -0.10876679539E+02  0.38762233643E+01  0.34812773950E+01  0.12060122633E+02  0.51100000000E-03 0.  1.
        -12    1    3    3    0    0 -0.12303878531E+02 -0.23883649601E+02  0.11021492152E+02  0.29039411744E+02  0.00000000000E+00 0.  1.
</event>
<event>
 7    1  0.6046695E-013  0.5052887E+02  0.7816164E-02  0.1300439E+00
        -11   -1    0    0    0    0  0.00000000000E+00  0.00000000000E+00  0.45593999997E+02  0.45594000000E+02  0.51100000000E-03 0. -1.
         11   -1    0    0    0    0 -0.00000000000E+00 -0.00000000000E+00 -0.45593999997E+02  0.45594000000E+02  0.51100000000E-03 0.  1.
    9900012    2    1    2    0    0  0.27206894566E+02  0.20203239661E+02 -0.22467290148E+02  0.50528866569E+02  0.30000020424E+02 0.  0.
         12    1    1    2    0    0 -0.27206894566E+02 -0.20203239661E+02  0.22467290148E+02  0.40659133431E+02  0.00000000000E+00 0. -1.
         11    1    3    3    0    0 -0.69054116240E+00  0.10010597980E+01 -0.99815139135E+01  0.10055326354E+02  0.51100000000E-03 0. -1.
        -11    1    3    3    0    0  0.78374466598E+01  0.15345947868E+02 -0.15443827500E+01  0.17300543473E+02  0.51100000000E-03 0.  1.
         12    1    3    3    0    0  0.20059989069E+02  0.38562319953E+01 -0.10941393484E+02  0.23172996742E+02  0.00000000000E+00 0. -1.
</event>
<event>
 7    1  0.6046695E-013  0.5052886E+02  0.7816164E-02  0.1300439E+00
        -11   -1    0    0    0    0  0.00000000000E+00  0.00000000000E+00  0.45593999997E+02  0.45594000000E+02  0.51100000000E-03 0.  1.
         11   -1    0    0    0    0 -0.00000000000E+00 -0.00000000000E+00 -0.45593999997E+02  0.45594000000E+02  0.51100000000E-03 0. -1.
    9900012    2    1    2    0    0 -0.34094365079E+02 -0.21861234019E+02 -0.35813849426E+01  0.50528860792E+02  0.30000002865E+02 0.  0.
         12    1    1    2    0    0  0.34094365079E+02  0.21861234019E+02  0.35813849426E+01  0.40659139208E+02  0.00000000000E+00 0. -1.
         11    1    3    3    0    0 -0.22811055640E+02 -0.27213851193E+01 -0.47262567906E+01  0.23453948492E+02  0.51100000000E-03 0. -1.
        -11    1    3    3    0    0 -0.10888437596E+02 -0.21373500070E+02 -0.92382237318E+00  0.24004958375E+02  0.51100000000E-03 0.  1.
        -12    1    3    3    0    0 -0.39487184312E+00  0.22336511703E+01  0.20686942212E+01  0.30699539254E+01  0.00000000000E+00 0.  1.
</event>
<event>
 7    1  0.6046695E-013  0.5052895E+02  0.7816164E-02  0.1300438E+00
        -11   -1    0    0    0    0  0.00000000000E+00  0.00000000000E+00  0.45593999997E+02  0.45594000000E+02  0.51100000000E-03 0. -1.
         11   -1    0    0    0    0 -0.00000000000E+00 -0.00000000000E+00 -0.45593999997E+02  0.45594000000E+02  0.51100000000E-03 0.  1.
    9900012    2    1    2    0    0  0.22380598476E+02 -0.85392740299E+01 -0.32853426950E+02  0.50528953633E+02  0.30000285061E+02 0.  0.
         12    1    1    2    0    0 -0.22380598476E+02  0.85392740299E+01  0.32853426950E+02  0.40659046367E+02  0.00000000000E+00 0. -1.
         11    1    3    3    0    0  0.28950759837E+01 -0.66033533008E+01  0.27485692854E+01  0.77162408687E+01  0.51100000000E-03 0. -1.
        -11    1    3    3    0    0  0.21091252466E+02 -0.32255315068E+01 -0.29760055821E+02  0.36618382089E+02  0.51100000000E-03 0.  1.
        -12    1    3    3    0    0 -0.16057299737E+01  0.12896107777E+01 -0.58419404142E+01  0.61943306749E+01  0.00000000000E+00 0.  1.
</event>
<event>
 7    1  0.6046695E-013  0.5052886E+02  0.7816164E-02  0.1300439E+00
        -11   -1    0    0    0    0  0.00000000000E+00  0.00000000000E+00  0.45593999997E+02  0.45594000000E+02  0.51100000000E-03 0.  1.
         11   -1    0    0    0    0 -0.00000000000E+00 -0.00000000000E+00 -0.45593999997E+02  0.45594000000E+02  0.51100000000E-03 0. -1.
    9900012    2    1    2    0    0 -0.28914820950E+02  0.48646150785E+01  0.28167971293E+02  0.50528856413E+02  0.29999989554E+02 0.  0.
         12    1    1    2    0    0  0.28914820950E+02 -0.48646150785E+01 -0.28167971293E+02  0.40659143587E+02  0.00000000000E+00 0. -1.
         11    1    3    3    0    0  0.36069776640E+01  0.68031369734E+01  0.18789483977E+01  0.79261218695E+01  0.51100000000E-03 0. -1.
        -11    1    3    3    0    0 -0.25013918616E+02 -0.46613441052E+01  0.18613900565E+02  0.31526204147E+02  0.51100000000E-03 0.  1.
         12    1    3    3    0    0 -0.75078799972E+01  0.27228222104E+01  0.76751223306E+01  0.11076530397E+02  0.00000000000E+00 0. -1.
</event>
<event>
 7    1  0.6046695E-013  0.5052886E+02  0.7816164E-02  0.1300439E+00
        -11   -1    0    0    0    0  0.00000000000E+00  0.00000000000E+00  0.45593999997E+02  0.45594000000E+02  0.51100000000E-03 0.  1.
         11   -1    0    0    0    0 -0.00000000000E+00 -0.00000000000E+00 -0.45593999997E+02  0.45594000000E+02  0.51100000000E-03 0. -1.
    9900012    2    1    2    0    0  0.26378481770E+02 -0.30185598187E+02 -0.67949436815E+01  0.50528857141E+02  0.29999991766E+02 0.  0.
         12    1    1    2    0    0 -0.26378481770E+02  0.30185598187E+02  0.67949436815E+01  0.40659142859E+02  0.00000000000E+00 0. -1.
         11    1    3    3    0    0  0.16738350882E+02 -0.31820368508E+02 -0.12771404239E+02  0.38155170144E+02  0.51100000000E-03 0. -1.
        -11    1    3    3    0    0  0.87806821602E+01  0.66342728471E+00  0.65308028098E+01  0.10963206673E+02  0.51100000000E-03 0.  1.
         12    1    3    3    0    0  0.85944872809E+00  0.97134303644E+00 -0.55434225240E+00  0.14104803237E+01  0.00000000000E+00 0. -1.
</event>
<event>
 7    1  0.6046695E-013  0.5052886E+02  0.7816164E-02  0.1300439E+00
        -11   -1    0    0    0    0  0.00000000000E+00  0.00000000000E+00  0.45593999997E+02  0.45594000000E+02  0.51100000000E-03 0.  1.
         11   -1    0    0    0    0 -0.00000000000E+00 -0.00000000000E+00 -0.45593999997E+02  0.45594000000E+02  0.51100000000E-03 0. -1.
    9900012    2    1    2    0    0  0.27551057544E+02  0.29049259530E+02  0.70884023073E+01  0.50528859597E+02  0.29999999231E+02 0.  0.
         12    1    1    2    0    0 -0.27551057544E+02 -0.29049259530E+02 -0.70884023073E+01  0.40659140403E+02  0.00000000000E+00 0. -1.
         11    1    3    3    0    0  0.72432756773E+01  0.19551205823E+02  0.42181254691E+01  0.21272218370E+02  0.51100000000E-03 0. -1.
        -11    1    3    3    0    0  0.68522542347E+01  0.71805651440E+00 -0.74605122081E+01  0.10155207330E+02  0.51100000000E-03 0.  1.
        -12    1    3    3    0    0  0.13455527632E+02  0.87799971934E+01  0.10330789046E+02  0.19101433896E+02  0.00000000000E+00 0.  1.
</event>
<event>
 7    1  0.6046695E-013  0.5052886E+02  0.7816164E-02  0.1300439E+00
        -11   -1    0    0    0    0  0.00000000000E+00  0.00000000000E+00  0.45593999997E+02  0.45594000000E+02  0.51100000000E-03 0.  1.
         11   -1    0    0    0    0 -0.00000000000E+00 -0.00000000000E+00 -0.45593999997E+02  0.45594000000E+02  0.51100000000E-03 0. -1.
    9900012    2    1    2    0    0  0.11786824615E+02 -0.38862240456E+02 -0.19905596423E+01  0.50528864552E+02  0.30000014291E+02 0.  0.
         12    1    1    2    0    0 -0.11786824615E+02  0.38862240456E+02  0.19905596423E+01  0.40659135448E+02  0.00000000000E+00 0. -1.
         11    1    3    3    0    0  0.30788789757E+01 -0.91196065000E+01 -0.11900745962E+02  0.15306027348E+02  0.51100000000E-03 0. -1.
        -11    1    3    3    0    0  0.92414944221E+01 -0.13231829225E+02  0.36441187651E+00  0.16143708374E+02  0.51100000000E-03 0.  1.
         12    1    3    3    0    0 -0.53354878319E+00 -0.16510804731E+02  0.95457744436E+01  0.19079128829E+02  0.00000000000E+00 0. -1.
</event>
<event>
 7    1  0.6046695E-013  0.5052890E+02  0.7816164E-02  0.1300439E+00
        -11   -1    0    0    0    0  0.00000000000E+00  0.00000000000E+00  0.45593999997E+02  0.45594000000E+02  0.51100000000E-03 0.  1.
         11   -1    0    0    0    0 -0.00000000000E+00 -0.00000000000E+00 -0.45593999997E+02  0.45594000000E+02  0.51100000000E-03 0. -1.
    9900012    2    1    2    0    0  0.90204596614E+01 -0.27875322845E+02  0.28191495173E+02  0.50528896268E+02  0.30000110697E+02 0.  0.
         12    1    1    2    0    0 -0.90204596614E+01  0.27875322845E+02 -0.28191495173E+02  0.40659103732E+02  0.00000000000E+00 0. -1.
         11    1    3    3    0    0 -0.45074646411E+00 -0.30390394882E+02  0.19632204555E+02  0.36182906592E+02  0.51100000000E-03 0.  1.
        -11    1    3    3    0    0  0.33689566954E+01  0.34590474145E+01  0.58970923348E+01  0.76217174244E+01  0.51100000000E-03 0. -1.
        -12    1    3    3    0    0  0.61022494301E+01 -0.94397537674E+00  0.26621982828E+01  0.67242722518E+01  0.00000000000E+00 0.  1.
</event>
<event>
 7    1  0.6046695E-013  0.5052886E+02  0.7816164E-02  0.1300439E+00
        -11   -1    0    0    0    0  0.00000000000E+00  0.00000000000E+00  0.45593999997E+02  0.45594000000E+02  0.51100000000E-03 0.  1.
         11   -1    0    0    0    0 -0.00000000000E+00 -0.00000000000E+00 -0.45593999997E+02  0.45594000000E+02  0.51100000000E-03 0. -1.
    9900012    2    1    2    0    0  0.28020143076E+02 -0.13314615463E+02  0.26282283932E+02  0.50528857712E+02  0.29999993500E+02 0.  0.
         12    1    1    2    0    0 -0.28020143076E+02  0.13314615463E+02 -0.26282283932E+02  0.40659142288E+02  0.00000000000E+00 0. -1.
         11    1    3    3    0    0  0.20890175603E+01 -0.11325516574E+02  0.84480301375E+00  0.11547511092E+02  0.51100000000E-03 0. -1.
        -11    1    3    3    0    0  0.77580126898E+01  0.58623697615E+01  0.77584621198E+01  0.12439769887E+02  0.51100000000E-03 0.  1.
        -12    1    3    3    0    0  0.18173112826E+02 -0.78514686504E+01  0.17679018798E+02  0.26541576732E+02  0.00000000000E+00 0.  1.
</event>
<event>
 7    1  0.6046695E-013  0.5052887E+02  0.7816164E-02  0.1300439E+00
        -11   -1    0    0    0    0  0.00000000000E+00  0.00000000000E+00  0.45593999997E+02  0.45594000000E+02  0.51100000000E-03 0. -1.
         11   -1    0    0    0    0 -0.00000000000E+00 -0.00000000000E+00 -0.45593999997E+02  0.45594000000E+02  0.51100000000E-03 0.  1.
    9900012    2    1    2    0    0  0.10347534357E+02  0.37888624597E+02 -0.10514076237E+02  0.50528866460E+02  0.30000020093E+02 0.  0.
         12    1    1    2    0    0 -0.10347534357E+02 -0.37888624597E+02  0.10514076237E+02  0.40659133540E+02  0.00000000000E+00 0. -1.
         11    1    3    3    0    0  0.78375008021E+01  0.83491075777E+00  0.28294274159E+01  0.83743151695E+01  0.51100000000E-03 0. -1.
        -11    1    3    3    0    0  0.47191779286E+01  0.33561988077E+02 -0.15749961698E+02  0.37372971219E+02  0.51100000000E-03 0.  1.
         12    1    3    3    0    0 -0.22091443740E+01  0.34917257613E+01  0.24064580449E+01  0.47815800714E+01  0.00000000000E+00 0. -1.
</event>
<event>
 7    1  0.6046695E-013  0.5052882E+02  0.7816164E-02  0.1300439E+00
        -11   -1    0    0    0    0  0.00000000000E+00  0.00000000000E+00  0.45593999997E+02  0.45594000000E+02  0.51100000000E-03 0. -1.
         11   -1    0    0    0    0 -0.00000000000E+00 -0.00000000000E+00 -0.45593999997E+02  0.45594000000E+02  0.51100000000E-03 0.  1.
    9900012    2    1    2    0    0  0.30620279014E+02 -0.26595607709E+02  0.28707276814E+01  0.50528820056E+02  0.29999879042E+02 0.  0.
         12    1    1    2    0    0 -0.30620279014E+02  0.26595607709E+02 -0.28707276814E+01  0.40659179944E+02  0.00000000000E+00 0. -1.
         11    1    3    3    0    0  0.31121792266E+02 -0.24188243585E+02  0.84640172929E+01  0.40314720272E+02  0.51100000000E-03 0. -1.
        -11    1    3    3    0    0 -0.31386996798E+01  0.15759980140E+01 -0.36247481543E+01  0.50471779108E+01  0.51100000000E-03 0.  1.
        -12    1    3    3    0    0  0.26371864279E+01 -0.39833621380E+01 -0.19685414573E+01  0.51669218735E+01  0.00000000000E+00 0.  1.
</event>
<event>
 7    1  0.6046695E-013  0.5052886E+02  0.7816164E-02  0.1300439E+00
        -11   -1    0    0    0    0  0.00000000000E+00  0.00000000000E+00  0.45593999997E+02  0.45594000000E+02  0.51100000000E-03 0. -1.
         11   -1    0    0    0    0 -0.00000000000E+00 -0.00000000000E+00 -0.45593999997E+02  0.45594000000E+02  0.51100000000E-03 0.  1.
    9900012    2    1    2    0    0 -0.55525162056E+01  0.36941670982E+02 -0.16051418163E+02  0.50528861836E+02  0.30000006037E+02 0.  0.
         12    1    1    2    0    0  0.55525162056E+01 -0.36941670982E+02  0.16051418163E+02  0.40659138164E+02  0.00000000000E+00 0. -1.
         11    1    3    3    0    0  0.94443684533E+01  0.85780029993E+01 -0.90017200060E+01  0.15614390615E+02  0.51100000000E-03 0.  1.
        -11    1    3    3    0    0 -0.94773892202E+01  0.25412882535E+02 -0.86241916750E+01  0.28460713053E+02  0.51100000000E-03 0. -1.
         12    1    3    3    0    0 -0.55194954387E+01  0.29507854477E+01  0.15744935184E+01  0.64537581683E+01  0.00000000000E+00 0. -1.
</event>
<event>
 7    1  0.6046695E-013  0.5052887E+02  0.7816164E-02  0.1300439E+00
        -11   -1    0    0    0    0  0.00000000000E+00  0.00000000000E+00  0.45593999997E+02  0.45594000000E+02  0.51100000000E-03 0.  1.
         11   -1    0    0    0    0 -0.00000000000E+00 -0.00000000000E+00 -0.45593999997E+02  0.45594000000E+02  0.51100000000E-03 0. -1.
    9900012    2    1    2    0    0  0.24249551370E+02 -0.31838327626E+02  0.71725456226E+01  0.50528865007E+02  0.30000015676E+02 0.  0.
         12    1    1    2    0    0 -0.24249551370E+02  0.31838327626E+02 -0.71725456226E+01  0.40659134993E+02  0.00000000000E+00 0. -1.
         11    1    3    3    0    0 -0.16729358820E+01  0.39366463172E+01  0.10678723765E+01  0.44086562993E+01  0.51100000000E-03 0. -1.
        -11    1    3    3    0    0  0.12198366601E+02 -0.13591763622E+02  0.80583314964E+01  0.19961785813E+02  0.51100000000E-03 0.  1.
         12    1    3    3    0    0  0.13724120650E+02 -0.22183210321E+02 -0.19536582503E+01  0.26158422895E+02  0.00000000000E+00 0. -1.
</event>
<event>
 7    1  0.6046695E-013  0.5052886E+02  0.7816164E-02  0.1300439E+00
        -11   -1    0    0    0    0  0.00000000000E+00  0.00000000000E+00  0.45593999997E+02  0.45594000000E+02  0.51100000000E-03 0.  1.
         11   -1    0    0    0    0 -0.00000000000E+00 -0.00000000000E+00 -0.45593999997E+02  0.45594000000E+02  0.51100000000E-03 0. -1.
    9900012    2    1    2    0    0 -0.16316632307E+02 -0.30866764596E+02  0.20836891236E+02  0.50528859787E+02  0.29999999809E+02 0.  0.
         12    1    1    2    0    0  0.16316632307E+02  0.30866764596E+02 -0.20836891236E+02  0.40659140213E+02  0.00000000000E+00 0. -1.
         11    1    3    3    0    0  0.32630123178E+01 -0.16921162684E+02  0.17209914922E+01  0.17318626040E+02  0.51100000000E-03 0. -1.
        -11    1    3    3    0    0 -0.19787663870E+02 -0.14496024540E+02  0.14371167970E+02  0.28429154718E+02  0.51100000000E-03 0.  1.
        -12    1    3    3    0    0  0.20801924531E+00  0.55042262725E+00  0.47447317734E+01  0.47810790285E+01  0.00000000000E+00 0.  1.
</event>
<event>
 7    1  0.6046695E-013  0.5052886E+02  0.7816164E-02  0.1300439E+00
        -11   -1    0    0    0    0  0.00000000000E+00  0.00000000000E+00  0.45593999997E+02  0.45594000000E+02  0.51100000000E-03 0. -1.
         11   -1    0    0    0    0 -0.00000000000E+00 -0.00000000000E+00 -0.45593999997E+02  0.45594000000E+02  0.51100000000E-03 0.  1.
    9900012    2    1    2    0    0 -0.19811943244E+02 -0.21558813494E+02 -0.28211166609E+02  0.50528862579E+02  0.30000008295E+02 0.  0.
         12    1    1    2    0    0  0.19811943244E+02  0.21558813494E+02  0.28211166609E+02  0.40659137421E+02  0.00000000000E+00 0. -1.
         11    1    3    3    0    0  0.26171879830E+01 -0.71178160824E+00 -0.53242334737E+01  0.59752630352E+01  0.51100000000E-03 0. -1.
        -11    1    3    3    0    0 -0.18043917736E+02 -0.25795980143E+01 -0.16845912706E+02  0.24819791867E+02  0.51100000000E-03 0.  1.
         12    1    3    3    0    0 -0.43852134918E+01 -0.18267433871E+02 -0.60410204297E+01  0.19733807677E+02  0.00000000000E+00 0. -1.
</event>
<event>
 7    1  0.6046695E-013  0.5052888E+02  0.7816164E-02  0.1300439E+00
        -11   -1    0    0    0    0  0.00000000000E+00  0.00000000000E+00  0.45593999997E+02  0.45594000000E+02  0.51100000000E-03 0.  1.
         11   -1    0    0    0    0 -0.00000000000E+00 -0.00000000000E+00 -0.45593999997E+02  0.45594000000E+02  0.51100000000E-03 0. -1.
    9900012    2    1    2    0    0  0.23797695035E+02 -0.19807030830E+02  0.26353662956E+02  0.50528876664E+02  0.30000051108E+02 0.  0.
         12    1    1    2    0    0 -0.23797695035E+02  0.19807030830E+02 -0.26353662956E+02  0.40659123336E+02  0.00000000000E+00 0. -1.
         11    1    3    3    0    0  0.21830100359E+02 -0.16270670523E+02  0.15332546956E+02  0.31246999814E+02  0.51100000000E-03 0. -1.
        -11    1    3    3    0    0  0.17791541755E+00 -0.39822727288E+01  0.14665367799E+02  0.15197472254E+02  0.51100000000E-03 0.  1.
         12    1    3    3    0    0  0.17896792585E+01  0.44591242147E+00 -0.36442517987E+01  0.40844045965E+01  0.00000000000E+00 0. -1.
</event>
<event>
 7    1  0.6046695E-013  0.5052886E+02  0.7816164E-02  0.1300439E+00
        -11   -1    0    0    0    0  0.00000000000E+00  0.00000000000E+00  0.45593999997E+02  0.45594000000E+02  0.51100000000E-03 0.  1.
         11   -1    0    0    0    0 -0.00000000000E+00 -0.00000000000E+00 -0.45593999997E+02  0.45594000000E+02  0.51100000000E-03 0. -1.
    9900012    2    1    2    0    0 -0.35559185853E+01 -0.16721825343E+02  0.36890404502E+02  0.50528856574E+02  0.29999990042E+02 0.  0.
         12    1    1    2    0    0  0.35559185853E+01  0.16721825343E+02 -0.36890404502E+02  0.40659143426E+02  0.00000000000E+00 0. -1.
         11    1    3    3    0    0  0.91868382069E+01 -0.23687353422E+01  0.17996848183E+01  0.96564884439E+01  0.51100000000E-03 0. -1.
        -11    1    3    3    0    0 -0.70023507893E+01 -0.12109766027E+02  0.18640621908E+02  0.23305624539E+02  0.51100000000E-03 0.  1.
         12    1    3    3    0    0 -0.57404060028E+01 -0.22433239742E+01  0.16450097776E+02  0.17566743591E+02  0.00000000000E+00 0. -1.
</event>
<event>
 7    1  0.6046695E-013  0.5052886E+02  0.7816164E-02  0.1300439E+00
        -11   -1    0    0    0    0  0.00000000000E+00  0.00000000000E+00  0.45593999997E+02  0.45594000000E+02  0.51100000000E-03 0. -1.
         11   -1    0    0    0    0 -0.00000000000E+00 -0.00000000000E+00 -0.45593999997E+02  0.45594000000E+02  0.51100000000E-03 0.  1.
    9900012    2    1    2    0    0  0.15480948515E+02 -0.37233955558E+02  0.52094898973E+01  0.50528855906E+02  0.29999988013E+02 0.  0.
         12    1    1    2    0    0 -0.15480948515E+02  0.37233955558E+02 -0.52094898973E+01  0.40659144094E+02  0.00000000000E+00 0. -1.
         11    1    3    3    0    0  0.13225882558E+02 -0.35949732552E+02  0.84856667028E+01  0.39234089509E+02  0.51100000000E-03 0. -1.
        -11    1    3    3    0    0  0.24276794360E+01 -0.44554550969E+01  0.17346402205E+01  0.53622462196E+01  0.51100000000E-03 0.  1.
         12    1    3    3    0    0 -0.17261347859E+00  0.31712320907E+01 -0.50108170259E+01  0.59325201773E+01  0.00000000000E+00 0. -1.
</event>
<event>
 7    1  0.6046695E-013  0.5052888E+02  0.7816164E-02  0.1300439E+00
        -11   -1    0    0    0    0  0.00000000000E+00  0.00000000000E+00  0.45593999997E+02  0.45594000000E+02  0.51100000000E-03 0. -1.
         11   -1    0    0    0    0 -0.00000000000E+00 -0.00000000000E+00 -0.45593999997E+02  0.45594000000E+02  0.51100000000E-03 0.  1.
    9900012    2    1    2    0    0 -0.47105364436E+01  0.40291547574E+02  0.27506758672E+01  0.50528878303E+02  0.30000056089E+02 0.  0.
         12    1    1    2    0    0  0.47105364436E+01 -0.40291547574E+02 -0.27506758672E+01  0.40659121697E+02  0.00000000000E+00 0. -1.
         11    1    3    3    0    0 -0.48011764693E+01  0.29132256563E+02  0.57610850075E+01  0.30082050606E+02  0.51100000000E-03 0. -1.
        -11    1    3    3    0    0  0.83885126584E+01  0.43340706646E+01 -0.78515247293E+00  0.94745858913E+01  0.51100000000E-03 0.  1.
         12    1    3    3    0    0 -0.82978726326E+01  0.68252203463E+01 -0.22252566673E+01  0.10972241805E+02  0.00000000000E+00 0. -1.
</event>
<event>
 7    1  0.6046695E-013  0.5052877E+02  0.7816164E-02  0.1300439E+00
        -11   -1    0    0    0    0  0.00000000000E+00  0.00000000000E+00  0.45593999997E+02  0.45594000000E+02  0.51100000000E-03 0. -1.
         11   -1    0    0    0    0 -0.00000000000E+00 -0.00000000000E+00 -0.45593999997E+02  0.45594000000E+02  0.51100000000E-03 0.  1.
    9900012    2    1    2    0    0  0.19623671824E+02  0.34745855945E+02 -0.77980768171E+01  0.50528769766E+02  0.29999726179E+02 0.  0.
         12    1    1    2    0    0 -0.19623671824E+02 -0.34745855945E+02  0.77980768171E+01  0.40659230234E+02  0.00000000000E+00 0. -1.
         11    1    3    3    0    0 -0.15211496112E+01  0.10199650720E+02  0.32011681334E+01  0.10797881673E+02  0.51100000000E-03 0. -1.
        -11    1    3    3    0    0  0.77008819519E+01  0.20981968831E+01 -0.10968285714E+02  0.13565002940E+02  0.51100000000E-03 0.  1.
        -12    1    3    3    0    0  0.13443939483E+02  0.22448008342E+02 -0.30959236651E-01  0.26165885152E+02  0.00000000000E+00 0.  1.
</event>
<event>
 7    1  0.6046695E-013  0.5052886E+02  0.7816164E-02  0.1300439E+00
        -11   -1    0    0    0    0  0.00000000000E+00  0.00000000000E+00  0.45593999997E+02  0.45594000000E+02  0.51100000000E-03 0.  1.
         11   -1    0    0    0    0 -0.00000000000E+00 -0.00000000000E+00 -0.45593999997E+02  0.45594000000E+02  0.51100000000E-03 0. -1.
    9900012    2    1    2    0    0  0.19678524739E+02  0.47066531516E+01  0.35267105374E+02  0.50528860299E+02  0.30000001364E+02 0.  0.
         12    1    1    2    0    0 -0.19678524739E+02 -0.47066531516E+01 -0.35267105374E+02  0.40659139701E+02  0.00000000000E+00 0. -1.
         11    1    3    3    0    0 -0.15635602329E+01 -0.59492234640E+01  0.24803690533E+01  0.66325116907E+01  0.51100000000E-03 0. -1.
        -11    1    3    3    0    0  0.23718549079E+02  0.69533367122E+01  0.27236376079E+02  0.36779595485E+02  0.51100000000E-03 0.  1.
         12    1    3    3    0    0 -0.24764641070E+01  0.37025399033E+01  0.55503602412E+01  0.71167531231E+01  0.00000000000E+00 0. -1.
</event>
<event>
 7    1  0.6046695E-013  0.5052877E+02  0.7816164E-02  0.1300439E+00
        -11   -1    0    0    0    0  0.00000000000E+00  0.00000000000E+00  0.45593999997E+02  0.45594000000E+02  0.51100000000E-03 0.  1.
         11   -1    0    0    0    0 -0.00000000000E+00 -0.00000000000E+00 -0.45593999997E+02  0.45594000000E+02  0.51100000000E-03 0. -1.
    9900012    2    1    2    0    0 -0.31982421072E+02 -0.10411669050E+02  0.22845014869E+02  0.50528772088E+02  0.29999733237E+02 0.  0.
         12    1    1    2    0    0  0.31982421072E+02  0.10411669050E+02 -0.22845014869E+02  0.40659227912E+02  0.00000000000E+00 0. -1.
         11    1    3    3    0    0  0.23239864883E+01 -0.22593878216E+00  0.94636293168E+00  0.25194373560E+01  0.51100000000E-03 0. -1.
        -11    1    3    3    0    0 -0.32703278953E+02 -0.24173691557E+01  0.22924802846E+02  0.40011182358E+02  0.51100000000E-03 0.  1.
        -12    1    3    3    0    0 -0.16031286070E+01 -0.77683611123E+01 -0.10261509082E+01  0.79981523734E+01  0.00000000000E+00 0.  1.
</event>
<event>
 7    1  0.6046695E-013  0.5052886E+02  0.7816164E-02  0.1300439E+00
        -11   -1    0    0    0    0  0.00000000000E+00  0.00000000000E+00  0.45593999997E+02  0.45594000000E+02  0.51100000000E-03 0.  1.
         11   -1    0    0    0    0 -0.00000000000E+00 -0.00000000000E+00 -0.45593999997E+02  0.45594000000E+02  0.51100000000E-03 0. -1.
    9900012    2    1    2    0    0 -0.40161962709E+02  0.61681083016E+01 -0.14618050335E+01  0.50528859790E+02  0.29999999818E+02 0.  0.
         12    1    1    2    0    0  0.40161962709E+02 -0.61681083016E+01  0.14618050335E+01  0.40659140210E+02  0.00000000000E+00 0. -1.
         11    1    3    3    0    0  0.26837113057E+01  0.21645463633E+01 -0.56678033399E+01  0.66341210640E+01  0.51100000000E-03 0. -1.
        -11    1    3    3    0    0 -0.26226341574E+02  0.61403965686E+01  0.27404299213E+01  0.27074626844E+02  0.51100000000E-03 0.  1.
         12    1    3    3    0    0 -0.16619332441E+02 -0.21368346303E+01  0.14655683850E+01  0.16820111882E+02  0.00000000000E+00 0. -1.
</event>
<event>
 7    1  0.6046695E-013  0.5052886E+02  0.7816164E-02  0.1300439E+00
        -11   -1    0    0    0    0  0.00000000000E+00  0.00000000000E+00  0.45593999997E+02  0.45594000000E+02  0.51100000000E-03 0. -1.
         11   -1    0    0    0    0 -0.00000000000E+00 -0.00000000000E+00 -0.45593999997E+02  0.45594000000E+02  0.51100000000E-03 0.  1.
    9900012    2    1    2    0    0  0.37526915192E+02  0.15614387898E+02 -0.10425848915E+01  0.50528862570E+02  0.30000008268E+02 0.  0.
         12    1    1    2    0    0 -0.37526915192E+02 -0.15614387898E+02  0.10425848915E+01  0.40659137430E+02  0.00000000000E+00 0. -1.
         11    1    3    3    0    0 -0.15759818341E+01 -0.22589778946E+01  0.31255576422E+01  0.41660305695E+01  0.51100000000E-03 0. -1.
        -11    1    3    3    0    0  0.21494677580E+02  0.12977946698E+02 -0.10222682123E+02  0.27109988838E+02  0.51100000000E-03 0.  1.
        -12    1    3    3    0    0  0.17608219446E+02  0.48954190949E+01  0.60545395891E+01  0.19252843162E+02  0.00000000000E+00 0.  1.
</event>
<event>
 7    1  0.6046695E-013  0.5052886E+02  0.7816164E-02  0.1300439E+00
        -11   -1    0    0    0    0  0.00000000000E+00  0.00000000000E+00  0.45593999997E+02  0.45594000000E+02  0.51100000000E-03 0.  1.
         11   -1    0    0    0    0 -0.00000000000E+00 -0.00000000000E+00 -0.45593999997E+02  0.45594000000E+02  0.51100000000E-03 0. -1.
    9900012    2    1    2    0    0 -0.34293882473E+02  0.13602184199E+02  0.17090231588E+02  0.50528858275E+02  0.29999995214E+02 0.  0.
         12    1    1    2    0    0  0.34293882473E+02 -0.13602184199E+02 -0.17090231588E+02  0.40659141725E+02  0.00000000000E+00 0. -1.
         11    1    3    3    0    0 -0.61838032167E+01  0.15446467923E+02  0.45037004874E+01  0.17237056357E+02  0.51100000000E-03 0. -1.
        -11    1    3    3    0    0 -0.25904769435E+02  0.24218326360E+01  0.10544621747E+02  0.28073321870E+02  0.51100000000E-03 0.  1.
        -12    1    3    3    0    0 -0.22053098215E+01 -0.42661163600E+01  0.20419093539E+01  0.52184800483E+01  0.00000000000E+00 0.  1.
</event>
<event>
 7    1  0.6046695E-013  0.5052886E+02  0.7816164E-02  0.1300439E+00
        -11   -1    0    0    0    0  0.00000000000E+00  0.00000000000E+00  0.45593999997E+02  0.45594000000E+02  0.51100000000E-03 0.  1.
         11   -1    0    0    0    0 -0.00000000000E+00 -0.00000000000E+00 -0.45593999997E+02  0.45594000000E+02  0.51100000000E-03 0. -1.
    9900012    2    1    2    0    0  0.27862816649E+02  0.22964821185E+02  0.18693480364E+02  0.50528858694E+02  0.29999996485E+02 0.  0.
         12    1    1    2    0    0 -0.27862816649E+02 -0.22964821185E+02 -0.18693480364E+02  0.40659141306E+02  0.00000000000E+00 0. -1.
         11    1    3    3    0    0  0.34556897488E+01 -0.44147855936E+01 -0.42749299235E+01  0.70503297504E+01  0.51100000000E-03 0. -1.
        -11    1    3    3    0    0  0.20660234775E+02  0.21071339686E+02  0.17304033811E+02  0.34209300541E+02  0.51100000000E-03 0.  1.
         12    1    3    3    0    0  0.37468921251E+01  0.63082670926E+01  0.56643764763E+01  0.92692284023E+01  0.00000000000E+00 0. -1.
</event>
<event>
 7    1  0.6046695E-013  0.5052885E+02  0.7816164E-02  0.1300439E+00
        -11   -1    0    0    0    0  0.00000000000E+00  0.00000000000E+00  0.45593999997E+02  0.45594000000E+02  0.51100000000E-03 0.  1.
         11   -1    0    0    0    0 -0.00000000000E+00 -0.00000000000E+00 -0.45593999997E+02  0.45594000000E+02  0.51100000000E-03 0. -1.
    9900012    2    1    2    0    0 -0.28990371378E+02  0.13587495854E+02  0.25062016766E+02  0.50528851452E+02  0.29999974475E+02 0.  0.
         12    1    1    2    0    0  0.28990371378E+02 -0.13587495854E+02 -0.25062016766E+02  0.40659148548E+02  0.00000000000E+00 0. -1.
         11    1    3    3    0    0 -0.17823873457E+01  0.90350486690E+00 -0.23009576350E+01  0.30475616473E+01  0.51100000000E-03 0. -1.
        -11    1    3    3    0    0 -0.21384234926E+02  0.16145848855E+02  0.29988390055E+02  0.40215388559E+02  0.51100000000E-03 0.  1.
        -12    1    3    3    0    0 -0.58237491066E+01 -0.34618578684E+01 -0.26254156540E+01  0.72659012458E+01  0.00000000000E+00 0.  1.
</event>
<event>
 7    1  0.6046695E-013  0.5052885E+02  0.7816164E-02  0.1300439E+00
        -11   -1    0    0    0    0  0.00000000000E+00  0.00000000000E+00  0.45593999997E+02  0.45594000000E+02  0.51100000000E-03 0.  1.
         11   -1    0    0    0    0 -0.00000000000E+00 -0.00000000000E+00 -0.45593999997E+02  0.45594000000E+02  0.51100000000E-03 0. -1.
    9900012    2    1    2    0    0 -0.29182563164E+01  0.39577951193E+02  0.88450995776E+01  0.50528853094E+02  0.29999979466E+02 0.  0.
         12    1    1    2    0    0  0.29182563164E+01 -0.39577951193E+02 -0.88450995776E+01  0.40659146906E+02  0.00000000000E+00 0. -1.
         11    1    3    3    0    0  0.38588096063E+01  0.19375291071E+02  0.17859011335E+01  0.19836374638E+02  0.51100000000E-03 0. -1.
        -11    1    3    3    0    0 -0.86763801388E+01  0.19771596804E+02  0.12475540679E+02  0.24936614204E+02  0.51100000000E-03 0.  1.
        -12    1    3    3    0    0  0.18993142160E+01  0.43106331802E+00 -0.54163422353E+01  0.57558642518E+01  0.00000000000E+00 0.  1.
</event>
<event>
 7    1  0.6046695E-013  0.5052886E+02  0.7816164E-02  0.1300439E+00
        -11   -1    0    0    0    0  0.00000000000E+00  0.00000000000E+00  0.45593999997E+02  0.45594000000E+02  0.51100000000E-03 0.  1.
         11   -1    0    0    0    0 -0.00000000000E+00 -0.00000000000E+00 -0.45593999997E+02  0.45594000000E+02  0.51100000000E-03 0. -1.
    9900012    2    1    2    0    0 -0.25825251314E+02 -0.97187524559E+01  0.29862487830E+02  0.50528856697E+02  0.29999990416E+02 0.  0.
         12    1    1    2    0    0  0.25825251314E+02  0.97187524559E+01 -0.29862487830E+02  0.40659143303E+02  0.00000000000E+00 0. -1.
         11    1    3    3    0    0 -0.17114427527E+02 -0.40970253400E+01  0.14596775274E+01  0.17658423059E+02  0.51100000000E-03 0. -1.
        -11    1    3    3    0    0 -0.93598919582E+01  0.13486759027E+01  0.17973740623E+02  0.20309649342E+02  0.51100000000E-03 0.  1.
        -12    1    3    3    0    0  0.64906817075E+00 -0.69704030186E+01  0.10429069680E+02  0.12560784296E+02  0.00000000000E+00 0.  1.
</event>
<event>
 7    1  0.6046695E-013  0.5052887E+02  0.7816164E-02  0.1300439E+00
        -11   -1    0    0    0    0  0.00000000000E+00  0.00000000000E+00  0.45593999997E+02  0.45594000000E+02  0.51100000000E-03 0. -1.
         11   -1    0    0    0    0 -0.00000000000E+00 -0.00000000000E+00 -0.45593999997E+02  0.45594000000E+02  0.51100000000E-03 0.  1.
    9900012    2    1    2    0    0 -0.30564301533E+02  0.25348429260E+02 -0.87432874297E+01  0.50528874712E+02  0.30000045174E+02 0.  0.
         12    1    1    2    0    0  0.30564301533E+02 -0.25348429260E+02  0.87432874297E+01  0.40659125288E+02  0.00000000000E+00 0. -1.
         11    1    3    3    0    0 -0.76935463533E+00 -0.40434833731E+01  0.47948884970E+01  0.63192262425E+01  0.51100000000E-03 0. -1.
        -11    1    3    3    0    0 -0.69511205899E+01  0.78761385864E+01 -0.15588500597E+01  0.10619870539E+02  0.51100000000E-03 0.  1.
         12    1    3    3    0    0 -0.22843826308E+02  0.21515774046E+02 -0.11979325867E+02  0.33589777931E+02  0.00000000000E+00 0. -1.
</event>
<event>
 7    1  0.6046695E-013  0.5052886E+02  0.7816164E-02  0.1300439E+00
        -11   -1    0    0    0    0  0.00000000000E+00  0.00000000000E+00  0.45593999997E+02  0.45594000000E+02  0.51100000000E-03 0.  1.
         11   -1    0    0    0    0 -0.00000000000E+00 -0.00000000000E+00 -0.45593999997E+02  0.45594000000E+02  0.51100000000E-03 0. -1.
    9900012    2    1    2    0    0  0.27411541026E+02 -0.27101128912E+02  0.12934530787E+02  0.50528857653E+02  0.29999993322E+02 0.  0.
         12    1    1    2    0    0 -0.27411541026E+02  0.27101128912E+02 -0.12934530787E+02  0.40659142347E+02  0.00000000000E+00 0. -1.
         11    1    3    3    0    0  0.20450788304E+01  0.20989986229E+01 -0.34087340611E+01  0.44952876217E+01  0.51100000000E-03 0. -1.
        -11    1    3    3    0    0  0.27822013177E+02 -0.22494999507E+02  0.12335547242E+02  0.37845146929E+02  0.51100000000E-03 0.  1.
        -12    1    3    3    0    0 -0.24555509816E+01 -0.67051280282E+01  0.40077176054E+01  0.81884231024E+01  0.00000000000E+00 0.  1.
</event>
<event>
 7    1  0.6046695E-013  0.5052886E+02  0.7816164E-02  0.1300439E+00
        -11   -1    0    0    0    0  0.00000000000E+00  0.00000000000E+00  0.45593999997E+02  0.45594000000E+02  0.51100000000E-03 0. -1.
         11   -1    0    0    0    0 -0.00000000000E+00 -0.00000000000E+00 -0.45593999997E+02  0.45594000000E+02  0.51100000000E-03 0.  1.
    9900012    2    1    2    0    0 -0.10002084487E+02 -0.31920812722E+02 -0.23112452178E+02  0.50528862963E+02  0.30000009462E+02 0.  0.
         12    1    1    2    0    0  0.10002084487E+02  0.31920812722E+02  0.23112452178E+02  0.40659137037E+02  0.00000000000E+00 0. -1.
         11    1    3    3    0    0  0.21227477733E+01  0.57043926846E+00 -0.56061092136E+01  0.60216210312E+01  0.51100000000E-03 0. -1.
        -11    1    3    3    0    0 -0.12758706677E+02 -0.24568894308E+02 -0.22014299240E+02  0.35370107928E+02  0.51100000000E-03 0.  1.
        -12    1    3    3    0    0  0.63387441621E+00 -0.79223576822E+01  0.45079562748E+01  0.91371340034E+01  0.00000000000E+00 0.  1.
</event>
<event>
 7    1  0.6046695E-013  0.5052887E+02  0.7816164E-02  0.1300439E+00
        -11   -1    0    0    0    0  0.00000000000E+00  0.00000000000E+00  0.45593999997E+02  0.45594000000E+02  0.51100000000E-03 0.  1.
         11   -1    0    0    0    0 -0.00000000000E+00 -0.00000000000E+00 -0.45593999997E+02  0.45594000000E+02  0.51100000000E-03 0. -1.
    9900012    2    1    2    0    0 -0.32004750741E+02 -0.22845144785E+02  0.10342156531E+02  0.50528869267E+02  0.30000028624E+02 0.  0.
         12    1    1    2    0    0  0.32004750741E+02  0.22845144785E+02 -0.10342156531E+02  0.40659130733E+02  0.00000000000E+00 0. -1.
         11    1    3    3    0    0 -0.27347466776E+01 -0.16437568156E+02  0.80381168976E+01  0.18500913756E+02  0.51100000000E-03 0. -1.
        -11    1    3    3    0    0 -0.12991991685E+02  0.26460711320E+01 -0.72513091851E-02  0.13258717631E+02  0.51100000000E-03 0.  1.
         12    1    3    3    0    0 -0.16278012379E+02 -0.90536477608E+01  0.23112909424E+01  0.18769237880E+02  0.00000000000E+00 0. -1.
</event>
<event>
 7    1  0.6046695E-013  0.5052886E+02  0.7816164E-02  0.1300439E+00
        -11   -1    0    0    0    0  0.00000000000E+00  0.00000000000E+00  0.45593999997E+02  0.45594000000E+02  0.51100000000E-03 0. -1.
         11   -1    0    0    0    0 -0.00000000000E+00 -0.00000000000E+00 -0.45593999997E+02  0.45594000000E+02  0.51100000000E-03 0.  1.
    9900012    2    1    2    0    0  0.20229004814E+02  0.11707135159E+02 -0.33270041565E+02  0.50528864309E+02  0.30000013555E+02 0.  0.
         12    1    1    2    0    0 -0.20229004814E+02 -0.11707135159E+02  0.33270041565E+02  0.40659135691E+02  0.00000000000E+00 0. -1.
         11    1    3    3    0    0 -0.40908345585E-01  0.15604931086E+02 -0.12768414994E+02  0.20163034728E+02  0.51100000000E-03 0. -1.
        -11    1    3    3    0    0  0.65752444958E+01 -0.32882347306E+01 -0.25555028708E+01  0.77831178205E+01  0.51100000000E-03 0.  1.
         12    1    3    3    0    0  0.13694668663E+02 -0.60956119657E+00 -0.17946123700E+02  0.22582711761E+02  0.00000000000E+00 0. -1.
</event>
<event>
 7    1  0.6046695E-013  0.5052886E+02  0.7816164E-02  0.1300439E+00
        -11   -1    0    0    0    0  0.00000000000E+00  0.00000000000E+00  0.45593999997E+02  0.45594000000E+02  0.51100000000E-03 0. -1.
         11   -1    0    0    0    0 -0.00000000000E+00 -0.00000000000E+00 -0.45593999997E+02  0.45594000000E+02  0.51100000000E-03 0.  1.
    9900012    2    1    2    0    0 -0.22580518013E+02  0.33811119121E+02 -0.30704457176E+00  0.50528857777E+02  0.29999993700E+02 0.  0.
         12    1    1    2    0    0  0.22580518013E+02 -0.33811119121E+02  0.30704457176E+00  0.40659142223E+02  0.00000000000E+00 0. -1.
         11    1    3    3    0    0 -0.28934466173E+01  0.22949248096E+02 -0.48881316829E+01  0.23641781936E+02  0.51100000000E-03 0. -1.
        -11    1    3    3    0    0 -0.58574157737E+01  0.72905133878E+01  0.78782014473E+01  0.12228121823E+02  0.51100000000E-03 0.  1.
         12    1    3    3    0    0 -0.13829655622E+02  0.35713576373E+01 -0.32971143362E+01  0.14658954019E+02  0.00000000000E+00 0. -1.
</event>
<event>
 7    1  0.6046695E-013  0.5052886E+02  0.7816164E-02  0.1300439E+00
        -11   -1    0    0    0    0  0.00000000000E+00  0.00000000000E+00  0.45593999997E+02  0.45594000000E+02  0.51100000000E-03 0.  1.
         11   -1    0    0    0    0 -0.00000000000E+00 -0.00000000000E+00 -0.45593999997E+02  0.45594000000E+02  0.51100000000E-03 0. -1.
    9900012    2    1    2    0    0  0.18084457539E+02 -0.27746607072E+02  0.23584827962E+02  0.50528856889E+02  0.29999991001E+02 0.  0.
         12    1    1    2    0    0 -0.18084457539E+02  0.27746607072E+02 -0.23584827962E+02  0.40659143111E+02  0.00000000000E+00 0. -1.
         11    1    3    3    0    0  0.23216958252E+01  0.18805231028E+01 -0.24280699068E+01  0.38499561528E+01  0.51100000000E-03 0. -1.
        -11    1    3    3    0    0  0.68984214353E+01 -0.90002315914E+01  0.20708160500E+02  0.23609750074E+02  0.51100000000E-03 0.  1.
        -12    1    3    3    0    0  0.88643402782E+01 -0.20626898584E+02  0.53047373686E+01  0.23069150663E+02  0.00000000000E+00 0.  1.
</event>
<event>
 7    1  0.6046695E-013  0.5052884E+02  0.7816164E-02  0.1300439E+00
        -11   -1    0    0    0    0  0.00000000000E+00  0.00000000000E+00  0.45593999997E+02  0.45594000000E+02  0.51100000000E-03 0.  1.
         11   -1    0    0    0    0 -0.00000000000E+00 -0.00000000000E+00 -0.45593999997E+02  0.45594000000E+02  0.51100000000E-03 0. -1.
    9900012    2    1    2    0    0 -0.19928146949E+02 -0.17182407170E+01  0.35398923411E+02  0.50528841491E+02  0.29999944196E+02 0.  0.
         12    1    1    2    0    0  0.19928146949E+02  0.17182407170E+01 -0.35398923411E+02  0.40659158509E+02  0.00000000000E+00 0. -1.
         11    1    3    3    0    0 -0.12699851219E+02  0.73578537722E+01  0.43892132013E+01  0.15319576558E+02  0.51100000000E-03 0. -1.
        -11    1    3    3    0    0 -0.82190390441E+01 -0.97273052627E+01  0.31461024112E+02  0.33940670426E+02  0.51100000000E-03 0.  1.
        -12    1    3    3    0    0  0.99074331413E+00  0.65121077359E+00 -0.45131390250E+00  0.12685945076E+01  0.00000000000E+00 0.  1.
</event>
<event>
 7    1  0.6046695E-013  0.5052886E+02  0.7816164E-02  0.1300439E+00
        -11   -1    0    0    0    0  0.00000000000E+00  0.00000000000E+00  0.45593999997E+02  0.45594000000E+02  0.51100000000E-03 0. -1.
         11   -1    0    0    0    0 -0.00000000000E+00 -0.00000000000E+00 -0.45593999997E+02  0.45594000000E+02  0.51100000000E-03 0.  1.
    9900012    2    1    2    0    0  0.82045475549E+00 -0.16680599896E+02  0.37070882785E+02  0.50528857002E+02  0.29999991343E+02 0.  0.
         12    1    1    2    0    0 -0.82045475549E+00  0.16680599896E+02 -0.37070882785E+02  0.40659142998E+02  0.00000000000E+00 0. -1.
         11    1    3    3    0    0 -0.60030336549E+01 -0.79880138497E+01  0.14260368095E+02  0.17412721694E+02  0.51100000000E-03 0. -1.
        -11    1    3    3    0    0  0.84357359484E+01  0.34931523033E+01  0.17474359622E+02  0.19715907244E+02  0.51100000000E-03 0.  1.
        -12    1    3    3    0    0 -0.16122475381E+01 -0.12185738350E+02  0.53361550680E+01  0.13400228064E+02  0.00000000000E+00 0.  1.
</event>
<event>
 7    1  0.6046695E-013  0.5052886E+02  0.7816164E-02  0.1300439E+00
        -11   -1    0    0    0    0  0.00000000000E+00  0.00000000000E+00  0.45593999997E+02  0.45594000000E+02  0.51100000000E-03 0.  1.
         11   -1    0    0    0    0 -0.00000000000E+00 -0.00000000000E+00 -0.45593999997E+02  0.45594000000E+02  0.51100000000E-03 0. -1.
    9900012    2    1    2    0    0  0.24011755857E+02  0.10757830967E+02  0.30997904420E+02  0.50528862959E+02  0.30000009451E+02 0.  0.
         12    1    1    2    0    0 -0.24011755857E+02 -0.10757830967E+02 -0.30997904420E+02  0.40659137041E+02  0.00000000000E+00 0. -1.
         11    1    3    3    0    0  0.11833997744E+02 -0.66526673318E+01  0.54136198533E+01  0.14615360598E+02  0.51100000000E-03 0. -1.
        -11    1    3    3    0    0  0.13105790468E+02  0.14814719296E+02  0.14589150547E+02  0.24578058620E+02  0.51100000000E-03 0.  1.
         12    1    3    3    0    0 -0.92803235522E+00  0.25957790033E+01  0.10995134020E+02  0.11335443741E+02  0.00000000000E+00 0. -1.
</event>
<event>
 7    1  0.6046695E-013  0.5052886E+02  0.7816164E-02  0.1300439E+00
        -11   -1    0    0    0    0  0.00000000000E+00  0.00000000000E+00  0.45593999997E+02  0.45594000000E+02  0.51100000000E-03 0. -1.
         11   -1    0    0    0    0 -0.00000000000E+00 -0.00000000000E+00 -0.45593999997E+02  0.45594000000E+02  0.51100000000E-03 0.  1.
    9900012    2    1    2    0    0  0.20008155407E+02 -0.21132265575E+01 -0.35332332146E+02  0.50528859525E+02  0.29999999011E+02 0.  0.
         12    1    1    2    0    0 -0.20008155407E+02  0.21132265575E+01  0.35332332146E+02  0.40659140475E+02  0.00000000000E+00 0. -1.
         11    1    3    3    0    0 -0.43576622432E+01 -0.21483975952E+01 -0.15918589040E+02  0.16643506534E+02  0.51100000000E-03 0. -1.
        -11    1    3    3    0    0  0.25912332518E+02  0.83593204726E+00 -0.17402545398E+02  0.31224931473E+02  0.51100000000E-03 0.  1.
        -12    1    3    3    0    0 -0.15465148674E+01 -0.80076100961E+00 -0.20111977083E+01  0.26604215176E+01  0.00000000000E+00 0.  1.
</event>
<event>
 7    1  0.6046695E-013  0.5052886E+02  0.7816164E-02  0.1300439E+00
        -11   -1    0    0    0    0  0.00000000000E+00  0.00000000000E+00  0.45593999997E+02  0.45594000000E+02  0.51100000000E-03 0. -1.
         11   -1    0    0    0    0 -0.00000000000E+00 -0.00000000000E+00 -0.45593999997E+02  0.45594000000E+02  0.51100000000E-03 0.  1.
    9900012    2    1    2    0    0  0.15372212427E+02 -0.22785153855E+02 -0.29961597507E+02  0.50528862328E+02  0.30000007531E+02 0.  0.
         12    1    1    2    0    0 -0.15372212427E+02  0.22785153855E+02  0.29961597507E+02  0.40659137672E+02  0.00000000000E+00 0. -1.
         11    1    3    3    0    0 -0.70382267014E+01 -0.12468179869E+02 -0.10541601913E+02  0.17779693909E+02  0.51100000000E-03 0. -1.
        -11    1    3    3    0    0  0.16254237415E+02 -0.90830672521E+01 -0.92347596567E+01  0.20784203877E+02  0.51100000000E-03 0.  1.
         12    1    3    3    0    0  0.61562017144E+01 -0.12339067340E+01 -0.10185235938E+02  0.11964964542E+02  0.00000000000E+00 0. -1.
</event>
<event>
 7    1  0.6046695E-013  0.5052888E+02  0.7816164E-02  0.1300439E+00
        -11   -1    0    0    0    0  0.00000000000E+00  0.00000000000E+00  0.45593999997E+02  0.45594000000E+02  0.51100000000E-03 0.  1.
         11   -1    0    0    0    0 -0.00000000000E+00 -0.00000000000E+00 -0.45593999997E+02  0.45594000000E+02  0.51100000000E-03 0. -1.
    9900012    2    1    2    0    0 -0.37183581348E+02  0.96472597531E+01  0.13322010550E+02  0.50528876698E+02  0.30000051210E+02 0.  0.
         12    1    1    2    0    0  0.37183581348E+02 -0.96472597531E+01 -0.13322010550E+02  0.40659123302E+02  0.00000000000E+00 0. -1.
         11    1    3    3    0    0  0.21572821536E+01 -0.46154978713E+00 -0.37097529573E+01  0.43161512672E+01  0.51100000000E-03 0. -1.
        -11    1    3    3    0    0 -0.14451354406E+02  0.87812957566E+01  0.18084288745E+01  0.17006563868E+02  0.51100000000E-03 0.  1.
         12    1    3    3    0    0 -0.24889509096E+02  0.13275137837E+01  0.15223334633E+02  0.29206161563E+02  0.00000000000E+00 0. -1.
</event>
<event>
 7    1  0.6046695E-013  0.5052886E+02  0.7816164E-02  0.1300439E+00
        -11   -1    0    0    0    0  0.00000000000E+00  0.00000000000E+00  0.45593999997E+02  0.45594000000E+02  0.51100000000E-03 0.  1.
         11   -1    0    0    0    0 -0.00000000000E+00 -0.00000000000E+00 -0.45593999997E+02  0.45594000000E+02  0.51100000000E-03 0. -1.
    9900012    2    1    2    0    0  0.18565682462E+02  0.40121845430E+01  0.35949733289E+02  0.50528861868E+02  0.30000006134E+02 0.  0.
         12    1    1    2    0    0 -0.18565682462E+02 -0.40121845430E+01 -0.35949733289E+02  0.40659138132E+02  0.00000000000E+00 0. -1.
         11    1    3    3    0    0 -0.48800767506E+01  0.35185638736E+01 -0.14770843997E+01  0.61949349802E+01  0.51100000000E-03 0. -1.
        -11    1    3    3    0    0  0.18422583060E+02  0.30260181322E+00  0.32083274738E+02  0.36997562793E+02  0.51100000000E-03 0.  1.
         12    1    3    3    0    0  0.50231761522E+01  0.19101885616E+00  0.53435429510E+01  0.73363640946E+01  0.00000000000E+00 0. -1.
</event>
<event>
 7    1  0.6046695E-013  0.5052886E+02  0.7816164E-02  0.1300439E+00
        -11   -1    0    0    0    0  0.00000000000E+00  0.00000000000E+00  0.45593999997E+02  0.45594000000E+02  0.51100000000E-03 0.  1.
         11   -1    0    0    0    0 -0.00000000000E+00 -0.00000000000E+00 -0.45593999997E+02  0.45594000000E+02  0.51100000000E-03 0. -1.
    9900012    2    1    2    0    0 -0.38151756236E+01 -0.26583734953E+02 -0.30527284053E+02  0.50528860797E+02  0.30000002878E+02 0.  0.
         12    1    1    2    0    0  0.38151756236E+01  0.26583734953E+02  0.30527284053E+02  0.40659139203E+02  0.00000000000E+00 0. -1.
         11    1    3    3    0    0 -0.35632620328E+01  0.91219888826E+00 -0.97182124483E+01  0.10390986314E+02  0.51100000000E-03 0. -1.
        -11    1    3    3    0    0 -0.10917220889E+01 -0.14121990910E+02  0.13644722359E+01  0.14229696734E+02  0.51100000000E-03 0.  1.
        -12    1    3    3    0    0  0.83980849821E+00 -0.13373942931E+02 -0.22173543841E+02  0.25908177749E+02  0.00000000000E+00 0.  1.
</event>
<event>
 7    1  0.6046695E-013  0.5052885E+02  0.7816164E-02  0.1300439E+00
        -11   -1    0    0    0    0  0.00000000000E+00  0.00000000000E+00  0.45593999997E+02  0.45594000000E+02  0.51100000000E-03 0. -1.
         11   -1    0    0    0    0 -0.00000000000E+00 -0.00000000000E+00 -0.45593999997E+02  0.45594000000E+02  0.51100000000E-03 0.  1.
    9900012    2    1    2    0    0 -0.40475915145E+02  0.38156027014E+01 -0.55489636544E+00  0.50528850466E+02  0.29999971478E+02 0.  0.
         12    1    1    2    0    0  0.40475915145E+02 -0.38156027014E+01  0.55489636544E+00  0.40659149534E+02  0.00000000000E+00 0. -1.
         11    1    3    3    0    0 -0.14644783819E+02  0.10618059492E+02  0.84940256057E+01  0.19984027415E+02  0.51100000000E-03 0. -1.
        -11    1    3    3    0    0 -0.23350382557E+02 -0.78602828709E+01 -0.11229861027E+02  0.27076450863E+02  0.51100000000E-03 0.  1.
        -12    1    3    3    0    0 -0.24807487691E+01  0.10578260803E+01  0.21809390559E+01  0.34683721884E+01  0.00000000000E+00 0.  1.
</event>
<event>
 7    1  0.6046695E-013  0.5052886E+02  0.7816164E-02  0.1300439E+00
        -11   -1    0    0    0    0  0.00000000000E+00  0.00000000000E+00  0.45593999997E+02  0.45594000000E+02  0.51100000000E-03 0.  1.
         11   -1    0    0    0    0 -0.00000000000E+00 -0.00000000000E+00 -0.45593999997E+02  0.45594000000E+02  0.51100000000E-03 0. -1.
    9900012    2    1    2    0    0 -0.34245446066E+02 -0.11444079080E+02 -0.18693533001E+02  0.50528859597E+02  0.29999999232E+02 0.  0.
         12    1    1    2    0    0  0.34245446066E+02  0.11444079080E+02  0.18693533001E+02  0.40659140403E+02  0.00000000000E+00 0. -1.
         11    1    3    3    0    0 -0.11061568066E+02 -0.43243261812E+01 -0.11306621765E+02  0.16398102969E+02  0.51100000000E-03 0.  1.
        -11    1    3    3    0    0 -0.25354066495E+01  0.59147368535E+01  0.35784927966E+01  0.73632879803E+01  0.51100000000E-03 0. -1.
        -12    1    3    3    0    0 -0.20648471350E+02 -0.13034489753E+02 -0.10965404033E+02  0.26767468647E+02  0.00000000000E+00 0.  1.
</event>
<event>
 7    1  0.6046695E-013  0.5052885E+02  0.7816164E-02  0.1300439E+00
        -11   -1    0    0    0    0  0.00000000000E+00  0.00000000000E+00  0.45593999997E+02  0.45594000000E+02  0.51100000000E-03 0. -1.
         11   -1    0    0    0    0 -0.00000000000E+00 -0.00000000000E+00 -0.45593999997E+02  0.45594000000E+02  0.51100000000E-03 0.  1.
    9900012    2    1    2    0    0 -0.37001971066E+02 -0.72437504353E+01 -0.15216719553E+02  0.50528851742E+02  0.29999975354E+02 0.  0.
         12    1    1    2    0    0  0.37001971066E+02  0.72437504353E+01  0.15216719553E+02  0.40659148258E+02  0.00000000000E+00 0. -1.
         11    1    3    3    0    0 -0.72526307018E+01 -0.92050605219E+01  0.41529276500E+01  0.12433044665E+02  0.51100000000E-03 0. -1.
        -11    1    3    3    0    0 -0.21924738145E+02 -0.27164480473E+01 -0.18718929044E+02  0.28956373004E+02  0.51100000000E-03 0.  1.
         12    1    3    3    0    0 -0.78246022193E+01  0.46777581339E+01 -0.65071815897E+00  0.91394340729E+01  0.00000000000E+00 0. -1.
</event>
<event>
 7    1  0.6046695E-013  0.5052886E+02  0.7816164E-02  0.1300439E+00
        -11   -1    0    0    0    0  0.00000000000E+00  0.00000000000E+00  0.45593999997E+02  0.45594000000E+02  0.51100000000E-03 0. -1.
         11   -1    0    0    0    0 -0.00000000000E+00 -0.00000000000E+00 -0.45593999997E+02  0.45594000000E+02  0.51100000000E-03 0.  1.
    9900012    2    1    2    0    0  0.31165509119E+02 -0.30641875147E+01  0.25932363457E+02  0.50528859844E+02  0.29999999981E+02 0.  0.
         12    1    1    2    0    0 -0.31165509119E+02  0.30641875147E+01 -0.25932363457E+02  0.40659140156E+02  0.00000000000E+00 0. -1.
         11    1    3    3    0    0 -0.44501423074E-01 -0.30890734051E+01  0.11239265973E+02  0.11656133782E+02  0.51100000000E-03 0. -1.
        -11    1    3    3    0    0  0.28057259286E+02  0.22148624587E+01  0.18327945702E+02  0.33586143099E+02  0.51100000000E-03 0.  1.
        -12    1    3    3    0    0  0.31527512561E+01 -0.21899765683E+01 -0.36348482178E+01  0.52865829625E+01  0.00000000000E+00 0.  1.
</event>
<event>
 7    1  0.6046695E-013  0.5052889E+02  0.7816164E-02  0.1300439E+00
        -11   -1    0    0    0    0  0.00000000000E+00  0.00000000000E+00  0.45593999997E+02  0.45594000000E+02  0.51100000000E-03 0.  1.
         11   -1    0    0    0    0 -0.00000000000E+00 -0.00000000000E+00 -0.45593999997E+02  0.45594000000E+02  0.51100000000E-03 0. -1.
    9900012    2    1    2    0    0  0.20655595883E+02 -0.27096390765E+02  0.22187733723E+02  0.50528885874E+02  0.30000079101E+02 0.  0.
         12    1    1    2    0    0 -0.20655595883E+02  0.27096390765E+02 -0.22187733723E+02  0.40659114126E+02  0.00000000000E+00 0. -1.
         11    1    3    3    0    0 -0.67023016669E+00 -0.22353160298E+01  0.12070794140E+02  0.12294304277E+02  0.51100000000E-03 0. -1.
        -11    1    3    3    0    0  0.22979669749E+02 -0.20256153897E+02  0.47962419144E+01  0.31006143411E+02  0.51100000000E-03 0.  1.
        -12    1    3    3    0    0 -0.16538436998E+01 -0.46049208387E+01  0.53206976691E+01  0.72284381854E+01  0.00000000000E+00 0.  1.
</event>
<event>
 7    1  0.6046695E-013  0.5052886E+02  0.7816164E-02  0.1300439E+00
        -11   -1    0    0    0    0  0.00000000000E+00  0.00000000000E+00  0.45593999997E+02  0.45594000000E+02  0.51100000000E-03 0.  1.
         11   -1    0    0    0    0 -0.00000000000E+00 -0.00000000000E+00 -0.45593999997E+02  0.45594000000E+02  0.51100000000E-03 0. -1.
    9900012    2    1    2    0    0 -0.16033521697E+02 -0.37289280479E+02  0.23667191052E+01  0.50528860610E+02  0.30000002309E+02 0.  0.
         12    1    1    2    0    0  0.16033521697E+02  0.37289280479E+02 -0.23667191052E+01  0.40659139390E+02  0.00000000000E+00 0. -1.
         11    1    3    3    0    0 -0.58562649530E+00 -0.20599582883E+02 -0.45099984257E+01  0.21095636028E+02  0.51100000000E-03 0. -1.
        -11    1    3    3    0    0 -0.15396993629E+02 -0.49008538198E+01  0.70831316782E+01  0.17642463989E+02  0.51100000000E-03 0.  1.
        -12    1    3    3    0    0 -0.50901572320E-01 -0.11788843776E+02 -0.20641414726E+00  0.11790760592E+02  0.00000000000E+00 0.  1.
</event>
<event>
 7    1  0.6046695E-013  0.5052886E+02  0.7816164E-02  0.1300439E+00
        -11   -1    0    0    0    0  0.00000000000E+00  0.00000000000E+00  0.45593999997E+02  0.45594000000E+02  0.51100000000E-03 0.  1.
         11   -1    0    0    0    0 -0.00000000000E+00 -0.00000000000E+00 -0.45593999997E+02  0.45594000000E+02  0.51100000000E-03 0. -1.
    9900012    2    1    2    0    0  0.29807735626E+02  0.38538156124E+01  0.27382704519E+02  0.50528861978E+02  0.30000006468E+02 0.  0.
         12    1    1    2    0    0 -0.29807735626E+02 -0.38538156124E+01 -0.27382704519E+02  0.40659138022E+02  0.00000000000E+00 0. -1.
         11    1    3    3    0    0  0.11996122389E+02  0.70099596399E+01 -0.10914060961E+01  0.13936916949E+02  0.51100000000E-03 0. -1.
        -11    1    3    3    0    0  0.75020496906E+01  0.49215783824E-01  0.23567783154E+02  0.24733046210E+02  0.51100000000E-03 0.  1.
        -12    1    3    3    0    0  0.10309563546E+02 -0.32053598113E+01  0.49063274611E+01  0.11858898818E+02  0.00000000000E+00 0.  1.
</event>
<event>
 7    1  0.6046695E-013  0.5052884E+02  0.7816164E-02  0.1300439E+00
        -11   -1    0    0    0    0  0.00000000000E+00  0.00000000000E+00  0.45593999997E+02  0.45594000000E+02  0.51100000000E-03 0. -1.
         11   -1    0    0    0    0 -0.00000000000E+00 -0.00000000000E+00 -0.45593999997E+02  0.45594000000E+02  0.51100000000E-03 0.  1.
    9900012    2    1    2    0    0  0.17092343190E+02  0.28192823264E+02 -0.23794620766E+02  0.50528837973E+02  0.29999933503E+02 0.  0.
         12    1    1    2    0    0 -0.17092343190E+02 -0.28192823264E+02  0.23794620766E+02  0.40659162027E+02  0.00000000000E+00 0. -1.
         11    1    3    3    0    0  0.48362680249E+01 -0.44286885682E+01 -0.88810085829E+01  0.11039704912E+02  0.51100000000E-03 0. -1.
        -11    1    3    3    0    0  0.36618525497E+01  0.13849164673E+02 -0.11902387526E+02  0.18624590070E+02  0.51100000000E-03 0.  1.
         12    1    3    3    0    0  0.85942226156E+01  0.18772347160E+02 -0.30112246579E+01  0.20864542990E+02  0.00000000000E+00 0. -1.
</event>
<event>
 7    1  0.6046695E-013  0.5052886E+02  0.7816164E-02  0.1300439E+00
        -11   -1    0    0    0    0  0.00000000000E+00  0.00000000000E+00  0.45593999997E+02  0.45594000000E+02  0.51100000000E-03 0.  1.
         11   -1    0    0    0    0 -0.00000000000E+00 -0.00000000000E+00 -0.45593999997E+02  0.45594000000E+02  0.51100000000E-03 0. -1.
    9900012    2    1    2    0    0 -0.33925770429E+02 -0.59486525577E+01  0.21606055960E+02  0.50528855634E+02  0.29999987184E+02 0.  0.
         12    1    1    2    0    0  0.33925770429E+02  0.59486525577E+01 -0.21606055960E+02  0.40659144366E+02  0.00000000000E+00 0. -1.
         11    1    3    3    0    0 -0.59264395028E+01  0.23111482752E+01 -0.19036705009E+01  0.66398835206E+01  0.51100000000E-03 0. -1.
        -11    1    3    3    0    0 -0.11685083534E+02 -0.15930522769E+01  0.23468595042E+02  0.26265070840E+02  0.51100000000E-03 0.  1.
        -12    1    3    3    0    0 -0.16314247392E+02 -0.66667485560E+01  0.41131419203E-01  0.17623901273E+02  0.00000000000E+00 0.  1.
</event>
<event>
 7    1  0.6046695E-013  0.5052887E+02  0.7816164E-02  0.1300439E+00
        -11   -1    0    0    0    0  0.00000000000E+00  0.00000000000E+00  0.45593999997E+02  0.45594000000E+02  0.51100000000E-03 0.  1.
         11   -1    0    0    0    0 -0.00000000000E+00 -0.00000000000E+00 -0.45593999997E+02  0.45594000000E+02  0.51100000000E-03 0. -1.
    9900012    2    1    2    0    0  0.19343172108E+02 -0.29909234042E+02  0.19607257985E+02  0.50528866292E+02  0.30000019581E+02 0.  0.
         12    1    1    2    0    0 -0.19343172108E+02  0.29909234042E+02 -0.19607257985E+02  0.40659133708E+02  0.00000000000E+00 0. -1.
         11    1    3    3    0    0 -0.35533472282E+00 -0.21908773373E+02  0.38682985708E+01  0.22250490952E+02  0.51100000000E-03 0. -1.
        -11    1    3    3    0    0  0.48131306748E+01 -0.68278425257E+01  0.74895848059E+01  0.11219605219E+02  0.51100000000E-03 0.  1.
         12    1    3    3    0    0  0.14885376156E+02 -0.11726181428E+01  0.82493746085E+01  0.17058770121E+02  0.00000000000E+00 0. -1.
</event>
<event>
 7    1  0.6046695E-013  0.5052886E+02  0.7816164E-02  0.1300439E+00
        -11   -1    0    0    0    0  0.00000000000E+00  0.00000000000E+00  0.45593999997E+02  0.45594000000E+02  0.51100000000E-03 0. -1.
         11   -1    0    0    0    0 -0.00000000000E+00 -0.00000000000E+00 -0.45593999997E+02  0.45594000000E+02  0.51100000000E-03 0.  1.
    9900012    2    1    2    0    0  0.14660017343E+02 -0.32403663075E+02 -0.19704118656E+02  0.50528858578E+02  0.29999996133E+02 0.  0.
         12    1    1    2    0    0 -0.14660017343E+02  0.32403663075E+02  0.19704118656E+02  0.40659141422E+02  0.00000000000E+00 0. -1.
         11    1    3    3    0    0  0.10144959261E+02 -0.30723729000E+01 -0.10426790684E+02  0.14868679763E+02  0.51100000000E-03 0. -1.
        -11    1    3    3    0    0 -0.86656492975E+00 -0.28272685156E+02 -0.50450395200E+01  0.28732352579E+02  0.51100000000E-03 0.  1.
        -12    1    3    3    0    0  0.53816230111E+01 -0.10586050193E+01 -0.42322884517E+01  0.69278262362E+01  0.00000000000E+00 0.  1.
</event>
<event>
 7    1  0.6046695E-013  0.5052887E+02  0.7816164E-02  0.1300439E+00
        -11   -1    0    0    0    0  0.00000000000E+00  0.00000000000E+00  0.45593999997E+02  0.45594000000E+02  0.51100000000E-03 0. -1.
         11   -1    0    0    0    0 -0.00000000000E+00 -0.00000000000E+00 -0.45593999997E+02  0.45594000000E+02  0.51100000000E-03 0.  1.
    9900012    2    1    2    0    0  0.17408755474E+02  0.31442212102E+02  0.19012824694E+02  0.50528868530E+02  0.30000026384E+02 0.  0.
         12    1    1    2    0    0 -0.17408755474E+02 -0.31442212102E+02 -0.19012824694E+02  0.40659131470E+02  0.00000000000E+00 0. -1.
         11    1    3    3    0    0  0.75828137883E+01 -0.24747038067E+01  0.25105880251E+01  0.83621932752E+01  0.51100000000E-03 0. -1.
        -11    1    3    3    0    0  0.12122803829E+02  0.20096552024E+02  0.48990882718E+01  0.23975713589E+02  0.51100000000E-03 0.  1.
        -12    1    3    3    0    0 -0.22968621429E+01  0.13820363884E+02  0.11603148397E+02  0.18190961666E+02  0.00000000000E+00 0.  1.
</event>
<event>
 7    1  0.6046695E-013  0.5052886E+02  0.7816164E-02  0.1300439E+00
        -11   -1    0    0    0    0  0.00000000000E+00  0.00000000000E+00  0.45593999997E+02  0.45594000000E+02  0.51100000000E-03 0.  1.
         11   -1    0    0    0    0 -0.00000000000E+00 -0.00000000000E+00 -0.45593999997E+02  0.45594000000E+02  0.51100000000E-03 0. -1.
    9900012    2    1    2    0    0  0.20588922386E+00  0.15017562179E+02  0.37783546237E+02  0.50528856743E+02  0.29999990556E+02 0.  0.
         12    1    1    2    0    0 -0.20588922386E+00 -0.15017562179E+02 -0.37783546237E+02  0.40659143257E+02  0.00000000000E+00 0. -1.
         11    1    3    3    0    0 -0.44158967098E+01  0.32091596199E+01 -0.37055903030E+01  0.65977457493E+01  0.51100000000E-03 0. -1.
        -11    1    3    3    0    0  0.46844517442E+01  0.54054559157E+01  0.14187417324E+02  0.15888544691E+02  0.51100000000E-03 0.  1.
         12    1    3    3    0    0 -0.62665810484E-01  0.64029466435E+01  0.27301719216E+02  0.28042566303E+02  0.00000000000E+00 0. -1.
</event>
<event>
 7    1  0.6046695E-013  0.5052887E+02  0.7816164E-02  0.1300439E+00
        -11   -1    0    0    0    0  0.00000000000E+00  0.00000000000E+00  0.45593999997E+02  0.45594000000E+02  0.51100000000E-03 0. -1.
         11   -1    0    0    0    0 -0.00000000000E+00 -0.00000000000E+00 -0.45593999997E+02  0.45594000000E+02  0.51100000000E-03 0.  1.
    9900012    2    1    2    0    0 -0.33385322919E+02  0.64018404035E+01 -0.22306982248E+02  0.50528870595E+02  0.30000032660E+02 0.  0.
         12    1    1    2    0    0  0.33385322919E+02 -0.64018404035E+01  0.22306982248E+02  0.40659129405E+02  0.00000000000E+00 0. -1.
         11    1    3    3    0    0 -0.64624421218E+01  0.92576426197E+01 -0.13254105643E+02  0.17410870791E+02  0.51100000000E-03 0. -1.
        -11    1    3    3    0    0 -0.18958545859E+02 -0.76914526905E+01 -0.11519749288E+02  0.23479555565E+02  0.51100000000E-03 0.  1.
         12    1    3    3    0    0 -0.79643349380E+01  0.48356504744E+01  0.24668726828E+01  0.96384442390E+01  0.00000000000E+00 0. -1.
</event>
<event>
 7    1  0.6046695E-013  0.5052886E+02  0.7816164E-02  0.1300439E+00
        -11   -1    0    0    0    0  0.00000000000E+00  0.00000000000E+00  0.45593999997E+02  0.45594000000E+02  0.51100000000E-03 0. -1.
         11   -1    0    0    0    0 -0.00000000000E+00 -0.00000000000E+00 -0.45593999997E+02  0.45594000000E+02  0.51100000000E-03 0.  1.
    9900012    2    1    2    0    0 -0.27795237922E+02 -0.21674626316E+02 -0.20268221522E+02  0.50528862272E+02  0.30000007363E+02 0.  0.
         12    1    1    2    0    0  0.27795237922E+02  0.21674626316E+02  0.20268221522E+02  0.40659137728E+02  0.00000000000E+00 0. -1.
         11    1    3    3    0    0 -0.48149468254E+01  0.28644346856E+01 -0.53240473725E+01  0.77287890181E+01  0.51100000000E-03 0. -1.
        -11    1    3    3    0    0 -0.55678056788E+01 -0.11312234825E+02  0.46505839765E+01  0.13438565712E+02  0.51100000000E-03 0.  1.
        -12    1    3    3    0    0 -0.17412485418E+02 -0.13226826177E+02 -0.19594758126E+02  0.29361507542E+02  0.00000000000E+00 0.  1.
</event>
<event>
 7    1  0.6046695E-013  0.5052886E+02  0.7816164E-02  0.1300439E+00
        -11   -1    0    0    0    0  0.00000000000E+00  0.00000000000E+00  0.45593999997E+02  0.45594000000E+02  0.51100000000E-03 0.  1.
         11   -1    0    0    0    0 -0.00000000000E+00 -0.00000000000E+00 -0.45593999997E+02  0.45594000000E+02  0.51100000000E-03 0. -1.
    9900012    2    1    2    0    0  0.31918732559E+02 -0.11018356008E+02  0.22648526547E+02  0.50528863117E+02  0.30000009930E+02 0.  0.
         12    1    1    2    0    0 -0.31918732559E+02  0.11018356008E+02 -0.22648526547E+02  0.40659136883E+02  0.00000000000E+00 0. -1.
         11    1    3    3    0    0 -0.11797776505E+01  0.32916332103E-01 -0.12681517605E+01  0.17323879295E+01  0.51100000000E-03 0. -1.
        -11    1    3    3    0    0  0.28275850082E+02 -0.18357905834E+02  0.17863244731E+02  0.38152744555E+02  0.51100000000E-03 0.  1.
        -12    1    3    3    0    0  0.48226601275E+01  0.73066334935E+01  0.60534335764E+01  0.10643730633E+02  0.00000000000E+00 0.  1.
</event>
<event>
 7    1  0.6046695E-013  0.5052885E+02  0.7816164E-02  0.1300439E+00
        -11   -1    0    0    0    0  0.00000000000E+00  0.00000000000E+00  0.45593999997E+02  0.45594000000E+02  0.51100000000E-03 0. -1.
         11   -1    0    0    0    0 -0.00000000000E+00 -0.00000000000E+00 -0.45593999997E+02  0.45594000000E+02  0.51100000000E-03 0.  1.
    9900012    2    1    2    0    0 -0.27514365993E+02  0.34640608466E+01 -0.29734259350E+02  0.50528853026E+02  0.29999979257E+02 0.  0.
         12    1    1    2    0    0  0.27514365993E+02 -0.34640608466E+01  0.29734259350E+02  0.40659146974E+02  0.00000000000E+00 0. -1.
         11    1    3    3    0    0 -0.28713918146E+00  0.67898908106E+01  0.33322929364E+00  0.68041243487E+01  0.51100000000E-03 0. -1.
        -11    1    3    3    0    0 -0.17887256070E+02  0.43592803299E+01 -0.23836816220E+02  0.30118948562E+02  0.51100000000E-03 0.  1.
        -12    1    3    3    0    0 -0.93399707414E+01 -0.76851102939E+01 -0.62306724236E+01  0.13605780115E+02  0.00000000000E+00 0.  1.
</event>
<event>
 7    1  0.6046695E-013  0.5052887E+02  0.7816164E-02  0.1300439E+00
        -11   -1    0    0    0    0  0.00000000000E+00  0.00000000000E+00  0.45593999997E+02  0.45594000000E+02  0.51100000000E-03 0.  1.
         11   -1    0    0    0    0 -0.00000000000E+00 -0.00000000000E+00 -0.45593999997E+02  0.45594000000E+02  0.51100000000E-03 0. -1.
    9900012    2    1    2    0    0 -0.25769692640E+02  0.26728076859E+02  0.16574015132E+02  0.50528866599E+02  0.30000020513E+02 0.  0.
         12    1    1    2    0    0  0.25769692640E+02 -0.26728076859E+02 -0.16574015132E+02  0.40659133401E+02  0.00000000000E+00 0. -1.
         11    1    3    3    0    0 -0.39086227958E+01 -0.97692330701E+00  0.92352439803E+01  0.10075784979E+02  0.51100000000E-03 0. -1.
        -11    1    3    3    0    0 -0.10696349026E+02  0.26340588152E+02  0.39285247388E+01  0.28699682465E+02  0.51100000000E-03 0.  1.
        -12    1    3    3    0    0 -0.11164720819E+02  0.13644120138E+01  0.34102464131E+01  0.11753399155E+02  0.00000000000E+00 0.  1.
</event>
<event>
 7    1  0.6046695E-013  0.5052886E+02  0.7816164E-02  0.1300439E+00
        -11   -1    0    0    0    0  0.00000000000E+00  0.00000000000E+00  0.45593999997E+02  0.45594000000E+02  0.51100000000E-03 0. -1.
         11   -1    0    0    0    0 -0.00000000000E+00 -0.00000000000E+00 -0.45593999997E+02  0.45594000000E+02  0.51100000000E-03 0.  1.
    9900012    2    1    2    0    0 -0.14882771507E+02  0.37828724096E+02 -0.81006745594E+00  0.50528862482E+02  0.30000008000E+02 0.  0.
         12    1    1    2    0    0  0.14882771507E+02 -0.37828724096E+02  0.81006745594E+00  0.40659137518E+02  0.00000000000E+00 0. -1.
         11    1    3    3    0    0 -0.19807250004E+01 -0.28984874851E+01  0.15216261036E+01  0.38262053642E+01  0.51100000000E-03 0. -1.
        -11    1    3    3    0    0 -0.16042866693E+02  0.32097088553E+02 -0.67480216864E+01  0.36512086523E+02  0.51100000000E-03 0.  1.
        -12    1    3    3    0    0  0.31408201868E+01  0.86301230280E+01  0.44163281269E+01  0.10190570595E+02  0.00000000000E+00 0.  1.
</event>
<event>
 7    1  0.6046695E-013  0.5052887E+02  0.7816164E-02  0.1300439E+00
        -11   -1    0    0    0    0  0.00000000000E+00  0.00000000000E+00  0.45593999997E+02  0.45594000000E+02  0.51100000000E-03 0.  1.
         11   -1    0    0    0    0 -0.00000000000E+00 -0.00000000000E+00 -0.45593999997E+02  0.45594000000E+02  0.51100000000E-03 0. -1.
    9900012    2    1    2    0    0  0.17865885416E+02  0.26203573929E+02  0.25443036120E+02  0.50528865290E+02  0.30000016536E+02 0.  0.
         12    1    1    2    0    0 -0.17865885416E+02 -0.26203573929E+02 -0.25443036120E+02  0.40659134710E+02  0.00000000000E+00 0. -1.
         11    1    3    3    0    0  0.66125588377E+01  0.10100437107E+00  0.13846057070E+02  0.15344361600E+02  0.51100000000E-03 0. -1.
        -11    1    3    3    0    0  0.41013701478E+01  0.21901704011E+02  0.14281634303E+02  0.26466411814E+02  0.51100000000E-03 0.  1.
         12    1    3    3    0    0  0.71519564301E+01  0.42008655468E+01 -0.26846552536E+01  0.87180918756E+01  0.00000000000E+00 0. -1.
</event>
<event>
 7    1  0.6046695E-013  0.5052886E+02  0.7816164E-02  0.1300439E+00
        -11   -1    0    0    0    0  0.00000000000E+00  0.00000000000E+00  0.45593999997E+02  0.45594000000E+02  0.51100000000E-03 0. -1.
         11   -1    0    0    0    0 -0.00000000000E+00 -0.00000000000E+00 -0.45593999997E+02  0.45594000000E+02  0.51100000000E-03 0.  1.
    9900012    2    1    2    0    0  0.33354508129E+02 -0.15698626807E+02 -0.17152122932E+02  0.50528863053E+02  0.30000009736E+02 0.  0.
         12    1    1    2    0    0 -0.33354508129E+02  0.15698626807E+02  0.17152122932E+02  0.40659136947E+02  0.00000000000E+00 0. -1.
         11    1    3    3    0    0  0.29751416153E+01 -0.95051098101E+01  0.16149823441E+01  0.10089933021E+02  0.51100000000E-03 0. -1.
        -11    1    3    3    0    0  0.29191750214E+02  0.20815622198E+00 -0.16569826569E+02  0.33567257295E+02  0.51100000000E-03 0.  1.
        -12    1    3    3    0    0  0.11876163002E+01 -0.64016732194E+01 -0.21972787075E+01  0.68716727369E+01  0.00000000000E+00 0.  1.
</event>
<event>
 7    1  0.6046695E-013  0.5052887E+02  0.7816164E-02  0.1300439E+00
        -11   -1    0    0    0    0  0.00000000000E+00  0.00000000000E+00  0.45593999997E+02  0.45594000000E+02  0.51100000000E-03 0.  1.
         11   -1    0    0    0    0 -0.00000000000E+00 -0.00000000000E+00 -0.45593999997E+02  0.45594000000E+02  0.51100000000E-03 0. -1.
    9900012    2    1    2    0    0  0.15879733575E+02  0.11152766683E+02  0.35729749262E+02  0.50528866643E+02  0.30000020647E+02 0.  0.
         12    1    1    2    0    0 -0.15879733575E+02 -0.11152766683E+02 -0.35729749262E+02  0.40659133357E+02  0.00000000000E+00 0. -1.
         11    1    3    3    0    0  0.61201873338E+01  0.87756094524E+01 -0.82693070746E+00  0.10730882020E+02  0.51100000000E-03 0. -1.
        -11    1    3    3    0    0  0.13853405054E+01 -0.75191690543E+00  0.25638091003E+02  0.25686499525E+02  0.51100000000E-03 0.  1.
        -12    1    3    3    0    0  0.83742057353E+01  0.31290741357E+01  0.10918588966E+02  0.14111485098E+02  0.00000000000E+00 0.  1.
</event>
<event>
 7    1  0.6046695E-013  0.5052888E+02  0.7816164E-02  0.1300439E+00
        -11   -1    0    0    0    0  0.00000000000E+00  0.00000000000E+00  0.45593999997E+02  0.45594000000E+02  0.51100000000E-03 0.  1.
         11   -1    0    0    0    0 -0.00000000000E+00 -0.00000000000E+00 -0.45593999997E+02  0.45594000000E+02  0.51100000000E-03 0. -1.
    9900012    2    1    2    0    0  0.25272677746E+02  0.28558320114E+02  0.14102417910E+02  0.50528879509E+02  0.30000059756E+02 0.  0.
         12    1    1    2    0    0 -0.25272677746E+02 -0.28558320114E+02 -0.14102417910E+02  0.40659120491E+02  0.00000000000E+00 0. -1.
         11    1    3    3    0    0  0.35491577549E+01  0.22464178345E+02 -0.44840140042E+00  0.22747239251E+02  0.51100000000E-03 0. -1.
        -11    1    3    3    0    0  0.21368251781E+01  0.14605122849E+01  0.47170169513E+01  0.53804616118E+01  0.51100000000E-03 0.  1.
         12    1    3    3    0    0  0.19586694813E+02  0.46336294843E+01  0.98338023587E+01  0.22401178646E+02  0.00000000000E+00 0. -1.
</event>
<event>
 7    1  0.6046695E-013  0.5052886E+02  0.7816164E-02  0.1300439E+00
        -11   -1    0    0    0    0  0.00000000000E+00  0.00000000000E+00  0.45593999997E+02  0.45594000000E+02  0.51100000000E-03 0.  1.
         11   -1    0    0    0    0 -0.00000000000E+00 -0.00000000000E+00 -0.45593999997E+02  0.45594000000E+02  0.51100000000E-03 0. -1.
    9900012    2    1    2    0    0  0.29009794130E+02 -0.14706247726E+02  0.24399261085E+02  0.50528858111E+02  0.29999994715E+02 0.  0.
         12    1    1    2    0    0 -0.29009794130E+02  0.14706247726E+02 -0.24399261085E+02  0.40659141889E+02  0.00000000000E+00 0. -1.
         11    1    3    3    0    0  0.10389413242E+02  0.49347475332E+01  0.36586944356E+01  0.12069701155E+02  0.51100000000E-03 0. -1.
        -11    1    3    3    0    0  0.10197715811E+02 -0.14834329303E+02  0.30121469026E+01  0.18251678357E+02  0.51100000000E-03 0.  1.
        -12    1    3    3    0    0  0.84226650764E+01 -0.48066659562E+01  0.17728419747E+02  0.20207478599E+02  0.00000000000E+00 0.  1.
</event>
<event>
 7    1  0.6046695E-013  0.5052887E+02  0.7816164E-02  0.1300439E+00
        -11   -1    0    0    0    0  0.00000000000E+00  0.00000000000E+00  0.45593999997E+02  0.45594000000E+02  0.51100000000E-03 0.  1.
         11   -1    0    0    0    0 -0.00000000000E+00 -0.00000000000E+00 -0.45593999997E+02  0.45594000000E+02  0.51100000000E-03 0. -1.
    9900012    2    1    2    0    0  0.55637650403E+01  0.26579578478E+01  0.40188866182E+02  0.50528865893E+02  0.30000018368E+02 0.  0.
         12    1    1    2    0    0 -0.55637650403E+01 -0.26579578478E+01 -0.40188866182E+02  0.40659134107E+02  0.00000000000E+00 0. -1.
         11    1    3    3    0    0 -0.73577405196E+01 -0.75387320889E+01  0.12561122261E+02  0.16393615214E+02  0.51100000000E-03 0. -1.
        -11    1    3    3    0    0  0.14574463138E+02  0.64242272175E+01  0.22134712579E+02  0.27269601616E+02  0.51100000000E-03 0.  1.
        -12    1    3    3    0    0 -0.16529575783E+01  0.37724627192E+01  0.54930313425E+01  0.68656490627E+01  0.00000000000E+00 0.  1.
</event>
<event>
 7    1  0.6046695E-013  0.5052886E+02  0.7816164E-02  0.1300439E+00
        -11   -1    0    0    0    0  0.00000000000E+00  0.00000000000E+00  0.45593999997E+02  0.45594000000E+02  0.51100000000E-03 0.  1.
         11   -1    0    0    0    0 -0.00000000000E+00 -0.00000000000E+00 -0.45593999997E+02  0.45594000000E+02  0.51100000000E-03 0. -1.
    9900012    2    1    2    0    0  0.28247635495E+02  0.24489918937E+02  0.15983772050E+02  0.50528855770E+02  0.29999987598E+02 0.  0.
         12    1    1    2    0    0 -0.28247635495E+02 -0.24489918937E+02 -0.15983772050E+02  0.40659144230E+02  0.00000000000E+00 0. -1.
         11    1    3    3    0    0  0.12521601353E+02  0.77956622929E+01  0.25700170496E+01  0.14972235602E+02  0.51100000000E-03 0. -1.
        -11    1    3    3    0    0 -0.38777934146E+01  0.73173176318E+01  0.10887715173E+02  0.13679282183E+02  0.51100000000E-03 0.  1.
        -12    1    3    3    0    0  0.19603827557E+02  0.93769390125E+01  0.25260398277E+01  0.21877337985E+02  0.00000000000E+00 0.  1.
</event>
<event>
 7    1  0.6046695E-013  0.5052886E+02  0.7816164E-02  0.1300439E+00
        -11   -1    0    0    0    0  0.00000000000E+00  0.00000000000E+00  0.45593999997E+02  0.45594000000E+02  0.51100000000E-03 0.  1.
         11   -1    0    0    0    0 -0.00000000000E+00 -0.00000000000E+00 -0.45593999997E+02  0.45594000000E+02  0.51100000000E-03 0. -1.
    9900012    2    1    2    0    0 -0.11393341210E+02 -0.14030706609E+02  0.36421107969E+02  0.50528855179E+02  0.29999985804E+02 0.  0.
         12    1    1    2    0    0  0.11393341210E+02  0.14030706609E+02 -0.36421107969E+02  0.40659144821E+02  0.00000000000E+00 0. -1.
         11    1    3    3    0    0 -0.10665014416E+02 -0.35017982587E+01  0.18677070329E+02  0.21790779699E+02  0.51100000000E-03 0. -1.
        -11    1    3    3    0    0  0.55301537141E+01 -0.40439242544E+01  0.18466860584E+02  0.19696722153E+02  0.51100000000E-03 0.  1.
        -12    1    3    3    0    0 -0.62584805083E+01 -0.64849840958E+01 -0.72282294440E+00  0.90413533282E+01  0.00000000000E+00 0.  1.
</event>
<event>
 7    1  0.7588275E-013  0.5052887E+02  0.7816164E-02  0.1300439E+00
        -11   -1    0    0    0    0  0.00000000000E+00  0.00000000000E+00  0.45593999997E+02  0.45594000000E+02  0.51100000000E-03 0. -1.
         11   -1    0    0    0    0 -0.00000000000E+00 -0.00000000000E+00 -0.45593999997E+02  0.45594000000E+02  0.51100000000E-03 0.  1.
    9900012    2    1    2    0    0 -0.31440291324E+02 -0.19808430107E+02 -0.16501483222E+02  0.50528871008E+02  0.30000033916E+02 0.  0.
         12    1    1    2    0    0  0.31440291324E+02  0.19808430107E+02  0.16501483222E+02  0.40659128992E+02  0.00000000000E+00 0. -1.
         11    1    3    3    0    0 -0.20519373748E+00 -0.12778290009E+01  0.62321354059E+01  0.63650972816E+01  0.51100000000E-03 0. -1.
        -11    1    3    3    0    0 -0.16757591319E+02 -0.10065000920E+02 -0.59410715035E+01  0.20430796392E+02  0.51100000000E-03 0.  1.
         12    1    3    3    0    0 -0.14477506268E+02 -0.84656001855E+01 -0.16792547125E+02  0.23732977335E+02  0.00000000000E+00 0. -1.
</event>
<event>
 7    1  0.6046695E-013  0.5052882E+02  0.7816164E-02  0.1300439E+00
        -11   -1    0    0    0    0  0.00000000000E+00  0.00000000000E+00  0.45593999997E+02  0.45594000000E+02  0.51100000000E-03 0. -1.
         11   -1    0    0    0    0 -0.00000000000E+00 -0.00000000000E+00 -0.45593999997E+02  0.45594000000E+02  0.51100000000E-03 0.  1.
    9900012    2    1    2    0    0 -0.34173023425E+02 -0.21278393368E+02  0.57099346419E+01  0.50528820127E+02  0.29999879258E+02 0.  0.
         12    1    1    2    0    0  0.34173023425E+02  0.21278393368E+02 -0.57099346419E+01  0.40659179873E+02  0.00000000000E+00 0. -1.
         11    1    3    3    0    0 -0.72416285084E+00 -0.63139089902E+01 -0.26072219803E+01  0.68693133053E+01  0.51100000000E-03 0. -1.
        -11    1    3    3    0    0 -0.35633092251E+02 -0.14544507061E+02  0.11138803286E+02  0.40066605645E+02  0.51100000000E-03 0.  1.
        -12    1    3    3    0    0  0.21842316773E+01 -0.41997731674E+00 -0.28216466638E+01  0.35929011762E+01  0.00000000000E+00 0.  1.
</event>
<event>
 7    1  0.6046695E-013  0.5052885E+02  0.7816164E-02  0.1300439E+00
        -11   -1    0    0    0    0  0.00000000000E+00  0.00000000000E+00  0.45593999997E+02  0.45594000000E+02  0.51100000000E-03 0. -1.
         11   -1    0    0    0    0 -0.00000000000E+00 -0.00000000000E+00 -0.45593999997E+02  0.45594000000E+02  0.51100000000E-03 0.  1.
    9900012    2    1    2    0    0 -0.18292961564E+01 -0.40101641817E+02  0.64559163458E+01  0.50528845351E+02  0.29999955930E+02 0.  0.
         12    1    1    2    0    0  0.18292961564E+01  0.40101641817E+02 -0.64559163458E+01  0.40659154649E+02  0.00000000000E+00 0. -1.
         11    1    3    3    0    0  0.58982285787E+01  0.15693768209E+01 -0.24201776660E+01  0.65657675994E+01  0.51100000000E-03 0. -1.
        -11    1    3    3    0    0  0.36762946059E+00 -0.68237799995E+01 -0.85789756148E+00  0.68873153978E+01  0.51100000000E-03 0.  1.
         12    1    3    3    0    0 -0.80951541957E+01 -0.34847238639E+02  0.97339915733E+01  0.37075762354E+02  0.00000000000E+00 0. -1.
</event>
<event>
 7    1  0.6046695E-013  0.5052886E+02  0.7816164E-02  0.1300439E+00
        -11   -1    0    0    0    0  0.00000000000E+00  0.00000000000E+00  0.45593999997E+02  0.45594000000E+02  0.51100000000E-03 0.  1.
         11   -1    0    0    0    0 -0.00000000000E+00 -0.00000000000E+00 -0.45593999997E+02  0.45594000000E+02  0.51100000000E-03 0. -1.
    9900012    2    1    2    0    0 -0.71797708740E+01 -0.99417023788E+01  0.38765697868E+02  0.50528857275E+02  0.29999992172E+02 0.  0.
         12    1    1    2    0    0  0.71797708740E+01  0.99417023788E+01 -0.38765697868E+02  0.40659142725E+02  0.00000000000E+00 0. -1.
         11    1    3    3    0    0 -0.73698048901E+01 -0.19368807132E+01 -0.26992546893E+01  0.80840279041E+01  0.51100000000E-03 0. -1.
        -11    1    3    3    0    0 -0.84045635144E+00 -0.15748804634E+01  0.18148796486E+02  0.18236376545E+02  0.51100000000E-03 0.  1.
         12    1    3    3    0    0  0.10304903676E+01 -0.64299412022E+01  0.23316156071E+02  0.24208452826E+02  0.00000000000E+00 0. -1.
</event>
<event>
 7    1  0.6046695E-013  0.5052886E+02  0.7816164E-02  0.1300439E+00
        -11   -1    0    0    0    0  0.00000000000E+00  0.00000000000E+00  0.45593999997E+02  0.45594000000E+02  0.51100000000E-03 0.  1.
         11   -1    0    0    0    0 -0.00000000000E+00 -0.00000000000E+00 -0.45593999997E+02  0.45594000000E+02  0.51100000000E-03 0. -1.
    9900012    2    1    2    0    0 -0.22021151233E+02 -0.53452144733E+00  0.34175261356E+02  0.50528864452E+02  0.30000013987E+02 0.  0.
         12    1    1    2    0    0  0.22021151233E+02  0.53452144733E+00 -0.34175261356E+02  0.40659135548E+02  0.00000000000E+00 0. -1.
         11    1    3    3    0    0 -0.19583391842E+02 -0.80687944734E+01  0.23483033740E+02  0.31623844709E+02  0.51100000000E-03 0. -1.
        -11    1    3    3    0    0 -0.29102230325E+01  0.10107694561E+02  0.12018864939E+02  0.15971474638E+02  0.51100000000E-03 0.  1.
        -12    1    3    3    0    0  0.47246364147E+00 -0.25734215350E+01 -0.13266373233E+01  0.29335451040E+01  0.00000000000E+00 0.  1.
</event>
<event>
 7    1  0.6046695E-013  0.5052886E+02  0.7816164E-02  0.1300439E+00
        -11   -1    0    0    0    0  0.00000000000E+00  0.00000000000E+00  0.45593999997E+02  0.45594000000E+02  0.51100000000E-03 0.  1.
         11   -1    0    0    0    0 -0.00000000000E+00 -0.00000000000E+00 -0.45593999997E+02  0.45594000000E+02  0.51100000000E-03 0. -1.
    9900012    2    1    2    0    0  0.27362718769E+02  0.29192441546E+01  0.29932015057E+02  0.50528857237E+02  0.29999992058E+02 0.  0.
         12    1    1    2    0    0 -0.27362718769E+02 -0.29192441546E+01 -0.29932015057E+02  0.40659142763E+02  0.00000000000E+00 0. -1.
         11    1    3    3    0    0 -0.17301139349E+01  0.42053298610E+01  0.13058413199E+01  0.47311008530E+01  0.51100000000E-03 0. -1.
        -11    1    3    3    0    0  0.12272667904E+02 -0.99214252089E+01  0.75848248688E+01  0.17509500970E+02  0.51100000000E-03 0.  1.
        -12    1    3    3    0    0  0.16820164800E+02  0.86353395025E+01  0.21041348868E+02  0.28288255415E+02  0.00000000000E+00 0.  1.
</event>
<event>
 7    1  0.6046695E-013  0.5052888E+02  0.7816164E-02  0.1300439E+00
        -11   -1    0    0    0    0  0.00000000000E+00  0.00000000000E+00  0.45593999997E+02  0.45594000000E+02  0.51100000000E-03 0.  1.
         11   -1    0    0    0    0 -0.00000000000E+00 -0.00000000000E+00 -0.45593999997E+02  0.45594000000E+02  0.51100000000E-03 0. -1.
    9900012    2    1    2    0    0  0.19120885369E+01 -0.46061330645E+01  0.40352090501E+02  0.50528883530E+02  0.30000071976E+02 0.  0.
         12    1    1    2    0    0 -0.19120885369E+01  0.46061330645E+01 -0.40352090501E+02  0.40659116470E+02  0.00000000000E+00 0. -1.
         11    1    3    3    0    0  0.13135050184E+02  0.28284620006E+01  0.11564578719E+02  0.17727640053E+02  0.51100000000E-03 0. -1.
        -11    1    3    3    0    0 -0.67124620845E+01 -0.12863395594E+01  0.20159478357E+02  0.21286530591E+02  0.51100000000E-03 0.  1.
         12    1    3    3    0    0 -0.45104995630E+01 -0.61482555057E+01  0.86280334248E+01  0.11514712886E+02  0.00000000000E+00 0. -1.
</event>
<event>
 7    1  0.6046695E-013  0.5052886E+02  0.7816164E-02  0.1300439E+00
        -11   -1    0    0    0    0  0.00000000000E+00  0.00000000000E+00  0.45593999997E+02  0.45594000000E+02  0.51100000000E-03 0. -1.
         11   -1    0    0    0    0 -0.00000000000E+00 -0.00000000000E+00 -0.45593999997E+02  0.45594000000E+02  0.51100000000E-03 0.  1.
    9900012    2    1    2    0    0  0.31613918071E+02 -0.21884094623E+02 -0.13221654069E+02  0.50528861426E+02  0.30000004789E+02 0.  0.
         12    1    1    2    0    0 -0.31613918071E+02  0.21884094623E+02  0.13221654069E+02  0.40659138574E+02  0.00000000000E+00 0. -1.
         11    1    3    3    0    0  0.46314255124E+01  0.23966488781E+01 -0.95946289853E+01  0.10920207587E+02  0.51100000000E-03 0. -1.
        -11    1    3    3    0    0  0.24877485099E+02 -0.13300927821E+02 -0.35165417954E+01  0.28428331154E+02  0.51100000000E-03 0.  1.
        -12    1    3    3    0    0  0.21050074601E+01 -0.10979815680E+02 -0.11048328844E+00  0.11180322684E+02  0.00000000000E+00 0.  1.
</event>
<event>
 7    1  0.6046695E-013  0.5052886E+02  0.7816164E-02  0.1300439E+00
        -11   -1    0    0    0    0  0.00000000000E+00  0.00000000000E+00  0.45593999997E+02  0.45594000000E+02  0.51100000000E-03 0. -1.
         11   -1    0    0    0    0 -0.00000000000E+00 -0.00000000000E+00 -0.45593999997E+02  0.45594000000E+02  0.51100000000E-03 0.  1.
    9900012    2    1    2    0    0 -0.10139642071E+00 -0.60939998804E+01 -0.40199735445E+02  0.50528857785E+02  0.29999993724E+02 0.  0.
         12    1    1    2    0    0  0.10139642071E+00  0.60939998804E+01  0.40199735445E+02  0.40659142215E+02  0.00000000000E+00 0. -1.
         11    1    3    3    0    0  0.79750433814E+01 -0.13712114445E+02 -0.19691345780E+02  0.25285816150E+02  0.51100000000E-03 0. -1.
        -11    1    3    3    0    0 -0.75620187707E+01  0.17090943757E+01 -0.16045165590E+02  0.17820001979E+02  0.51100000000E-03 0.  1.
         12    1    3    3    0    0 -0.51442103146E+00  0.59090201885E+01 -0.44632240754E+01  0.74230396559E+01  0.00000000000E+00 0. -1.
</event>
<event>
 7    1  0.6046695E-013  0.5052886E+02  0.7816164E-02  0.1300439E+00
        -11   -1    0    0    0    0  0.00000000000E+00  0.00000000000E+00  0.45593999997E+02  0.45594000000E+02  0.51100000000E-03 0.  1.
         11   -1    0    0    0    0 -0.00000000000E+00 -0.00000000000E+00 -0.45593999997E+02  0.45594000000E+02  0.51100000000E-03 0. -1.
    9900012    2    1    2    0    0 -0.38653965720E+01  0.28515436873E+02  0.28724456764E+02  0.50528857767E+02  0.29999993669E+02 0.  0.
         12    1    1    2    0    0  0.38653965720E+01 -0.28515436873E+02 -0.28724456764E+02  0.40659142233E+02  0.00000000000E+00 0. -1.
         11    1    3    3    0    0  0.14615868278E+01 -0.87781641590E+00 -0.32366560648E+01  0.36582428102E+01  0.51100000000E-03 0. -1.
        -11    1    3    3    0    0 -0.10297818776E+01  0.21897058185E+02  0.31289012555E+02  0.38203977735E+02  0.51100000000E-03 0.  1.
        -12    1    3    3    0    0 -0.42972015222E+01  0.74961951037E+01  0.67210027392E+00  0.86666372217E+01  0.00000000000E+00 0.  1.
</event>
<event>
 7    1  0.6046695E-013  0.5052887E+02  0.7816164E-02  0.1300439E+00
        -11   -1    0    0    0    0  0.00000000000E+00  0.00000000000E+00  0.45593999997E+02  0.45594000000E+02  0.51100000000E-03 0.  1.
         11   -1    0    0    0    0 -0.00000000000E+00 -0.00000000000E+00 -0.45593999997E+02  0.45594000000E+02  0.51100000000E-03 0. -1.
    9900012    2    1    2    0    0  0.16669457720E+02 -0.18725054453E+02  0.32010414478E+02  0.50528866708E+02  0.30000020847E+02 0.  0.
         12    1    1    2    0    0 -0.16669457720E+02  0.18725054453E+02 -0.32010414478E+02  0.40659133292E+02  0.00000000000E+00 0. -1.
         11    1    3    3    0    0 -0.66367112521E+01 -0.13892561541E+01  0.94278615844E+01  0.11612947224E+02  0.51100000000E-03 0. -1.
        -11    1    3    3    0    0  0.72113021469E+01 -0.52047184518E+01  0.33941669943E+00  0.88998413904E+01  0.51100000000E-03 0.  1.
         12    1    3    3    0    0  0.16094866826E+02 -0.12131079847E+02  0.22243136194E+02  0.30016078094E+02  0.00000000000E+00 0. -1.
</event>
<event>
 7    1  0.6046695E-013  0.5052886E+02  0.7816164E-02  0.1300439E+00
        -11   -1    0    0    0    0  0.00000000000E+00  0.00000000000E+00  0.45593999997E+02  0.45594000000E+02  0.51100000000E-03 0.  1.
         11   -1    0    0    0    0 -0.00000000000E+00 -0.00000000000E+00 -0.45593999997E+02  0.45594000000E+02  0.51100000000E-03 0. -1.
    9900012    2    1    2    0    0  0.20847831968E+02  0.15900662492E+02  0.31075751815E+02  0.50528861835E+02  0.30000006034E+02 0.  0.
         12    1    1    2    0    0 -0.20847831968E+02 -0.15900662492E+02 -0.31075751815E+02  0.40659138165E+02  0.00000000000E+00 0. -1.
         11    1    3    3    0    0  0.30322727396E+01 -0.19602506982E+01 -0.11058134425E+01  0.37762526926E+01  0.51100000000E-03 0. -1.
        -11    1    3    3    0    0  0.21917526452E+02  0.14553578863E+02  0.18700518281E+02  0.32278382980E+02  0.51100000000E-03 0.  1.
        -12    1    3    3    0    0 -0.41019672238E+01  0.33073343265E+01  0.13481046976E+02  0.14474226163E+02  0.00000000000E+00 0.  1.
</event>
<event>
 7    1  0.6046695E-013  0.5052889E+02  0.7816164E-02  0.1300439E+00
        -11   -1    0    0    0    0  0.00000000000E+00  0.00000000000E+00  0.45593999997E+02  0.45594000000E+02  0.51100000000E-03 0.  1.
         11   -1    0    0    0    0 -0.00000000000E+00 -0.00000000000E+00 -0.45593999997E+02  0.45594000000E+02  0.51100000000E-03 0. -1.
    9900012    2    1    2    0    0 -0.22455375545E+02 -0.31682409957E+02 -0.12047592764E+02  0.50528886840E+02  0.30000082038E+02 0.  0.
         12    1    1    2    0    0  0.22455375545E+02  0.31682409957E+02  0.12047592764E+02  0.40659113160E+02  0.00000000000E+00 0. -1.
         11    1    3    3    0    0 -0.21678211309E+02 -0.85747793218E+01 -0.81286588256E+01  0.24689001206E+02  0.51100000000E-03 0. -1.
        -11    1    3    3    0    0 -0.48961498345E+01 -0.18732977201E+02 -0.17081588650E+01  0.19437451607E+02  0.51100000000E-03 0.  1.
         12    1    3    3    0    0  0.41189855991E+01 -0.43746534347E+01 -0.22107750738E+01  0.64024340267E+01  0.00000000000E+00 0. -1.
</event>
<event>
 7    1  0.6046695E-013  0.5052886E+02  0.7816164E-02  0.1300439E+00
        -11   -1    0    0    0    0  0.00000000000E+00  0.00000000000E+00  0.45593999997E+02  0.45594000000E+02  0.51100000000E-03 0.  1.
         11   -1    0    0    0    0 -0.00000000000E+00 -0.00000000000E+00 -0.45593999997E+02  0.45594000000E+02  0.51100000000E-03 0. -1.
    9900012    2    1    2    0    0 -0.15999970579E+02 -0.18043528981E+02  0.32735266649E+02  0.50528859832E+02  0.29999999944E+02 0.  0.
         12    1    1    2    0    0  0.15999970579E+02  0.18043528981E+02 -0.32735266649E+02  0.40659140168E+02  0.00000000000E+00 0. -1.
         11    1    3    3    0    0  0.51832411133E+01  0.74752173979E+00  0.34242065723E+01  0.62569935353E+01  0.51100000000E-03 0. -1.
        -11    1    3    3    0    0 -0.21224720634E+02 -0.14407753941E+02  0.15943092793E+02  0.30203548595E+02  0.51100000000E-03 0.  1.
        -12    1    3    3    0    0  0.41508941612E-01 -0.43832967795E+01  0.13367967284E+02  0.14068317702E+02  0.00000000000E+00 0.  1.
</event>
<event>
 7    1  0.6046695E-013  0.5052886E+02  0.7816164E-02  0.1300439E+00
        -11   -1    0    0    0    0  0.00000000000E+00  0.00000000000E+00  0.45593999997E+02  0.45594000000E+02  0.51100000000E-03 0.  1.
         11   -1    0    0    0    0 -0.00000000000E+00 -0.00000000000E+00 -0.45593999997E+02  0.45594000000E+02  0.51100000000E-03 0. -1.
    9900012    2    1    2    0    0  0.27115037434E+02  0.21080812970E+02  0.21760975716E+02  0.50528855953E+02  0.29999988156E+02 0.  0.
         12    1    1    2    0    0 -0.27115037434E+02 -0.21080812970E+02 -0.21760975716E+02  0.40659144047E+02  0.00000000000E+00 0. -1.
         11    1    3    3    0    0  0.12689928380E+02  0.86717737146E+01  0.25103932640E+02  0.29435376266E+02  0.51100000000E-03 0.  1.
        -11    1    3    3    0    0  0.14711691525E+02  0.86693207653E+01 -0.27076237398E+01  0.17289367156E+02  0.51100000000E-03 0. -1.
        -12    1    3    3    0    0 -0.28658247222E+00  0.37397184902E+01 -0.63533318439E+00  0.38041125318E+01  0.00000000000E+00 0.  1.
</event>
<event>
 7    1  0.6046695E-013  0.5052887E+02  0.7816164E-02  0.1300439E+00
        -11   -1    0    0    0    0  0.00000000000E+00  0.00000000000E+00  0.45593999997E+02  0.45594000000E+02  0.51100000000E-03 0.  1.
         11   -1    0    0    0    0 -0.00000000000E+00 -0.00000000000E+00 -0.45593999997E+02  0.45594000000E+02  0.51100000000E-03 0. -1.
    9900012    2    1    2    0    0  0.14608828373E+02 -0.16371805096E+02  0.34230269790E+02  0.50528865252E+02  0.30000016421E+02 0.  0.
         12    1    1    2    0    0 -0.14608828373E+02  0.16371805096E+02 -0.34230269790E+02  0.40659134748E+02  0.00000000000E+00 0. -1.
         11    1    3    3    0    0  0.13350720904E+02  0.11197996402E+01  0.37740903817E+01  0.13919032235E+02  0.51100000000E-03 0. -1.
        -11    1    3    3    0    0  0.55717288760E+01 -0.12120065285E+02  0.21642184459E+02  0.25422908835E+02  0.51100000000E-03 0.  1.
         12    1    3    3    0    0 -0.43136214066E+01 -0.53715394509E+01  0.88139949489E+01  0.11186924183E+02  0.00000000000E+00 0. -1.
</event>
<event>
 7    1  0.6046695E-013  0.5052887E+02  0.7816164E-02  0.1300439E+00
        -11   -1    0    0    0    0  0.00000000000E+00  0.00000000000E+00  0.45593999997E+02  0.45594000000E+02  0.51100000000E-03 0. -1.
         11   -1    0    0    0    0 -0.00000000000E+00 -0.00000000000E+00 -0.45593999997E+02  0.45594000000E+02  0.51100000000E-03 0.  1.
    9900012    2    1    2    0    0  0.62343343214E+01 -0.15471024221E+02 -0.37080260247E+02  0.50528865543E+02  0.30000017303E+02 0.  0.
         12    1    1    2    0    0 -0.62343343214E+01  0.15471024221E+02  0.37080260247E+02  0.40659134457E+02  0.00000000000E+00 0. -1.
         11    1    3    3    0    0 -0.55787287418E+01  0.32161811115E+01 -0.18206106562E+01  0.66918352295E+01  0.51100000000E-03 0. -1.
        -11    1    3    3    0    0  0.10471235331E+02 -0.39212784745E+01 -0.13982291754E+02  0.17903286771E+02  0.51100000000E-03 0.  1.
         12    1    3    3    0    0  0.13418277318E+01 -0.14765926858E+02 -0.21277357836E+02  0.25933743542E+02  0.00000000000E+00 0. -1.
</event>
<event>
 7    1  0.6046695E-013  0.5052887E+02  0.7816164E-02  0.1300439E+00
        -11   -1    0    0    0    0  0.00000000000E+00  0.00000000000E+00  0.45593999997E+02  0.45594000000E+02  0.51100000000E-03 0.  1.
         11   -1    0    0    0    0 -0.00000000000E+00 -0.00000000000E+00 -0.45593999997E+02  0.45594000000E+02  0.51100000000E-03 0. -1.
    9900012    2    1    2    0    0  0.15528350749E+02 -0.35022351584E+02 -0.13618728248E+02  0.50528873761E+02  0.30000042284E+02 0.  0.
         12    1    1    2    0    0 -0.15528350749E+02  0.35022351584E+02  0.13618728248E+02  0.40659126239E+02  0.00000000000E+00 0. -1.
         11    1    3    3    0    0  0.14644857197E+02 -0.18464696424E+02  0.30960728734E+01  0.23769781737E+02  0.51100000000E-03 0. -1.
        -11    1    3    3    0    0  0.56295484242E+01 -0.60518293269E+01 -0.11358240980E+02  0.14047280594E+02  0.51100000000E-03 0.  1.
         12    1    3    3    0    0 -0.47460548723E+01 -0.10505825833E+02 -0.53565601416E+01  0.12711811430E+02  0.00000000000E+00 0. -1.
</event>
<event>
 7    1  0.6046695E-013  0.5052885E+02  0.7816164E-02  0.1300439E+00
        -11   -1    0    0    0    0  0.00000000000E+00  0.00000000000E+00  0.45593999997E+02  0.45594000000E+02  0.51100000000E-03 0. -1.
         11   -1    0    0    0    0 -0.00000000000E+00 -0.00000000000E+00 -0.45593999997E+02  0.45594000000E+02  0.51100000000E-03 0.  1.
    9900012    2    1    2    0    0 -0.98298316450E+01  0.15624696157E+02 -0.36227191868E+02  0.50528854033E+02  0.29999982318E+02 0.  0.
         12    1    1    2    0    0  0.98298316450E+01 -0.15624696157E+02  0.36227191868E+02  0.40659145967E+02  0.00000000000E+00 0. -1.
         11    1    3    3    0    0  0.65805197710E+01  0.20335999429E+01 -0.19322781770E+02  0.20513621445E+02  0.51100000000E-03 0. -1.
        -11    1    3    3    0    0 -0.10790648885E+02  0.13942666652E+02 -0.16845018103E+02  0.24384230393E+02  0.51100000000E-03 0.  1.
        -12    1    3    3    0    0 -0.56197025308E+01 -0.35157043803E+00 -0.59391994629E-01  0.56310021947E+01  0.00000000000E+00 0.  1.
</event>
<event>
 7    1  0.6046695E-013  0.5052888E+02  0.7816164E-02  0.1300439E+00
        -11   -1    0    0    0    0  0.00000000000E+00  0.00000000000E+00  0.45593999997E+02  0.45594000000E+02  0.51100000000E-03 0.  1.
         11   -1    0    0    0    0 -0.00000000000E+00 -0.00000000000E+00 -0.45593999997E+02  0.45594000000E+02  0.51100000000E-03 0. -1.
    9900012    2    1    2    0    0  0.24337345894E+01 -0.11134966477E+02  0.39028879141E+02  0.50528881102E+02  0.30000064599E+02 0.  0.
         12    1    1    2    0    0 -0.24337345894E+01  0.11134966477E+02 -0.39028879141E+02  0.40659118898E+02  0.00000000000E+00 0. -1.
         11    1    3    3    0    0  0.62305966970E+01  0.27672308359E+01  0.28896523537E+02  0.29689846320E+02  0.51100000000E-03 0. -1.
        -11    1    3    3    0    0  0.30004637964E+01 -0.29093137106E+01 -0.35552175578E+00  0.41944350323E+01  0.51100000000E-03 0.  1.
         12    1    3    3    0    0 -0.67973259041E+01 -0.10992883602E+02  0.10487877360E+02  0.16644599750E+02  0.00000000000E+00 0. -1.
</event>
<event>
 7    1  0.6046695E-013  0.5052888E+02  0.7816164E-02  0.1300439E+00
        -11   -1    0    0    0    0  0.00000000000E+00  0.00000000000E+00  0.45593999997E+02  0.45594000000E+02  0.51100000000E-03 0.  1.
         11   -1    0    0    0    0 -0.00000000000E+00 -0.00000000000E+00 -0.45593999997E+02  0.45594000000E+02  0.51100000000E-03 0. -1.
    9900012    2    1    2    0    0  0.52477639269E+01  0.26737864162E+02  0.30178004363E+02  0.50528876134E+02  0.30000049497E+02 0.  0.
         12    1    1    2    0    0 -0.52477639269E+01 -0.26737864162E+02 -0.30178004363E+02  0.40659123866E+02  0.00000000000E+00 0. -1.
         11    1    3    3    0    0  0.37157067871E+01  0.16483562959E+01 -0.42713076070E+01  0.58964077489E+01  0.51100000000E-03 0. -1.
        -11    1    3    3    0    0  0.63443070660E+01  0.15212312983E+02  0.14957884411E+02  0.22257650477E+02  0.51100000000E-03 0.  1.
         12    1    3    3    0    0 -0.48122499262E+01  0.98771948833E+01  0.19491427559E+02  0.22374817908E+02  0.00000000000E+00 0. -1.
</event>
<event>
 7    1  0.6046695E-013  0.5052886E+02  0.7816164E-02  0.1300439E+00
        -11   -1    0    0    0    0  0.00000000000E+00  0.00000000000E+00  0.45593999997E+02  0.45594000000E+02  0.51100000000E-03 0.  1.
         11   -1    0    0    0    0 -0.00000000000E+00 -0.00000000000E+00 -0.45593999997E+02  0.45594000000E+02  0.51100000000E-03 0. -1.
    9900012    2    1    2    0    0 -0.27046492208E+02  0.77894334018E+01  0.29342422552E+02  0.50528858658E+02  0.29999996375E+02 0.  0.
         12    1    1    2    0    0  0.27046492208E+02 -0.77894334018E+01 -0.29342422552E+02  0.40659141342E+02  0.00000000000E+00 0. -1.
         11    1    3    3    0    0 -0.14017152565E+02  0.70179474902E+01 -0.76283566232E+00  0.15694396182E+02  0.51100000000E-03 0. -1.
        -11    1    3    3    0    0 -0.68241085269E+01 -0.54531958387E+01  0.14969094713E+02  0.17331462686E+02  0.51100000000E-03 0.  1.
         12    1    3    3    0    0 -0.62052311160E+01  0.62246817503E+01  0.15136163501E+02  0.17502999790E+02  0.00000000000E+00 0. -1.
</event>
<event>
 7    1  0.6046695E-013  0.5052885E+02  0.7816164E-02  0.1300439E+00
        -11   -1    0    0    0    0  0.00000000000E+00  0.00000000000E+00  0.45593999997E+02  0.45594000000E+02  0.51100000000E-03 0.  1.
         11   -1    0    0    0    0 -0.00000000000E+00 -0.00000000000E+00 -0.45593999997E+02  0.45594000000E+02  0.51100000000E-03 0. -1.
    9900012    2    1    2    0    0 -0.20081979271E+02  0.53012659547E+01  0.34953923749E+02  0.50528854687E+02  0.29999984305E+02 0.  0.
         12    1    1    2    0    0  0.20081979271E+02 -0.53012659547E+01 -0.34953923749E+02  0.40659145313E+02  0.00000000000E+00 0. -1.
         11    1    3    3    0    0 -0.25625775120E+01 -0.10228354024E+02  0.55319232155E+01  0.11907485220E+02  0.51100000000E-03 0. -1.
        -11    1    3    3    0    0 -0.10268568777E+02  0.12626620045E+02  0.24420549325E+02  0.29346861299E+02  0.51100000000E-03 0.  1.
         12    1    3    3    0    0 -0.72508329828E+01  0.29029999337E+01  0.50014512084E+01  0.92745081676E+01  0.00000000000E+00 0. -1.
</event>
<event>
 7    1  0.6046695E-013  0.5052886E+02  0.7816164E-02  0.1300439E+00
        -11   -1    0    0    0    0  0.00000000000E+00  0.00000000000E+00  0.45593999997E+02  0.45594000000E+02  0.51100000000E-03 0. -1.
         11   -1    0    0    0    0 -0.00000000000E+00 -0.00000000000E+00 -0.45593999997E+02  0.45594000000E+02  0.51100000000E-03 0.  1.
    9900012    2    1    2    0    0 -0.37758129823E+02 -0.15072448348E+02  0.55697273898E+00  0.50528864673E+02  0.30000014661E+02 0.  0.
         12    1    1    2    0    0  0.37758129823E+02  0.15072448348E+02 -0.55697273898E+00  0.40659135327E+02  0.00000000000E+00 0. -1.
         11    1    3    3    0    0 -0.57664545480E+00 -0.92434288211E+01 -0.40575795571E+00  0.92702824191E+01  0.51100000000E-03 0. -1.
        -11    1    3    3    0    0 -0.14320803942E+02  0.51749555888E+01  0.38980050097E+01  0.15718143472E+02  0.51100000000E-03 0.  1.
         12    1    3    3    0    0 -0.22860680426E+02 -0.11003975116E+02 -0.29352743151E+01  0.25540438782E+02  0.00000000000E+00 0. -1.
</event>
<event>
 7    1  0.6046695E-013  0.5052887E+02  0.7816164E-02  0.1300439E+00
        -11   -1    0    0    0    0  0.00000000000E+00  0.00000000000E+00  0.45593999997E+02  0.45594000000E+02  0.51100000000E-03 0. -1.
         11   -1    0    0    0    0 -0.00000000000E+00 -0.00000000000E+00 -0.45593999997E+02  0.45594000000E+02  0.51100000000E-03 0.  1.
    9900012    2    1    2    0    0  0.18585899526E+02  0.34297214727E+02  0.11464301651E+02  0.50528870501E+02  0.30000032376E+02 0.  0.
         12    1    1    2    0    0 -0.18585899526E+02 -0.34297214727E+02 -0.11464301651E+02  0.40659129499E+02  0.00000000000E+00 0. -1.
         11    1    3    3    0    0 -0.72697560172E+01  0.62360569426E+01  0.26273088399E+01  0.99317929269E+01  0.51100000000E-03 0. -1.
        -11    1    3    3    0    0  0.89321198839E+01  0.10889360848E+02  0.85687890472E+01  0.16485905838E+02  0.51100000000E-03 0.  1.
         12    1    3    3    0    0  0.16923535660E+02  0.17171796937E+02  0.26820376409E+00  0.24111171737E+02  0.00000000000E+00 0. -1.
</event>
<event>
 7    1  0.6046695E-013  0.5052886E+02  0.7816164E-02  0.1300439E+00
        -11   -1    0    0    0    0  0.00000000000E+00  0.00000000000E+00  0.45593999997E+02  0.45594000000E+02  0.51100000000E-03 0. -1.
         11   -1    0    0    0    0 -0.00000000000E+00 -0.00000000000E+00 -0.45593999997E+02  0.45594000000E+02  0.51100000000E-03 0.  1.
    9900012    2    1    2    0    0  0.29841761344E+02  0.74082974841E+01 -0.26603609187E+02  0.50528860640E+02  0.30000002401E+02 0.  0.
         12    1    1    2    0    0 -0.29841761344E+02 -0.74082974841E+01  0.26603609187E+02  0.40659139360E+02  0.00000000000E+00 0. -1.
         11    1    3    3    0    0  0.42360007200E+01 -0.38591743808E+01 -0.22298377113E+01  0.61489109183E+01  0.51100000000E-03 0. -1.
        -11    1    3    3    0    0  0.19681664972E+02  0.14099659198E+02 -0.61075964588E+01  0.24969402482E+02  0.51100000000E-03 0.  1.
        -12    1    3    3    0    0  0.59240956528E+01 -0.28321873337E+01 -0.18266175016E+02  0.19410547239E+02  0.00000000000E+00 0.  1.
</event>
<event>
 7    1  0.6046695E-013  0.5052887E+02  0.7816164E-02  0.1300439E+00
        -11   -1    0    0    0    0  0.00000000000E+00  0.00000000000E+00  0.45593999997E+02  0.45594000000E+02  0.51100000000E-03 0. -1.
         11   -1    0    0    0    0 -0.00000000000E+00 -0.00000000000E+00 -0.45593999997E+02  0.45594000000E+02  0.51100000000E-03 0.  1.
    9900012    2    1    2    0    0  0.34415629140E+02 -0.52250529532E+01 -0.21010192797E+02  0.50528869306E+02  0.30000028741E+02 0.  0.
         12    1    1    2    0    0 -0.34415629140E+02  0.52250529532E+01  0.21010192797E+02  0.40659130694E+02  0.00000000000E+00 0. -1.
         11    1    3    3    0    0  0.48339248927E+01  0.10115510698E+02 -0.71271459303E+01  0.13284825777E+02  0.51100000000E-03 0. -1.
        -11    1    3    3    0    0  0.95872015547E+01 -0.36800440416E+01 -0.88508922416E+01  0.13557118113E+02  0.51100000000E-03 0.  1.
         12    1    3    3    0    0  0.19994502692E+02 -0.11660519610E+02 -0.50321546255E+01  0.23686925416E+02  0.00000000000E+00 0. -1.
</event>
<event>
 7    1  0.6046695E-013  0.5052884E+02  0.7816164E-02  0.1300439E+00
        -11   -1    0    0    0    0  0.00000000000E+00  0.00000000000E+00  0.45593999997E+02  0.45594000000E+02  0.51100000000E-03 0.  1.
         11   -1    0    0    0    0 -0.00000000000E+00 -0.00000000000E+00 -0.45593999997E+02  0.45594000000E+02  0.51100000000E-03 0. -1.
    9900012    2    1    2    0    0  0.29724726192E+01 -0.49224213247E+01  0.40250483419E+02  0.50528840630E+02  0.29999941580E+02 0.  0.
         12    1    1    2    0    0 -0.29724726192E+01  0.49224213247E+01 -0.40250483419E+02  0.40659159370E+02  0.00000000000E+00 0. -1.
         11    1    3    3    0    0 -0.16153131517E+01 -0.77741326714E+01  0.39587422702E+02  0.40375864224E+02  0.51100000000E-03 0. -1.
        -11    1    3    3    0    0  0.39221532801E+01  0.65286222923E+00 -0.35654978986E+01  0.53406264585E+01  0.51100000000E-03 0.  1.
        -12    1    3    3    0    0  0.66563249078E+00  0.21988491175E+01  0.42285586154E+01  0.48123499476E+01  0.00000000000E+00 0.  1.
</event>
<event>
 7    1  0.6046695E-013  0.5052886E+02  0.7816164E-02  0.1300439E+00
        -11   -1    0    0    0    0  0.00000000000E+00  0.00000000000E+00  0.45593999997E+02  0.45594000000E+02  0.51100000000E-03 0.  1.
         11   -1    0    0    0    0 -0.00000000000E+00 -0.00000000000E+00 -0.45593999997E+02  0.45594000000E+02  0.51100000000E-03 0. -1.
    9900012    2    1    2    0    0 -0.57007958390E+01 -0.28220316011E+02  0.28710288829E+02  0.50528855965E+02  0.29999988192E+02 0.  0.
         12    1    1    2    0    0  0.57007958390E+01  0.28220316011E+02 -0.28710288829E+02  0.40659144035E+02  0.00000000000E+00 0. -1.
         11    1    3    3    0    0  0.51445998854E+01 -0.21880798254E+02  0.11494878108E+02  0.25246157394E+02  0.51100000000E-03 0.  1.
        -11    1    3    3    0    0 -0.73247635932E+01  0.32959321119E+01  0.56330419683E+01  0.98105296626E+01  0.51100000000E-03 0. -1.
         12    1    3    3    0    0 -0.35206321312E+01 -0.96354498694E+01  0.11582368753E+02  0.15472168908E+02  0.00000000000E+00 0. -1.
</event>
<event>
 7    1  0.6046695E-013  0.5052886E+02  0.7816164E-02  0.1300439E+00
        -11   -1    0    0    0    0  0.00000000000E+00  0.00000000000E+00  0.45593999997E+02  0.45594000000E+02  0.51100000000E-03 0.  1.
         11   -1    0    0    0    0 -0.00000000000E+00 -0.00000000000E+00 -0.45593999997E+02  0.45594000000E+02  0.51100000000E-03 0. -1.
    9900012    2    1    2    0    0 -0.11175677125E+02  0.36778303455E+02  0.13252405852E+02  0.50528860497E+02  0.30000001966E+02 0.  0.
         12    1    1    2    0    0  0.11175677125E+02 -0.36778303455E+02 -0.13252405852E+02  0.40659139503E+02  0.00000000000E+00 0. -1.
         11    1    3    3    0    0 -0.18378334489E+02  0.14960262922E+02  0.40825371084E+01  0.24046616286E+02  0.51100000000E-03 0. -1.
        -11    1    3    3    0    0  0.15688767146E+01  0.98300313272E+01  0.87122192669E+01  0.13228516729E+02  0.51100000000E-03 0.  1.
         12    1    3    3    0    0  0.56337806490E+01  0.11988009206E+02  0.45764947704E+00  0.13253727482E+02  0.00000000000E+00 0. -1.
</event>
<event>
 7    1  0.6046695E-013  0.5052885E+02  0.7816164E-02  0.1300439E+00
        -11   -1    0    0    0    0  0.00000000000E+00  0.00000000000E+00  0.45593999997E+02  0.45594000000E+02  0.51100000000E-03 0.  1.
         11   -1    0    0    0    0 -0.00000000000E+00 -0.00000000000E+00 -0.45593999997E+02  0.45594000000E+02  0.51100000000E-03 0. -1.
    9900012    2    1    2    0    0  0.12495966275E+02 -0.37634360574E+02  0.89817784252E+01  0.50528848353E+02  0.29999965054E+02 0.  0.
         12    1    1    2    0    0 -0.12495966275E+02  0.37634360574E+02 -0.89817784252E+01  0.40659151647E+02  0.00000000000E+00 0. -1.
         11    1    3    3    0    0  0.63581910140E+01 -0.38209615628E+02  0.31530646000E+01  0.38863133379E+02  0.51100000000E-03 0. -1.
        -11    1    3    3    0    0 -0.19596557431E+01  0.35539642377E+00  0.13919143352E+01  0.24298113151E+01  0.51100000000E-03 0.  1.
         12    1    3    3    0    0  0.80974310045E+01  0.21985862979E+00  0.44367994900E+01  0.92359036593E+01  0.00000000000E+00 0. -1.
</event>
<event>
 7    1  0.6046695E-013  0.5052885E+02  0.7816164E-02  0.1300439E+00
        -11   -1    0    0    0    0  0.00000000000E+00  0.00000000000E+00  0.45593999997E+02  0.45594000000E+02  0.51100000000E-03 0.  1.
         11   -1    0    0    0    0 -0.00000000000E+00 -0.00000000000E+00 -0.45593999997E+02  0.45594000000E+02  0.51100000000E-03 0. -1.
    9900012    2    1    2    0    0 -0.80489921909E+01 -0.28781600891E+02  0.27568094818E+02  0.50528847561E+02  0.29999962647E+02 0.  0.
         12    1    1    2    0    0  0.80489921909E+01  0.28781600891E+02 -0.27568094818E+02  0.40659152439E+02  0.00000000000E+00 0. -1.
         11    1    3    3    0    0  0.27455089888E+01  0.49212766010E+01  0.37400632991E+01  0.67634944174E+01  0.51100000000E-03 0. -1.
        -11    1    3    3    0    0 -0.28974640725E+01 -0.94685620904E+01  0.12301622015E+02  0.15791734248E+02  0.51100000000E-03 0.  1.
         12    1    3    3    0    0 -0.78970371072E+01 -0.24234315402E+02  0.11526409504E+02  0.27973618896E+02  0.00000000000E+00 0. -1.
</event>
<event>
 7    1  0.6046695E-013  0.5052883E+02  0.7816164E-02  0.1300439E+00
        -11   -1    0    0    0    0  0.00000000000E+00  0.00000000000E+00  0.45593999997E+02  0.45594000000E+02  0.51100000000E-03 0.  1.
         11   -1    0    0    0    0 -0.00000000000E+00 -0.00000000000E+00 -0.45593999997E+02  0.45594000000E+02  0.51100000000E-03 0. -1.
    9900012    2    1    2    0    0  0.34244672175E+02  0.21382505139E+02  0.48227737982E+01  0.50528828274E+02  0.29999904020E+02 0.  0.
         12    1    1    2    0    0 -0.34244672175E+02 -0.21382505139E+02 -0.48227737982E+01  0.40659171726E+02  0.00000000000E+00 0. -1.
         11    1    3    3    0    0 -0.31815403768E+01  0.58479043784E+01  0.94323197466E+00  0.67238286420E+01  0.51100000000E-03 0. -1.
        -11    1    3    3    0    0  0.35849639354E+02  0.13391713788E+02  0.78107731511E+01  0.39058197827E+02  0.51100000000E-03 0.  1.
        -12    1    3    3    0    0  0.15765731977E+01  0.21428869727E+01 -0.39312313276E+01  0.47468018051E+01  0.00000000000E+00 0.  1.
</event>
<event>
 7    1  0.6046695E-013  0.5052883E+02  0.7816164E-02  0.1300439E+00
        -11   -1    0    0    0    0  0.00000000000E+00  0.00000000000E+00  0.45593999997E+02  0.45594000000E+02  0.51100000000E-03 0.  1.
         11   -1    0    0    0    0 -0.00000000000E+00 -0.00000000000E+00 -0.45593999997E+02  0.45594000000E+02  0.51100000000E-03 0. -1.
    9900012    2    1    2    0    0  0.50541607626E+01 -0.25366263451E+02  0.31371578039E+02  0.50528834107E+02  0.29999921750E+02 0.  0.
         12    1    1    2    0    0 -0.50541607626E+01  0.25366263451E+02 -0.31371578039E+02  0.40659165893E+02  0.00000000000E+00 0. -1.
         11    1    3    3    0    0  0.15714532311E+01 -0.16448581025E+01  0.17627144802E+02  0.17773329951E+02  0.51100000000E-03 0. -1.
        -11    1    3    3    0    0  0.93922326353E+01 -0.21389744869E+02  0.11274845713E+02  0.25939494319E+02  0.51100000000E-03 0.  1.
         12    1    3    3    0    0 -0.59095251038E+01 -0.23316604802E+01  0.24695875240E+01  0.68160098361E+01  0.00000000000E+00 0. -1.
</event>
<event>
 7    1  0.6046695E-013  0.5052887E+02  0.7816164E-02  0.1300439E+00
        -11   -1    0    0    0    0  0.00000000000E+00  0.00000000000E+00  0.45593999997E+02  0.45594000000E+02  0.51100000000E-03 0. -1.
         11   -1    0    0    0    0 -0.00000000000E+00 -0.00000000000E+00 -0.45593999997E+02  0.45594000000E+02  0.51100000000E-03 0.  1.
    9900012    2    1    2    0    0 -0.32836216501E+02 -0.19436051617E+02 -0.14042351854E+02  0.50528869880E+02  0.30000030487E+02 0.  0.
         12    1    1    2    0    0  0.32836216501E+02  0.19436051617E+02  0.14042351854E+02  0.40659130120E+02  0.00000000000E+00 0. -1.
         11    1    3    3    0    0 -0.29718530743E+02 -0.90565503959E+01 -0.23571246862E+01  0.31157153458E+02  0.51100000000E-03 0. -1.
        -11    1    3    3    0    0  0.21416110166E+00 -0.14639612609E+01 -0.94892397501E+01  0.96038908181E+01  0.51100000000E-03 0.  1.
         12    1    3    3    0    0 -0.33318468597E+01 -0.89155399602E+01 -0.21959874176E+01  0.97678256034E+01  0.00000000000E+00 0. -1.
</event>
<event>
 7    1  0.6046695E-013  0.5052886E+02  0.7816164E-02  0.1300439E+00
        -11   -1    0    0    0    0  0.00000000000E+00  0.00000000000E+00  0.45593999997E+02  0.45594000000E+02  0.51100000000E-03 0.  1.
         11   -1    0    0    0    0 -0.00000000000E+00 -0.00000000000E+00 -0.45593999997E+02  0.45594000000E+02  0.51100000000E-03 0. -1.
    9900012    2    1    2    0    0 -0.31850980601E+02 -0.77197630840E+01  0.24064197880E+02  0.50528864164E+02  0.30000013113E+02 0.  0.
         12    1    1    2    0    0  0.31850980601E+02  0.77197630840E+01 -0.24064197880E+02  0.40659135836E+02  0.00000000000E+00 0. -1.
         11    1    3    3    0    0 -0.70353829341E+01 -0.50469568415E+01 -0.52625865492E+01  0.10132285223E+02  0.51100000000E-03 0. -1.
        -11    1    3    3    0    0 -0.14867420920E+02  0.29956036090E+01  0.10805119556E+02  0.18621612569E+02  0.51100000000E-03 0.  1.
         12    1    3    3    0    0 -0.99481767468E+01 -0.56684098515E+01  0.18521664874E+02  0.21774966372E+02  0.00000000000E+00 0. -1.
</event>
<event>
 7    1  0.6046695E-013  0.5052888E+02  0.7816164E-02  0.1300439E+00
        -11   -1    0    0    0    0  0.00000000000E+00  0.00000000000E+00  0.45593999997E+02  0.45594000000E+02  0.51100000000E-03 0.  1.
         11   -1    0    0    0    0 -0.00000000000E+00 -0.00000000000E+00 -0.45593999997E+02  0.45594000000E+02  0.51100000000E-03 0. -1.
    9900012    2    1    2    0    0 -0.16084743824E+01 -0.15216835679E+00  0.40627005998E+02  0.50528880956E+02  0.30000064154E+02 0.  0.
         12    1    1    2    0    0  0.16084743824E+01  0.15216835679E+00 -0.40627005998E+02  0.40659119044E+02  0.00000000000E+00 0. -1.
         11    1    3    3    0    0 -0.13103691824E+02  0.29272005126E+01  0.21234430760E+02  0.25123222170E+02  0.51100000000E-03 0. -1.
        -11    1    3    3    0    0  0.98010967471E+01 -0.66349907846E+01  0.11104892622E+02  0.16229702417E+02  0.51100000000E-03 0.  1.
        -12    1    3    3    0    0  0.16941206940E+01  0.35556219152E+01  0.82876826167E+01  0.91759563690E+01  0.00000000000E+00 0.  1.
</event>
<event>
 7    1  0.6046695E-013  0.5052887E+02  0.7816164E-02  0.1300439E+00
        -11   -1    0    0    0    0  0.00000000000E+00  0.00000000000E+00  0.45593999997E+02  0.45594000000E+02  0.51100000000E-03 0.  1.
         11   -1    0    0    0    0 -0.00000000000E+00 -0.00000000000E+00 -0.45593999997E+02  0.45594000000E+02  0.51100000000E-03 0. -1.
    9900012    2    1    2    0    0  0.17074053736E+01 -0.31447545452E+02  0.25715782740E+02  0.50528870275E+02  0.30000031689E+02 0.  0.
         12    1    1    2    0    0 -0.17074053736E+01  0.31447545452E+02 -0.25715782740E+02  0.40659129725E+02  0.00000000000E+00 0. -1.
         11    1    3    3    0    0  0.95396973187E+01 -0.11618504209E+01  0.34076406943E+01  0.10196457066E+02  0.51100000000E-03 0. -1.
        -11    1    3    3    0    0 -0.55974647843E+01 -0.11354334631E+02  0.15675266104E+02  0.20148610240E+02  0.51100000000E-03 0.  1.
         12    1    3    3    0    0 -0.22348271608E+01 -0.18931360400E+02  0.66328759414E+01  0.20183802969E+02  0.00000000000E+00 0. -1.
</event>
<event>
 7    1  0.6046695E-013  0.5052886E+02  0.7816164E-02  0.1300439E+00
        -11   -1    0    0    0    0  0.00000000000E+00  0.00000000000E+00  0.45593999997E+02  0.45594000000E+02  0.51100000000E-03 0. -1.
         11   -1    0    0    0    0 -0.00000000000E+00 -0.00000000000E+00 -0.45593999997E+02  0.45594000000E+02  0.51100000000E-03 0.  1.
    9900012    2    1    2    0    0  0.25025157428E+02  0.10835853024E+02 -0.30157773342E+02  0.50528861937E+02  0.30000006344E+02 0.  0.
         12    1    1    2    0    0 -0.25025157428E+02 -0.10835853024E+02  0.30157773342E+02  0.40659138063E+02  0.00000000000E+00 0. -1.
         11    1    3    3    0    0 -0.34031600222E+01 -0.14995282023E+01  0.62076189649E+00  0.37703353378E+01  0.51100000000E-03 0. -1.
        -11    1    3    3    0    0  0.16304640529E+02  0.17168222634E+01 -0.24463375658E+02  0.29449032757E+02  0.51100000000E-03 0.  1.
        -12    1    3    3    0    0  0.12123676922E+02  0.10618558963E+02 -0.63151595803E+01  0.17309493842E+02  0.00000000000E+00 0.  1.
</event>
<event>
 7    1  0.6046695E-013  0.5052886E+02  0.7816164E-02  0.1300439E+00
        -11   -1    0    0    0    0  0.00000000000E+00  0.00000000000E+00  0.45593999997E+02  0.45594000000E+02  0.51100000000E-03 0. -1.
         11   -1    0    0    0    0 -0.00000000000E+00 -0.00000000000E+00 -0.45593999997E+02  0.45594000000E+02  0.51100000000E-03 0.  1.
    9900012    2    1    2    0    0 -0.25672465308E+01  0.36398000945E+02 -0.17937684197E+02  0.50528859061E+02  0.29999997601E+02 0.  0.
         12    1    1    2    0    0  0.25672465308E+01 -0.36398000945E+02  0.17937684197E+02  0.40659140939E+02  0.00000000000E+00 0. -1.
         11    1    3    3    0    0  0.36419060456E+01  0.17295470817E+02 -0.43229243085E+00  0.17680035843E+02  0.51100000000E-03 0. -1.
        -11    1    3    3    0    0 -0.61475842254E+01  0.40529845641E+00 -0.11781209089E+02  0.13294884223E+02  0.51100000000E-03 0.  1.
        -12    1    3    3    0    0 -0.61568351003E-01  0.18697231672E+02 -0.57241826765E+01  0.19553938994E+02  0.00000000000E+00 0.  1.
</event>
<event>
 7    1  0.6046695E-013  0.5052886E+02  0.7816164E-02  0.1300439E+00
        -11   -1    0    0    0    0  0.00000000000E+00  0.00000000000E+00  0.45593999997E+02  0.45594000000E+02  0.51100000000E-03 0.  1.
         11   -1    0    0    0    0 -0.00000000000E+00 -0.00000000000E+00 -0.45593999997E+02  0.45594000000E+02  0.51100000000E-03 0. -1.
    9900012    2    1    2    0    0 -0.19990993830E+02  0.32580966565E+02  0.13856637695E+02  0.50528860501E+02  0.30000001979E+02 0.  0.
         12    1    1    2    0    0  0.19990993830E+02 -0.32580966565E+02 -0.13856637695E+02  0.40659139499E+02  0.00000000000E+00 0. -1.
         11    1    3    3    0    0 -0.13630883640E+02  0.25099486818E+02  0.67566797833E+01  0.29350263190E+02  0.51100000000E-03 0.  1.
        -11    1    3    3    0    0 -0.59284371761E+01 -0.25720271321E+01 -0.28177237093E+01  0.70499119202E+01  0.51100000000E-03 0. -1.
        -12    1    3    3    0    0 -0.43167301367E+00  0.10053506878E+02  0.99176816210E+01  0.14128685391E+02  0.00000000000E+00 0.  1.
</event>
<event>
 7    1  0.6046695E-013  0.5052887E+02  0.7816164E-02  0.1300439E+00
        -11   -1    0    0    0    0  0.00000000000E+00  0.00000000000E+00  0.45593999997E+02  0.45594000000E+02  0.51100000000E-03 0.  1.
         11   -1    0    0    0    0 -0.00000000000E+00 -0.00000000000E+00 -0.45593999997E+02  0.45594000000E+02  0.51100000000E-03 0. -1.
    9900012    2    1    2    0    0 -0.26376282344E+02  0.15335081344E+02  0.26875492574E+02  0.50528867062E+02  0.30000021922E+02 0.  0.
         12    1    1    2    0    0  0.26376282344E+02 -0.15335081344E+02 -0.26875492574E+02  0.40659132938E+02  0.00000000000E+00 0. -1.
         11    1    3    3    0    0 -0.10243952996E+02 -0.26242878522E+00  0.28874365641E+01  0.10646348296E+02  0.51100000000E-03 0. -1.
        -11    1    3    3    0    0 -0.91246534778E+01  0.20745067420E+02  0.20343562643E+02  0.30454517968E+02  0.51100000000E-03 0.  1.
        -12    1    3    3    0    0 -0.70076758701E+01 -0.51475572909E+01  0.36444933672E+01  0.94280007990E+01  0.00000000000E+00 0.  1.
</event>
<event>
 7    1  0.6046695E-013  0.5052886E+02  0.7816164E-02  0.1300439E+00
        -11   -1    0    0    0    0  0.00000000000E+00  0.00000000000E+00  0.45593999997E+02  0.45594000000E+02  0.51100000000E-03 0. -1.
         11   -1    0    0    0    0 -0.00000000000E+00 -0.00000000000E+00 -0.45593999997E+02  0.45594000000E+02  0.51100000000E-03 0.  1.
    9900012    2    1    2    0    0 -0.32169791531E+02  0.41592724895E+01 -0.24514698961E+02  0.50528862037E+02  0.30000006647E+02 0.  0.
         12    1    1    2    0    0  0.32169791531E+02 -0.41592724895E+01  0.24514698961E+02  0.40659137963E+02  0.00000000000E+00 0. -1.
         11    1    3    3    0    0 -0.16579792130E+01 -0.45143297209E+01 -0.12955459102E+01  0.49806131516E+01  0.51100000000E-03 0. -1.
        -11    1    3    3    0    0 -0.15112343268E+02  0.15892775301E+02 -0.15592360992E+02  0.26908826570E+02  0.51100000000E-03 0.  1.
        -12    1    3    3    0    0 -0.15399469050E+02 -0.72191730905E+01 -0.76267920590E+01  0.18639422315E+02  0.00000000000E+00 0.  1.
</event>
<event>
 7    1  0.6046695E-013  0.5052886E+02  0.7816164E-02  0.1300439E+00
        -11   -1    0    0    0    0  0.00000000000E+00  0.00000000000E+00  0.45593999997E+02  0.45594000000E+02  0.51100000000E-03 0.  1.
         11   -1    0    0    0    0 -0.00000000000E+00 -0.00000000000E+00 -0.45593999997E+02  0.45594000000E+02  0.51100000000E-03 0. -1.
    9900012    2    1    2    0    0  0.17652065608E+02  0.31408558794E+02  0.18843375682E+02  0.50528858435E+02  0.29999995698E+02 0.  0.
         12    1    1    2    0    0 -0.17652065608E+02 -0.31408558794E+02 -0.18843375682E+02  0.40659141565E+02  0.00000000000E+00 0. -1.
         11    1    3    3    0    0  0.93525690547E+01  0.71516740732E+01 -0.19897228696E+01  0.11940518721E+02  0.51100000000E-03 0. -1.
        -11    1    3    3    0    0  0.85226805581E+01  0.27683240663E+02  0.19432342558E+02  0.34879991902E+02  0.51100000000E-03 0.  1.
        -12    1    3    3    0    0 -0.22318400461E+00 -0.34263559420E+01  0.14007559928E+01  0.37083478116E+01  0.00000000000E+00 0.  1.
</event>
<event>
 7    1  0.6046695E-013  0.5052886E+02  0.7816164E-02  0.1300439E+00
        -11   -1    0    0    0    0  0.00000000000E+00  0.00000000000E+00  0.45593999997E+02  0.45594000000E+02  0.51100000000E-03 0.  1.
         11   -1    0    0    0    0 -0.00000000000E+00 -0.00000000000E+00 -0.45593999997E+02  0.45594000000E+02  0.51100000000E-03 0. -1.
    9900012    2    1    2    0    0 -0.36373560260E+02  0.35428637727E+01  0.17820711665E+02  0.50528861618E+02  0.30000005374E+02 0.  0.
         12    1    1    2    0    0  0.36373560260E+02 -0.35428637727E+01 -0.17820711665E+02  0.40659138382E+02  0.00000000000E+00 0. -1.
         11    1    3    3    0    0  0.32994844308E-03  0.37989020871E+01  0.96644734790E+01  0.10384300894E+02  0.51100000000E-03 0.  1.
        -11    1    3    3    0    0 -0.32975120906E+02 -0.17720677115E+00  0.11928140221E+02  0.35066658387E+02  0.51100000000E-03 0. -1.
        -12    1    3    3    0    0 -0.33987693025E+01 -0.78831543207E-01 -0.37719020349E+01  0.50779023371E+01  0.00000000000E+00 0.  1.
</event>
<event>
 7    1  0.6046695E-013  0.5052887E+02  0.7816164E-02  0.1300439E+00
        -11   -1    0    0    0    0  0.00000000000E+00  0.00000000000E+00  0.45593999997E+02  0.45594000000E+02  0.51100000000E-03 0. -1.
         11   -1    0    0    0    0 -0.00000000000E+00 -0.00000000000E+00 -0.45593999997E+02  0.45594000000E+02  0.51100000000E-03 0.  1.
    9900012    2    1    2    0    0  0.77131590823E+01  0.14823020528E+02 -0.37066837417E+02  0.50528865766E+02  0.30000017981E+02 0.  0.
         12    1    1    2    0    0 -0.77131590823E+01 -0.14823020528E+02  0.37066837417E+02  0.40659134234E+02  0.00000000000E+00 0. -1.
         11    1    3    3    0    0  0.12251774528E+02  0.59794850910E+01 -0.22303913438E+01  0.13814299362E+02  0.51100000000E-03 0. -1.
        -11    1    3    3    0    0 -0.55068584261E+01  0.45906650549E+01 -0.23443036039E+02  0.24514804391E+02  0.51100000000E-03 0.  1.
         12    1    3    3    0    0  0.96824298011E+00  0.42528703819E+01 -0.11393410034E+02  0.12199762013E+02  0.00000000000E+00 0. -1.
</event>
<event>
 7    1  0.6046695E-013  0.5052886E+02  0.7816164E-02  0.1300439E+00
        -11   -1    0    0    0    0  0.00000000000E+00  0.00000000000E+00  0.45593999997E+02  0.45594000000E+02  0.51100000000E-03 0. -1.
         11   -1    0    0    0    0 -0.00000000000E+00 -0.00000000000E+00 -0.45593999997E+02  0.45594000000E+02  0.51100000000E-03 0.  1.
    9900012    2    1    2    0    0  0.27288822013E+02  0.28897668945E+02  0.85680108940E+01  0.50528857264E+02  0.29999992141E+02 0.  0.
         12    1    1    2    0    0 -0.27288822013E+02 -0.28897668945E+02 -0.85680108940E+01  0.40659142736E+02  0.00000000000E+00 0. -1.
         11    1    3    3    0    0 -0.42068152915E+01  0.33869256762E+01  0.22795761046E+01  0.58621692155E+01  0.51100000000E-03 0. -1.
        -11    1    3    3    0    0  0.17611758764E+02  0.14294114332E+02 -0.54191978314E+01  0.23320880272E+02  0.51100000000E-03 0.  1.
        -12    1    3    3    0    0  0.13883878541E+02  0.11216628938E+02  0.11707632621E+02  0.21345807777E+02  0.00000000000E+00 0.  1.
</event>
<event>
 7    1  0.6046695E-013  0.5052887E+02  0.7816164E-02  0.1300439E+00
        -11   -1    0    0    0    0  0.00000000000E+00  0.00000000000E+00  0.45593999997E+02  0.45594000000E+02  0.51100000000E-03 0.  1.
         11   -1    0    0    0    0 -0.00000000000E+00 -0.00000000000E+00 -0.45593999997E+02  0.45594000000E+02  0.51100000000E-03 0. -1.
    9900012    2    1    2    0    0  0.36438730172E+02  0.52380355250E+01  0.17261146495E+02  0.50528865097E+02  0.30000015948E+02 0.  0.
         12    1    1    2    0    0 -0.36438730172E+02 -0.52380355250E+01 -0.17261146495E+02  0.40659134903E+02  0.00000000000E+00 0. -1.
         11    1    3    3    0    0  0.11437156814E+02  0.39712921131E+01  0.37098335520E-01  0.12107067918E+02  0.51100000000E-03 0. -1.
        -11    1    3    3    0    0  0.39849352579E+00 -0.75571348699E+01  0.71466581043E+01  0.10408833117E+02  0.51100000000E-03 0.  1.
        -12    1    3    3    0    0  0.24603079833E+02  0.88238782818E+01  0.10077390055E+02  0.28012964062E+02  0.00000000000E+00 0.  1.
</event>
<event>
 7    1  0.6046695E-013  0.5052885E+02  0.7816164E-02  0.1300439E+00
        -11   -1    0    0    0    0  0.00000000000E+00  0.00000000000E+00  0.45593999997E+02  0.45594000000E+02  0.51100000000E-03 0. -1.
         11   -1    0    0    0    0 -0.00000000000E+00 -0.00000000000E+00 -0.45593999997E+02  0.45594000000E+02  0.51100000000E-03 0.  1.
    9900012    2    1    2    0    0 -0.32899696898E+02 -0.19936011663E+02 -0.13165545989E+02  0.50528853204E+02  0.29999979798E+02 0.  0.
         12    1    1    2    0    0  0.32899696898E+02  0.19936011663E+02  0.13165545989E+02  0.40659146796E+02  0.00000000000E+00 0. -1.
         11    1    3    3    0    0  0.67846088044E+00  0.66679134133E+00  0.63139521828E+01  0.63852104340E+01  0.51100000000E-03 0. -1.
        -11    1    3    3    0    0 -0.30997855950E+02 -0.18198983210E+02 -0.16611523602E+02  0.39598141118E+02  0.51100000000E-03 0.  1.
         12    1    3    3    0    0 -0.25803018292E+01 -0.24038197943E+01 -0.28679745698E+01  0.45455016517E+01  0.00000000000E+00 0. -1.
</event>
<event>
 7    1  0.6046695E-013  0.5052886E+02  0.7816164E-02  0.1300439E+00
        -11   -1    0    0    0    0  0.00000000000E+00  0.00000000000E+00  0.45593999997E+02  0.45594000000E+02  0.51100000000E-03 0. -1.
         11   -1    0    0    0    0 -0.00000000000E+00 -0.00000000000E+00 -0.45593999997E+02  0.45594000000E+02  0.51100000000E-03 0.  1.
    9900012    2    1    2    0    0 -0.26907785984E+02 -0.28779917162E+02 -0.10042559531E+02  0.50528861047E+02  0.30000003640E+02 0.  0.
         12    1    1    2    0    0  0.26907785984E+02  0.28779917162E+02  0.10042559531E+02  0.40659138953E+02  0.00000000000E+00 0. -1.
         11    1    3    3    0    0 -0.93081602794E+00  0.18398177769E+00  0.58197759643E+01  0.58966143089E+01  0.51100000000E-03 0. -1.
        -11    1    3    3    0    0 -0.25058779008E+02 -0.18382150438E+02 -0.12402513978E+02  0.33461443683E+02  0.51100000000E-03 0.  1.
         12    1    3    3    0    0 -0.91819094802E+00 -0.10581748502E+02 -0.34598215174E+01  0.11170803056E+02  0.00000000000E+00 0. -1.
</event>
<event>
 7    1  0.6046695E-013  0.5052887E+02  0.7816164E-02  0.1300439E+00
        -11   -1    0    0    0    0  0.00000000000E+00  0.00000000000E+00  0.45593999997E+02  0.45594000000E+02  0.51100000000E-03 0. -1.
         11   -1    0    0    0    0 -0.00000000000E+00 -0.00000000000E+00 -0.45593999997E+02  0.45594000000E+02  0.51100000000E-03 0.  1.
    9900012    2    1    2    0    0  0.39775849775E+02 -0.16097506789E+01 -0.82737935395E+01  0.50528865945E+02  0.30000018526E+02 0.  0.
         12    1    1    2    0    0 -0.39775849775E+02  0.16097506789E+01  0.82737935395E+01  0.40659134055E+02  0.00000000000E+00 0. -1.
         11    1    3    3    0    0  0.17682160024E+02  0.85114598669E+01 -0.53647894028E+00  0.19631391752E+02  0.51100000000E-03 0. -1.
        -11    1    3    3    0    0  0.89159646689E+01 -0.85305995179E+01 -0.11741623815E+02  0.17033240566E+02  0.51100000000E-03 0.  1.
        -12    1    3    3    0    0  0.13177725082E+02 -0.15906110279E+01  0.40043092158E+01  0.13864233627E+02  0.00000000000E+00 0.  1.
</event>
<event>
 7    1  0.6046695E-013  0.5052897E+02  0.7816164E-02  0.1300438E+00
        -11   -1    0    0    0    0  0.00000000000E+00  0.00000000000E+00  0.45593999997E+02  0.45594000000E+02  0.51100000000E-03 0.  1.
         11   -1    0    0    0    0 -0.00000000000E+00 -0.00000000000E+00 -0.45593999997E+02  0.45594000000E+02  0.51100000000E-03 0. -1.
    9900012    2    1    2    0    0 -0.10257175360E+02  0.32347980455E+02  0.22395428677E+02  0.50528970111E+02  0.30000335148E+02 0.  0.
         12    1    1    2    0    0  0.10257175360E+02 -0.32347980455E+02 -0.22395428677E+02  0.40659029889E+02  0.00000000000E+00 0. -1.
         11    1    3    3    0    0 -0.10617184504E+02  0.27987525771E+02  0.23191726420E+02  0.37866639410E+02  0.51100000000E-03 0. -1.
        -11    1    3    3    0    0  0.23108975080E+01  0.21973035965E+01 -0.59452944853E+01  0.67464744249E+01  0.51100000000E-03 0.  1.
        -12    1    3    3    0    0 -0.19508883644E+01  0.21631510873E+01  0.51489967421E+01  0.59158562768E+01  0.00000000000E+00 0.  1.
</event>
<event>
 7    1  0.6046695E-013  0.5052887E+02  0.7816164E-02  0.1300439E+00
        -11   -1    0    0    0    0  0.00000000000E+00  0.00000000000E+00  0.45593999997E+02  0.45594000000E+02  0.51100000000E-03 0. -1.
         11   -1    0    0    0    0 -0.00000000000E+00 -0.00000000000E+00 -0.45593999997E+02  0.45594000000E+02  0.51100000000E-03 0.  1.
    9900012    2    1    2    0    0 -0.21741359971E+02 -0.33743628919E+02 -0.64688424374E+01  0.50528866359E+02  0.30000019784E+02 0.  0.
         12    1    1    2    0    0  0.21741359971E+02  0.33743628919E+02  0.64688424374E+01  0.40659133641E+02  0.00000000000E+00 0. -1.
         11    1    3    3    0    0  0.34263830315E+01 -0.12802292852E+02 -0.63474704319E+01  0.14694529053E+02  0.51100000000E-03 0. -1.
        -11    1    3    3    0    0 -0.23005695415E+02 -0.23208717407E+02 -0.46851953275E+00  0.32682198458E+02  0.51100000000E-03 0.  1.
        -12    1    3    3    0    0 -0.21620475873E+01  0.22673813402E+01  0.34714752723E+00  0.31521388480E+01  0.00000000000E+00 0.  1.
</event>
<event>
 7    1  0.6046695E-013  0.5052887E+02  0.7816164E-02  0.1300439E+00
        -11   -1    0    0    0    0  0.00000000000E+00  0.00000000000E+00  0.45593999997E+02  0.45594000000E+02  0.51100000000E-03 0.  1.
         11   -1    0    0    0    0 -0.00000000000E+00 -0.00000000000E+00 -0.45593999997E+02  0.45594000000E+02  0.51100000000E-03 0. -1.
    9900012    2    1    2    0    0  0.21272107360E+01  0.33837314152E+02  0.22442733355E+02  0.50528866525E+02  0.30000020289E+02 0.  0.
         12    1    1    2    0    0 -0.21272107360E+01 -0.33837314152E+02 -0.22442733355E+02  0.40659133475E+02  0.00000000000E+00 0. -1.
         11    1    3    3    0    0  0.30668331149E+01  0.88337196584E+01 -0.27546324318E+01  0.97482341197E+01  0.51100000000E-03 0. -1.
        -11    1    3    3    0    0  0.30472037131E+01 -0.45858572996E+00  0.10859823205E+02  0.11288556668E+02  0.51100000000E-03 0.  1.
        -12    1    3    3    0    0 -0.39868260920E+01  0.25462180223E+02  0.14337542582E+02  0.29492075737E+02  0.00000000000E+00 0.  1.
</event>
<event>
 7    1  0.6046695E-013  0.5052886E+02  0.7816164E-02  0.1300439E+00
        -11   -1    0    0    0    0  0.00000000000E+00  0.00000000000E+00  0.45593999997E+02  0.45594000000E+02  0.51100000000E-03 0. -1.
         11   -1    0    0    0    0 -0.00000000000E+00 -0.00000000000E+00 -0.45593999997E+02  0.45594000000E+02  0.51100000000E-03 0.  1.
    9900012    2    1    2    0    0 -0.19832578256E+02 -0.33504258777E+02 -0.11717463521E+02  0.50528862431E+02  0.30000007845E+02 0.  0.
         12    1    1    2    0    0  0.19832578256E+02  0.33504258777E+02  0.11717463521E+02  0.40659137569E+02  0.00000000000E+00 0. -1.
         11    1    3    3    0    0 -0.10309889071E+02 -0.27622327120E+02 -0.60496877694E+01  0.30097931666E+02  0.51100000000E-03 0. -1.
        -11    1    3    3    0    0 -0.13160665318E+02 -0.14323337316E+01 -0.62771985708E+01  0.14651208608E+02  0.51100000000E-03 0.  1.
         12    1    3    3    0    0  0.36379761324E+01 -0.44495979257E+01  0.60942281939E+00  0.57797221571E+01  0.00000000000E+00 0. -1.
</event>
<event>
 7    1  0.6046695E-013  0.5052886E+02  0.7816164E-02  0.1300439E+00
        -11   -1    0    0    0    0  0.00000000000E+00  0.00000000000E+00  0.45593999997E+02  0.45594000000E+02  0.51100000000E-03 0.  1.
         11   -1    0    0    0    0 -0.00000000000E+00 -0.00000000000E+00 -0.45593999997E+02  0.45594000000E+02  0.51100000000E-03 0. -1.
    9900012    2    1    2    0    0 -0.33804975658E+02  0.33379663542E+01  0.22343839674E+02  0.50528861175E+02  0.30000004027E+02 0.  0.
         12    1    1    2    0    0  0.33804975658E+02 -0.33379663542E+01 -0.22343839674E+02  0.40659138825E+02  0.00000000000E+00 0. -1.
         11    1    3    3    0    0  0.10783972562E+01  0.42123759470E+01  0.11372516502E+02  0.12175433611E+02  0.51100000000E-03 0. -1.
        -11    1    3    3    0    0 -0.25876551334E+02 -0.30440600783E+01  0.12608527748E+02  0.28945417304E+02  0.51100000000E-03 0.  1.
         12    1    3    3    0    0 -0.90068215809E+01  0.21696504855E+01 -0.16372045770E+01  0.94080102597E+01  0.00000000000E+00 0. -1.
</event>
<event>
 7    1  0.6046695E-013  0.5052885E+02  0.7816164E-02  0.1300439E+00
        -11   -1    0    0    0    0  0.00000000000E+00  0.00000000000E+00  0.45593999997E+02  0.45594000000E+02  0.51100000000E-03 0.  1.
         11   -1    0    0    0    0 -0.00000000000E+00 -0.00000000000E+00 -0.45593999997E+02  0.45594000000E+02  0.51100000000E-03 0. -1.
    9900012    2    1    2    0    0  0.10352569843E+02  0.15090257506E+02  0.36308058691E+02  0.50528847280E+02  0.29999961794E+02 0.  0.
         12    1    1    2    0    0 -0.10352569843E+02 -0.15090257506E+02 -0.36308058691E+02  0.40659152720E+02  0.00000000000E+00 0. -1.
         11    1    3    3    0    0 -0.64968725279E+01  0.71680534677E+01  0.15043930271E+01  0.97904822047E+01  0.51100000000E-03 0. -1.
        -11    1    3    3    0    0  0.97889970642E+01  0.83677597589E+01  0.28452552003E+02  0.31231259703E+02  0.51100000000E-03 0.  1.
         12    1    3    3    0    0  0.70604453068E+01 -0.44555572036E+00  0.63511136608E+01  0.95071053724E+01  0.00000000000E+00 0. -1.
</event>
<event>
 7    1  0.6046695E-013  0.5052887E+02  0.7816164E-02  0.1300439E+00
        -11   -1    0    0    0    0  0.00000000000E+00  0.00000000000E+00  0.45593999997E+02  0.45594000000E+02  0.51100000000E-03 0.  1.
         11   -1    0    0    0    0 -0.00000000000E+00 -0.00000000000E+00 -0.45593999997E+02  0.45594000000E+02  0.51100000000E-03 0. -1.
    9900012    2    1    2    0    0  0.32100523567E+02 -0.11548948951E+02  0.22121103795E+02  0.50528867345E+02  0.30000022781E+02 0.  0.
         12    1    1    2    0    0 -0.32100523567E+02  0.11548948951E+02 -0.22121103795E+02  0.40659132655E+02  0.00000000000E+00 0. -1.
         11    1    3    3    0    0  0.11738161908E+02 -0.68387966749E+01 -0.18060309458E+01  0.13704573433E+02  0.51100000000E-03 0. -1.
        -11    1    3    3    0    0  0.20781603560E+02 -0.26424142991E+01  0.26316655944E+02  0.33636643414E+02  0.51100000000E-03 0.  1.
        -12    1    3    3    0    0 -0.41924190064E+00 -0.20677379770E+01 -0.23895212034E+01  0.31876504975E+01  0.00000000000E+00 0.  1.
</event>
<event>
 7    1  0.6046695E-013  0.5052887E+02  0.7816164E-02  0.1300439E+00
        -11   -1    0    0    0    0  0.00000000000E+00  0.00000000000E+00  0.45593999997E+02  0.45594000000E+02  0.51100000000E-03 0.  1.
         11   -1    0    0    0    0 -0.00000000000E+00 -0.00000000000E+00 -0.45593999997E+02  0.45594000000E+02  0.51100000000E-03 0. -1.
    9900012    2    1    2    0    0 -0.10604655990E+02 -0.14172586225E+02  0.36603880758E+02  0.50528867993E+02  0.30000024753E+02 0.  0.
         12    1    1    2    0    0  0.10604655990E+02  0.14172586225E+02 -0.36603880758E+02  0.40659132007E+02  0.00000000000E+00 0. -1.
         11    1    3    3    0    0  0.55871510776E+01  0.17281347638E+01  0.14339546475E+02  0.15486293949E+02  0.51100000000E-03 0. -1.
        -11    1    3    3    0    0 -0.14544971456E+02 -0.65302578316E+01  0.19391140321E+02  0.25104118890E+02  0.51100000000E-03 0.  1.
         12    1    3    3    0    0 -0.16468356120E+01 -0.93704631572E+01  0.28731939619E+01  0.99384551544E+01  0.00000000000E+00 0. -1.
</event>
<event>
 7    1  0.6046695E-013  0.5052886E+02  0.7816164E-02  0.1300439E+00
        -11   -1    0    0    0    0  0.00000000000E+00  0.00000000000E+00  0.45593999997E+02  0.45594000000E+02  0.51100000000E-03 0. -1.
         11   -1    0    0    0    0 -0.00000000000E+00 -0.00000000000E+00 -0.45593999997E+02  0.45594000000E+02  0.51100000000E-03 0.  1.
    9900012    2    1    2    0    0  0.26315235820E+02  0.19705143631E+02 -0.23924492077E+02  0.50528860278E+02  0.30000001301E+02 0.  0.
         12    1    1    2    0    0 -0.26315235820E+02 -0.19705143631E+02  0.23924492077E+02  0.40659139722E+02  0.00000000000E+00 0. -1.
         11    1    3    3    0    0  0.23452016652E+01 -0.52339609576E+00 -0.20577815379E+01  0.31636022889E+01  0.51100000000E-03 0. -1.
        -11    1    3    3    0    0  0.46378877191E+01 -0.49710880194E+01 -0.12538119933E+02  0.14262754653E+02  0.51100000000E-03 0.  1.
        -12    1    3    3    0    0  0.19332146436E+02  0.25199627747E+02 -0.93285906062E+01  0.33102503336E+02  0.00000000000E+00 0.  1.
</event>
<event>
 7    1  0.6046695E-013  0.5052887E+02  0.7816164E-02  0.1300439E+00
        -11   -1    0    0    0    0  0.00000000000E+00  0.00000000000E+00  0.45593999997E+02  0.45594000000E+02  0.51100000000E-03 0.  1.
         11   -1    0    0    0    0 -0.00000000000E+00 -0.00000000000E+00 -0.45593999997E+02  0.45594000000E+02  0.51100000000E-03 0. -1.
    9900012    2    1    2    0    0 -0.23530673760E+02  0.16652621791E+02  0.28673368630E+02  0.50528874472E+02  0.30000044444E+02 0.  0.
         12    1    1    2    0    0  0.23530673760E+02 -0.16652621791E+02 -0.28673368630E+02  0.40659125528E+02  0.00000000000E+00 0. -1.
         11    1    3    3    0    0  0.30953411286E+01 -0.32326896330E+01  0.16706421718E+01  0.47772863106E+01  0.51100000000E-03 0. -1.
        -11    1    3    3    0    0 -0.22546084304E+02  0.77288323608E+01  0.14830586521E+02  0.28071463516E+02  0.51100000000E-03 0.  1.
         12    1    3    3    0    0 -0.40799305846E+01  0.12156479064E+02  0.12172139938E+02  0.17680124645E+02  0.00000000000E+00 0. -1.
</event>
<event>
 7    1  0.6046695E-013  0.5052885E+02  0.7816164E-02  0.1300439E+00
        -11   -1    0    0    0    0  0.00000000000E+00  0.00000000000E+00  0.45593999997E+02  0.45594000000E+02  0.51100000000E-03 0.  1.
         11   -1    0    0    0    0 -0.00000000000E+00 -0.00000000000E+00 -0.45593999997E+02  0.45594000000E+02  0.51100000000E-03 0. -1.
    9900012    2    1    2    0    0  0.25899513121E+02 -0.29469587177E+02  0.10673589150E+02  0.50528845389E+02  0.29999956046E+02 0.  0.
         12    1    1    2    0    0 -0.25899513121E+02  0.29469587177E+02 -0.10673589150E+02  0.40659154611E+02  0.00000000000E+00 0. -1.
         11    1    3    3    0    0  0.62479577005E+01 -0.21316397517E+02  0.80423542002E+01  0.23624251096E+02  0.51100000000E-03 0. -1.
        -11    1    3    3    0    0  0.11268437517E+02  0.19334850148E+01 -0.41207959649E+01  0.12153065787E+02  0.51100000000E-03 0.  1.
        -12    1    3    3    0    0  0.83831179034E+01 -0.10086674675E+02  0.67520309152E+01  0.14751528506E+02  0.00000000000E+00 0.  1.
</event>
<event>
 7    1  0.6046695E-013  0.5052886E+02  0.7816164E-02  0.1300439E+00
        -11   -1    0    0    0    0  0.00000000000E+00  0.00000000000E+00  0.45593999997E+02  0.45594000000E+02  0.51100000000E-03 0.  1.
         11   -1    0    0    0    0 -0.00000000000E+00 -0.00000000000E+00 -0.45593999997E+02  0.45594000000E+02  0.51100000000E-03 0. -1.
    9900012    2    1    2    0    0 -0.19022070595E+02 -0.17084916093E+02  0.31613798841E+02  0.50528858287E+02  0.29999995250E+02 0.  0.
         12    1    1    2    0    0  0.19022070595E+02  0.17084916093E+02 -0.31613798841E+02  0.40659141713E+02  0.00000000000E+00 0. -1.
         11    1    3    3    0    0 -0.40187443799E+01  0.18061788382E+01 -0.45210327851E+01  0.63128698776E+01  0.51100000000E-03 0. -1.
        -11    1    3    3    0    0 -0.92538069381E+01 -0.14385625593E+02  0.18865681242E+02  0.25465527592E+02  0.51100000000E-03 0.  1.
         12    1    3    3    0    0 -0.57495192774E+01 -0.45054693381E+01  0.17269150384E+02  0.18750460817E+02  0.00000000000E+00 0. -1.
</event>
<event>
 7    1  0.6046695E-013  0.5052883E+02  0.7816164E-02  0.1300439E+00
        -11   -1    0    0    0    0  0.00000000000E+00  0.00000000000E+00  0.45593999997E+02  0.45594000000E+02  0.51100000000E-03 0.  1.
         11   -1    0    0    0    0 -0.00000000000E+00 -0.00000000000E+00 -0.45593999997E+02  0.45594000000E+02  0.51100000000E-03 0. -1.
    9900012    2    1    2    0    0  0.20507952446E+02 -0.14821058651E+02 -0.31826528659E+02  0.50528833512E+02  0.29999919942E+02 0.  0.
         12    1    1    2    0    0 -0.20507952446E+02  0.14821058651E+02  0.31826528659E+02  0.40659166488E+02  0.00000000000E+00 0. -1.
         11    1    3    3    0    0  0.54330779335E+01 -0.13790676428E+02 -0.13348250263E+02  0.19946851318E+02  0.51100000000E-03 0. -1.
        -11    1    3    3    0    0  0.13231341078E+02  0.74618229384E+01 -0.87202873120E+01  0.17515438885E+02  0.51100000000E-03 0.  1.
        -12    1    3    3    0    0  0.18435334349E+01 -0.84922051609E+01 -0.97579910844E+01  0.13066543308E+02  0.00000000000E+00 0.  1.
</event>
<event>
 7    1  0.6046695E-013  0.5052886E+02  0.7816164E-02  0.1300439E+00
        -11   -1    0    0    0    0  0.00000000000E+00  0.00000000000E+00  0.45593999997E+02  0.45594000000E+02  0.51100000000E-03 0.  1.
         11   -1    0    0    0    0 -0.00000000000E+00 -0.00000000000E+00 -0.45593999997E+02  0.45594000000E+02  0.51100000000E-03 0. -1.
    9900012    2    1    2    0    0 -0.36366707486E+02 -0.41014289275E+00  0.18178549015E+02  0.50528864804E+02  0.30000015059E+02 0.  0.
         12    1    1    2    0    0  0.36366707486E+02  0.41014289275E+00 -0.18178549015E+02  0.40659135196E+02  0.00000000000E+00 0. -1.
         11    1    3    3    0    0 -0.68929628944E+01 -0.73477384073E+01  0.15524814252E+02  0.18507351377E+02  0.51100000000E-03 0. -1.
        -11    1    3    3    0    0 -0.27916153154E+02  0.84134589300E+01  0.40864405732E+01  0.29441414621E+02  0.51100000000E-03 0.  1.
        -12    1    3    3    0    0 -0.15575914382E+01 -0.14758634155E+01 -0.14327058110E+01  0.25800988063E+01  0.00000000000E+00 0.  1.
</event>
<event>
 7    1  0.6046695E-013  0.5052886E+02  0.7816164E-02  0.1300439E+00
        -11   -1    0    0    0    0  0.00000000000E+00  0.00000000000E+00  0.45593999997E+02  0.45594000000E+02  0.51100000000E-03 0.  1.
         11   -1    0    0    0    0 -0.00000000000E+00 -0.00000000000E+00 -0.45593999997E+02  0.45594000000E+02  0.51100000000E-03 0. -1.
    9900012    2    1    2    0    0 -0.25136826761E+02 -0.31427896974E+02  0.57959533642E+01  0.50528857815E+02  0.29999993815E+02 0.  0.
         12    1    1    2    0    0  0.25136826761E+02  0.31427896974E+02 -0.57959533642E+01  0.40659142185E+02  0.00000000000E+00 0. -1.
         11    1    3    3    0    0 -0.13481578444E+02 -0.24803496402E+02  0.68027118703E+01  0.29038651487E+02  0.51100000000E-03 0. -1.
        -11    1    3    3    0    0 -0.26638989410E+01  0.23368760277E+01  0.60164459589E+01  0.69824758771E+01  0.51100000000E-03 0.  1.
         12    1    3    3    0    0 -0.89913493758E+01 -0.89612765993E+01 -0.70232044649E+01  0.14507730451E+02  0.00000000000E+00 0. -1.
</event>
<event>
 7    1  0.6046695E-013  0.5052886E+02  0.7816164E-02  0.1300439E+00
        -11   -1    0    0    0    0  0.00000000000E+00  0.00000000000E+00  0.45593999997E+02  0.45594000000E+02  0.51100000000E-03 0.  1.
         11   -1    0    0    0    0 -0.00000000000E+00 -0.00000000000E+00 -0.45593999997E+02  0.45594000000E+02  0.51100000000E-03 0. -1.
    9900012    2    1    2    0    0 -0.21459233878E+02  0.18610984170E+02  0.29091204932E+02  0.50528860131E+02  0.30000000856E+02 0.  0.
         12    1    1    2    0    0  0.21459233878E+02 -0.18610984170E+02 -0.29091204932E+02  0.40659139869E+02  0.00000000000E+00 0. -1.
         11    1    3    3    0    0  0.18401573609E+01  0.46302060005E+01  0.20311555198E+02  0.20913733802E+02  0.51100000000E-03 0. -1.
        -11    1    3    3    0    0 -0.12412874560E+02  0.77956992750E+01  0.62152343735E+00  0.14671014746E+02  0.51100000000E-03 0.  1.
        -12    1    3    3    0    0 -0.10886516679E+02  0.61850788947E+01  0.81581262970E+01  0.14944111583E+02  0.00000000000E+00 0.  1.
</event>
<event>
 7    1  0.6046695E-013  0.5052889E+02  0.7816164E-02  0.1300439E+00
        -11   -1    0    0    0    0  0.00000000000E+00  0.00000000000E+00  0.45593999997E+02  0.45594000000E+02  0.51100000000E-03 0.  1.
         11   -1    0    0    0    0 -0.00000000000E+00 -0.00000000000E+00 -0.45593999997E+02  0.45594000000E+02  0.51100000000E-03 0. -1.
    9900012    2    1    2    0    0  0.14562884818E+02  0.26536713965E+02  0.27145687544E+02  0.50528890879E+02  0.30000094315E+02 0.  0.
         12    1    1    2    0    0 -0.14562884818E+02 -0.26536713965E+02 -0.27145687544E+02  0.40659109121E+02  0.00000000000E+00 0. -1.
         11    1    3    3    0    0 -0.95129540486E+00 -0.32487891833E+01 -0.11377719361E+01  0.35712909913E+01  0.51100000000E-03 0.  1.
        -11    1    3    3    0    0  0.61614439250E+00  0.18392028671E+02  0.10917828276E+02  0.21397320558E+02  0.51100000000E-03 0. -1.
        -12    1    3    3    0    0  0.14898035830E+02  0.11393474477E+02  0.17365631205E+02  0.25560279329E+02  0.00000000000E+00 0.  1.
</event>
<event>
 7    1  0.6046695E-013  0.5052884E+02  0.7816164E-02  0.1300439E+00
        -11   -1    0    0    0    0  0.00000000000E+00  0.00000000000E+00  0.45593999997E+02  0.45594000000E+02  0.51100000000E-03 0.  1.
         11   -1    0    0    0    0 -0.00000000000E+00 -0.00000000000E+00 -0.45593999997E+02  0.45594000000E+02  0.51100000000E-03 0. -1.
    9900012    2    1    2    0    0  0.17849665857E+02  0.24268736343E+02 -0.27305401792E+02  0.50528842336E+02  0.29999946765E+02 0.  0.
         12    1    1    2    0    0 -0.17849665857E+02 -0.24268736343E+02  0.27305401792E+02  0.40659157664E+02  0.00000000000E+00 0. -1.
         11    1    3    3    0    0 -0.26910063592E+01  0.49920773406E+01 -0.72706275776E-01  0.56716521282E+01  0.51100000000E-03 0. -1.
        -11    1    3    3    0    0  0.10066193290E+02  0.70272165551E+01 -0.25927771611E+02  0.28687268271E+02  0.51100000000E-03 0.  1.
        -12    1    3    3    0    0  0.10474478926E+02  0.12249442448E+02 -0.13049239053E+01  0.16169921937E+02  0.00000000000E+00 0.  1.
</event>
<event>
 7    1  0.6046695E-013  0.5052886E+02  0.7816164E-02  0.1300439E+00
        -11   -1    0    0    0    0  0.00000000000E+00  0.00000000000E+00  0.45593999997E+02  0.45594000000E+02  0.51100000000E-03 0.  1.
         11   -1    0    0    0    0 -0.00000000000E+00 -0.00000000000E+00 -0.45593999997E+02  0.45594000000E+02  0.51100000000E-03 0. -1.
    9900012    2    1    2    0    0 -0.36701907011E+01  0.85151582867E+01  0.39587722615E+02  0.50528855859E+02  0.29999987870E+02 0.  0.
         12    1    1    2    0    0  0.36701907011E+01 -0.85151582867E+01 -0.39587722615E+02  0.40659144141E+02  0.00000000000E+00 0. -1.
         11    1    3    3    0    0 -0.60688225476E+01  0.15480660343E+01  0.19128999455E+02  0.20128232311E+02  0.51100000000E-03 0.  1.
        -11    1    3    3    0    0  0.82011696660E+01  0.48859035108E+01  0.55304577441E+00  0.95622746717E+01  0.51100000000E-03 0. -1.
         12    1    3    3    0    0 -0.58025378195E+01  0.20811887416E+01  0.19905677386E+02  0.20838348877E+02  0.00000000000E+00 0. -1.
</event>
<event>
 7    1  0.6046695E-013  0.5052885E+02  0.7816164E-02  0.1300439E+00
        -11   -1    0    0    0    0  0.00000000000E+00  0.00000000000E+00  0.45593999997E+02  0.45594000000E+02  0.51100000000E-03 0. -1.
         11   -1    0    0    0    0 -0.00000000000E+00 -0.00000000000E+00 -0.45593999997E+02  0.45594000000E+02  0.51100000000E-03 0.  1.
    9900012    2    1    2    0    0 -0.32784112301E+02 -0.21723712544E+02 -0.10317382877E+02  0.50528854713E+02  0.29999984387E+02 0.  0.
         12    1    1    2    0    0  0.32784112301E+02  0.21723712544E+02  0.10317382877E+02  0.40659145287E+02  0.00000000000E+00 0. -1.
         11    1    3    3    0    0  0.35367345731E+01  0.21860153835E+00 -0.60330461942E+01  0.69967081342E+01  0.51100000000E-03 0. -1.
        -11    1    3    3    0    0 -0.25372494693E+02 -0.17423928547E+02 -0.65624226936E+01  0.31470973370E+02  0.51100000000E-03 0.  1.
         12    1    3    3    0    0 -0.10948352180E+02 -0.45183855351E+01  0.22780860112E+01  0.12061173209E+02  0.00000000000E+00 0. -1.
</event>
<event>
 7    1  0.6046695E-013  0.5052886E+02  0.7816164E-02  0.1300439E+00
        -11   -1    0    0    0    0  0.00000000000E+00  0.00000000000E+00  0.45593999997E+02  0.45594000000E+02  0.51100000000E-03 0.  1.
         11   -1    0    0    0    0 -0.00000000000E+00 -0.00000000000E+00 -0.45593999997E+02  0.45594000000E+02  0.51100000000E-03 0. -1.
    9900012    2    1    2    0    0 -0.92214738868E+01 -0.13917810174E+02  0.37073233520E+02  0.50528860015E+02  0.30000000501E+02 0.  0.
         12    1    1    2    0    0  0.92214738868E+01  0.13917810174E+02 -0.37073233520E+02  0.40659139985E+02  0.00000000000E+00 0. -1.
         11    1    3    3    0    0 -0.17713172469E+01 -0.19279005757E+01 -0.15852711549E+01  0.30606290717E+01  0.51100000000E-03 0. -1.
        -11    1    3    3    0    0 -0.15038514452E+02 -0.13014305840E+02  0.28021611369E+02  0.34361894263E+02  0.51100000000E-03 0.  1.
        -12    1    3    3    0    0  0.75883578120E+01  0.10243962420E+01  0.10636893307E+02  0.13106336680E+02  0.00000000000E+00 0.  1.
</event>
<event>
 7    1  0.6046695E-013  0.5052887E+02  0.7816164E-02  0.1300439E+00
        -11   -1    0    0    0    0  0.00000000000E+00  0.00000000000E+00  0.45593999997E+02  0.45594000000E+02  0.51100000000E-03 0.  1.
         11   -1    0    0    0    0 -0.00000000000E+00 -0.00000000000E+00 -0.45593999997E+02  0.45594000000E+02  0.51100000000E-03 0. -1.
    9900012    2    1    2    0    0 -0.62388365178E+01  0.18511626478E+02  0.35658955029E+02  0.50528874706E+02  0.30000045156E+02 0.  0.
         12    1    1    2    0    0  0.62388365178E+01 -0.18511626478E+02 -0.35658955029E+02  0.40659125294E+02  0.00000000000E+00 0. -1.
         11    1    3    3    0    0  0.65898951027E+01  0.18310125480E+02  0.28346272971E+02  0.34383115102E+02  0.51100000000E-03 0. -1.
        -11    1    3    3    0    0 -0.57093054058E+01  0.32566248223E+01  0.25407550147E+01  0.70467871939E+01  0.51100000000E-03 0.  1.
         12    1    3    3    0    0 -0.71194262147E+01 -0.30551238240E+01  0.47719270430E+01  0.90989724096E+01  0.00000000000E+00 0. -1.
</event>
<event>
 7    1  0.6046695E-013  0.5052886E+02  0.7816164E-02  0.1300439E+00
        -11   -1    0    0    0    0  0.00000000000E+00  0.00000000000E+00  0.45593999997E+02  0.45594000000E+02  0.51100000000E-03 0.  1.
         11   -1    0    0    0    0 -0.00000000000E+00 -0.00000000000E+00 -0.45593999997E+02  0.45594000000E+02  0.51100000000E-03 0. -1.
    9900012    2    1    2    0    0 -0.24280673003E+02 -0.30439771803E+02  0.11706195765E+02  0.50528858246E+02  0.29999995126E+02 0.  0.
         12    1    1    2    0    0  0.24280673003E+02  0.30439771803E+02 -0.11706195765E+02  0.40659141754E+02  0.00000000000E+00 0. -1.
         11    1    3    3    0    0  0.51916864409E+01 -0.37557410976E+01  0.16590209831E+01  0.66190293984E+01  0.51100000000E-03 0. -1.
        -11    1    3    3    0    0 -0.25391737944E+02 -0.13122766432E+02  0.65982642605E+01  0.29334015173E+02  0.51100000000E-03 0.  1.
        -12    1    3    3    0    0 -0.40806214993E+01 -0.13561264273E+02  0.34489105218E+01  0.14575813675E+02  0.00000000000E+00 0.  1.
</event>
<event>
 7    1  0.6046695E-013  0.5052886E+02  0.7816164E-02  0.1300439E+00
        -11   -1    0    0    0    0  0.00000000000E+00  0.00000000000E+00  0.45593999997E+02  0.45594000000E+02  0.51100000000E-03 0.  1.
         11   -1    0    0    0    0 -0.00000000000E+00 -0.00000000000E+00 -0.45593999997E+02  0.45594000000E+02  0.51100000000E-03 0. -1.
    9900012    2    1    2    0    0  0.16472828746E+02  0.20311498504E+02  0.31132852095E+02  0.50528861569E+02  0.30000005227E+02 0.  0.
         12    1    1    2    0    0 -0.16472828746E+02 -0.20311498504E+02 -0.31132852095E+02  0.40659138431E+02  0.00000000000E+00 0. -1.
         11    1    3    3    0    0 -0.41573140395E+01  0.17420270691E+02  0.95295941223E+01  0.20286997200E+02  0.51100000000E-03 0. -1.
        -11    1    3    3    0    0  0.71401726105E+01 -0.19243788743E+00  0.92922101454E+01  0.11720250292E+02  0.51100000000E-03 0.  1.
         12    1    3    3    0    0  0.13489970175E+02  0.30836657000E+01  0.12311047827E+02  0.18521614078E+02  0.00000000000E+00 0. -1.
</event>
<event>
 7    1  0.6046695E-013  0.5052886E+02  0.7816164E-02  0.1300439E+00
        -11   -1    0    0    0    0  0.00000000000E+00  0.00000000000E+00  0.45593999997E+02  0.45594000000E+02  0.51100000000E-03 0.  1.
         11   -1    0    0    0    0 -0.00000000000E+00 -0.00000000000E+00 -0.45593999997E+02  0.45594000000E+02  0.51100000000E-03 0. -1.
    9900012    2    1    2    0    0 -0.34830856747E+02  0.56700839290E+01  0.20194726922E+02  0.50528862909E+02  0.30000009298E+02 0.  0.
         12    1    1    2    0    0  0.34830856747E+02 -0.56700839290E+01 -0.20194726922E+02  0.40659137091E+02  0.00000000000E+00 0. -1.
         11    1    3    3    0    0 -0.22164595972E+01  0.34123815465E+01  0.44305209275E+01  0.60155263207E+01  0.51100000000E-03 0. -1.
        -11    1    3    3    0    0 -0.13051454610E+02 -0.10144136658E+02  0.13306687298E+02  0.21220553788E+02  0.51100000000E-03 0.  1.
        -12    1    3    3    0    0 -0.19562942540E+02  0.12401839041E+02  0.24575186966E+01  0.23292782800E+02  0.00000000000E+00 0.  1.
</event>
<event>
 7    1  0.6046695E-013  0.5052886E+02  0.7816164E-02  0.1300439E+00
        -11   -1    0    0    0    0  0.00000000000E+00  0.00000000000E+00  0.45593999997E+02  0.45594000000E+02  0.51100000000E-03 0.  1.
         11   -1    0    0    0    0 -0.00000000000E+00 -0.00000000000E+00 -0.45593999997E+02  0.45594000000E+02  0.51100000000E-03 0. -1.
    9900012    2    1    2    0    0  0.11605335008E+02  0.21729200720E+01  0.38907070537E+02  0.50528861789E+02  0.30000005894E+02 0.  0.
         12    1    1    2    0    0 -0.11605335008E+02 -0.21729200720E+01 -0.38907070537E+02  0.40659138211E+02  0.00000000000E+00 0. -1.
         11    1    3    3    0    0 -0.53438925312E+01 -0.62735438326E+01  0.16950998794E+02  0.18848100700E+02  0.51100000000E-03 0. -1.
        -11    1    3    3    0    0  0.88036411246E+01  0.23631152975E+01  0.20711100523E+01  0.93476151006E+01  0.51100000000E-03 0.  1.
        -12    1    3    3    0    0  0.81455864147E+01  0.60833486071E+01  0.19884961691E+02  0.22333145989E+02  0.00000000000E+00 0.  1.
</event>
<event>
 7    1  0.6046695E-013  0.5052886E+02  0.7816164E-02  0.1300439E+00
        -11   -1    0    0    0    0  0.00000000000E+00  0.00000000000E+00  0.45593999997E+02  0.45594000000E+02  0.51100000000E-03 0. -1.
         11   -1    0    0    0    0 -0.00000000000E+00 -0.00000000000E+00 -0.45593999997E+02  0.45594000000E+02  0.51100000000E-03 0.  1.
    9900012    2    1    2    0    0  0.51412966961E+01 -0.39506888090E+02 -0.81202388085E+01  0.50528863061E+02  0.30000009760E+02 0.  0.
         12    1    1    2    0    0 -0.51412966961E+01  0.39506888090E+02  0.81202388085E+01  0.40659136939E+02  0.00000000000E+00 0. -1.
         11    1    3    3    0    0  0.33676727052E+01  0.30846121449E+01 -0.25868375007E+01  0.52485979128E+01  0.51100000000E-03 0. -1.
        -11    1    3    3    0    0 -0.18361928038E+01 -0.32199916445E+02  0.13900849876E+01  0.32282170924E+02  0.51100000000E-03 0.  1.
         12    1    3    3    0    0  0.36098167947E+01 -0.10391583791E+02 -0.69234862954E+01  0.12998094224E+02  0.00000000000E+00 0. -1.
</event>
<event>
 7    1  0.6046695E-013  0.5052886E+02  0.7816164E-02  0.1300439E+00
        -11   -1    0    0    0    0  0.00000000000E+00  0.00000000000E+00  0.45593999997E+02  0.45594000000E+02  0.51100000000E-03 0.  1.
         11   -1    0    0    0    0 -0.00000000000E+00 -0.00000000000E+00 -0.45593999997E+02  0.45594000000E+02  0.51100000000E-03 0. -1.
    9900012    2    1    2    0    0 -0.42570176857E+01  0.34096676037E+02  0.21736156221E+02  0.50528855843E+02  0.29999987820E+02 0.  0.
         12    1    1    2    0    0  0.42570176857E+01 -0.34096676037E+02 -0.21736156221E+02  0.40659144157E+02  0.00000000000E+00 0. -1.
         11    1    3    3    0    0 -0.54822777585E+01  0.41906951366E+01  0.14896559127E+02  0.16417209544E+02  0.51100000000E-03 0. -1.
        -11    1    3    3    0    0 -0.96460039385E+00  0.23975055513E+02 -0.10305455823E+01  0.24016572720E+02  0.51100000000E-03 0.  1.
        -12    1    3    3    0    0  0.21898604666E+01  0.59309253875E+01  0.78701426763E+01  0.10095073579E+02  0.00000000000E+00 0.  1.
</event>
<event>
 7    1  0.6046695E-013  0.5052886E+02  0.7816164E-02  0.1300439E+00
        -11   -1    0    0    0    0  0.00000000000E+00  0.00000000000E+00  0.45593999997E+02  0.45594000000E+02  0.51100000000E-03 0.  1.
         11   -1    0    0    0    0 -0.00000000000E+00 -0.00000000000E+00 -0.45593999997E+02  0.45594000000E+02  0.51100000000E-03 0. -1.
    9900012    2    1    2    0    0 -0.33840414060E+02  0.12710594919E+02  0.18612701904E+02  0.50528861801E+02  0.30000005930E+02 0.  0.
         12    1    1    2    0    0  0.33840414060E+02 -0.12710594919E+02 -0.18612701904E+02  0.40659138199E+02  0.00000000000E+00 0. -1.
         11    1    3    3    0    0 -0.29200752134E+02  0.16899810162E+02  0.23963696805E+02  0.41382922486E+02  0.51100000000E-03 0.  1.
        -11    1    3    3    0    0 -0.52564644077E+01 -0.34654148026E+01 -0.38838465504E+01  0.73975524406E+01  0.51100000000E-03 0. -1.
        -12    1    3    3    0    0  0.61680248197E+00 -0.72380044045E+00 -0.14671483501E+01  0.17483868739E+01  0.00000000000E+00 0.  1.
</event>
<event>
 7    1  0.6046695E-013  0.5052886E+02  0.7816164E-02  0.1300439E+00
        -11   -1    0    0    0    0  0.00000000000E+00  0.00000000000E+00  0.45593999997E+02  0.45594000000E+02  0.51100000000E-03 0.  1.
         11   -1    0    0    0    0 -0.00000000000E+00 -0.00000000000E+00 -0.45593999997E+02  0.45594000000E+02  0.51100000000E-03 0. -1.
    9900012    2    1    2    0    0  0.18959432581E+02 -0.28667996192E+02  0.21722143027E+02  0.50528860964E+02  0.30000003386E+02 0.  0.
         12    1    1    2    0    0 -0.18959432581E+02  0.28667996192E+02 -0.21722143027E+02  0.40659139036E+02  0.00000000000E+00 0. -1.
         11    1    3    3    0    0  0.13171304468E+01 -0.54670543548E+01 -0.61227132727E+01  0.83133106530E+01  0.51100000000E-03 0. -1.
        -11    1    3    3    0    0  0.13597779961E+02 -0.23180377019E+02  0.26977413114E+02  0.38079001000E+02  0.51100000000E-03 0.  1.
        -12    1    3    3    0    0  0.40445221733E+01 -0.20564818790E-01  0.86744318607E+00  0.41365493111E+01  0.00000000000E+00 0.  1.
</event>
<event>
 7    1  0.6046695E-013  0.5052894E+02  0.7816164E-02  0.1300438E+00
        -11   -1    0    0    0    0  0.00000000000E+00  0.00000000000E+00  0.45593999997E+02  0.45594000000E+02  0.51100000000E-03 0.  1.
         11   -1    0    0    0    0 -0.00000000000E+00 -0.00000000000E+00 -0.45593999997E+02  0.45594000000E+02  0.51100000000E-03 0. -1.
    9900012    2    1    2    0    0  0.30982532285E+02 -0.21925574974E+02  0.14577748939E+02  0.50528943089E+02  0.30000253011E+02 0.  0.
         12    1    1    2    0    0 -0.30982532285E+02  0.21925574974E+02 -0.14577748939E+02  0.40659056911E+02  0.00000000000E+00 0. -1.
         11    1    3    3    0    0  0.37394783994E+01 -0.27617688292E+01  0.12976654097E+02  0.13784216249E+02  0.51100000000E-03 0. -1.
        -11    1    3    3    0    0  0.24556707591E+02 -0.91487917400E+01  0.25659099045E+01  0.26330897667E+02  0.51100000000E-03 0.  1.
         12    1    3    3    0    0  0.26863462946E+01 -0.10015014405E+02 -0.96481506240E+00  0.10413829174E+02  0.00000000000E+00 0. -1.
</event>
<event>
 7    1  0.6046695E-013  0.5052886E+02  0.7816164E-02  0.1300439E+00
        -11   -1    0    0    0    0  0.00000000000E+00  0.00000000000E+00  0.45593999997E+02  0.45594000000E+02  0.51100000000E-03 0.  1.
         11   -1    0    0    0    0 -0.00000000000E+00 -0.00000000000E+00 -0.45593999997E+02  0.45594000000E+02  0.51100000000E-03 0. -1.
    9900012    2    1    2    0    0  0.17223947284E+02 -0.36815039732E+02 -0.10742044991E+01  0.50528862948E+02  0.30000009416E+02 0.  0.
         12    1    1    2    0    0 -0.17223947284E+02  0.36815039732E+02  0.10742044991E+01  0.40659137052E+02  0.00000000000E+00 0. -1.
         11    1    3    3    0    0 -0.27254855965E+01 -0.28527707921E+02 -0.73808713923E+00  0.28667109444E+02  0.51100000000E-03 0. -1.
        -11    1    3    3    0    0  0.16516687057E+02 -0.69437244425E+01  0.98972979345E+00  0.17944242135E+02  0.51100000000E-03 0.  1.
         12    1    3    3    0    0  0.34327458236E+01 -0.13436073685E+01 -0.13258471533E+01  0.39175113687E+01  0.00000000000E+00 0. -1.
</event>
<event>
 7    1  0.6046695E-013  0.5052886E+02  0.7816164E-02  0.1300439E+00
        -11   -1    0    0    0    0  0.00000000000E+00  0.00000000000E+00  0.45593999997E+02  0.45594000000E+02  0.51100000000E-03 0. -1.
         11   -1    0    0    0    0 -0.00000000000E+00 -0.00000000000E+00 -0.45593999997E+02  0.45594000000E+02  0.51100000000E-03 0.  1.
    9900012    2    1    2    0    0  0.14386657102E+02 -0.14891640664E+02 -0.34991839708E+02  0.50528859449E+02  0.29999998780E+02 0.  0.
         12    1    1    2    0    0 -0.14386657102E+02  0.14891640664E+02  0.34991839708E+02  0.40659140551E+02  0.00000000000E+00 0. -1.
         11    1    3    3    0    0  0.54668992695E+00 -0.13264680161E+02 -0.60712069341E+01  0.14598293172E+02  0.51100000000E-03 0. -1.
        -11    1    3    3    0    0  0.12987980825E+02 -0.40264235389E+01 -0.30171186599E+02  0.33093809594E+02  0.51100000000E-03 0.  1.
         12    1    3    3    0    0  0.85198635070E+00  0.23994630361E+01  0.12505538253E+01  0.28367566821E+01  0.00000000000E+00 0. -1.
</event>
<event>
 7    1  0.6046695E-013  0.5052886E+02  0.7816164E-02  0.1300439E+00
        -11   -1    0    0    0    0  0.00000000000E+00  0.00000000000E+00  0.45593999997E+02  0.45594000000E+02  0.51100000000E-03 0.  1.
         11   -1    0    0    0    0 -0.00000000000E+00 -0.00000000000E+00 -0.45593999997E+02  0.45594000000E+02  0.51100000000E-03 0. -1.
    9900012    2    1    2    0    0  0.24719116916E+02 -0.28749110467E+02 -0.14683995149E+02  0.50528858257E+02  0.29999995159E+02 0.  0.
         12    1    1    2    0    0 -0.24719116916E+02  0.28749110467E+02  0.14683995149E+02  0.40659141743E+02  0.00000000000E+00 0. -1.
         11    1    3    3    0    0  0.17588295156E+02 -0.30177526742E+02 -0.11480233898E+02  0.36767200293E+02  0.51100000000E-03 0. -1.
        -11    1    3    3    0    0  0.66115135947E+01 -0.84287356171E+00  0.28697504759E+01  0.72565843142E+01  0.51100000000E-03 0.  1.
         12    1    3    3    0    0  0.51930816501E+00  0.22712898373E+01 -0.60735117271E+01  0.65050736502E+01  0.00000000000E+00 0. -1.
</event>
<event>
 7    1  0.6046695E-013  0.5052885E+02  0.7816164E-02  0.1300439E+00
        -11   -1    0    0    0    0  0.00000000000E+00  0.00000000000E+00  0.45593999997E+02  0.45594000000E+02  0.51100000000E-03 0.  1.
         11   -1    0    0    0    0 -0.00000000000E+00 -0.00000000000E+00 -0.45593999997E+02  0.45594000000E+02  0.51100000000E-03 0. -1.
    9900012    2    1    2    0    0  0.20550592073E+02  0.67266030962E+01  0.34432434389E+02  0.50528848980E+02  0.29999966959E+02 0.  0.
         12    1    1    2    0    0 -0.20550592073E+02 -0.67266030962E+01 -0.34432434389E+02  0.40659151020E+02  0.00000000000E+00 0. -1.
         11    1    3    3    0    0  0.17947028871E+02 -0.35165064949E+01  0.32060068258E+02  0.36909479002E+02  0.51100000000E-03 0. -1.
        -11    1    3    3    0    0 -0.99282229670E+00 -0.11144191576E+01  0.38537666535E+00  0.15414738425E+01  0.51100000000E-03 0.  1.
         12    1    3    3    0    0  0.35963854980E+01  0.11357528749E+02  0.19869894656E+01  0.12077896136E+02  0.00000000000E+00 0. -1.
</event>
<event>
 7    1  0.6046695E-013  0.5052886E+02  0.7816164E-02  0.1300439E+00
        -11   -1    0    0    0    0  0.00000000000E+00  0.00000000000E+00  0.45593999997E+02  0.45594000000E+02  0.51100000000E-03 0.  1.
         11   -1    0    0    0    0 -0.00000000000E+00 -0.00000000000E+00 -0.45593999997E+02  0.45594000000E+02  0.51100000000E-03 0. -1.
    9900012    2    1    2    0    0  0.26490618183E+02 -0.10433441976E+02  0.29026815862E+02  0.50528860778E+02  0.30000002822E+02 0.  0.
         12    1    1    2    0    0 -0.26490618183E+02  0.10433441976E+02 -0.29026815862E+02  0.40659139222E+02  0.00000000000E+00 0. -1.
         11    1    3    3    0    0 -0.11507686180E+00 -0.46143002064E+01  0.51486373543E+01  0.69147289135E+01  0.51100000000E-03 0. -1.
        -11    1    3    3    0    0  0.25949831819E+02  0.42363748625E+01  0.18851808872E+02  0.32353227681E+02  0.51100000000E-03 0.  1.
        -12    1    3    3    0    0  0.65586322568E+00 -0.10055516632E+02  0.50263696356E+01  0.11260904184E+02  0.00000000000E+00 0.  1.
</event>
<event>
 7    1  0.6046695E-013  0.5052888E+02  0.7816164E-02  0.1300439E+00
        -11   -1    0    0    0    0  0.00000000000E+00  0.00000000000E+00  0.45593999997E+02  0.45594000000E+02  0.51100000000E-03 0.  1.
         11   -1    0    0    0    0 -0.00000000000E+00 -0.00000000000E+00 -0.45593999997E+02  0.45594000000E+02  0.51100000000E-03 0. -1.
    9900012    2    1    2    0    0  0.22583380414E+02  0.23848241527E+02  0.23966992646E+02  0.50528875177E+02  0.30000046588E+02 0.  0.
         12    1    1    2    0    0 -0.22583380414E+02 -0.23848241527E+02 -0.23966992646E+02  0.40659124823E+02  0.00000000000E+00 0. -1.
         11    1    3    3    0    0  0.23732509500E+02  0.12684182644E+02  0.41912889246E+01  0.27233938379E+02  0.51100000000E-03 0. -1.
        -11    1    3    3    0    0 -0.18970589775E+00  0.37757017305E+01  0.11754262096E+02  0.12347250284E+02  0.51100000000E-03 0.  1.
         12    1    3    3    0    0 -0.95942318806E+00  0.73883571525E+01  0.80214416252E+01  0.10947686514E+02  0.00000000000E+00 0. -1.
</event>
<event>
 7    1  0.6046695E-013  0.5052887E+02  0.7816164E-02  0.1300439E+00
        -11   -1    0    0    0    0  0.00000000000E+00  0.00000000000E+00  0.45593999997E+02  0.45594000000E+02  0.51100000000E-03 0.  1.
         11   -1    0    0    0    0 -0.00000000000E+00 -0.00000000000E+00 -0.45593999997E+02  0.45594000000E+02  0.51100000000E-03 0. -1.
    9900012    2    1    2    0    0 -0.31678979456E+02 -0.25416264547E+02 -0.19028376858E+01  0.50528867765E+02  0.30000024058E+02 0.  0.
         12    1    1    2    0    0  0.31678979456E+02  0.25416264547E+02  0.19028376858E+01  0.40659132235E+02  0.00000000000E+00 0. -1.
         11    1    3    3    0    0 -0.21440587770E+02 -0.16276479620E+02 -0.49908853320E+01  0.27377573475E+02  0.51100000000E-03 0. -1.
        -11    1    3    3    0    0  0.45883116764E+01 -0.60281799175E+01 -0.46690330836E+00  0.75900959228E+01  0.51100000000E-03 0.  1.
        -12    1    3    3    0    0 -0.14826703362E+02 -0.31116050089E+01  0.35549509546E+01  0.15561198367E+02  0.00000000000E+00 0.  1.
</event>
<event>
 7    1  0.6046695E-013  0.5052887E+02  0.7816164E-02  0.1300439E+00
        -11   -1    0    0    0    0  0.00000000000E+00  0.00000000000E+00  0.45593999997E+02  0.45594000000E+02  0.51100000000E-03 0. -1.
         11   -1    0    0    0    0 -0.00000000000E+00 -0.00000000000E+00 -0.45593999997E+02  0.45594000000E+02  0.51100000000E-03 0.  1.
    9900012    2    1    2    0    0 -0.13253690687E+02 -0.24753183171E+02 -0.29407220470E+02  0.50528868065E+02  0.30000024970E+02 0.  0.
         12    1    1    2    0    0  0.13253690687E+02  0.24753183171E+02  0.29407220470E+02  0.40659131935E+02  0.00000000000E+00 0. -1.
         11    1    3    3    0    0 -0.14149734104E+02 -0.74110284813E+01 -0.87202385254E+01  0.18198375712E+02  0.51100000000E-03 0. -1.
        -11    1    3    3    0    0  0.51391090069E+01 -0.78725350650E+01 -0.19796619362E+02  0.21915596915E+02  0.51100000000E-03 0.  1.
        -12    1    3    3    0    0 -0.42430655905E+01 -0.94696196249E+01 -0.89036258297E+00  0.10414895438E+02  0.00000000000E+00 0.  1.
</event>
<event>
 7    1  0.6046695E-013  0.5052890E+02  0.7816164E-02  0.1300439E+00
        -11   -1    0    0    0    0  0.00000000000E+00  0.00000000000E+00  0.45593999997E+02  0.45594000000E+02  0.51100000000E-03 0.  1.
         11   -1    0    0    0    0 -0.00000000000E+00 -0.00000000000E+00 -0.45593999997E+02  0.45594000000E+02  0.51100000000E-03 0. -1.
    9900012    2    1    2    0    0  0.27361571505E+02 -0.23235508333E+02  0.19094980388E+02  0.50528896238E+02  0.30000110604E+02 0.  0.
         12    1    1    2    0    0 -0.27361571505E+02  0.23235508333E+02 -0.19094980388E+02  0.40659103762E+02  0.00000000000E+00 0. -1.
         11    1    3    3    0    0 -0.35152612022E+01 -0.89361882011E+00  0.24542345092E+01  0.43793701834E+01  0.51100000000E-03 0.  1.
        -11    1    3    3    0    0  0.28724091182E+02 -0.12468202092E+02  0.67983267401E+01  0.32042888827E+02  0.51100000000E-03 0. -1.
         12    1    3    3    0    0  0.21527415256E+01 -0.98736874214E+01  0.98424191388E+01  0.14106637228E+02  0.00000000000E+00 0. -1.
</event>
<event>
 7    1  0.6046695E-013  0.5052888E+02  0.7816164E-02  0.1300439E+00
        -11   -1    0    0    0    0  0.00000000000E+00  0.00000000000E+00  0.45593999997E+02  0.45594000000E+02  0.51100000000E-03 0.  1.
         11   -1    0    0    0    0 -0.00000000000E+00 -0.00000000000E+00 -0.45593999997E+02  0.45594000000E+02  0.51100000000E-03 0. -1.
    9900012    2    1    2    0    0  0.46296867788E+01  0.19461452929E+02  0.35397479711E+02  0.50528883929E+02  0.30000073191E+02 0.  0.
         12    1    1    2    0    0 -0.46296867788E+01 -0.19461452929E+02 -0.35397479711E+02  0.40659116071E+02  0.00000000000E+00 0. -1.
         11    1    3    3    0    0  0.40590402681E+01  0.14768577598E+02  0.39457177782E+02  0.42325590024E+02  0.51100000000E-03 0.  1.
        -11    1    3    3    0    0  0.25626287317E+01  0.27687956697E+01 -0.39045840066E+01  0.54294633255E+01  0.51100000000E-03 0. -1.
        -12    1    3    3    0    0 -0.19919822210E+01  0.19240796610E+01 -0.15511406394E+00  0.27738305795E+01  0.00000000000E+00 0.  1.
</event>
<event>
 7    1  0.6046695E-013  0.5052886E+02  0.7816164E-02  0.1300439E+00
        -11   -1    0    0    0    0  0.00000000000E+00  0.00000000000E+00  0.45593999997E+02  0.45594000000E+02  0.51100000000E-03 0.  1.
         11   -1    0    0    0    0 -0.00000000000E+00 -0.00000000000E+00 -0.45593999997E+02  0.45594000000E+02  0.51100000000E-03 0. -1.
    9900012    2    1    2    0    0 -0.33169956179E+02 -0.14152009098E+02  0.18778712740E+02  0.50528863184E+02  0.30000010134E+02 0.  0.
         12    1    1    2    0    0  0.33169956179E+02  0.14152009098E+02 -0.18778712740E+02  0.40659136816E+02  0.00000000000E+00 0. -1.
         11    1    3    3    0    0 -0.13546524163E+02 -0.13399205617E+02  0.12083522911E+02  0.22562325994E+02  0.51100000000E-03 0.  1.
        -11    1    3    3    0    0 -0.45875682789E+01 -0.44936241197E+01 -0.53362908686E+01  0.83495174075E+01  0.51100000000E-03 0. -1.
         12    1    3    3    0    0 -0.15035863737E+02  0.37408206379E+01  0.12031480697E+02  0.19617019782E+02  0.00000000000E+00 0. -1.
</event>
<event>
 7    1  0.6046695E-013  0.5052893E+02  0.7816164E-02  0.1300439E+00
        -11   -1    0    0    0    0  0.00000000000E+00  0.00000000000E+00  0.45593999997E+02  0.45594000000E+02  0.51100000000E-03 0. -1.
         11   -1    0    0    0    0 -0.00000000000E+00 -0.00000000000E+00 -0.45593999997E+02  0.45594000000E+02  0.51100000000E-03 0.  1.
    9900012    2    1    2    0    0 -0.46021556781E+01 -0.11347245915E+02 -0.38771381180E+02  0.50528931819E+02  0.30000218756E+02 0.  0.
         12    1    1    2    0    0  0.46021556781E+01  0.11347245915E+02  0.38771381180E+02  0.40659068181E+02  0.00000000000E+00 0. -1.
         11    1    3    3    0    0  0.24568979616E+01 -0.12979726736E+02 -0.29870111902E+02  0.32660882398E+02  0.51100000000E-03 0. -1.
        -11    1    3    3    0    0  0.35337567047E+01  0.29511152332E+01 -0.13678292938E+01  0.48028611063E+01  0.51100000000E-03 0.  1.
         12    1    3    3    0    0 -0.10592810344E+02 -0.13186344123E+01 -0.75334399847E+01  0.13065188315E+02  0.00000000000E+00 0. -1.
</event>
<event>
 7    1  0.6046695E-013  0.5052887E+02  0.7816164E-02  0.1300439E+00
        -11   -1    0    0    0    0  0.00000000000E+00  0.00000000000E+00  0.45593999997E+02  0.45594000000E+02  0.51100000000E-03 0.  1.
         11   -1    0    0    0    0 -0.00000000000E+00 -0.00000000000E+00 -0.45593999997E+02  0.45594000000E+02  0.51100000000E-03 0. -1.
    9900012    2    1    2    0    0  0.12679015819E+02 -0.38144660798E+02  0.61149073366E+01  0.50528872104E+02  0.30000037248E+02 0.  0.
         12    1    1    2    0    0 -0.12679015819E+02  0.38144660798E+02 -0.61149073366E+01  0.40659127896E+02  0.00000000000E+00 0. -1.
         11    1    3    3    0    0  0.37622481135E+00  0.42629253948E+01  0.11615162343E+01  0.44343204952E+01  0.51100000000E-03 0. -1.
        -11    1    3    3    0    0  0.13482393514E+02 -0.32184131122E+02  0.70317828943E+01  0.35595494124E+02  0.51100000000E-03 0.  1.
        -12    1    3    3    0    0 -0.11796025060E+01 -0.10223455070E+02 -0.20783917920E+01  0.10499057486E+02  0.00000000000E+00 0.  1.
</event>
<event>
 7    1  0.6046695E-013  0.5052885E+02  0.7816164E-02  0.1300439E+00
        -11   -1    0    0    0    0  0.00000000000E+00  0.00000000000E+00  0.45593999997E+02  0.45594000000E+02  0.51100000000E-03 0.  1.
         11   -1    0    0    0    0 -0.00000000000E+00 -0.00000000000E+00 -0.45593999997E+02  0.45594000000E+02  0.51100000000E-03 0. -1.
    9900012    2    1    2    0    0  0.72740457570E+01  0.35934981537E+02  0.17576447923E+02  0.50528853903E+02  0.29999981923E+02 0.  0.
         12    1    1    2    0    0 -0.72740457570E+01 -0.35934981537E+02 -0.17576447923E+02  0.40659146097E+02  0.00000000000E+00 0. -1.
         11    1    3    3    0    0  0.69513588455E+01  0.92802187553E+01 -0.62132682272E+01  0.13154791989E+02  0.51100000000E-03 0. -1.
        -11    1    3    3    0    0 -0.41418406841E+01  0.21825356027E+02  0.19092322780E+02  0.29291940860E+02  0.51100000000E-03 0.  1.
        -12    1    3    3    0    0  0.44645275956E+01  0.48294067555E+01  0.46973933696E+01  0.80821210540E+01  0.00000000000E+00 0.  1.
</event>
<event>
 7    1  0.6046695E-013  0.5052886E+02  0.7816164E-02  0.1300439E+00
        -11   -1    0    0    0    0  0.00000000000E+00  0.00000000000E+00  0.45593999997E+02  0.45594000000E+02  0.51100000000E-03 0. -1.
         11   -1    0    0    0    0 -0.00000000000E+00 -0.00000000000E+00 -0.45593999997E+02  0.45594000000E+02  0.51100000000E-03 0.  1.
    9900012    2    1    2    0    0 -0.13613304831E+02  0.38276792628E+02 -0.16525099879E+01  0.50528859434E+02  0.29999998735E+02 0.  0.
         12    1    1    2    0    0  0.13613304831E+02 -0.38276792628E+02  0.16525099879E+01  0.40659140566E+02  0.00000000000E+00 0. -1.
         11    1    3    3    0    0 -0.60553943054E+01  0.31523378967E+02  0.21569508316E+00  0.32100432183E+02  0.51100000000E-03 0. -1.
        -11    1    3    3    0    0  0.27877113604E+01 -0.29765339220E+01  0.16457509097E+00  0.40814426419E+01  0.51100000000E-03 0.  1.
        -12    1    3    3    0    0 -0.10345621886E+02  0.97299475829E+01 -0.20327801620E+01  0.14346984609E+02  0.00000000000E+00 0.  1.
</event>
<event>
 7    1  0.6046695E-013  0.5052886E+02  0.7816164E-02  0.1300439E+00
        -11   -1    0    0    0    0  0.00000000000E+00  0.00000000000E+00  0.45593999997E+02  0.45594000000E+02  0.51100000000E-03 0. -1.
         11   -1    0    0    0    0 -0.00000000000E+00 -0.00000000000E+00 -0.45593999997E+02  0.45594000000E+02  0.51100000000E-03 0.  1.
    9900012    2    1    2    0    0  0.18017815446E+00 -0.40524708711E+02  0.32986036029E+01  0.50528864913E+02  0.30000015391E+02 0.  0.
         12    1    1    2    0    0 -0.18017815446E+00  0.40524708711E+02 -0.32986036029E+01  0.40659135087E+02  0.00000000000E+00 0. -1.
         11    1    3    3    0    0 -0.33863431984E+01 -0.25204212436E+02  0.78226591630E+01  0.26606646565E+02  0.51100000000E-03 0. -1.
        -11    1    3    3    0    0  0.44575565379E+01 -0.16399682764E+01 -0.84222980363E+01  0.96692507833E+01  0.51100000000E-03 0.  1.
        -12    1    3    3    0    0 -0.89103518508E+00 -0.13680527998E+02  0.38982424762E+01  0.14252967565E+02  0.00000000000E+00 0.  1.
</event>
<event>
 7    1  0.6046695E-013  0.5052886E+02  0.7816164E-02  0.1300439E+00
        -11   -1    0    0    0    0  0.00000000000E+00  0.00000000000E+00  0.45593999997E+02  0.45594000000E+02  0.51100000000E-03 0. -1.
         11   -1    0    0    0    0 -0.00000000000E+00 -0.00000000000E+00 -0.45593999997E+02  0.45594000000E+02  0.51100000000E-03 0.  1.
    9900012    2    1    2    0    0  0.22813191007E+02  0.22891483070E+02 -0.24671932160E+02  0.50528856900E+02  0.29999991035E+02 0.  0.
         12    1    1    2    0    0 -0.22813191007E+02 -0.22891483070E+02  0.24671932160E+02  0.40659143100E+02  0.00000000000E+00 0. -1.
         11    1    3    3    0    0  0.45177999925E+01 -0.42147174626E+01 -0.13508678927E+02  0.14854587395E+02  0.51100000000E-03 0. -1.
        -11    1    3    3    0    0  0.79595029135E+01  0.19357222531E+02 -0.61148753949E+01  0.21804757556E+02  0.51100000000E-03 0.  1.
         12    1    3    3    0    0  0.10335888101E+02  0.77489780019E+01 -0.50483778387E+01  0.13869511949E+02  0.00000000000E+00 0. -1.
</event>
<event>
 7    1  0.6046695E-013  0.5052886E+02  0.7816164E-02  0.1300439E+00
        -11   -1    0    0    0    0  0.00000000000E+00  0.00000000000E+00  0.45593999997E+02  0.45594000000E+02  0.51100000000E-03 0. -1.
         11   -1    0    0    0    0 -0.00000000000E+00 -0.00000000000E+00 -0.45593999997E+02  0.45594000000E+02  0.51100000000E-03 0.  1.
    9900012    2    1    2    0    0 -0.13765905740E+02  0.10808377063E+02 -0.36699382734E+02  0.50528857503E+02  0.29999992865E+02 0.  0.
         12    1    1    2    0    0  0.13765905740E+02 -0.10808377063E+02  0.36699382734E+02  0.40659142497E+02  0.00000000000E+00 0. -1.
         11    1    3    3    0    0  0.41836618085E+01  0.15274602098E+01 -0.93092867251E+01  0.10319834321E+02  0.51100000000E-03 0. -1.
        -11    1    3    3    0    0 -0.59641985685E+01 -0.51393487589E+01 -0.11480376775E+01  0.79562906558E+01  0.51100000000E-03 0.  1.
        -12    1    3    3    0    0 -0.11985368980E+02  0.14420265613E+02 -0.26242058331E+02  0.32252732526E+02  0.00000000000E+00 0.  1.
</event>
<event>
 7    1  0.6046695E-013  0.5052883E+02  0.7816164E-02  0.1300439E+00
        -11   -1    0    0    0    0  0.00000000000E+00  0.00000000000E+00  0.45593999997E+02  0.45594000000E+02  0.51100000000E-03 0.  1.
         11   -1    0    0    0    0 -0.00000000000E+00 -0.00000000000E+00 -0.45593999997E+02  0.45594000000E+02  0.51100000000E-03 0. -1.
    9900012    2    1    2    0    0  0.52591839996E+01 -0.26762841241E+02  0.30153922427E+02  0.50528834670E+02  0.29999923462E+02 0.  0.
         12    1    1    2    0    0 -0.52591839996E+01  0.26762841241E+02 -0.30153922427E+02  0.40659165330E+02  0.00000000000E+00 0. -1.
         11    1    3    3    0    0  0.82401706310E+01 -0.57717473320E+01  0.75177794132E+01  0.12559079857E+02  0.51100000000E-03 0. -1.
        -11    1    3    3    0    0 -0.91208882638E+01 -0.18889091964E+02  0.89160219326E+01  0.22792188252E+02  0.51100000000E-03 0.  1.
        -12    1    3    3    0    0  0.61399016324E+01 -0.21020019450E+01  0.13720121081E+02  0.15177566561E+02  0.00000000000E+00 0.  1.
</event>
<event>
 7    1  0.6046695E-013  0.5052886E+02  0.7816164E-02  0.1300439E+00
        -11   -1    0    0    0    0  0.00000000000E+00  0.00000000000E+00  0.45593999997E+02  0.45594000000E+02  0.51100000000E-03 0.  1.
         11   -1    0    0    0    0 -0.00000000000E+00 -0.00000000000E+00 -0.45593999997E+02  0.45594000000E+02  0.51100000000E-03 0. -1.
    9900012    2    1    2    0    0  0.26859889619E+02 -0.11326199533E+02  0.28344822521E+02  0.50528862897E+02  0.30000009261E+02 0.  0.
         12    1    1    2    0    0 -0.26859889619E+02  0.11326199533E+02 -0.28344822521E+02  0.40659137103E+02  0.00000000000E+00 0. -1.
         11    1    3    3    0    0  0.10094260821E+02 -0.15921298172E+02  0.26122258928E+01  0.19031698857E+02  0.51100000000E-03 0.  1.
        -11    1    3    3    0    0  0.14093491453E+02  0.24680776995E+01  0.17638379149E+02  0.22711898382E+02  0.51100000000E-03 0. -1.
        -12    1    3    3    0    0  0.26721373462E+01  0.21270209399E+01  0.80942174794E+01  0.87852656578E+01  0.00000000000E+00 0.  1.
</event>
<event>
 7    1  0.6046695E-013  0.5052887E+02  0.7816164E-02  0.1300439E+00
        -11   -1    0    0    0    0  0.00000000000E+00  0.00000000000E+00  0.45593999997E+02  0.45594000000E+02  0.51100000000E-03 0. -1.
         11   -1    0    0    0    0 -0.00000000000E+00 -0.00000000000E+00 -0.45593999997E+02  0.45594000000E+02  0.51100000000E-03 0.  1.
    9900012    2    1    2    0    0  0.17004935733E+02 -0.25580807862E+01 -0.36843634904E+02  0.50528867575E+02  0.30000023481E+02 0.  0.
         12    1    1    2    0    0 -0.17004935733E+02  0.25580807862E+01  0.36843634904E+02  0.40659132425E+02  0.00000000000E+00 0. -1.
         11    1    3    3    0    0  0.18711906281E+02 -0.91767485499E+01 -0.35169688645E+02  0.40880987638E+02  0.51100000000E-03 0. -1.
        -11    1    3    3    0    0  0.11685686813E+01  0.61353974559E+01  0.77995729848E-01  0.62461778953E+01  0.51100000000E-03 0.  1.
         12    1    3    3    0    0 -0.28755392291E+01  0.48327030788E+00 -0.17519419894E+01  0.34017020421E+01  0.00000000000E+00 0. -1.
</event>
<event>
 7    1  0.6046695E-013  0.5052885E+02  0.7816164E-02  0.1300439E+00
        -11   -1    0    0    0    0  0.00000000000E+00  0.00000000000E+00  0.45593999997E+02  0.45594000000E+02  0.51100000000E-03 0.  1.
         11   -1    0    0    0    0 -0.00000000000E+00 -0.00000000000E+00 -0.45593999997E+02  0.45594000000E+02  0.51100000000E-03 0. -1.
    9900012    2    1    2    0    0  0.14079342991E+02  0.23671477684E+02  0.29909855523E+02  0.50528853278E+02  0.29999980023E+02 0.  0.
         12    1    1    2    0    0 -0.14079342991E+02 -0.23671477684E+02 -0.29909855523E+02  0.40659146722E+02  0.00000000000E+00 0. -1.
         11    1    3    3    0    0  0.96002122498E+01  0.12862662156E+02  0.19703218015E+02  0.25413164962E+02  0.51100000000E-03 0.  1.
        -11    1    3    3    0    0 -0.20971171484E+01  0.83172764683E+01 -0.38469819274E+01  0.94007583947E+01  0.51100000000E-03 0. -1.
         12    1    3    3    0    0  0.65762478894E+01  0.24915390593E+01  0.14053619436E+02  0.15714929921E+02  0.00000000000E+00 0. -1.
</event>
<event>
 7    1  0.6046695E-013  0.5052886E+02  0.7816164E-02  0.1300439E+00
        -11   -1    0    0    0    0  0.00000000000E+00  0.00000000000E+00  0.45593999997E+02  0.45594000000E+02  0.51100000000E-03 0.  1.
         11   -1    0    0    0    0 -0.00000000000E+00 -0.00000000000E+00 -0.45593999997E+02  0.45594000000E+02  0.51100000000E-03 0. -1.
    9900012    2    1    2    0    0 -0.18676580617E+02 -0.26415827364E+02  0.24628341170E+02  0.50528858499E+02  0.29999995892E+02 0.  0.
         12    1    1    2    0    0  0.18676580617E+02  0.26415827364E+02 -0.24628341170E+02  0.40659141501E+02  0.00000000000E+00 0. -1.
         11    1    3    3    0    0 -0.11204479263E+02 -0.30071630336E+02  0.21015682800E+02  0.38360164630E+02  0.51100000000E-03 0. -1.
        -11    1    3    3    0    0 -0.41032170538E+01  0.89333735874E+00  0.59048572102E+01  0.72458112562E+01  0.51100000000E-03 0.  1.
         12    1    3    3    0    0 -0.33688842998E+01  0.27624656139E+01 -0.22921988396E+01  0.49228826123E+01  0.00000000000E+00 0. -1.
</event>
<event>
 7    1  0.6046695E-013  0.5052884E+02  0.7816164E-02  0.1300439E+00
        -11   -1    0    0    0    0  0.00000000000E+00  0.00000000000E+00  0.45593999997E+02  0.45594000000E+02  0.51100000000E-03 0.  1.
         11   -1    0    0    0    0 -0.00000000000E+00 -0.00000000000E+00 -0.45593999997E+02  0.45594000000E+02  0.51100000000E-03 0. -1.
    9900012    2    1    2    0    0 -0.28955710115E+01 -0.11281290992E+02  0.38955296165E+02  0.50528844116E+02  0.29999952175E+02 0.  0.
         12    1    1    2    0    0  0.28955710115E+01  0.11281290992E+02 -0.38955296165E+02  0.40659155884E+02  0.00000000000E+00 0. -1.
         11    1    3    3    0    0 -0.22041914267E+01 -0.12351810446E+02  0.54511776286E+01  0.13679949522E+02  0.51100000000E-03 0. -1.
        -11    1    3    3    0    0  0.51809230370E+01 -0.39258702212E+01  0.22445116455E+02  0.23367449015E+02  0.51100000000E-03 0.  1.
         12    1    3    3    0    0 -0.58723026218E+01  0.49963896753E+01  0.11059002081E+02  0.13481445579E+02  0.00000000000E+00 0. -1.
</event>
<event>
 7    1  0.6046695E-013  0.5052886E+02  0.7816164E-02  0.1300439E+00
        -11   -1    0    0    0    0  0.00000000000E+00  0.00000000000E+00  0.45593999997E+02  0.45594000000E+02  0.51100000000E-03 0.  1.
         11   -1    0    0    0    0 -0.00000000000E+00 -0.00000000000E+00 -0.45593999997E+02  0.45594000000E+02  0.51100000000E-03 0. -1.
    9900012    2    1    2    0    0  0.16598329231E+02 -0.33630509709E+02  0.15705084941E+02  0.50528863148E+02  0.30000010026E+02 0.  0.
         12    1    1    2    0    0 -0.16598329231E+02  0.33630509709E+02 -0.15705084941E+02  0.40659136852E+02  0.00000000000E+00 0. -1.
         11    1    3    3    0    0  0.80200159941E+01 -0.74400827910E+01 -0.22773301347E+01  0.11174154164E+02  0.51100000000E-03 0. -1.
        -11    1    3    3    0    0  0.49947201490E+01 -0.20417569116E+02  0.22811186416E+02  0.31018939117E+02  0.51100000000E-03 0.  1.
        -12    1    3    3    0    0  0.35835930876E+01 -0.57728578013E+01 -0.48287713408E+01  0.83357698668E+01  0.00000000000E+00 0.  1.
</event>
<event>
 7    1  0.6046695E-013  0.5052886E+02  0.7816164E-02  0.1300439E+00
        -11   -1    0    0    0    0  0.00000000000E+00  0.00000000000E+00  0.45593999997E+02  0.45594000000E+02  0.51100000000E-03 0.  1.
         11   -1    0    0    0    0 -0.00000000000E+00 -0.00000000000E+00 -0.45593999997E+02  0.45594000000E+02  0.51100000000E-03 0. -1.
    9900012    2    1    2    0    0 -0.31849128217E+01  0.15631173156E+02  0.37399042839E+02  0.50528860201E+02  0.30000001067E+02 0.  0.
         12    1    1    2    0    0  0.31849128217E+01 -0.15631173156E+02 -0.37399042839E+02  0.40659139799E+02  0.00000000000E+00 0. -1.
         11    1    3    3    0    0 -0.37391039535E+01 -0.81311726517E+01  0.64505648613E+01  0.11032073892E+02  0.51100000000E-03 0. -1.
        -11    1    3    3    0    0 -0.22350740322E+01  0.16424285495E+02  0.19177230964E+02  0.25347956479E+02  0.51100000000E-03 0.  1.
         12    1    3    3    0    0  0.27892651640E+01  0.73380603128E+01  0.11771247013E+02  0.14148829830E+02  0.00000000000E+00 0. -1.
</event>
<event>
 7    1  0.6046695E-013  0.5052886E+02  0.7816164E-02  0.1300439E+00
        -11   -1    0    0    0    0  0.00000000000E+00  0.00000000000E+00  0.45593999997E+02  0.45594000000E+02  0.51100000000E-03 0.  1.
         11   -1    0    0    0    0 -0.00000000000E+00 -0.00000000000E+00 -0.45593999997E+02  0.45594000000E+02  0.51100000000E-03 0. -1.
    9900012    2    1    2    0    0  0.33666875146E+02  0.22717654367E+02 -0.19015082803E+01  0.50528855447E+02  0.29999986617E+02 0.  0.
         12    1    1    2    0    0 -0.33666875146E+02 -0.22717654367E+02  0.19015082803E+01  0.40659144553E+02  0.00000000000E+00 0. -1.
         11    1    3    3    0    0 -0.96847375484E+00  0.85001941827E+01 -0.37161898964E+01  0.93274492850E+01  0.51100000000E-03 0. -1.
        -11    1    3    3    0    0  0.25416640117E+02  0.16287080619E+02 -0.34527078329E+01  0.30384137006E+02  0.51100000000E-03 0.  1.
        -12    1    3    3    0    0  0.92187087838E+01 -0.20696204356E+01  0.52673894490E+01  0.10817269156E+02  0.00000000000E+00 0.  1.
</event>
<event>
 7    1  0.6046695E-013  0.5052887E+02  0.7816164E-02  0.1300439E+00
        -11   -1    0    0    0    0  0.00000000000E+00  0.00000000000E+00  0.45593999997E+02  0.45594000000E+02  0.51100000000E-03 0.  1.
         11   -1    0    0    0    0 -0.00000000000E+00 -0.00000000000E+00 -0.45593999997E+02  0.45594000000E+02  0.51100000000E-03 0. -1.
    9900012    2    1    2    0    0 -0.36273829516E+02 -0.86195517423E+01 -0.16219674699E+02  0.50528865389E+02  0.30000016835E+02 0.  0.
         12    1    1    2    0    0  0.36273829516E+02  0.86195517423E+01  0.16219674699E+02  0.40659134611E+02  0.00000000000E+00 0. -1.
         11    1    3    3    0    0 -0.21062007474E+02 -0.84024840684E+01 -0.57140000148E+01  0.23385031405E+02  0.51100000000E-03 0. -1.
        -11    1    3    3    0    0 -0.20501261346E+01  0.79828167021E+01 -0.79053452457E+01  0.11420282982E+02  0.51100000000E-03 0.  1.
        -12    1    3    3    0    0 -0.13161695907E+02 -0.81998843760E+01 -0.26003294388E+01  0.15723551002E+02  0.00000000000E+00 0.  1.
</event>
<event>
 7    1  0.6046695E-013  0.5052886E+02  0.7816164E-02  0.1300439E+00
        -11   -1    0    0    0    0  0.00000000000E+00  0.00000000000E+00  0.45593999997E+02  0.45594000000E+02  0.51100000000E-03 0.  1.
         11   -1    0    0    0    0 -0.00000000000E+00 -0.00000000000E+00 -0.45593999997E+02  0.45594000000E+02  0.51100000000E-03 0. -1.
    9900012    2    1    2    0    0  0.30504566768E+02 -0.26426803953E+02  0.49255782659E+01  0.50528857336E+02  0.29999992360E+02 0.  0.
         12    1    1    2    0    0 -0.30504566768E+02  0.26426803953E+02 -0.49255782659E+01  0.40659142664E+02  0.00000000000E+00 0. -1.
         11    1    3    3    0    0 -0.42927847163E+01 -0.86600732547E+01  0.19602944592E+01  0.98624349947E+01  0.51100000000E-03 0. -1.
        -11    1    3    3    0    0  0.16962366444E+02 -0.29370742116E+01  0.29839621905E+01  0.17471471344E+02  0.51100000000E-03 0.  1.
         12    1    3    3    0    0  0.17834985040E+02 -0.14829656487E+02 -0.18678383755E-01  0.23194950997E+02  0.00000000000E+00 0. -1.
</event>
<event>
 7    1  0.6046695E-013  0.5052886E+02  0.7816164E-02  0.1300439E+00
        -11   -1    0    0    0    0  0.00000000000E+00  0.00000000000E+00  0.45593999997E+02  0.45594000000E+02  0.51100000000E-03 0.  1.
         11   -1    0    0    0    0 -0.00000000000E+00 -0.00000000000E+00 -0.45593999997E+02  0.45594000000E+02  0.51100000000E-03 0. -1.
    9900012    2    1    2    0    0  0.77167359651E+01 -0.34322196758E+02  0.20386377930E+02  0.50528860691E+02  0.30000002556E+02 0.  0.
         12    1    1    2    0    0 -0.77167359651E+01  0.34322196758E+02 -0.20386377930E+02  0.40659139309E+02  0.00000000000E+00 0. -1.
         11    1    3    3    0    0 -0.44060241800E+01 -0.10966474837E+02 -0.13180750850E+01  0.11891759399E+02  0.51100000000E-03 0. -1.
        -11    1    3    3    0    0  0.76514600247E+01 -0.25458697322E+02  0.15748367336E+02  0.30898239171E+02  0.51100000000E-03 0.  1.
        -12    1    3    3    0    0  0.44713001204E+01  0.21029754008E+01  0.59560856793E+01  0.77388621207E+01  0.00000000000E+00 0.  1.
</event>
<event>
 7    1  0.6046695E-013  0.5052889E+02  0.7816164E-02  0.1300439E+00
        -11   -1    0    0    0    0  0.00000000000E+00  0.00000000000E+00  0.45593999997E+02  0.45594000000E+02  0.51100000000E-03 0.  1.
         11   -1    0    0    0    0 -0.00000000000E+00 -0.00000000000E+00 -0.45593999997E+02  0.45594000000E+02  0.51100000000E-03 0. -1.
    9900012    2    1    2    0    0 -0.36081421557E+01 -0.64055737218E+01  0.39988914171E+02  0.50528888830E+02  0.30000088088E+02 0.  0.
         12    1    1    2    0    0  0.36081421557E+01  0.64055737218E+01 -0.39988914171E+02  0.40659111170E+02  0.00000000000E+00 0. -1.
         11    1    3    3    0    0  0.10693691851E+01 -0.13775176372E+02  0.76896001319E+01  0.15812304860E+02  0.51100000000E-03 0. -1.
        -11    1    3    3    0    0 -0.47011613177E+01 -0.14371876733E+00  0.17476467600E+02  0.18098300827E+02  0.51100000000E-03 0.  1.
         12    1    3    3    0    0  0.23649976938E-01  0.75133214175E+01  0.14822846440E+02  0.16618283143E+02  0.00000000000E+00 0. -1.
</event>
<event>
 7    1  0.6046695E-013  0.5052887E+02  0.7816164E-02  0.1300439E+00
        -11   -1    0    0    0    0  0.00000000000E+00  0.00000000000E+00  0.45593999997E+02  0.45594000000E+02  0.51100000000E-03 0. -1.
         11   -1    0    0    0    0 -0.00000000000E+00 -0.00000000000E+00 -0.45593999997E+02  0.45594000000E+02  0.51100000000E-03 0.  1.
    9900012    2    1    2    0    0  0.10247580100E+02  0.36576623053E+02 -0.14501824816E+02  0.50528866034E+02  0.30000018795E+02 0.  0.
         12    1    1    2    0    0 -0.10247580100E+02 -0.36576623053E+02  0.14501824816E+02  0.40659133966E+02  0.00000000000E+00 0. -1.
         11    1    3    3    0    0  0.17103845287E+01 -0.12737970442E+01 -0.31123043615E+01  0.37728520837E+01  0.51100000000E-03 0. -1.
        -11    1    3    3    0    0  0.95651947103E+01  0.35790083739E+02 -0.16948448438E+02  0.40739083797E+02  0.51100000000E-03 0.  1.
        -12    1    3    3    0    0 -0.10279991389E+01  0.20603363582E+01  0.55589279832E+01  0.60169301526E+01  0.00000000000E+00 0.  1.
</event>
<event>
 7    1  0.6046695E-013  0.5052884E+02  0.7816164E-02  0.1300439E+00
        -11   -1    0    0    0    0  0.00000000000E+00  0.00000000000E+00  0.45593999997E+02  0.45594000000E+02  0.51100000000E-03 0.  1.
         11   -1    0    0    0    0 -0.00000000000E+00 -0.00000000000E+00 -0.45593999997E+02  0.45594000000E+02  0.51100000000E-03 0. -1.
    9900012    2    1    2    0    0  0.44089759606E+00 -0.10401144848E+02  0.39303801850E+02  0.50528843040E+02  0.29999948904E+02 0.  0.
         12    1    1    2    0    0 -0.44089759606E+00  0.10401144848E+02 -0.39303801850E+02  0.40659156960E+02  0.00000000000E+00 0. -1.
         11    1    3    3    0    0  0.60691505241E+01 -0.44275842396E+01  0.17093078435E+02  0.18671138715E+02  0.51100000000E-03 0. -1.
        -11    1    3    3    0    0 -0.10504371176E+02 -0.63196290187E+01  0.23754643393E+02  0.26731303891E+02  0.51100000000E-03 0.  1.
        -12    1    3    3    0    0  0.48761182474E+01  0.34606841066E+00 -0.15439199778E+01  0.51264004336E+01  0.00000000000E+00 0.  1.
</event>
<event>
 7    1  0.6046695E-013  0.5052887E+02  0.7816164E-02  0.1300439E+00
        -11   -1    0    0    0    0  0.00000000000E+00  0.00000000000E+00  0.45593999997E+02  0.45594000000E+02  0.51100000000E-03 0. -1.
         11   -1    0    0    0    0 -0.00000000000E+00 -0.00000000000E+00 -0.45593999997E+02  0.45594000000E+02  0.51100000000E-03 0.  1.
    9900012    2    1    2    0    0  0.14312377335E+01 -0.33661878930E+02 -0.22759488734E+02  0.50528869881E+02  0.30000030491E+02 0.  0.
         12    1    1    2    0    0 -0.14312377335E+01  0.33661878930E+02  0.22759488734E+02  0.40659130119E+02  0.00000000000E+00 0. -1.
         11    1    3    3    0    0  0.48466863487E+01 -0.11238140500E+01 -0.22731221824E+01  0.54699553288E+01  0.51100000000E-03 0. -1.
        -11    1    3    3    0    0 -0.71125364304E+01 -0.21510366585E+02 -0.23905684388E+02  0.32935782842E+02  0.51100000000E-03 0.  1.
        -12    1    3    3    0    0  0.36970878152E+01 -0.11027698295E+02  0.34193178363E+01  0.12123131711E+02  0.00000000000E+00 0.  1.
</event>
<event>
 7    1  0.6046695E-013  0.5052886E+02  0.7816164E-02  0.1300439E+00
        -11   -1    0    0    0    0  0.00000000000E+00  0.00000000000E+00  0.45593999997E+02  0.45594000000E+02  0.51100000000E-03 0.  1.
         11   -1    0    0    0    0 -0.00000000000E+00 -0.00000000000E+00 -0.45593999997E+02  0.45594000000E+02  0.51100000000E-03 0. -1.
    9900012    2    1    2    0    0 -0.23017151253E+02 -0.10486347905E+02  0.31834148183E+02  0.50528859149E+02  0.29999997870E+02 0.  0.
         12    1    1    2    0    0  0.23017151253E+02  0.10486347905E+02 -0.31834148183E+02  0.40659140851E+02  0.00000000000E+00 0. -1.
         11    1    3    3    0    0 -0.25530968285E+01  0.78364517278E+01  0.14989255519E+02  0.17105731799E+02  0.51100000000E-03 0. -1.
        -11    1    3    3    0    0 -0.20467046892E+02 -0.17075622743E+02  0.17622349813E+02  0.31953467945E+02  0.51100000000E-03 0.  1.
         12    1    3    3    0    0  0.29924683877E-02 -0.12471768900E+01 -0.77745714839E+00  0.14696594052E+01  0.00000000000E+00 0. -1.
</event>
<event>
 7    1  0.6046695E-013  0.5052884E+02  0.7816164E-02  0.1300439E+00
        -11   -1    0    0    0    0  0.00000000000E+00  0.00000000000E+00  0.45593999997E+02  0.45594000000E+02  0.51100000000E-03 0.  1.
         11   -1    0    0    0    0 -0.00000000000E+00 -0.00000000000E+00 -0.45593999997E+02  0.45594000000E+02  0.51100000000E-03 0. -1.
    9900012    2    1    2    0    0 -0.13352304416E+02 -0.38400527540E+02  0.53179932942E+00  0.50528839174E+02  0.29999937153E+02 0.  0.
         12    1    1    2    0    0  0.13352304416E+02  0.38400527540E+02 -0.53179932942E+00  0.40659160826E+02  0.00000000000E+00 0. -1.
         11    1    3    3    0    0  0.33431308653E+01 -0.57007287705E+01  0.98161138581E+01  0.11833466273E+02  0.51100000000E-03 0. -1.
        -11    1    3    3    0    0 -0.25657042676E+01 -0.20093747148E+01  0.94641542129E+00  0.33935420351E+01  0.51100000000E-03 0.  1.
         12    1    3    3    0    0 -0.14129731014E+02 -0.30690424054E+02 -0.10230729950E+02  0.35301830866E+02  0.00000000000E+00 0. -1.
</event>
<event>
 7    1  0.6046695E-013  0.5052886E+02  0.7816164E-02  0.1300439E+00
        -11   -1    0    0    0    0  0.00000000000E+00  0.00000000000E+00  0.45593999997E+02  0.45594000000E+02  0.51100000000E-03 0.  1.
         11   -1    0    0    0    0 -0.00000000000E+00 -0.00000000000E+00 -0.45593999997E+02  0.45594000000E+02  0.51100000000E-03 0. -1.
    9900012    2    1    2    0    0  0.20559473955E+02 -0.17699216739E+01  0.35033424873E+02  0.50528862646E+02  0.30000008498E+02 0.  0.
         12    1    1    2    0    0 -0.20559473955E+02  0.17699216739E+01 -0.35033424873E+02  0.40659137354E+02  0.00000000000E+00 0. -1.
         11    1    3    3    0    0  0.63166168723E+01  0.61103041868E+01  0.63142442152E+01  0.10821513121E+02  0.51100000000E-03 0. -1.
        -11    1    3    3    0    0  0.19034651052E+02 -0.97451530744E+01  0.26639887244E+02  0.34160935903E+02  0.51100000000E-03 0.  1.
        -12    1    3    3    0    0 -0.47917939696E+01  0.18649272137E+01  0.20792934145E+01  0.55464136217E+01  0.00000000000E+00 0.  1.
</event>
<event>
 7    1  0.6046695E-013  0.5052886E+02  0.7816164E-02  0.1300439E+00
        -11   -1    0    0    0    0  0.00000000000E+00  0.00000000000E+00  0.45593999997E+02  0.45594000000E+02  0.51100000000E-03 0.  1.
         11   -1    0    0    0    0 -0.00000000000E+00 -0.00000000000E+00 -0.45593999997E+02  0.45594000000E+02  0.51100000000E-03 0. -1.
    9900012    2    1    2    0    0 -0.36169930583E+01  0.15729214315E+02  0.37318563096E+02  0.50528856215E+02  0.29999988952E+02 0.  0.
         12    1    1    2    0    0  0.36169930583E+01 -0.15729214315E+02 -0.37318563096E+02  0.40659143785E+02  0.00000000000E+00 0. -1.
         11    1    3    3    0    0 -0.42395963643E+01 -0.59683756656E+01  0.18139859480E+01  0.75422961158E+01  0.51100000000E-03 0. -1.
        -11    1    3    3    0    0 -0.18343886123E+01  0.68388693158E+01  0.41617064619E+01  0.82130941816E+01  0.51100000000E-03 0.  1.
         12    1    3    3    0    0  0.24569919183E+01  0.14858720665E+02  0.31342870686E+02  0.34773465918E+02  0.00000000000E+00 0. -1.
</event>
<event>
 7    1  0.6046695E-013  0.5052885E+02  0.7816164E-02  0.1300439E+00
        -11   -1    0    0    0    0  0.00000000000E+00  0.00000000000E+00  0.45593999997E+02  0.45594000000E+02  0.51100000000E-03 0.  1.
         11   -1    0    0    0    0 -0.00000000000E+00 -0.00000000000E+00 -0.45593999997E+02  0.45594000000E+02  0.51100000000E-03 0. -1.
    9900012    2    1    2    0    0 -0.19078216875E+02 -0.17388598401E+02  0.31413769683E+02  0.50528848027E+02  0.29999964062E+02 0.  0.
         12    1    1    2    0    0  0.19078216875E+02  0.17388598401E+02 -0.31413769683E+02  0.40659151973E+02  0.00000000000E+00 0. -1.
         11    1    3    3    0    0 -0.12662363453E+02 -0.94700418317E+01  0.37133544356E+01  0.16242110144E+02  0.51100000000E-03 0. -1.
        -11    1    3    3    0    0  0.31515843805E+01  0.11591746157E+01  0.16927751704E+02  0.17257605509E+02  0.51100000000E-03 0.  1.
         12    1    3    3    0    0 -0.95674378019E+01 -0.90777311852E+01  0.10772663543E+02  0.17029132373E+02  0.00000000000E+00 0. -1.
</event>
<event>
 7    1  0.6046695E-013  0.5052885E+02  0.7816164E-02  0.1300439E+00
        -11   -1    0    0    0    0  0.00000000000E+00  0.00000000000E+00  0.45593999997E+02  0.45594000000E+02  0.51100000000E-03 0.  1.
         11   -1    0    0    0    0 -0.00000000000E+00 -0.00000000000E+00 -0.45593999997E+02  0.45594000000E+02  0.51100000000E-03 0. -1.
    9900012    2    1    2    0    0  0.23606399762E+02 -0.28394654250E+02  0.17019045290E+02  0.50528850940E+02  0.29999972918E+02 0.  0.
         12    1    1    2    0    0 -0.23606399762E+02  0.28394654250E+02 -0.17019045290E+02  0.40659149060E+02  0.00000000000E+00 0. -1.
         11    1    3    3    0    0  0.19145091748E+02 -0.27086146533E+02  0.94817878069E+01  0.34497799528E+02  0.51100000000E-03 0. -1.
        -11    1    3    3    0    0 -0.11961500376E+01 -0.29283592692E+01  0.93522546045E+01  0.98727265419E+01  0.51100000000E-03 0.  1.
         12    1    3    3    0    0  0.56574580514E+01  0.16198515522E+01 -0.18149971210E+01  0.61583248700E+01  0.00000000000E+00 0. -1.
</event>
<event>
 7    1  0.6046695E-013  0.5052888E+02  0.7816164E-02  0.1300439E+00
        -11   -1    0    0    0    0  0.00000000000E+00  0.00000000000E+00  0.45593999997E+02  0.45594000000E+02  0.51100000000E-03 0.  1.
         11   -1    0    0    0    0 -0.00000000000E+00 -0.00000000000E+00 -0.45593999997E+02  0.45594000000E+02  0.51100000000E-03 0. -1.
    9900012    2    1    2    0    0  0.20341746618E+02  0.42265884143E+01  0.34950150342E+02  0.50528883999E+02  0.30000073402E+02 0.  0.
         12    1    1    2    0    0 -0.20341746618E+02 -0.42265884143E+01 -0.34950150342E+02  0.40659116001E+02  0.00000000000E+00 0. -1.
         11    1    3    3    0    0  0.73767770341E+01 -0.38701086156E+01  0.58794963983E+01  0.10196227649E+02  0.51100000000E-03 0. -1.
        -11    1    3    3    0    0 -0.29328706573E+01  0.63949560972E+01  0.21538926230E+02  0.22658829122E+02  0.51100000000E-03 0.  1.
        -12    1    3    3    0    0  0.15897840241E+02  0.17017409327E+01  0.75317277134E+01  0.17673827228E+02  0.00000000000E+00 0.  1.
</event>
<event>
 7    1  0.6046695E-013  0.5052886E+02  0.7816164E-02  0.1300439E+00
        -11   -1    0    0    0    0  0.00000000000E+00  0.00000000000E+00  0.45593999997E+02  0.45594000000E+02  0.51100000000E-03 0. -1.
         11   -1    0    0    0    0 -0.00000000000E+00 -0.00000000000E+00 -0.45593999997E+02  0.45594000000E+02  0.51100000000E-03 0.  1.
    9900012    2    1    2    0    0 -0.14129884075E+02  0.36727119605E+02  0.10228898638E+02  0.50528864424E+02  0.30000013904E+02 0.  0.
         12    1    1    2    0    0  0.14129884075E+02 -0.36727119605E+02 -0.10228898638E+02  0.40659135576E+02  0.00000000000E+00 0. -1.
         11    1    3    3    0    0  0.48787974722E+01  0.80463292816E+01  0.10074462123E+02  0.13785531075E+02  0.51100000000E-03 0. -1.
        -11    1    3    3    0    0 -0.22951484722E+01  0.14442321726E+02  0.17568210799E+01  0.14728706118E+02  0.51100000000E-03 0.  1.
         12    1    3    3    0    0 -0.16713533075E+02  0.14238468597E+02 -0.16023845647E+01  0.22014627231E+02  0.00000000000E+00 0. -1.
</event>
<event>
 7    1  0.6046695E-013  0.5052887E+02  0.7816164E-02  0.1300439E+00
        -11   -1    0    0    0    0  0.00000000000E+00  0.00000000000E+00  0.45593999997E+02  0.45594000000E+02  0.51100000000E-03 0. -1.
         11   -1    0    0    0    0 -0.00000000000E+00 -0.00000000000E+00 -0.45593999997E+02  0.45594000000E+02  0.51100000000E-03 0.  1.
    9900012    2    1    2    0    0 -0.13526807722E+02 -0.34948771383E+02 -0.15772560955E+02  0.50528870307E+02  0.30000031785E+02 0.  0.
         12    1    1    2    0    0  0.13526807722E+02  0.34948771383E+02  0.15772560955E+02  0.40659129693E+02  0.00000000000E+00 0. -1.
         11    1    3    3    0    0  0.10967125550E+01 -0.10443505481E+02  0.29086660975E+00  0.10504960200E+02  0.51100000000E-03 0. -1.
        -11    1    3    3    0    0 -0.16508638921E+02 -0.52831762380E+01 -0.80928349031E+01  0.19129586697E+02  0.51100000000E-03 0.  1.
        -12    1    3    3    0    0  0.18851186442E+01 -0.19222089665E+02 -0.79705926612E+01  0.20894323410E+02  0.00000000000E+00 0.  1.
</event>
<event>
 7    1  0.6046695E-013  0.5052889E+02  0.7816164E-02  0.1300439E+00
        -11   -1    0    0    0    0  0.00000000000E+00  0.00000000000E+00  0.45593999997E+02  0.45594000000E+02  0.51100000000E-03 0. -1.
         11   -1    0    0    0    0 -0.00000000000E+00 -0.00000000000E+00 -0.45593999997E+02  0.45594000000E+02  0.51100000000E-03 0.  1.
    9900012    2    1    2    0    0 -0.32950791968E+02  0.93583346936E+01 -0.21905024601E+02  0.50528890045E+02  0.30000091782E+02 0.  0.
         12    1    1    2    0    0  0.32950791968E+02 -0.93583346936E+01  0.21905024601E+02  0.40659109955E+02  0.00000000000E+00 0. -1.
         11    1    3    3    0    0 -0.27841219717E+02  0.10089808529E+02 -0.26146065910E+01  0.29728335295E+02  0.51100000000E-03 0. -1.
        -11    1    3    3    0    0 -0.54482933223E+01  0.10749594482E+01 -0.11164533468E+02  0.12469412406E+02  0.51100000000E-03 0.  1.
         12    1    3    3    0    0  0.33872107193E+00 -0.18064332840E+01 -0.81258845418E+01  0.83311423443E+01  0.00000000000E+00 0. -1.
</event>
<event>
 7    1  0.6046695E-013  0.5052886E+02  0.7816164E-02  0.1300439E+00
        -11   -1    0    0    0    0  0.00000000000E+00  0.00000000000E+00  0.45593999997E+02  0.45594000000E+02  0.51100000000E-03 0. -1.
         11   -1    0    0    0    0 -0.00000000000E+00 -0.00000000000E+00 -0.45593999997E+02  0.45594000000E+02  0.51100000000E-03 0.  1.
    9900012    2    1    2    0    0  0.36073515940E+02  0.53249448308E+01 -0.17986441948E+02  0.50528859777E+02  0.29999999777E+02 0.  0.
         12    1    1    2    0    0 -0.36073515940E+02 -0.53249448308E+01  0.17986441948E+02  0.40659140223E+02  0.00000000000E+00 0. -1.
         11    1    3    3    0    0  0.18733954121E+02  0.39761916257E+01 -0.78211150881E+00  0.19167233382E+02  0.51100000000E-03 0. -1.
        -11    1    3    3    0    0  0.69794602545E+01 -0.78791700769E+01 -0.13275647737E+02  0.16942166616E+02  0.51100000000E-03 0.  1.
        -12    1    3    3    0    0  0.10360101565E+02  0.92279232820E+01 -0.39286827021E+01  0.14419459779E+02  0.00000000000E+00 0.  1.
</event>
<event>
 7    1  0.6046695E-013  0.5052884E+02  0.7816164E-02  0.1300439E+00
        -11   -1    0    0    0    0  0.00000000000E+00  0.00000000000E+00  0.45593999997E+02  0.45594000000E+02  0.51100000000E-03 0.  1.
         11   -1    0    0    0    0 -0.00000000000E+00 -0.00000000000E+00 -0.45593999997E+02  0.45594000000E+02  0.51100000000E-03 0. -1.
    9900012    2    1    2    0    0  0.51452676181E+01  0.34573001767E+02  0.20770193466E+02  0.50528841540E+02  0.29999944345E+02 0.  0.
         12    1    1    2    0    0 -0.51452676181E+01 -0.34573001767E+02 -0.20770193466E+02  0.40659158460E+02  0.00000000000E+00 0. -1.
         11    1    3    3    0    0  0.11041153146E+02  0.50238839015E+01  0.11397104213E+02  0.16644532344E+02  0.51100000000E-03 0. -1.
        -11    1    3    3    0    0 -0.79762401035E+01  0.10729996752E+02  0.17928907885E+01  0.13489540175E+02  0.51100000000E-03 0.  1.
         12    1    3    3    0    0  0.20803545759E+01  0.18819121114E+02  0.75801984642E+01  0.20394769021E+02  0.00000000000E+00 0. -1.
</event>
<event>
 7    1  0.6046695E-013  0.5052886E+02  0.7816164E-02  0.1300439E+00
        -11   -1    0    0    0    0  0.00000000000E+00  0.00000000000E+00  0.45593999997E+02  0.45594000000E+02  0.51100000000E-03 0. -1.
         11   -1    0    0    0    0 -0.00000000000E+00 -0.00000000000E+00 -0.45593999997E+02  0.45594000000E+02  0.51100000000E-03 0.  1.
    9900012    2    1    2    0    0  0.28483803784E+02  0.28035487721E+02 -0.74733120635E+01  0.50528855359E+02  0.29999986348E+02 0.  0.
         12    1    1    2    0    0 -0.28483803784E+02 -0.28035487721E+02  0.74733120635E+01  0.40659144641E+02  0.00000000000E+00 0. -1.
         11    1    3    3    0    0 -0.76462412347E-01  0.16482516839E+01 -0.11216474360E+02  0.11337190015E+02  0.51100000000E-03 0. -1.
        -11    1    3    3    0    0  0.97772611541E+01  0.78827797230E+01 -0.82167609007E-02  0.12559184672E+02  0.51100000000E-03 0.  1.
         12    1    3    3    0    0  0.18783005043E+02  0.18504456314E+02  0.37513790574E+01  0.26632480672E+02  0.00000000000E+00 0. -1.
</event>
<event>
 7    1  0.6046695E-013  0.5052885E+02  0.7816164E-02  0.1300439E+00
        -11   -1    0    0    0    0  0.00000000000E+00  0.00000000000E+00  0.45593999997E+02  0.45594000000E+02  0.51100000000E-03 0.  1.
         11   -1    0    0    0    0 -0.00000000000E+00 -0.00000000000E+00 -0.45593999997E+02  0.45594000000E+02  0.51100000000E-03 0. -1.
    9900012    2    1    2    0    0  0.26442419331E+02 -0.48819084545E+01  0.30498066055E+02  0.50528848468E+02  0.29999965404E+02 0.  0.
         12    1    1    2    0    0 -0.26442419331E+02  0.48819084545E+01 -0.30498066055E+02  0.40659151532E+02  0.00000000000E+00 0. -1.
         11    1    3    3    0    0  0.82141340908E+01 -0.61628414703E+01 -0.30510047664E+01  0.10712667464E+02  0.51100000000E-03 0. -1.
        -11    1    3    3    0    0  0.15109434447E+02  0.16963860861E+01  0.33363115817E+02  0.36664290971E+02  0.51100000000E-03 0.  1.
        -12    1    3    3    0    0  0.31188507925E+01 -0.41545307030E+00  0.18595500356E+00  0.31518900334E+01  0.00000000000E+00 0.  1.
</event>
<event>
 7    1  0.6046695E-013  0.5052885E+02  0.7816164E-02  0.1300439E+00
        -11   -1    0    0    0    0  0.00000000000E+00  0.00000000000E+00  0.45593999997E+02  0.45594000000E+02  0.51100000000E-03 0. -1.
         11   -1    0    0    0    0 -0.00000000000E+00 -0.00000000000E+00 -0.45593999997E+02  0.45594000000E+02  0.51100000000E-03 0.  1.
    9900012    2    1    2    0    0 -0.28947974989E+02  0.27105463572E+02  0.89707772758E+01  0.50528852734E+02  0.29999978371E+02 0.  0.
         12    1    1    2    0    0  0.28947974989E+02 -0.27105463572E+02 -0.89707772758E+01  0.40659147266E+02  0.00000000000E+00 0. -1.
         11    1    3    3    0    0 -0.61905416210E+00  0.11437050972E+02  0.13143102823E+02  0.17433603043E+02  0.51100000000E-03 0. -1.
        -11    1    3    3    0    0 -0.22412161468E+02  0.14289139214E+02 -0.20456131400E+01  0.26658376067E+02  0.51100000000E-03 0.  1.
         12    1    3    3    0    0 -0.59167593595E+01  0.13792733867E+01 -0.21267124073E+01  0.64368736244E+01  0.00000000000E+00 0. -1.
</event>
<event>
 7    1  0.6046695E-013  0.5052886E+02  0.7816164E-02  0.1300439E+00
        -11   -1    0    0    0    0  0.00000000000E+00  0.00000000000E+00  0.45593999997E+02  0.45594000000E+02  0.51100000000E-03 0.  1.
         11   -1    0    0    0    0 -0.00000000000E+00 -0.00000000000E+00 -0.45593999997E+02  0.45594000000E+02  0.51100000000E-03 0. -1.
    9900012    2    1    2    0    0 -0.41826346405E+01  0.40243373480E+02  0.40176906495E+01  0.50528863514E+02  0.30000011138E+02 0.  0.
         12    1    1    2    0    0  0.41826346405E+01 -0.40243373480E+02 -0.40176906495E+01  0.40659136486E+02  0.00000000000E+00 0. -1.
         11    1    3    3    0    0 -0.10605983994E+02  0.20547622750E+02  0.13429770023E+02  0.26740426703E+02  0.51100000000E-03 0. -1.
        -11    1    3    3    0    0  0.66454951892E+01  0.10565873074E+02 -0.71306591139E+01  0.14375207121E+02  0.51100000000E-03 0.  1.
        -12    1    3    3    0    0 -0.22214583607E+00  0.91298776565E+01 -0.22814202593E+01  0.94132296899E+01  0.00000000000E+00 0.  1.
</event>
<event>
 7    1  0.6046695E-013  0.5052885E+02  0.7816164E-02  0.1300439E+00
        -11   -1    0    0    0    0  0.00000000000E+00  0.00000000000E+00  0.45593999997E+02  0.45594000000E+02  0.51100000000E-03 0.  1.
         11   -1    0    0    0    0 -0.00000000000E+00 -0.00000000000E+00 -0.45593999997E+02  0.45594000000E+02  0.51100000000E-03 0. -1.
    9900012    2    1    2    0    0  0.14823454701E+02  0.14825104125E+02  0.34837451599E+02  0.50528849056E+02  0.29999967190E+02 0.  0.
         12    1    1    2    0    0 -0.14823454701E+02 -0.14825104125E+02 -0.34837451599E+02  0.40659150944E+02  0.00000000000E+00 0. -1.
         11    1    3    3    0    0 -0.58337562407E+01 -0.59964835777E+00  0.13167653832E+01  0.60105042521E+01  0.51100000000E-03 0. -1.
        -11    1    3    3    0    0  0.20975260603E+02  0.89583774834E+01  0.26660760430E+02  0.35085755392E+02  0.51100000000E-03 0.  1.
         12    1    3    3    0    0 -0.31804966128E+00  0.64663749995E+01  0.68599257860E+01  0.94325894117E+01  0.00000000000E+00 0. -1.
</event>
<event>
 7    1  0.6046695E-013  0.5052887E+02  0.7816164E-02  0.1300439E+00
        -11   -1    0    0    0    0  0.00000000000E+00  0.00000000000E+00  0.45593999997E+02  0.45594000000E+02  0.51100000000E-03 0. -1.
         11   -1    0    0    0    0 -0.00000000000E+00 -0.00000000000E+00 -0.45593999997E+02  0.45594000000E+02  0.51100000000E-03 0.  1.
    9900012    2    1    2    0    0 -0.27067312398E+02  0.28970658587E+02 -0.90125727338E+01  0.50528869086E+02  0.30000028073E+02 0.  0.
         12    1    1    2    0    0  0.27067312398E+02 -0.28970658587E+02  0.90125727338E+01  0.40659130914E+02  0.00000000000E+00 0. -1.
         11    1    3    3    0    0 -0.57806477406E+01  0.26340560812E+02 -0.63142771395E+00  0.26974798116E+02  0.51100000000E-03 0. -1.
        -11    1    3    3    0    0 -0.15449257860E+02 -0.34496566952E+00 -0.61672814570E+01  0.16638327157E+02  0.51100000000E-03 0.  1.
        -12    1    3    3    0    0 -0.58374067966E+01  0.29750634451E+01 -0.22138635629E+01  0.69157438130E+01  0.00000000000E+00 0.  1.
</event>
<event>
 7    1  0.6046695E-013  0.5052886E+02  0.7816164E-02  0.1300439E+00
        -11   -1    0    0    0    0  0.00000000000E+00  0.00000000000E+00  0.45593999997E+02  0.45594000000E+02  0.51100000000E-03 0.  1.
         11   -1    0    0    0    0 -0.00000000000E+00 -0.00000000000E+00 -0.45593999997E+02  0.45594000000E+02  0.51100000000E-03 0. -1.
    9900012    2    1    2    0    0  0.14034198747E+02 -0.53197205924E+01  0.37787667238E+02  0.50528856417E+02  0.29999989564E+02 0.  0.
         12    1    1    2    0    0 -0.14034198747E+02  0.53197205924E+01 -0.37787667238E+02  0.40659143583E+02  0.00000000000E+00 0. -1.
         11    1    3    3    0    0 -0.33737733869E+01  0.39906289795E+01  0.56117063106E+01  0.76680319832E+01  0.51100000000E-03 0. -1.
        -11    1    3    3    0    0  0.15280008587E+02 -0.11319398862E+02  0.34317871036E+02  0.39234216263E+02  0.51100000000E-03 0.  1.
        -12    1    3    3    0    0  0.21279635475E+01  0.20090492902E+01 -0.21419101091E+01  0.36266081709E+01  0.00000000000E+00 0.  1.
</event>
<event>
 7    1  0.6046695E-013  0.5052886E+02  0.7816164E-02  0.1300439E+00
        -11   -1    0    0    0    0  0.00000000000E+00  0.00000000000E+00  0.45593999997E+02  0.45594000000E+02  0.51100000000E-03 0.  1.
         11   -1    0    0    0    0 -0.00000000000E+00 -0.00000000000E+00 -0.45593999997E+02  0.45594000000E+02  0.51100000000E-03 0. -1.
    9900012    2    1    2    0    0  0.24071007248E+02 -0.12742080828E+00  0.32767908329E+02  0.50528862746E+02  0.30000008801E+02 0.  0.
         12    1    1    2    0    0 -0.24071007248E+02  0.12742080828E+00 -0.32767908329E+02  0.40659137254E+02  0.00000000000E+00 0. -1.
         11    1    3    3    0    0  0.77206688863E+01  0.84108871605E+01  0.93019376394E+01  0.14726771370E+02  0.51100000000E-03 0. -1.
        -11    1    3    3    0    0  0.20929705187E+02 -0.80506350305E+01  0.19102832894E+02  0.29458165395E+02  0.51100000000E-03 0.  1.
        -12    1    3    3    0    0 -0.45793668254E+01 -0.48767293829E+00  0.43631377960E+01  0.63439259803E+01  0.00000000000E+00 0.  1.
</event>
<event>
 7    1  0.6046695E-013  0.5052886E+02  0.7816164E-02  0.1300439E+00
        -11   -1    0    0    0    0  0.00000000000E+00  0.00000000000E+00  0.45593999997E+02  0.45594000000E+02  0.51100000000E-03 0. -1.
         11   -1    0    0    0    0 -0.00000000000E+00 -0.00000000000E+00 -0.45593999997E+02  0.45594000000E+02  0.51100000000E-03 0.  1.
    9900012    2    1    2    0    0 -0.16997157822E+02 -0.14232072172E+02 -0.34083869395E+02  0.50528863201E+02  0.30000010185E+02 0.  0.
         12    1    1    2    0    0  0.16997157822E+02  0.14232072172E+02  0.34083869395E+02  0.40659136799E+02  0.00000000000E+00 0. -1.
         11    1    3    3    0    0 -0.19277058003E+01 -0.28460697205E+01  0.19159817614E+01  0.39353715044E+01  0.51100000000E-03 0. -1.
        -11    1    3    3    0    0 -0.10646814614E+02  0.73533695535E+00 -0.30948637891E+02  0.32737036663E+02  0.51100000000E-03 0.  1.
        -12    1    3    3    0    0 -0.44226374082E+01 -0.12121339407E+02 -0.50512132645E+01  0.13856455034E+02  0.00000000000E+00 0.  1.
</event>
<event>
 7    1  0.6046695E-013  0.5052886E+02  0.7816164E-02  0.1300439E+00
        -11   -1    0    0    0    0  0.00000000000E+00  0.00000000000E+00  0.45593999997E+02  0.45594000000E+02  0.51100000000E-03 0. -1.
         11   -1    0    0    0    0 -0.00000000000E+00 -0.00000000000E+00 -0.45593999997E+02  0.45594000000E+02  0.51100000000E-03 0.  1.
    9900012    2    1    2    0    0  0.40193460826E+02  0.31540197225E+01 -0.52634504931E+01  0.50528855338E+02  0.29999986284E+02 0.  0.
         12    1    1    2    0    0 -0.40193460826E+02 -0.31540197225E+01  0.52634504931E+01  0.40659144662E+02  0.00000000000E+00 0. -1.
         11    1    3    3    0    0  0.20293096800E+02  0.23244162331E+01  0.10091425652E+02  0.22782659206E+02  0.51100000000E-03 0. -1.
        -11    1    3    3    0    0  0.11194315601E+02  0.60605759015E+01 -0.66096840383E+01  0.14343333133E+02  0.51100000000E-03 0.  1.
         12    1    3    3    0    0  0.87060484254E+01 -0.52309724120E+01 -0.87451921068E+01  0.13402862998E+02  0.00000000000E+00 0. -1.
</event>
<event>
 7    1  0.6046695E-013  0.5052885E+02  0.7816164E-02  0.1300439E+00
        -11   -1    0    0    0    0  0.00000000000E+00  0.00000000000E+00  0.45593999997E+02  0.45594000000E+02  0.51100000000E-03 0.  1.
         11   -1    0    0    0    0 -0.00000000000E+00 -0.00000000000E+00 -0.45593999997E+02  0.45594000000E+02  0.51100000000E-03 0. -1.
    9900012    2    1    2    0    0 -0.22507892461E+02 -0.12940121322E+02  0.31290809703E+02  0.50528846852E+02  0.29999960490E+02 0.  0.
         12    1    1    2    0    0  0.22507892461E+02  0.12940121322E+02 -0.31290809703E+02  0.40659153148E+02  0.00000000000E+00 0. -1.
         11    1    3    3    0    0 -0.24233091543E+01 -0.64408852828E+01  0.29958779609E+01  0.75055123410E+01  0.51100000000E-03 0. -1.
        -11    1    3    3    0    0 -0.24435924165E+02 -0.47616888635E+00  0.18123857240E+02  0.30427213611E+02  0.51100000000E-03 0.  1.
        -12    1    3    3    0    0  0.43513408583E+01 -0.60230671532E+01  0.10171074502E+02  0.12596120900E+02  0.00000000000E+00 0.  1.
</event>
<event>
 7    1  0.6046695E-013  0.5052886E+02  0.7816164E-02  0.1300439E+00
        -11   -1    0    0    0    0  0.00000000000E+00  0.00000000000E+00  0.45593999997E+02  0.45594000000E+02  0.51100000000E-03 0.  1.
         11   -1    0    0    0    0 -0.00000000000E+00 -0.00000000000E+00 -0.45593999997E+02  0.45594000000E+02  0.51100000000E-03 0. -1.
    9900012    2    1    2    0    0  0.70382616984E+01  0.33771153601E+02 -0.21520629102E+02  0.50528863016E+02  0.30000009625E+02 0.  0.
         12    1    1    2    0    0 -0.70382616984E+01 -0.33771153601E+02  0.21520629102E+02  0.40659136984E+02  0.00000000000E+00 0. -1.
         11    1    3    3    0    0  0.78417470027E+01  0.33630351597E+02 -0.10593131798E+02  0.36120741772E+02  0.51100000000E-03 0. -1.
        -11    1    3    3    0    0  0.80928272705E+00  0.38291874592E+01 -0.15617159138E+01  0.42138547657E+01  0.51100000000E-03 0.  1.
         12    1    3    3    0    0 -0.16127680314E+01 -0.36883854548E+01 -0.93657813909E+01  0.10194266479E+02  0.00000000000E+00 0. -1.
</event>
<event>
 7    1  0.6046695E-013  0.5052886E+02  0.7816164E-02  0.1300439E+00
        -11   -1    0    0    0    0  0.00000000000E+00  0.00000000000E+00  0.45593999997E+02  0.45594000000E+02  0.51100000000E-03 0.  1.
         11   -1    0    0    0    0 -0.00000000000E+00 -0.00000000000E+00 -0.45593999997E+02  0.45594000000E+02  0.51100000000E-03 0. -1.
    9900012    2    1    2    0    0 -0.34731198530E+02  0.14415773607E+02 -0.15462690994E+02  0.50528862124E+02  0.30000006912E+02 0.  0.
         12    1    1    2    0    0  0.34731198530E+02 -0.14415773607E+02  0.15462690994E+02  0.40659137876E+02  0.00000000000E+00 0. -1.
         11    1    3    3    0    0 -0.44954156189E+01 -0.35845808599E+01  0.53080860890E+01  0.78252002989E+01  0.51100000000E-03 0. -1.
        -11    1    3    3    0    0 -0.30828877558E+02  0.18385837830E+02 -0.18615098211E+02  0.40434893419E+02  0.51100000000E-03 0.  1.
        -12    1    3    3    0    0  0.59309464626E+00 -0.38548336239E+00 -0.21556788717E+01  0.22687684060E+01  0.00000000000E+00 0.  1.
</event>
<event>
 7    1  0.6046695E-013  0.5052885E+02  0.7816164E-02  0.1300439E+00
        -11   -1    0    0    0    0  0.00000000000E+00  0.00000000000E+00  0.45593999997E+02  0.45594000000E+02  0.51100000000E-03 0. -1.
         11   -1    0    0    0    0 -0.00000000000E+00 -0.00000000000E+00 -0.45593999997E+02  0.45594000000E+02  0.51100000000E-03 0.  1.
    9900012    2    1    2    0    0  0.31219998120E+02 -0.95021040375E+01 -0.24252585853E+02  0.50528853621E+02  0.29999981065E+02 0.  0.
         12    1    1    2    0    0 -0.31219998120E+02  0.95021040375E+01  0.24252585853E+02  0.40659146379E+02  0.00000000000E+00 0. -1.
         11    1    3    3    0    0  0.92217719480E+01 -0.49878701955E+01 -0.24084991311E+02  0.26267979246E+02  0.51100000000E-03 0. -1.
        -11    1    3    3    0    0  0.10627606233E+02  0.14050982116E+01  0.28477805247E+01  0.11091896565E+02  0.51100000000E-03 0.  1.
         12    1    3    3    0    0  0.11370619939E+02 -0.59193320536E+01 -0.30153750658E+01  0.13168977810E+02  0.00000000000E+00 0. -1.
</event>
<event>
 7    1  0.6046695E-013  0.5052886E+02  0.7816164E-02  0.1300439E+00
        -11   -1    0    0    0    0  0.00000000000E+00  0.00000000000E+00  0.45593999997E+02  0.45594000000E+02  0.51100000000E-03 0.  1.
         11   -1    0    0    0    0 -0.00000000000E+00 -0.00000000000E+00 -0.45593999997E+02  0.45594000000E+02  0.51100000000E-03 0. -1.
    9900012    2    1    2    0    0  0.11685782671E+02  0.36782438263E+02  0.12792972438E+02  0.50528862958E+02  0.30000009448E+02 0.  0.
         12    1    1    2    0    0 -0.11685782671E+02 -0.36782438263E+02 -0.12792972438E+02  0.40659137042E+02  0.00000000000E+00 0. -1.
         11    1    3    3    0    0  0.70815174081E+01  0.12109176869E+02  0.15144733086E+02  0.20643231185E+02  0.51100000000E-03 0. -1.
        -11    1    3    3    0    0  0.80956042292E+01  0.14738567693E+02 -0.72007914915E+01  0.18292500754E+02  0.51100000000E-03 0.  1.
        -12    1    3    3    0    0 -0.34913389660E+01  0.99346937011E+01  0.48490308429E+01  0.11593131019E+02  0.00000000000E+00 0.  1.
</event>
<event>
 7    1  0.6046695E-013  0.5052883E+02  0.7816164E-02  0.1300439E+00
        -11   -1    0    0    0    0  0.00000000000E+00  0.00000000000E+00  0.45593999997E+02  0.45594000000E+02  0.51100000000E-03 0. -1.
         11   -1    0    0    0    0 -0.00000000000E+00 -0.00000000000E+00 -0.45593999997E+02  0.45594000000E+02  0.51100000000E-03 0.  1.
    9900012    2    1    2    0    0 -0.23552498678E+02 -0.24943688487E+02 -0.21823385578E+02  0.50528831939E+02  0.29999915162E+02 0.  0.
         12    1    1    2    0    0  0.23552498678E+02  0.24943688487E+02  0.21823385578E+02  0.40659168061E+02  0.00000000000E+00 0. -1.
         11    1    3    3    0    0 -0.15865374696E+02  0.18460906463E+01 -0.39288833705E+01  0.16448534576E+02  0.51100000000E-03 0. -1.
        -11    1    3    3    0    0  0.67415591581E+00 -0.85112960959E+01 -0.79015055130E+01  0.11633161095E+02  0.51100000000E-03 0.  1.
        -12    1    3    3    0    0 -0.83612798985E+01 -0.18278483037E+02 -0.99929966941E+01  0.22447136268E+02  0.00000000000E+00 0.  1.
</event>
<event>
 7    1  0.6046695E-013  0.5052886E+02  0.7816164E-02  0.1300439E+00
        -11   -1    0    0    0    0  0.00000000000E+00  0.00000000000E+00  0.45593999997E+02  0.45594000000E+02  0.51100000000E-03 0.  1.
         11   -1    0    0    0    0 -0.00000000000E+00 -0.00000000000E+00 -0.45593999997E+02  0.45594000000E+02  0.51100000000E-03 0. -1.
    9900012    2    1    2    0    0  0.36683378943E+02  0.12174123580E+01  0.17493242617E+02  0.50528856861E+02  0.29999990915E+02 0.  0.
         12    1    1    2    0    0 -0.36683378943E+02 -0.12174123580E+01 -0.17493242617E+02  0.40659143139E+02  0.00000000000E+00 0. -1.
         11    1    3    3    0    0  0.83787752923E+01 -0.63327859514E+01  0.10510881488E+02  0.14858892396E+02  0.51100000000E-03 0. -1.
        -11    1    3    3    0    0  0.30290368111E+02  0.35454455399E+01  0.64088440708E+01  0.31163277539E+02  0.51100000000E-03 0.  1.
        -12    1    3    3    0    0 -0.19857644602E+01  0.40047527696E+01  0.57351705759E+00  0.45066869263E+01  0.00000000000E+00 0.  1.
</event>
<event>
 7    1  0.6046695E-013  0.5052886E+02  0.7816164E-02  0.1300439E+00
        -11   -1    0    0    0    0  0.00000000000E+00  0.00000000000E+00  0.45593999997E+02  0.45594000000E+02  0.51100000000E-03 0. -1.
         11   -1    0    0    0    0 -0.00000000000E+00 -0.00000000000E+00 -0.45593999997E+02  0.45594000000E+02  0.51100000000E-03 0.  1.
    9900012    2    1    2    0    0  0.17782847551E+02 -0.25524890155E+02 -0.26180454294E+02  0.50528857468E+02  0.29999992759E+02 0.  0.
         12    1    1    2    0    0 -0.17782847551E+02  0.25524890155E+02  0.26180454294E+02  0.40659142532E+02  0.00000000000E+00 0. -1.
         11    1    3    3    0    0  0.47438630367E+01  0.25715237250E+01 -0.15703823828E+02  0.16605030980E+02  0.51100000000E-03 0. -1.
        -11    1    3    3    0    0  0.28517658430E+01 -0.15602051617E+02 -0.74417223257E+01  0.17519583743E+02  0.51100000000E-03 0.  1.
        -12    1    3    3    0    0  0.10187218672E+02 -0.12494362263E+02 -0.30349081405E+01  0.16404242745E+02  0.00000000000E+00 0.  1.
</event>
<event>
 7    1  0.6046695E-013  0.5052885E+02  0.7816164E-02  0.1300439E+00
        -11   -1    0    0    0    0  0.00000000000E+00  0.00000000000E+00  0.45593999997E+02  0.45594000000E+02  0.51100000000E-03 0. -1.
         11   -1    0    0    0    0 -0.00000000000E+00 -0.00000000000E+00 -0.45593999997E+02  0.45594000000E+02  0.51100000000E-03 0.  1.
    9900012    2    1    2    0    0 -0.28131621251E+02  0.19545900454E+02  0.21902877009E+02  0.50528851459E+02  0.29999974496E+02 0.  0.
         12    1    1    2    0    0  0.28131621251E+02 -0.19545900454E+02 -0.21902877009E+02  0.40659148541E+02  0.00000000000E+00 0. -1.
         11    1    3    3    0    0  0.25087534782E+01  0.76686329452E+01  0.14883417775E+01  0.82046899253E+01  0.51100000000E-03 0. -1.
        -11    1    3    3    0    0 -0.28247002175E+02  0.53548914575E+01  0.20609168881E+02  0.35373801558E+02  0.51100000000E-03 0.  1.
         12    1    3    3    0    0 -0.23933725542E+01  0.65223760513E+01 -0.19463365015E+00  0.69503599760E+01  0.00000000000E+00 0. -1.
</event>
<event>
 7    1  0.6046695E-013  0.5052886E+02  0.7816164E-02  0.1300439E+00
        -11   -1    0    0    0    0  0.00000000000E+00  0.00000000000E+00  0.45593999997E+02  0.45594000000E+02  0.51100000000E-03 0.  1.
         11   -1    0    0    0    0 -0.00000000000E+00 -0.00000000000E+00 -0.45593999997E+02  0.45594000000E+02  0.51100000000E-03 0. -1.
    9900012    2    1    2    0    0  0.37116838616E+02 -0.10664068198E+02  0.12719428420E+02  0.50528856887E+02  0.29999990994E+02 0.  0.
         12    1    1    2    0    0 -0.37116838616E+02  0.10664068198E+02 -0.12719428420E+02  0.40659143113E+02  0.00000000000E+00 0. -1.
         11    1    3    3    0    0  0.25526866075E+01 -0.89347973728E+01 -0.58329878028E+01  0.10971351784E+02  0.51100000000E-03 0. -1.
        -11    1    3    3    0    0  0.20208267894E+02  0.80114879870E+00  0.12489085183E+02  0.23769585180E+02  0.51100000000E-03 0.  1.
         12    1    3    3    0    0  0.14355884114E+02 -0.25304196240E+01  0.60633310401E+01  0.15787919922E+02  0.00000000000E+00 0. -1.
</event>
<event>
 7    1  0.6046695E-013  0.5052885E+02  0.7816164E-02  0.1300439E+00
        -11   -1    0    0    0    0  0.00000000000E+00  0.00000000000E+00  0.45593999997E+02  0.45594000000E+02  0.51100000000E-03 0.  1.
         11   -1    0    0    0    0 -0.00000000000E+00 -0.00000000000E+00 -0.45593999997E+02  0.45594000000E+02  0.51100000000E-03 0. -1.
    9900012    2    1    2    0    0  0.86041968719E+01 -0.36250495136E+02  0.16279920881E+02  0.50528850657E+02  0.29999972058E+02 0.  0.
         12    1    1    2    0    0 -0.86041968719E+01  0.36250495136E+02 -0.16279920881E+02  0.40659149343E+02  0.00000000000E+00 0. -1.
         11    1    3    3    0    0  0.26978142824E+00  0.31324829198E+01  0.40061432798E+00  0.31694989135E+01  0.51100000000E-03 0. -1.
        -11    1    3    3    0    0  0.79643659919E+01 -0.26481705647E+02  0.19637535235E+02  0.33916731122E+02  0.51100000000E-03 0.  1.
        -12    1    3    3    0    0  0.37004945180E+00 -0.12901272408E+02 -0.37582286821E+01  0.13442620622E+02  0.00000000000E+00 0.  1.
</event>
<event>
 7    1  0.6046695E-013  0.5052886E+02  0.7816164E-02  0.1300439E+00
        -11   -1    0    0    0    0  0.00000000000E+00  0.00000000000E+00  0.45593999997E+02  0.45594000000E+02  0.51100000000E-03 0. -1.
         11   -1    0    0    0    0 -0.00000000000E+00 -0.00000000000E+00 -0.45593999997E+02  0.45594000000E+02  0.51100000000E-03 0.  1.
    9900012    2    1    2    0    0  0.15798477900E+02 -0.36002524288E+02 -0.10363014822E+02  0.50528859142E+02  0.29999997849E+02 0.  0.
         12    1    1    2    0    0 -0.15798477900E+02  0.36002524288E+02  0.10363014822E+02  0.40659140858E+02  0.00000000000E+00 0. -1.
         11    1    3    3    0    0  0.54770542695E+01 -0.64769462703E+01 -0.62939869610E+01  0.10562349577E+02  0.51100000000E-03 0. -1.
        -11    1    3    3    0    0  0.32692316898E+01  0.79637494909E+00  0.63096547011E+01  0.71507923764E+01  0.51100000000E-03 0.  1.
        -12    1    3    3    0    0  0.70521919408E+01 -0.30321952967E+02 -0.10378682562E+02  0.32815717189E+02  0.00000000000E+00 0.  1.
</event>
<event>
 7    1  0.6046695E-013  0.5052897E+02  0.7816164E-02  0.1300438E+00
        -11   -1    0    0    0    0  0.00000000000E+00  0.00000000000E+00  0.45593999997E+02  0.45594000000E+02  0.51100000000E-03 0.  1.
         11   -1    0    0    0    0 -0.00000000000E+00 -0.00000000000E+00 -0.45593999997E+02  0.45594000000E+02  0.51100000000E-03 0. -1.
    9900012    2    1    2    0    0 -0.24869522885E+02 -0.25063185612E+02  0.20161860224E+02  0.50528965958E+02  0.30000322525E+02 0.  0.
         12    1    1    2    0    0  0.24869522885E+02  0.25063185612E+02 -0.20161860224E+02  0.40659034042E+02  0.00000000000E+00 0. -1.
         11    1    3    3    0    0 -0.38845136662E+01 -0.56776630651E+01 -0.73314812542E+01  0.10053652170E+02  0.51100000000E-03 0. -1.
        -11    1    3    3    0    0 -0.10578027811E+02 -0.14796129366E+02  0.18810316060E+02  0.26165781225E+02  0.51100000000E-03 0.  1.
         12    1    3    3    0    0 -0.10406981407E+02 -0.45893931801E+01  0.86830254185E+01  0.14309532564E+02  0.00000000000E+00 0. -1.
</event>
<event>
 7    1  0.6046695E-013  0.5052885E+02  0.7816164E-02  0.1300439E+00
        -11   -1    0    0    0    0  0.00000000000E+00  0.00000000000E+00  0.45593999997E+02  0.45594000000E+02  0.51100000000E-03 0.  1.
         11   -1    0    0    0    0 -0.00000000000E+00 -0.00000000000E+00 -0.45593999997E+02  0.45594000000E+02  0.51100000000E-03 0. -1.
    9900012    2    1    2    0    0 -0.30253183942E+02  0.19835774561E+02  0.18559457695E+02  0.50528848988E+02  0.29999966985E+02 0.  0.
         12    1    1    2    0    0  0.30253183942E+02 -0.19835774561E+02 -0.18559457695E+02  0.40659151012E+02  0.00000000000E+00 0. -1.
         11    1    3    3    0    0 -0.59082374580E+01 -0.90342448013E-01  0.12598479211E+02  0.13915355199E+02  0.51100000000E-03 0. -1.
        -11    1    3    3    0    0 -0.20302027050E+02  0.18598951601E+02 -0.19796820817E+01  0.27604572889E+02  0.51100000000E-03 0.  1.
        -12    1    3    3    0    0 -0.40429194339E+01  0.13271654081E+01  0.79406605658E+01  0.90089209004E+01  0.00000000000E+00 0.  1.
</event>
<event>
 7    1  0.6046695E-013  0.5052885E+02  0.7816164E-02  0.1300439E+00
        -11   -1    0    0    0    0  0.00000000000E+00  0.00000000000E+00  0.45593999997E+02  0.45594000000E+02  0.51100000000E-03 0.  1.
         11   -1    0    0    0    0 -0.00000000000E+00 -0.00000000000E+00 -0.45593999997E+02  0.45594000000E+02  0.51100000000E-03 0. -1.
    9900012    2    1    2    0    0  0.38954795714E+02 -0.75092361308E+01  0.89051363413E+01  0.50528853555E+02  0.29999980867E+02 0.  0.
         12    1    1    2    0    0 -0.38954795714E+02  0.75092361308E+01 -0.89051363413E+01  0.40659146445E+02  0.00000000000E+00 0. -1.
         11    1    3    3    0    0  0.13245395079E+02 -0.65381979677E+01 -0.38380155903E+01  0.15261680360E+02  0.51100000000E-03 0. -1.
        -11    1    3    3    0    0  0.21136877351E+02  0.59252381975E+01  0.15123653022E+02  0.26657098732E+02  0.51100000000E-03 0.  1.
        -12    1    3    3    0    0  0.45725232835E+01 -0.68962763606E+01 -0.23805010902E+01  0.86100744631E+01  0.00000000000E+00 0.  1.
</event>
<event>
 7    1  0.6046695E-013  0.5052886E+02  0.7816164E-02  0.1300439E+00
        -11   -1    0    0    0    0  0.00000000000E+00  0.00000000000E+00  0.45593999997E+02  0.45594000000E+02  0.51100000000E-03 0.  1.
         11   -1    0    0    0    0 -0.00000000000E+00 -0.00000000000E+00 -0.45593999997E+02  0.45594000000E+02  0.51100000000E-03 0. -1.
    9900012    2    1    2    0    0  0.24786184088E+02  0.16769218848E+02  0.27524612170E+02  0.50528857147E+02  0.29999991785E+02 0.  0.
         12    1    1    2    0    0 -0.24786184088E+02 -0.16769218848E+02 -0.27524612170E+02  0.40659142853E+02  0.00000000000E+00 0. -1.
         11    1    3    3    0    0  0.21858821377E+01  0.22656122469E+01  0.21379419828E+02  0.21609966960E+02  0.51100000000E-03 0. -1.
        -11    1    3    3    0    0  0.18222309068E+02  0.15197036164E+02  0.42834264397E+01  0.24111204828E+02  0.51100000000E-03 0.  1.
        -12    1    3    3    0    0  0.43779928825E+01 -0.69342956285E+00  0.18617659015E+01  0.48076853589E+01  0.00000000000E+00 0.  1.
</event>
<event>
 7    1  0.6046695E-013  0.5052885E+02  0.7816164E-02  0.1300439E+00
        -11   -1    0    0    0    0  0.00000000000E+00  0.00000000000E+00  0.45593999997E+02  0.45594000000E+02  0.51100000000E-03 0.  1.
         11   -1    0    0    0    0 -0.00000000000E+00 -0.00000000000E+00 -0.45593999997E+02  0.45594000000E+02  0.51100000000E-03 0. -1.
    9900012    2    1    2    0    0 -0.64952147459E+00  0.24769671390E+02  0.32236743357E+02  0.50528854397E+02  0.29999983426E+02 0.  0.
         12    1    1    2    0    0  0.64952147459E+00 -0.24769671390E+02 -0.32236743357E+02  0.40659145603E+02  0.00000000000E+00 0. -1.
         11    1    3    3    0    0 -0.12358242504E+02  0.44882683083E+01  0.64645389504E+01  0.14651313057E+02  0.51100000000E-03 0. -1.
        -11    1    3    3    0    0  0.67189146868E+01  0.12536021697E+02  0.21359736733E+02  0.25661917467E+02  0.51100000000E-03 0.  1.
        -12    1    3    3    0    0  0.49898063430E+01  0.77453813848E+01  0.44124676733E+01  0.10215623873E+02  0.00000000000E+00 0.  1.
</event>
<event>
 7    1  0.6046695E-013  0.5052886E+02  0.7816164E-02  0.1300439E+00
        -11   -1    0    0    0    0  0.00000000000E+00  0.00000000000E+00  0.45593999997E+02  0.45594000000E+02  0.51100000000E-03 0.  1.
         11   -1    0    0    0    0 -0.00000000000E+00 -0.00000000000E+00 -0.45593999997E+02  0.45594000000E+02  0.51100000000E-03 0. -1.
    9900012    2    1    2    0    0 -0.46189941484E+01 -0.34753554052E+02  0.20591769298E+02  0.50528860942E+02  0.30000003318E+02 0.  0.
         12    1    1    2    0    0  0.46189941484E+01  0.34753554052E+02 -0.20591769298E+02  0.40659139058E+02  0.00000000000E+00 0. -1.
         11    1    3    3    0    0  0.20477221469E+01  0.16265274078E+01  0.10280455707E+01  0.28099173219E+01  0.51100000000E-03 0. -1.
        -11    1    3    3    0    0 -0.62120581582E+01 -0.38405986238E+02  0.13293004409E+02  0.41113421312E+02  0.51100000000E-03 0.  1.
        -12    1    3    3    0    0 -0.45465813711E+00  0.20259047787E+01  0.62707193180E+01  0.66055223078E+01  0.00000000000E+00 0.  1.
</event>
<event>
 7    1  0.6046695E-013  0.5052887E+02  0.7816164E-02  0.1300439E+00
        -11   -1    0    0    0    0  0.00000000000E+00  0.00000000000E+00  0.45593999997E+02  0.45594000000E+02  0.51100000000E-03 0. -1.
         11   -1    0    0    0    0 -0.00000000000E+00 -0.00000000000E+00 -0.45593999997E+02  0.45594000000E+02  0.51100000000E-03 0.  1.
    9900012    2    1    2    0    0  0.38183134073E+02  0.12986912423E+02  0.51530190217E+01  0.50528865393E+02  0.30000016849E+02 0.  0.
         12    1    1    2    0    0 -0.38183134073E+02 -0.12986912423E+02 -0.51530190217E+01  0.40659134607E+02  0.00000000000E+00 0. -1.
         11    1    3    3    0    0  0.20147886981E+02  0.16285123842E+02  0.22999374159E+01  0.26008312531E+02  0.51100000000E-03 0. -1.
        -11    1    3    3    0    0  0.52519228588E+01 -0.51612738409E+01  0.77637254251E+01  0.10700321215E+02  0.51100000000E-03 0.  1.
        -12    1    3    3    0    0  0.12783324233E+02  0.18630624224E+01 -0.49106438192E+01  0.13820231646E+02  0.00000000000E+00 0.  1.
</event>
<event>
 7    1  0.6046695E-013  0.5052885E+02  0.7816164E-02  0.1300439E+00
        -11   -1    0    0    0    0  0.00000000000E+00  0.00000000000E+00  0.45593999997E+02  0.45594000000E+02  0.51100000000E-03 0.  1.
         11   -1    0    0    0    0 -0.00000000000E+00 -0.00000000000E+00 -0.45593999997E+02  0.45594000000E+02  0.51100000000E-03 0. -1.
    9900012    2    1    2    0    0 -0.86149101097E+01 -0.16543984771E+02  0.36128191169E+02  0.50528852131E+02  0.29999976537E+02 0.  0.
         12    1    1    2    0    0  0.86149101097E+01  0.16543984771E+02 -0.36128191169E+02  0.40659147869E+02  0.00000000000E+00 0. -1.
         11    1    3    3    0    0  0.33690047184E+00  0.17599378837E+01  0.37692570144E+01  0.41735095524E+01  0.51100000000E-03 0. -1.
        -11    1    3    3    0    0  0.85979066419E+01 -0.89770746895E+01  0.17836766370E+02  0.21740793532E+02  0.51100000000E-03 0.  1.
        -12    1    3    3    0    0 -0.17549717223E+02 -0.93268479654E+01  0.14522167784E+02  0.24614549046E+02  0.00000000000E+00 0.  1.
</event>
<event>
 7    1  0.6046695E-013  0.5052886E+02  0.7816164E-02  0.1300439E+00
        -11   -1    0    0    0    0  0.00000000000E+00  0.00000000000E+00  0.45593999997E+02  0.45594000000E+02  0.51100000000E-03 0.  1.
         11   -1    0    0    0    0 -0.00000000000E+00 -0.00000000000E+00 -0.45593999997E+02  0.45594000000E+02  0.51100000000E-03 0. -1.
    9900012    2    1    2    0    0  0.25500660264E+02 -0.30936628582E+02  0.67680751922E+01  0.50528861990E+02  0.30000006505E+02 0.  0.
         12    1    1    2    0    0 -0.25500660264E+02  0.30936628582E+02 -0.67680751922E+01  0.40659138010E+02  0.00000000000E+00 0. -1.
         11    1    3    3    0    0  0.29959497318E+02 -0.25195397915E+02  0.17652083658E+01  0.39185399277E+02  0.51100000000E-03 0. -1.
        -11    1    3    3    0    0 -0.38115680497E+00 -0.44015605805E+00  0.46071550034E+01  0.46438018209E+01  0.51100000000E-03 0.  1.
         12    1    3    3    0    0 -0.40776802495E+01 -0.53010746091E+01  0.39571182300E+00  0.66996608926E+01  0.00000000000E+00 0. -1.
</event>
<event>
 7    1  0.6046695E-013  0.5052889E+02  0.7816164E-02  0.1300439E+00
        -11   -1    0    0    0    0  0.00000000000E+00  0.00000000000E+00  0.45593999997E+02  0.45594000000E+02  0.51100000000E-03 0.  1.
         11   -1    0    0    0    0 -0.00000000000E+00 -0.00000000000E+00 -0.45593999997E+02  0.45594000000E+02  0.51100000000E-03 0. -1.
    9900012    2    1    2    0    0 -0.16183243602E+02 -0.20246286682E+01  0.37244688682E+02  0.50528888724E+02  0.30000087765E+02 0.  0.
         12    1    1    2    0    0  0.16183243602E+02  0.20246286682E+01 -0.37244688682E+02  0.40659111276E+02  0.00000000000E+00 0. -1.
         11    1    3    3    0    0 -0.11295715503E+02 -0.90258784655E+01  0.36075334639E+02  0.38865015636E+02  0.51100000000E-03 0.  1.
        -11    1    3    3    0    0 -0.54503072846E+01  0.55025382950E+01 -0.20991673118E+01  0.80243554787E+01  0.51100000000E-03 0. -1.
        -12    1    3    3    0    0  0.56277918597E+00  0.14987115023E+01  0.32685213549E+01  0.36395176090E+01  0.00000000000E+00 0.  1.
</event>
<event>
 7    1  0.6046695E-013  0.5052886E+02  0.7816164E-02  0.1300439E+00
        -11   -1    0    0    0    0  0.00000000000E+00  0.00000000000E+00  0.45593999997E+02  0.45594000000E+02  0.51100000000E-03 0.  1.
         11   -1    0    0    0    0 -0.00000000000E+00 -0.00000000000E+00 -0.45593999997E+02  0.45594000000E+02  0.51100000000E-03 0. -1.
    9900012    2    1    2    0    0  0.86971046728E+01 -0.13691346367E+02  0.37283681283E+02  0.50528862220E+02  0.30000007204E+02 0.  0.
         12    1    1    2    0    0 -0.86971046728E+01  0.13691346367E+02 -0.37283681283E+02  0.40659137780E+02  0.00000000000E+00 0. -1.
         11    1    3    3    0    0  0.47504233467E+01  0.74628835046E+01  0.55144343927E+01  0.10424497067E+02  0.51100000000E-03 0. -1.
        -11    1    3    3    0    0  0.37783293133E+01 -0.13841262813E+02  0.28864613726E+02  0.32233868128E+02  0.51100000000E-03 0.  1.
         12    1    3    3    0    0  0.16835201279E+00 -0.73129670585E+01  0.29046331639E+01  0.78704970247E+01  0.00000000000E+00 0. -1.
</event>
<event>
 7    1  0.6046695E-013  0.5052885E+02  0.7816164E-02  0.1300439E+00
        -11   -1    0    0    0    0  0.00000000000E+00  0.00000000000E+00  0.45593999997E+02  0.45594000000E+02  0.51100000000E-03 0.  1.
         11   -1    0    0    0    0 -0.00000000000E+00 -0.00000000000E+00 -0.45593999997E+02  0.45594000000E+02  0.51100000000E-03 0. -1.
    9900012    2    1    2    0    0 -0.29872422277E+02 -0.24126342970E+02  0.13368796847E+02  0.50528846455E+02  0.29999959286E+02 0.  0.
         12    1    1    2    0    0  0.29872422277E+02  0.24126342970E+02 -0.13368796847E+02  0.40659153545E+02  0.00000000000E+00 0. -1.
         11    1    3    3    0    0 -0.12723819314E+02 -0.85441428503E+01 -0.40952651014E+01  0.15864083696E+02  0.51100000000E-03 0. -1.
        -11    1    3    3    0    0  0.35379484480E+01 -0.58887930197E+01  0.59197473792E+01  0.90685374645E+01  0.51100000000E-03 0.  1.
        -12    1    3    3    0    0 -0.20686551411E+02 -0.96934071001E+01  0.11544314570E+02  0.25596225295E+02  0.00000000000E+00 0.  1.
</event>
<event>
 7    1  0.6046695E-013  0.5052885E+02  0.7816164E-02  0.1300439E+00
        -11   -1    0    0    0    0  0.00000000000E+00  0.00000000000E+00  0.45593999997E+02  0.45594000000E+02  0.51100000000E-03 0. -1.
         11   -1    0    0    0    0 -0.00000000000E+00 -0.00000000000E+00 -0.45593999997E+02  0.45594000000E+02  0.51100000000E-03 0.  1.
    9900012    2    1    2    0    0  0.26152809118E+02 -0.23033892924E+02 -0.20943665126E+02  0.50528846579E+02  0.29999959660E+02 0.  0.
         12    1    1    2    0    0 -0.26152809118E+02  0.23033892924E+02  0.20943665126E+02  0.40659153421E+02  0.00000000000E+00 0. -1.
         11    1    3    3    0    0 -0.21261249043E+01 -0.36394154353E+01 -0.58681561770E+01  0.72250265742E+01  0.51100000000E-03 0. -1.
        -11    1    3    3    0    0  0.22974309044E+02 -0.22935345270E+02 -0.16996080754E+02  0.36643085295E+02  0.51100000000E-03 0.  1.
        -12    1    3    3    0    0  0.53046249785E+01  0.35408677808E+01  0.19205718050E+01  0.66607347089E+01  0.00000000000E+00 0.  1.
</event>
<event>
 7    1  0.6046695E-013  0.5052885E+02  0.7816164E-02  0.1300439E+00
        -11   -1    0    0    0    0  0.00000000000E+00  0.00000000000E+00  0.45593999997E+02  0.45594000000E+02  0.51100000000E-03 0.  1.
         11   -1    0    0    0    0 -0.00000000000E+00 -0.00000000000E+00 -0.45593999997E+02  0.45594000000E+02  0.51100000000E-03 0. -1.
    9900012    2    1    2    0    0 -0.94962625327E+01  0.51698525120E+01  0.39195150647E+02  0.50528853288E+02  0.29999980054E+02 0.  0.
         12    1    1    2    0    0  0.94962625327E+01 -0.51698525120E+01 -0.39195150647E+02  0.40659146712E+02  0.00000000000E+00 0. -1.
         11    1    3    3    0    0 -0.96910340765E-01  0.15826862647E+02  0.17586643183E+02  0.23659860345E+02  0.51100000000E-03 0. -1.
        -11    1    3    3    0    0 -0.43477266132E+01 -0.26038420868E+01  0.13338458922E+02  0.14268749314E+02  0.51100000000E-03 0.  1.
         12    1    3    3    0    0 -0.50516255788E+01 -0.80531680480E+01  0.82700485419E+01  0.12600243628E+02  0.00000000000E+00 0. -1.
</event>
<event>
 7    1  0.6046695E-013  0.5052885E+02  0.7816164E-02  0.1300439E+00
        -11   -1    0    0    0    0  0.00000000000E+00  0.00000000000E+00  0.45593999997E+02  0.45594000000E+02  0.51100000000E-03 0.  1.
         11   -1    0    0    0    0 -0.00000000000E+00 -0.00000000000E+00 -0.45593999997E+02  0.45594000000E+02  0.51100000000E-03 0. -1.
    9900012    2    1    2    0    0  0.39896547306E+02  0.78195839818E+01 -0.53513176450E+00  0.50528846706E+02  0.29999960048E+02 0.  0.
         12    1    1    2    0    0 -0.39896547306E+02 -0.78195839818E+01  0.53513176450E+00  0.40659153294E+02  0.00000000000E+00 0. -1.
         11    1    3    3    0    0  0.21231069193E+02  0.63107438837E+01 -0.13313646622E+02  0.25842541943E+02  0.51100000000E-03 0. -1.
        -11    1    3    3    0    0  0.16362293900E+02  0.17722840191E+01  0.59921127081E+01  0.17514881309E+02  0.51100000000E-03 0.  1.
         12    1    3    3    0    0  0.23031842128E+01 -0.26344392097E+00  0.67864021496E+01  0.71714234539E+01  0.00000000000E+00 0. -1.
</event>
<event>
 7    1  0.6046695E-013  0.5052886E+02  0.7816164E-02  0.1300439E+00
        -11   -1    0    0    0    0  0.00000000000E+00  0.00000000000E+00  0.45593999997E+02  0.45594000000E+02  0.51100000000E-03 0.  1.
         11   -1    0    0    0    0 -0.00000000000E+00 -0.00000000000E+00 -0.45593999997E+02  0.45594000000E+02  0.51100000000E-03 0. -1.
    9900012    2    1    2    0    0  0.14243918719E+01 -0.17752309804E+02  0.36551229502E+02  0.50528858670E+02  0.29999996413E+02 0.  0.
         12    1    1    2    0    0 -0.14243918719E+01  0.17752309804E+02 -0.36551229502E+02  0.40659141330E+02  0.00000000000E+00 0. -1.
         11    1    3    3    0    0 -0.38376936698E+01 -0.18239014061E+02  0.21110428382E+02  0.28160960803E+02  0.51100000000E-03 0. -1.
        -11    1    3    3    0    0  0.97525084635E+01 -0.67594849394E+00  0.14724743107E+02  0.17674455791E+02  0.51100000000E-03 0.  1.
        -12    1    3    3    0    0 -0.44904229217E+01  0.11626527510E+01  0.71605801348E+00  0.46934420753E+01  0.00000000000E+00 0.  1.
</event>
<event>
 7    1  0.6046695E-013  0.5052887E+02  0.7816164E-02  0.1300439E+00
        -11   -1    0    0    0    0  0.00000000000E+00  0.00000000000E+00  0.45593999997E+02  0.45594000000E+02  0.51100000000E-03 0. -1.
         11   -1    0    0    0    0 -0.00000000000E+00 -0.00000000000E+00 -0.45593999997E+02  0.45594000000E+02  0.51100000000E-03 0.  1.
    9900012    2    1    2    0    0 -0.86504678835E+01  0.23516608088E+02 -0.32020361727E+02  0.50528867991E+02  0.30000024746E+02 0.  0.
         12    1    1    2    0    0  0.86504678835E+01 -0.23516608088E+02  0.32020361727E+02  0.40659132009E+02  0.00000000000E+00 0. -1.
         11    1    3    3    0    0 -0.19165688174E+01 -0.67636184883E+01 -0.65180378876E+01  0.95866881274E+01  0.51100000000E-03 0. -1.
        -11    1    3    3    0    0 -0.59931117797E+01  0.94777227682E+01 -0.90120906452E+01  0.14386187672E+02  0.51100000000E-03 0.  1.
         12    1    3    3    0    0 -0.74078728645E+00  0.20802503808E+02 -0.16490233195E+02  0.26555992192E+02  0.00000000000E+00 0. -1.
</event>
<event>
 7    1  0.6046695E-013  0.5052886E+02  0.7816164E-02  0.1300439E+00
        -11   -1    0    0    0    0  0.00000000000E+00  0.00000000000E+00  0.45593999997E+02  0.45594000000E+02  0.51100000000E-03 0. -1.
         11   -1    0    0    0    0 -0.00000000000E+00 -0.00000000000E+00 -0.45593999997E+02  0.45594000000E+02  0.51100000000E-03 0.  1.
    9900012    2    1    2    0    0 -0.15800757922E+02  0.35963411833E+02 -0.10494506323E+02  0.50528860750E+02  0.30000002736E+02 0.  0.
         12    1    1    2    0    0  0.15800757922E+02 -0.35963411833E+02  0.10494506323E+02  0.40659139250E+02  0.00000000000E+00 0. -1.
         11    1    3    3    0    0  0.33155207806E+01  0.35829100340E+01  0.68301468192E+01  0.83952860696E+01  0.51100000000E-03 0. -1.
        -11    1    3    3    0    0 -0.92005844157E+01  0.21493678308E+02 -0.13164593616E+02  0.26831613559E+02  0.51100000000E-03 0.  1.
         12    1    3    3    0    0 -0.99156942872E+01  0.10886823491E+02 -0.41600595259E+01  0.15301961122E+02  0.00000000000E+00 0. -1.
</event>
<event>
 7    1  0.6046695E-013  0.5052891E+02  0.7816164E-02  0.1300439E+00
        -11   -1    0    0    0    0  0.00000000000E+00  0.00000000000E+00  0.45593999997E+02  0.45594000000E+02  0.51100000000E-03 0. -1.
         11   -1    0    0    0    0 -0.00000000000E+00 -0.00000000000E+00 -0.45593999997E+02  0.45594000000E+02  0.51100000000E-03 0.  1.
    9900012    2    1    2    0    0  0.31345620382E+02  0.21080894615E+02 -0.15040273763E+02  0.50528906677E+02  0.30000142336E+02 0.  0.
         12    1    1    2    0    0 -0.31345620382E+02 -0.21080894615E+02  0.15040273763E+02  0.40659093323E+02  0.00000000000E+00 0. -1.
         11    1    3    3    0    0  0.12080073042E+01  0.11929713602E+02  0.29848995167E+01  0.12356657058E+02  0.51100000000E-03 0. -1.
        -11    1    3    3    0    0  0.84953532514E+01  0.68608011571E+01 -0.10488690102E+02  0.15141143936E+02  0.51100000000E-03 0.  1.
         12    1    3    3    0    0  0.21642259827E+02  0.22903798567E+01 -0.75364831776E+01  0.23031105683E+02  0.00000000000E+00 0. -1.
</event>
<event>
 7    1  0.6046695E-013  0.5052886E+02  0.7816164E-02  0.1300439E+00
        -11   -1    0    0    0    0  0.00000000000E+00  0.00000000000E+00  0.45593999997E+02  0.45594000000E+02  0.51100000000E-03 0. -1.
         11   -1    0    0    0    0 -0.00000000000E+00 -0.00000000000E+00 -0.45593999997E+02  0.45594000000E+02  0.51100000000E-03 0.  1.
    9900012    2    1    2    0    0  0.67856107153E+01  0.40084799949E+02  0.57449970867E+00  0.50528858966E+02  0.29999997312E+02 0.  0.
         12    1    1    2    0    0 -0.67856107153E+01 -0.40084799949E+02 -0.57449970867E+00  0.40659141034E+02  0.00000000000E+00 0. -1.
         11    1    3    3    0    0  0.11896406863E+02  0.11659435861E+02 -0.14116723165E+01  0.16717049974E+02  0.51100000000E-03 0. -1.
        -11    1    3    3    0    0 -0.10527198901E+02  0.99460199788E+01  0.36968863225E+00  0.14487301338E+02  0.51100000000E-03 0.  1.
        -12    1    3    3    0    0  0.54164027529E+01  0.18479344109E+02  0.16164833929E+01  0.19324507654E+02  0.00000000000E+00 0.  1.
</event>
<event>
 7    1  0.6046695E-013  0.5052886E+02  0.7816164E-02  0.1300439E+00
        -11   -1    0    0    0    0  0.00000000000E+00  0.00000000000E+00  0.45593999997E+02  0.45594000000E+02  0.51100000000E-03 0.  1.
         11   -1    0    0    0    0 -0.00000000000E+00 -0.00000000000E+00 -0.45593999997E+02  0.45594000000E+02  0.51100000000E-03 0. -1.
    9900012    2    1    2    0    0  0.33369913139E+02  0.18806178494E+02  0.13636064603E+02  0.50528859450E+02  0.29999998783E+02 0.  0.
         12    1    1    2    0    0 -0.33369913139E+02 -0.18806178494E+02 -0.13636064603E+02  0.40659140550E+02  0.00000000000E+00 0. -1.
         11    1    3    3    0    0  0.69784441859E+01  0.85198766654E+01  0.19964267112E+01  0.11192528826E+02  0.51100000000E-03 0. -1.
        -11    1    3    3    0    0  0.19958752253E+02 -0.51724218124E+01  0.43364371034E+01  0.21069181899E+02  0.51100000000E-03 0.  1.
        -12    1    3    3    0    0  0.64327166998E+01  0.15458723641E+02  0.73032007883E+01  0.18267148724E+02  0.00000000000E+00 0.  1.
</event>
<event>
 7    1  0.6046695E-013  0.5052886E+02  0.7816164E-02  0.1300439E+00
        -11   -1    0    0    0    0  0.00000000000E+00  0.00000000000E+00  0.45593999997E+02  0.45594000000E+02  0.51100000000E-03 0.  1.
         11   -1    0    0    0    0 -0.00000000000E+00 -0.00000000000E+00 -0.45593999997E+02  0.45594000000E+02  0.51100000000E-03 0. -1.
    9900012    2    1    2    0    0  0.26707372680E+01  0.16382358263E+02  0.37116728332E+02  0.50528855618E+02  0.29999987137E+02 0.  0.
         12    1    1    2    0    0 -0.26707372680E+01 -0.16382358263E+02 -0.37116728332E+02  0.40659144382E+02  0.00000000000E+00 0. -1.
         11    1    3    3    0    0 -0.11090828298E+02  0.64709645720E+01  0.93760686025E+01  0.15899387332E+02  0.51100000000E-03 0. -1.
        -11    1    3    3    0    0  0.10131206377E+02  0.12629262088E+02  0.21450747756E+02  0.26875159220E+02  0.51100000000E-03 0.  1.
         12    1    3    3    0    0  0.36303591885E+01 -0.27178683971E+01  0.62899119731E+01  0.77543090660E+01  0.00000000000E+00 0. -1.
</event>
<event>
 7    1  0.6046695E-013  0.5052886E+02  0.7816164E-02  0.1300439E+00
        -11   -1    0    0    0    0  0.00000000000E+00  0.00000000000E+00  0.45593999997E+02  0.45594000000E+02  0.51100000000E-03 0. -1.
         11   -1    0    0    0    0 -0.00000000000E+00 -0.00000000000E+00 -0.45593999997E+02  0.45594000000E+02  0.51100000000E-03 0.  1.
    9900012    2    1    2    0    0 -0.39974983650E+02  0.72958499123E+01 -0.13916985792E+01  0.50528861191E+02  0.30000004076E+02 0.  0.
         12    1    1    2    0    0  0.39974983650E+02 -0.72958499123E+01  0.13916985792E+01  0.40659138809E+02  0.00000000000E+00 0. -1.
         11    1    3    3    0    0  0.79971990000E+00  0.13589222225E+01  0.19610757433E+01  0.25163544777E+01  0.51100000000E-03 0. -1.
        -11    1    3    3    0    0 -0.23728335565E+02 -0.45963136823E+01 -0.11012788370E+02  0.26560149023E+02  0.51100000000E-03 0.  1.
        -12    1    3    3    0    0 -0.17046367985E+02  0.10533241372E+02  0.76600140475E+01  0.21452357690E+02  0.00000000000E+00 0.  1.
</event>
<event>
 7    1  0.6046695E-013  0.5052886E+02  0.7816164E-02  0.1300439E+00
        -11   -1    0    0    0    0  0.00000000000E+00  0.00000000000E+00  0.45593999997E+02  0.45594000000E+02  0.51100000000E-03 0.  1.
         11   -1    0    0    0    0 -0.00000000000E+00 -0.00000000000E+00 -0.45593999997E+02  0.45594000000E+02  0.51100000000E-03 0. -1.
    9900012    2    1    2    0    0 -0.14129911148E+02  0.34564601469E+02  0.16087245875E+02  0.50528861499E+02  0.30000005013E+02 0.  0.
         12    1    1    2    0    0  0.14129911148E+02 -0.34564601469E+02 -0.16087245875E+02  0.40659138501E+02  0.00000000000E+00 0. -1.
         11    1    3    3    0    0 -0.18329677576E+01  0.12889735528E+00 -0.40301890862E+01  0.44293125494E+01  0.51100000000E-03 0. -1.
        -11    1    3    3    0    0 -0.79940395341E+01  0.35872375816E+02  0.16448614596E+02  0.40265232361E+02  0.51100000000E-03 0.  1.
        -12    1    3    3    0    0 -0.43029038568E+01 -0.14366717017E+01  0.36688203655E+01  0.58343165884E+01  0.00000000000E+00 0.  1.
</event>
<event>
 7    1  0.6046695E-013  0.5052885E+02  0.7816164E-02  0.1300439E+00
        -11   -1    0    0    0    0  0.00000000000E+00  0.00000000000E+00  0.45593999997E+02  0.45594000000E+02  0.51100000000E-03 0. -1.
         11   -1    0    0    0    0 -0.00000000000E+00 -0.00000000000E+00 -0.45593999997E+02  0.45594000000E+02  0.51100000000E-03 0.  1.
    9900012    2    1    2    0    0 -0.31513834389E+02 -0.18395729198E+02 -0.17934372290E+02  0.50528851952E+02  0.29999975993E+02 0.  0.
         12    1    1    2    0    0  0.31513834389E+02  0.18395729198E+02  0.17934372290E+02  0.40659148048E+02  0.00000000000E+00 0. -1.
         11    1    3    3    0    0 -0.37913975603E+01  0.78737999388E+01 -0.15073229449E+01  0.88681138726E+01  0.51100000000E-03 0. -1.
        -11    1    3    3    0    0 -0.22229333641E+02 -0.22358765547E+02 -0.13104798730E+02  0.34143717152E+02  0.51100000000E-03 0.  1.
         12    1    3    3    0    0 -0.54931031869E+01 -0.39107635898E+01 -0.33222506145E+01  0.75170209274E+01  0.00000000000E+00 0. -1.
</event>
<event>
 7    1  0.6046695E-013  0.5052886E+02  0.7816164E-02  0.1300439E+00
        -11   -1    0    0    0    0  0.00000000000E+00  0.00000000000E+00  0.45593999997E+02  0.45594000000E+02  0.51100000000E-03 0.  1.
         11   -1    0    0    0    0 -0.00000000000E+00 -0.00000000000E+00 -0.45593999997E+02  0.45594000000E+02  0.51100000000E-03 0. -1.
    9900012    2    1    2    0    0  0.26618098403E+01  0.12163203312E+01  0.40553680214E+02  0.50528860244E+02  0.30000001198E+02 0.  0.
         12    1    1    2    0    0 -0.26618098403E+01 -0.12163203312E+01 -0.40553680214E+02  0.40659139756E+02  0.00000000000E+00 0. -1.
         11    1    3    3    0    0 -0.43611926155E+01 -0.10859548970E+02  0.81523605870E+01  0.14262215405E+02  0.51100000000E-03 0. -1.
        -11    1    3    3    0    0  0.47788947689E+01  0.83925457129E+01  0.29570160009E+02  0.31107346753E+02  0.51100000000E-03 0.  1.
         12    1    3    3    0    0  0.22441076868E+01  0.36833235880E+01  0.28311596178E+01  0.51592980865E+01  0.00000000000E+00 0. -1.
</event>
<event>
 7    1  0.6046695E-013  0.5052887E+02  0.7816164E-02  0.1300439E+00
        -11   -1    0    0    0    0  0.00000000000E+00  0.00000000000E+00  0.45593999997E+02  0.45594000000E+02  0.51100000000E-03 0.  1.
         11   -1    0    0    0    0 -0.00000000000E+00 -0.00000000000E+00 -0.45593999997E+02  0.45594000000E+02  0.51100000000E-03 0. -1.
    9900012    2    1    2    0    0 -0.51973314662E+01  0.17145031620E+02  0.36499325258E+02  0.50528866857E+02  0.30000021300E+02 0.  0.
         12    1    1    2    0    0  0.51973314662E+01 -0.17145031620E+02 -0.36499325258E+02  0.40659133143E+02  0.00000000000E+00 0. -1.
         11    1    3    3    0    0  0.68938654306E+01 -0.30190275332E+01  0.18438697803E+02  0.19915458437E+02  0.51100000000E-03 0. -1.
        -11    1    3    3    0    0 -0.98519624483E+01  0.17316872212E+02  0.11200681300E+02  0.22855863343E+02  0.51100000000E-03 0.  1.
         12    1    3    3    0    0 -0.22392344485E+01  0.28471869415E+01  0.68599461541E+01  0.77575450777E+01  0.00000000000E+00 0. -1.
</event>
<event>
 7    1  0.6046695E-013  0.5052888E+02  0.7816164E-02  0.1300439E+00
        -11   -1    0    0    0    0  0.00000000000E+00  0.00000000000E+00  0.45593999997E+02  0.45594000000E+02  0.51100000000E-03 0. -1.
         11   -1    0    0    0    0 -0.00000000000E+00 -0.00000000000E+00 -0.45593999997E+02  0.45594000000E+02  0.51100000000E-03 0.  1.
    9900012    2    1    2    0    0 -0.13945575453E+02  0.23785389288E+02 -0.29882110953E+02  0.50528875891E+02  0.30000048758E+02 0.  0.
         12    1    1    2    0    0  0.13945575453E+02 -0.23785389288E+02  0.29882110953E+02  0.40659124109E+02  0.00000000000E+00 0. -1.
         11    1    3    3    0    0 -0.38903189595E+01  0.52268382059E+01  0.32856698627E+01  0.72972629078E+01  0.51100000000E-03 0. -1.
        -11    1    3    3    0    0 -0.11901345963E+02  0.19967864943E+02 -0.33611817386E+02  0.40867003002E+02  0.51100000000E-03 0.  1.
        -12    1    3    3    0    0  0.18460894695E+01 -0.14093138604E+01  0.44403657028E+00  0.23646099810E+01  0.00000000000E+00 0.  1.
</event>
<event>
 7    1  0.6046695E-013  0.5052873E+02  0.7816164E-02  0.1300439E+00
        -11   -1    0    0    0    0  0.00000000000E+00  0.00000000000E+00  0.45593999997E+02  0.45594000000E+02  0.51100000000E-03 0.  1.
         11   -1    0    0    0    0 -0.00000000000E+00 -0.00000000000E+00 -0.45593999997E+02  0.45594000000E+02  0.51100000000E-03 0. -1.
    9900012    2    1    2    0    0 -0.16005665388E+02  0.36818024832E+02  0.64364564401E+01  0.50528729857E+02  0.29999604872E+02 0.  0.
         12    1    1    2    0    0  0.16005665388E+02 -0.36818024832E+02 -0.64364564401E+01  0.40659270143E+02  0.00000000000E+00 0. -1.
         11    1    3    3    0    0 -0.11110075283E+02  0.16970429984E+02 -0.15797333845E+01  0.20345142527E+02  0.51100000000E-03 0. -1.
        -11    1    3    3    0    0 -0.65845176452E+01  0.73378660570E-01  0.79686201868E+01  0.10337319043E+02  0.51100000000E-03 0.  1.
        -12    1    3    3    0    0  0.16889275407E+01  0.19774216187E+02  0.47569637885E-01  0.19846268287E+02  0.00000000000E+00 0.  1.
</event>
<event>
 7    1  0.6046695E-013  0.5052886E+02  0.7816164E-02  0.1300439E+00
        -11   -1    0    0    0    0  0.00000000000E+00  0.00000000000E+00  0.45593999997E+02  0.45594000000E+02  0.51100000000E-03 0.  1.
         11   -1    0    0    0    0 -0.00000000000E+00 -0.00000000000E+00 -0.45593999997E+02  0.45594000000E+02  0.51100000000E-03 0. -1.
    9900012    2    1    2    0    0  0.32449954942E+02  0.30738169001E+01  0.24304687157E+02  0.50528859037E+02  0.29999997527E+02 0.  0.
         12    1    1    2    0    0 -0.32449954942E+02 -0.30738169001E+01 -0.24304687157E+02  0.40659140963E+02  0.00000000000E+00 0. -1.
         11    1    3    3    0    0  0.81229341085E+01 -0.30740163069E+01  0.19015693507E+02  0.20905220272E+02  0.51100000000E-03 0. -1.
        -11    1    3    3    0    0  0.24981432571E+02  0.22318176778E+01  0.37234450176E+01  0.25355808535E+02  0.51100000000E-03 0.  1.
         12    1    3    3    0    0 -0.65441173706E+00  0.39160155292E+01  0.15655486325E+01  0.42678302295E+01  0.00000000000E+00 0. -1.
</event>
<event>
 7    1  0.6046695E-013  0.5052886E+02  0.7816164E-02  0.1300439E+00
        -11   -1    0    0    0    0  0.00000000000E+00  0.00000000000E+00  0.45593999997E+02  0.45594000000E+02  0.51100000000E-03 0. -1.
         11   -1    0    0    0    0 -0.00000000000E+00 -0.00000000000E+00 -0.45593999997E+02  0.45594000000E+02  0.51100000000E-03 0.  1.
    9900012    2    1    2    0    0  0.25261114528E+02  0.31802639777E+02 -0.19063226435E+01  0.50528857486E+02  0.29999992814E+02 0.  0.
         12    1    1    2    0    0 -0.25261114528E+02 -0.31802639777E+02  0.19063226435E+01  0.40659142514E+02  0.00000000000E+00 0. -1.
         11    1    3    3    0    0  0.16475558316E-01  0.11141758957E+02  0.74283250547E+01  0.13391007336E+02  0.51100000000E-03 0. -1.
        -11    1    3    3    0    0  0.22818818696E+02  0.19826443261E+02 -0.12799220729E+02  0.32826915642E+02  0.51100000000E-03 0.  1.
        -12    1    3    3    0    0  0.24258202736E+01  0.83443755876E+00  0.34645730309E+01  0.43109345073E+01  0.00000000000E+00 0.  1.
</event>
<event>
 7    1  0.6046695E-013  0.5052895E+02  0.7816164E-02  0.1300438E+00
        -11   -1    0    0    0    0  0.00000000000E+00  0.00000000000E+00  0.45593999997E+02  0.45594000000E+02  0.51100000000E-03 0.  1.
         11   -1    0    0    0    0 -0.00000000000E+00 -0.00000000000E+00 -0.45593999997E+02  0.45594000000E+02  0.51100000000E-03 0. -1.
    9900012    2    1    2    0    0  0.29242940223E+02 -0.28205064034E+02 -0.15757291309E+01  0.50528952885E+02  0.30000282787E+02 0.  0.
         12    1    1    2    0    0 -0.29242940223E+02  0.28205064034E+02  0.15757291309E+01  0.40659047115E+02  0.00000000000E+00 0. -1.
         11    1    3    3    0    0  0.14367455357E+01  0.13556521068E+01  0.70616413647E+01  0.73327218271E+01  0.51100000000E-03 0. -1.
        -11    1    3    3    0    0  0.24587442909E+02 -0.23339088603E+02 -0.11252034811E+02  0.35719234220E+02  0.51100000000E-03 0.  1.
         12    1    3    3    0    0  0.32187517777E+01 -0.62216275381E+01  0.26146643153E+01  0.74769968377E+01  0.00000000000E+00 0. -1.
</event>
<event>
 7    1  0.6046695E-013  0.5052887E+02  0.7816164E-02  0.1300439E+00
        -11   -1    0    0    0    0  0.00000000000E+00  0.00000000000E+00  0.45593999997E+02  0.45594000000E+02  0.51100000000E-03 0. -1.
         11   -1    0    0    0    0 -0.00000000000E+00 -0.00000000000E+00 -0.45593999997E+02  0.45594000000E+02  0.51100000000E-03 0.  1.
    9900012    2    1    2    0    0  0.26993702719E+02  0.21196933735E+02 -0.21798966478E+02  0.50528869097E+02  0.30000028107E+02 0.  0.
         12    1    1    2    0    0 -0.26993702719E+02 -0.21196933735E+02  0.21798966478E+02  0.40659130903E+02  0.00000000000E+00 0. -1.
         11    1    3    3    0    0  0.89374715864E+01  0.85350421275E+01  0.48780222132E+01  0.13286099633E+02  0.51100000000E-03 0. -1.
        -11    1    3    3    0    0  0.49122110293E+01  0.28153993531E+01 -0.17578385211E+02  0.18467699305E+02  0.51100000000E-03 0.  1.
         12    1    3    3    0    0  0.13144020104E+02  0.98464922548E+01 -0.90986034795E+01  0.18775070159E+02  0.00000000000E+00 0. -1.
</event>
<event>
 7    1  0.6046695E-013  0.5052886E+02  0.7816164E-02  0.1300439E+00
        -11   -1    0    0    0    0  0.00000000000E+00  0.00000000000E+00  0.45593999997E+02  0.45594000000E+02  0.51100000000E-03 0. -1.
         11   -1    0    0    0    0 -0.00000000000E+00 -0.00000000000E+00 -0.45593999997E+02  0.45594000000E+02  0.51100000000E-03 0.  1.
    9900012    2    1    2    0    0 -0.28349290637E+02  0.22332774592E+02 -0.18727793723E+02  0.50528863778E+02  0.30000011941E+02 0.  0.
         12    1    1    2    0    0  0.28349290637E+02 -0.22332774592E+02  0.18727793723E+02  0.40659136222E+02  0.00000000000E+00 0. -1.
         11    1    3    3    0    0 -0.11258564699E+02 -0.71451099731E+00 -0.62721679754E+01  0.12907590651E+02  0.51100000000E-03 0. -1.
        -11    1    3    3    0    0 -0.98055551388E+01  0.24634343892E+02 -0.14035168241E+02  0.29999762639E+02  0.51100000000E-03 0.  1.
        -12    1    3    3    0    0 -0.72851707989E+01 -0.15870583033E+01  0.15795424938E+01  0.76215104879E+01  0.00000000000E+00 0.  1.
</event>
<event>
 7    1  0.6289663E-013  0.5052886E+02  0.7816164E-02  0.1300439E+00
        -11   -1    0    0    0    0  0.00000000000E+00  0.00000000000E+00  0.45593999997E+02  0.45594000000E+02  0.51100000000E-03 0. -1.
         11   -1    0    0    0    0 -0.00000000000E+00 -0.00000000000E+00 -0.45593999997E+02  0.45594000000E+02  0.51100000000E-03 0.  1.
    9900012    2    1    2    0    0 -0.32761633638E+02  0.10214318431E+02 -0.21806161966E+02  0.50528860322E+02  0.30000001435E+02 0.  0.
         12    1    1    2    0    0  0.32761633638E+02 -0.10214318431E+02  0.21806161966E+02  0.40659139678E+02  0.00000000000E+00 0. -1.
         11    1    3    3    0    0 -0.60918285901E+01  0.12871978678E+02 -0.12463951769E+02  0.18924806594E+02  0.51100000000E-03 0. -1.
        -11    1    3    3    0    0 -0.20206313422E+02 -0.23165037873E+01 -0.13030144638E+02  0.24154626088E+02  0.51100000000E-03 0.  1.
         12    1    3    3    0    0 -0.64634916266E+01 -0.34115645923E+00  0.36879344406E+01  0.74494276407E+01  0.00000000000E+00 0. -1.
</event>
<event>
 7    1  0.6046695E-013  0.5052885E+02  0.7816164E-02  0.1300439E+00
        -11   -1    0    0    0    0  0.00000000000E+00  0.00000000000E+00  0.45593999997E+02  0.45594000000E+02  0.51100000000E-03 0.  1.
         11   -1    0    0    0    0 -0.00000000000E+00 -0.00000000000E+00 -0.45593999997E+02  0.45594000000E+02  0.51100000000E-03 0. -1.
    9900012    2    1    2    0    0  0.70469529572E+01  0.10517363996E+02  0.38637958853E+02  0.50528851513E+02  0.29999974657E+02 0.  0.
         12    1    1    2    0    0 -0.70469529572E+01 -0.10517363996E+02 -0.38637958853E+02  0.40659148487E+02  0.00000000000E+00 0. -1.
         11    1    3    3    0    0  0.31934100255E+01  0.10518488651E+02  0.13370131284E-01  0.10992572497E+02  0.51100000000E-03 0. -1.
        -11    1    3    3    0    0  0.44187817102E+01  0.23899122394E+01  0.15790099532E+02  0.16569989614E+02  0.51100000000E-03 0.  1.
         12    1    3    3    0    0 -0.56523877848E+00 -0.23910368941E+01  0.22834489190E+02  0.22966289401E+02  0.00000000000E+00 0. -1.
</event>
<event>
 7    1  0.6046695E-013  0.5052886E+02  0.7816164E-02  0.1300439E+00
        -11   -1    0    0    0    0  0.00000000000E+00  0.00000000000E+00  0.45593999997E+02  0.45594000000E+02  0.51100000000E-03 0.  1.
         11   -1    0    0    0    0 -0.00000000000E+00 -0.00000000000E+00 -0.45593999997E+02  0.45594000000E+02  0.51100000000E-03 0. -1.
    9900012    2    1    2    0    0  0.38895807439E+02 -0.11843871692E+02  0.68808520495E-01  0.50528857515E+02  0.29999992903E+02 0.  0.
         12    1    1    2    0    0 -0.38895807439E+02  0.11843871692E+02 -0.68808520495E-01  0.40659142485E+02  0.00000000000E+00 0. -1.
         11    1    3    3    0    0  0.62799467090E+01 -0.65600300778E+00 -0.54660525567E+01  0.83513951785E+01  0.51100000000E-03 0. -1.
        -11    1    3    3    0    0  0.55431364612E+01 -0.76524370759E+01  0.10823018268E+02  0.14367459056E+02  0.51100000000E-03 0.  1.
        -12    1    3    3    0    0  0.27072724269E+02 -0.35354316082E+01 -0.52881571910E+01  0.27810003281E+02  0.00000000000E+00 0.  1.
</event>
<event>
 7    1  0.6046695E-013  0.5052886E+02  0.7816164E-02  0.1300439E+00
        -11   -1    0    0    0    0  0.00000000000E+00  0.00000000000E+00  0.45593999997E+02  0.45594000000E+02  0.51100000000E-03 0.  1.
         11   -1    0    0    0    0 -0.00000000000E+00 -0.00000000000E+00 -0.45593999997E+02  0.45594000000E+02  0.51100000000E-03 0. -1.
    9900012    2    1    2    0    0  0.23173981222E+02 -0.32241197678E+02  0.87542900116E+01  0.50528858015E+02  0.29999994422E+02 0.  0.
         12    1    1    2    0    0 -0.23173981222E+02  0.32241197678E+02 -0.87542900116E+01  0.40659141985E+02  0.00000000000E+00 0. -1.
         11    1    3    3    0    0 -0.18047006554E+01  0.16399351989E+01 -0.36529279369E+01  0.43920626914E+01  0.51100000000E-03 0. -1.
        -11    1    3    3    0    0  0.21123329328E+02 -0.25032262294E+02  0.33915346120E+01  0.32928888605E+02  0.51100000000E-03 0.  1.
        -12    1    3    3    0    0  0.38553525495E+01 -0.88488705823E+01  0.90156833365E+01  0.13207906719E+02  0.00000000000E+00 0.  1.
</event>
<event>
 7    1  0.6046695E-013  0.5052885E+02  0.7816164E-02  0.1300439E+00
        -11   -1    0    0    0    0  0.00000000000E+00  0.00000000000E+00  0.45593999997E+02  0.45594000000E+02  0.51100000000E-03 0.  1.
         11   -1    0    0    0    0 -0.00000000000E+00 -0.00000000000E+00 -0.45593999997E+02  0.45594000000E+02  0.51100000000E-03 0. -1.
    9900012    2    1    2    0    0  0.41474064741E+01 -0.36857998289E+02  0.16656931905E+02  0.50528850983E+02  0.29999973047E+02 0.  0.
         12    1    1    2    0    0 -0.41474064741E+01  0.36857998289E+02 -0.16656931905E+02  0.40659149017E+02  0.00000000000E+00 0. -1.
         11    1    3    3    0    0 -0.35419081877E+01  0.14360476809E+01  0.80034074090E+00  0.39048549415E+01  0.51100000000E-03 0. -1.
        -11    1    3    3    0    0  0.13788591470E-01 -0.22126676691E+02  0.18100485213E+02  0.28587017626E+02  0.51100000000E-03 0.  1.
        -12    1    3    3    0    0  0.76755260703E+01 -0.16167369279E+02 -0.22438940496E+01  0.18036978415E+02  0.00000000000E+00 0.  1.
</event>
<event>
 7    1  0.6046695E-013  0.5052887E+02  0.7816164E-02  0.1300439E+00
        -11   -1    0    0    0    0  0.00000000000E+00  0.00000000000E+00  0.45593999997E+02  0.45594000000E+02  0.51100000000E-03 0. -1.
         11   -1    0    0    0    0 -0.00000000000E+00 -0.00000000000E+00 -0.45593999997E+02  0.45594000000E+02  0.51100000000E-03 0.  1.
    9900012    2    1    2    0    0 -0.35997412185E+02  0.74215562478E+01 -0.17385972059E+02  0.50528865656E+02  0.30000017649E+02 0.  0.
         12    1    1    2    0    0  0.35997412185E+02 -0.74215562478E+01  0.17385972059E+02  0.40659134344E+02  0.00000000000E+00 0. -1.
         11    1    3    3    0    0 -0.53387490429E+00  0.72666626827E+01 -0.25582319037E+00  0.72907375981E+01  0.51100000000E-03 0. -1.
        -11    1    3    3    0    0 -0.18854213517E+02 -0.77139307598E+01 -0.42897850890E+01  0.20817981446E+02  0.51100000000E-03 0.  1.
        -12    1    3    3    0    0 -0.16609323763E+02  0.78688243249E+01 -0.12840363780E+02  0.22420146612E+02  0.00000000000E+00 0.  1.
</event>
<event>
 7    1  0.6046695E-013  0.5052886E+02  0.7816164E-02  0.1300439E+00
        -11   -1    0    0    0    0  0.00000000000E+00  0.00000000000E+00  0.45593999997E+02  0.45594000000E+02  0.51100000000E-03 0.  1.
         11   -1    0    0    0    0 -0.00000000000E+00 -0.00000000000E+00 -0.45593999997E+02  0.45594000000E+02  0.51100000000E-03 0. -1.
    9900012    2    1    2    0    0 -0.22928170415E+02  0.27497426401E+02  0.19270601063E+02  0.50528861758E+02  0.30000005799E+02 0.  0.
         12    1    1    2    0    0  0.22928170415E+02 -0.27497426401E+02 -0.19270601063E+02  0.40659138242E+02  0.00000000000E+00 0. -1.
         11    1    3    3    0    0 -0.43281503903E+01  0.14328584401E+02 -0.45135446203E+00  0.14974810111E+02  0.51100000000E-03 0. -1.
        -11    1    3    3    0    0 -0.11474545956E+02 -0.29766401659E+01  0.66505108669E+01  0.13592456975E+02  0.51100000000E-03 0.  1.
        -12    1    3    3    0    0 -0.71254740693E+01  0.16145482165E+02  0.13071444659E+02  0.21961594672E+02  0.00000000000E+00 0.  1.
</event>
<event>
 7    1  0.6046695E-013  0.5052884E+02  0.7816164E-02  0.1300439E+00
        -11   -1    0    0    0    0  0.00000000000E+00  0.00000000000E+00  0.45593999997E+02  0.45594000000E+02  0.51100000000E-03 0.  1.
         11   -1    0    0    0    0 -0.00000000000E+00 -0.00000000000E+00 -0.45593999997E+02  0.45594000000E+02  0.51100000000E-03 0. -1.
    9900012    2    1    2    0    0 -0.47106728269E+00 -0.35758958659E+02  0.19345338410E+02  0.50528841783E+02  0.29999945083E+02 0.  0.
         12    1    1    2    0    0  0.47106728269E+00  0.35758958659E+02 -0.19345338410E+02  0.40659158217E+02  0.00000000000E+00 0. -1.
         11    1    3    3    0    0  0.72536984108E+01 -0.48444515194E+00  0.42660992625E+01  0.84291417664E+01  0.51100000000E-03 0. -1.
        -11    1    3    3    0    0 -0.73981005305E+01 -0.22727533202E+02  0.17097783426E+02  0.29387188624E+02  0.51100000000E-03 0.  1.
        -12    1    3    3    0    0 -0.32666516294E+00 -0.12546980305E+02 -0.20185442780E+01  0.12712511392E+02  0.00000000000E+00 0.  1.
</event>
<event>
 7    1  0.6046695E-013  0.5052886E+02  0.7816164E-02  0.1300439E+00
        -11   -1    0    0    0    0  0.00000000000E+00  0.00000000000E+00  0.45593999997E+02  0.45594000000E+02  0.51100000000E-03 0.  1.
         11   -1    0    0    0    0 -0.00000000000E+00 -0.00000000000E+00 -0.45593999997E+02  0.45594000000E+02  0.51100000000E-03 0. -1.
    9900012    2    1    2    0    0 -0.22726126962E+02 -0.33620315616E+02  0.25225375671E+01  0.50528860012E+02  0.30000000491E+02 0.  0.
         12    1    1    2    0    0  0.22726126962E+02  0.33620315616E+02 -0.25225375671E+01  0.40659139988E+02  0.00000000000E+00 0. -1.
         11    1    3    3    0    0 -0.29130649158E+01 -0.10718100833E+02  0.23173600858E+01  0.11346091428E+02  0.51100000000E-03 0. -1.
        -11    1    3    3    0    0 -0.94497294134E+01  0.40688885319E+01  0.10143543380E+00  0.10289000402E+02  0.51100000000E-03 0.  1.
        -12    1    3    3    0    0 -0.10363332633E+02 -0.26971103315E+02  0.10374204752E+00  0.28893768181E+02  0.00000000000E+00 0.  1.
</event>
<event>
 7    1  0.6046695E-013  0.5052887E+02  0.7816164E-02  0.1300439E+00
        -11   -1    0    0    0    0  0.00000000000E+00  0.00000000000E+00  0.45593999997E+02  0.45594000000E+02  0.51100000000E-03 0. -1.
         11   -1    0    0    0    0 -0.00000000000E+00 -0.00000000000E+00 -0.45593999997E+02  0.45594000000E+02  0.51100000000E-03 0.  1.
    9900012    2    1    2    0    0  0.32941787071E+02 -0.23778787073E+02  0.16041215557E+01  0.50528865036E+02  0.30000015763E+02 0.  0.
         12    1    1    2    0    0 -0.32941787071E+02  0.23778787073E+02 -0.16041215557E+01  0.40659134964E+02  0.00000000000E+00 0. -1.
         11    1    3    3    0    0  0.26061589312E+01 -0.12019053402E+02  0.64398015782E+01  0.13882390057E+02  0.51100000000E-03 0. -1.
        -11    1    3    3    0    0  0.14638242241E+02  0.24853469351E+01 -0.42376860515E+01  0.15440630448E+02  0.51100000000E-03 0.  1.
        -12    1    3    3    0    0  0.15697385899E+02 -0.14245080605E+02 -0.59799397099E+00  0.21205844532E+02  0.00000000000E+00 0.  1.
</event>
<event>
 7    1  0.6046695E-013  0.5052886E+02  0.7816164E-02  0.1300439E+00
        -11   -1    0    0    0    0  0.00000000000E+00  0.00000000000E+00  0.45593999997E+02  0.45594000000E+02  0.51100000000E-03 0.  1.
         11   -1    0    0    0    0 -0.00000000000E+00 -0.00000000000E+00 -0.45593999997E+02  0.45594000000E+02  0.51100000000E-03 0. -1.
    9900012    2    1    2    0    0  0.20605290291E+02  0.32886414158E+02 -0.12127299344E+02  0.50528860640E+02  0.30000002400E+02 0.  0.
         12    1    1    2    0    0 -0.20605290291E+02 -0.32886414158E+02  0.12127299344E+02  0.40659139360E+02  0.00000000000E+00 0. -1.
         11    1    3    3    0    0  0.75346522298E+01  0.31740078257E+02 -0.11375827618E+02  0.34548704842E+02  0.51100000000E-03 0. -1.
        -11    1    3    3    0    0  0.12324591522E+02  0.34408702490E+01  0.12342966521E+01  0.12855295903E+02  0.51100000000E-03 0.  1.
         12    1    3    3    0    0  0.74604653911E+00 -0.22945343481E+01 -0.19857683780E+01  0.31248598951E+01  0.00000000000E+00 0. -1.
</event>
<event>
 7    1  0.6046695E-013  0.5052886E+02  0.7816164E-02  0.1300439E+00
        -11   -1    0    0    0    0  0.00000000000E+00  0.00000000000E+00  0.45593999997E+02  0.45594000000E+02  0.51100000000E-03 0. -1.
         11   -1    0    0    0    0 -0.00000000000E+00 -0.00000000000E+00 -0.45593999997E+02  0.45594000000E+02  0.51100000000E-03 0.  1.
    9900012    2    1    2    0    0  0.41366656071E+01  0.37664085731E+02 -0.14746866024E+02  0.50528863095E+02  0.30000009864E+02 0.  0.
         12    1    1    2    0    0 -0.41366656071E+01 -0.37664085731E+02  0.14746866024E+02  0.40659136905E+02  0.00000000000E+00 0. -1.
         11    1    3    3    0    0  0.47969717203E+01  0.40658635939E+02 -0.76468558649E+01  0.41648649666E+02  0.51100000000E-03 0. -1.
        -11    1    3    3    0    0 -0.19727474855E+01 -0.67126096457E+00 -0.52072201012E+01  0.56086955139E+01  0.51100000000E-03 0.  1.
         12    1    3    3    0    0  0.13124413723E+01 -0.23232892433E+01 -0.18927900584E+01  0.32715179151E+01  0.00000000000E+00 0. -1.
</event>
<event>
 7    1  0.6046695E-013  0.5052887E+02  0.7816164E-02  0.1300439E+00
        -11   -1    0    0    0    0  0.00000000000E+00  0.00000000000E+00  0.45593999997E+02  0.45594000000E+02  0.51100000000E-03 0. -1.
         11   -1    0    0    0    0 -0.00000000000E+00 -0.00000000000E+00 -0.45593999997E+02  0.45594000000E+02  0.51100000000E-03 0.  1.
    9900012    2    1    2    0    0 -0.23092578506E+02 -0.32662257105E+02 -0.72852350266E+01  0.50528869775E+02  0.30000030169E+02 0.  0.
         12    1    1    2    0    0  0.23092578506E+02  0.32662257105E+02  0.72852350266E+01  0.40659130225E+02  0.00000000000E+00 0. -1.
         11    1    3    3    0    0 -0.56321714505E+01 -0.44951860073E+01  0.55995549497E+01  0.91259557518E+01  0.51100000000E-03 0. -1.
        -11    1    3    3    0    0 -0.22278705846E+02 -0.20522894864E+02 -0.10478846744E+02  0.32052085379E+02  0.51100000000E-03 0.  1.
        -12    1    3    3    0    0  0.48182987899E+01 -0.76441762330E+01 -0.24059432321E+01  0.93508286449E+01  0.00000000000E+00 0.  1.
</event>
<event>
 7    1  0.6046695E-013  0.5052882E+02  0.7816164E-02  0.1300439E+00
        -11   -1    0    0    0    0  0.00000000000E+00  0.00000000000E+00  0.45593999997E+02  0.45594000000E+02  0.51100000000E-03 0. -1.
         11   -1    0    0    0    0 -0.00000000000E+00 -0.00000000000E+00 -0.45593999997E+02  0.45594000000E+02  0.51100000000E-03 0.  1.
    9900012    2    1    2    0    0  0.28072693710E+02  0.20793082304E+02 -0.20802411290E+02  0.50528822447E+02  0.29999886309E+02 0.  0.
         12    1    1    2    0    0 -0.28072693710E+02 -0.20793082304E+02  0.20802411290E+02  0.40659177553E+02  0.00000000000E+00 0. -1.
         11    1    3    3    0    0 -0.12191818478E+01 -0.44820550017E+01 -0.78167744581E+01  0.90926995225E+01  0.51100000000E-03 0. -1.
        -11    1    3    3    0    0  0.25542632229E+02  0.22701233975E+02 -0.13730201709E+02  0.36827849848E+02  0.51100000000E-03 0.  1.
        -12    1    3    3    0    0  0.37492433286E+01  0.25739033304E+01  0.74456487716E+00  0.46082730765E+01  0.00000000000E+00 0.  1.
</event>
<event>
 7    1  0.6046695E-013  0.5052886E+02  0.7816164E-02  0.1300439E+00
        -11   -1    0    0    0    0  0.00000000000E+00  0.00000000000E+00  0.45593999997E+02  0.45594000000E+02  0.51100000000E-03 0.  1.
         11   -1    0    0    0    0 -0.00000000000E+00 -0.00000000000E+00 -0.45593999997E+02  0.45594000000E+02  0.51100000000E-03 0. -1.
    9900012    2    1    2    0    0 -0.13893025797E+02  0.33665103992E+02  0.18077887044E+02  0.50528863357E+02  0.30000010661E+02 0.  0.
         12    1    1    2    0    0  0.13893025797E+02 -0.33665103992E+02 -0.18077887044E+02  0.40659136643E+02  0.00000000000E+00 0. -1.
         11    1    3    3    0    0  0.59651321598E+01  0.90837030321E+01 -0.32752987051E+01  0.11350068032E+02  0.51100000000E-03 0. -1.
        -11    1    3    3    0    0 -0.28157750608E+01  0.54016996777E+01  0.49307516913E+00  0.61114705255E+01  0.51100000000E-03 0.  1.
         12    1    3    3    0    0 -0.17042382896E+02  0.19179701282E+02  0.20860110580E+02  0.33067324800E+02  0.00000000000E+00 0. -1.
</event>
<event>
 7    1  0.6046695E-013  0.5052886E+02  0.7816164E-02  0.1300439E+00
        -11   -1    0    0    0    0  0.00000000000E+00  0.00000000000E+00  0.45593999997E+02  0.45594000000E+02  0.51100000000E-03 0. -1.
         11   -1    0    0    0    0 -0.00000000000E+00 -0.00000000000E+00 -0.45593999997E+02  0.45594000000E+02  0.51100000000E-03 0.  1.
    9900012    2    1    2    0    0 -0.26949047273E+02 -0.26822186968E+02 -0.14404339890E+02  0.50528857482E+02  0.29999992802E+02 0.  0.
         12    1    1    2    0    0  0.26949047273E+02  0.26822186968E+02  0.14404339890E+02  0.40659142518E+02  0.00000000000E+00 0. -1.
         11    1    3    3    0    0 -0.99060070827E+01 -0.20031624281E+02 -0.18219287759E+02  0.28832922058E+02  0.51100000000E-03 0. -1.
        -11    1    3    3    0    0 -0.43668107797E+01  0.10958746259E+01  0.49895601799E+01  0.67205422870E+01  0.51100000000E-03 0.  1.
        -12    1    3    3    0    0 -0.12676229410E+02 -0.78864373124E+01 -0.11746123108E+01  0.14975393137E+02  0.00000000000E+00 0.  1.
</event>
<event>
 7    1  0.6046695E-013  0.5052888E+02  0.7816164E-02  0.1300439E+00
        -11   -1    0    0    0    0  0.00000000000E+00  0.00000000000E+00  0.45593999997E+02  0.45594000000E+02  0.51100000000E-03 0.  1.
         11   -1    0    0    0    0 -0.00000000000E+00 -0.00000000000E+00 -0.45593999997E+02  0.45594000000E+02  0.51100000000E-03 0. -1.
    9900012    2    1    2    0    0 -0.10917605374E+02  0.38998152755E+02  0.36213327829E+01  0.50528879541E+02  0.30000059852E+02 0.  0.
         12    1    1    2    0    0  0.10917605374E+02 -0.38998152755E+02 -0.36213327829E+01  0.40659120459E+02  0.00000000000E+00 0. -1.
         11    1    3    3    0    0  0.31847201170E+01  0.13601454964E+02  0.12037480556E+02  0.18440253733E+02  0.51100000000E-03 0. -1.
        -11    1    3    3    0    0 -0.14519276067E+02  0.22058434647E+02 -0.10165210301E+02  0.28296915332E+02  0.51100000000E-03 0.  1.
        -12    1    3    3    0    0  0.41695057627E+00  0.33382631441E+01  0.17490625282E+01  0.37917104755E+01  0.00000000000E+00 0.  1.
</event>
<event>
 7    1  0.6046695E-013  0.5052887E+02  0.7816164E-02  0.1300439E+00
        -11   -1    0    0    0    0  0.00000000000E+00  0.00000000000E+00  0.45593999997E+02  0.45594000000E+02  0.51100000000E-03 0.  1.
         11   -1    0    0    0    0 -0.00000000000E+00 -0.00000000000E+00 -0.45593999997E+02  0.45594000000E+02  0.51100000000E-03 0. -1.
    9900012    2    1    2    0    0 -0.20584160121E+02  0.27634158452E+02  0.21582651498E+02  0.50528865639E+02  0.30000017598E+02 0.  0.
         12    1    1    2    0    0  0.20584160121E+02 -0.27634158452E+02 -0.21582651498E+02  0.40659134361E+02  0.00000000000E+00 0. -1.
         11    1    3    3    0    0 -0.18911543560E+02  0.18254220366E+02  0.54184879343E+01  0.26836971751E+02  0.51100000000E-03 0. -1.
        -11    1    3    3    0    0 -0.38693719127E+01  0.33708694859E+01  0.16505418989E+02  0.17284781062E+02  0.51100000000E-03 0.  1.
        -12    1    3    3    0    0  0.21967553514E+01  0.60090686002E+01 -0.34125542506E+00  0.64071128272E+01  0.00000000000E+00 0.  1.
</event>
<event>
 7    1  0.6046695E-013  0.5052885E+02  0.7816164E-02  0.1300439E+00
        -11   -1    0    0    0    0  0.00000000000E+00  0.00000000000E+00  0.45593999997E+02  0.45594000000E+02  0.51100000000E-03 0. -1.
         11   -1    0    0    0    0 -0.00000000000E+00 -0.00000000000E+00 -0.45593999997E+02  0.45594000000E+02  0.51100000000E-03 0.  1.
    9900012    2    1    2    0    0 -0.26684229993E+02 -0.25760680087E+02  0.16658511347E+02  0.50528846429E+02  0.29999959205E+02 0.  0.
         12    1    1    2    0    0  0.26684229993E+02  0.25760680087E+02 -0.16658511347E+02  0.40659153571E+02  0.00000000000E+00 0. -1.
         11    1    3    3    0    0  0.38002581231E+01 -0.25252265221E+01 -0.47275234213E+01  0.65702518026E+01  0.51100000000E-03 0. -1.
        -11    1    3    3    0    0 -0.12745580810E+02 -0.95036973322E+01  0.75321715565E+01  0.17592717294E+02  0.51100000000E-03 0.  1.
         12    1    3    3    0    0 -0.17738907305E+02 -0.13731756233E+02  0.13853863211E+02  0.26365877332E+02  0.00000000000E+00 0. -1.
</event>
<event>
 7    1  0.6046695E-013  0.5052886E+02  0.7816164E-02  0.1300439E+00
        -11   -1    0    0    0    0  0.00000000000E+00  0.00000000000E+00  0.45593999997E+02  0.45594000000E+02  0.51100000000E-03 0. -1.
         11   -1    0    0    0    0 -0.00000000000E+00 -0.00000000000E+00 -0.45593999997E+02  0.45594000000E+02  0.51100000000E-03 0.  1.
    9900012    2    1    2    0    0 -0.25508580010E+02  0.77793454198E+01 -0.30691367175E+02  0.50528857260E+02  0.29999992128E+02 0.  0.
         12    1    1    2    0    0  0.25508580010E+02 -0.77793454198E+01  0.30691367175E+02  0.40659142740E+02  0.00000000000E+00 0. -1.
         11    1    3    3    0    0 -0.91354446306E+01  0.19146352450E+01  0.45922832636E+00  0.93452162970E+01  0.51100000000E-03 0. -1.
        -11    1    3    3    0    0 -0.10060561113E+02 -0.33383475014E+01 -0.27450952546E+02  0.29426420949E+02  0.51100000000E-03 0.  1.
        -12    1    3    3    0    0 -0.63125742668E+01  0.92030576763E+01 -0.36996429554E+01  0.11757220014E+02  0.00000000000E+00 0.  1.
</event>
<event>
 7    1  0.6046695E-013  0.5052886E+02  0.7816164E-02  0.1300439E+00
        -11   -1    0    0    0    0  0.00000000000E+00  0.00000000000E+00  0.45593999997E+02  0.45594000000E+02  0.51100000000E-03 0.  1.
         11   -1    0    0    0    0 -0.00000000000E+00 -0.00000000000E+00 -0.45593999997E+02  0.45594000000E+02  0.51100000000E-03 0. -1.
    9900012    2    1    2    0    0  0.20576724010E+01  0.13717245624E+02  0.38220002659E+02  0.50528862694E+02  0.30000008644E+02 0.  0.
         12    1    1    2    0    0 -0.20576724010E+01 -0.13717245624E+02 -0.38220002659E+02  0.40659137306E+02  0.00000000000E+00 0. -1.
         11    1    3    3    0    0 -0.36107647157E+01  0.12409600456E+02  0.60489849251E+01  0.14269759079E+02  0.51100000000E-03 0.  1.
        -11    1    3    3    0    0  0.14653581302E+01 -0.47033845991E+01  0.26589933464E+02  0.27042441883E+02  0.51100000000E-03 0. -1.
         12    1    3    3    0    0  0.42030789866E+01  0.60110297673E+01  0.55810842705E+01  0.92166617311E+01  0.00000000000E+00 0. -1.
</event>
<event>
 7    1  0.6046695E-013  0.5052888E+02  0.7816164E-02  0.1300439E+00
        -11   -1    0    0    0    0  0.00000000000E+00  0.00000000000E+00  0.45593999997E+02  0.45594000000E+02  0.51100000000E-03 0.  1.
         11   -1    0    0    0    0 -0.00000000000E+00 -0.00000000000E+00 -0.45593999997E+02  0.45594000000E+02  0.51100000000E-03 0. -1.
    9900012    2    1    2    0    0  0.39537303164E+01 -0.36687959525E+02  0.17074122955E+02  0.50528880086E+02  0.30000061509E+02 0.  0.
         12    1    1    2    0    0 -0.39537303164E+01  0.36687959525E+02 -0.17074122955E+02  0.40659119914E+02  0.00000000000E+00 0. -1.
         11    1    3    3    0    0 -0.49129371632E+01 -0.59020042192E+00  0.10657342685E+02  0.11750074105E+02  0.51100000000E-03 0. -1.
        -11    1    3    3    0    0  0.22919882355E+01 -0.22784657622E+02  0.83068033836E+00  0.22914708444E+02  0.51100000000E-03 0.  1.
        -12    1    3    3    0    0  0.65746792441E+01 -0.13313101481E+02  0.55860999320E+01  0.15864097537E+02  0.00000000000E+00 0.  1.
</event>
<event>
 7    1  0.6046695E-013  0.5052886E+02  0.7816164E-02  0.1300439E+00
        -11   -1    0    0    0    0  0.00000000000E+00  0.00000000000E+00  0.45593999997E+02  0.45594000000E+02  0.51100000000E-03 0.  1.
         11   -1    0    0    0    0 -0.00000000000E+00 -0.00000000000E+00 -0.45593999997E+02  0.45594000000E+02  0.51100000000E-03 0. -1.
    9900012    2    1    2    0    0  0.30314940200E+02  0.69412830555E+01  0.26191383980E+02  0.50528860749E+02  0.30000002734E+02 0.  0.
         12    1    1    2    0    0 -0.30314940200E+02 -0.69412830555E+01 -0.26191383980E+02  0.40659139251E+02  0.00000000000E+00 0. -1.
         11    1    3    3    0    0  0.23210493011E+02  0.66954742399E+01  0.24060933692E+01  0.24276442216E+02  0.51100000000E-03 0. -1.
        -11    1    3    3    0    0 -0.74905641618E+00 -0.25304614488E+01  0.76759240704E+01  0.81169040437E+01  0.51100000000E-03 0.  1.
         12    1    3    3    0    0  0.78535036058E+01  0.27762702644E+01  0.16109366541E+02  0.18135514490E+02  0.00000000000E+00 0. -1.
</event>
<event>
 7    1  0.6046695E-013  0.5052886E+02  0.7816164E-02  0.1300439E+00
        -11   -1    0    0    0    0  0.00000000000E+00  0.00000000000E+00  0.45593999997E+02  0.45594000000E+02  0.51100000000E-03 0.  1.
         11   -1    0    0    0    0 -0.00000000000E+00 -0.00000000000E+00 -0.45593999997E+02  0.45594000000E+02  0.51100000000E-03 0. -1.
    9900012    2    1    2    0    0 -0.22618341016E+02 -0.12469506202E+02  0.31402038164E+02  0.50528856673E+02  0.29999990343E+02 0.  0.
         12    1    1    2    0    0  0.22618341016E+02  0.12469506202E+02 -0.31402038164E+02  0.40659143327E+02  0.00000000000E+00 0. -1.
         11    1    3    3    0    0  0.18506004488E+01  0.12348222863E+01 -0.38460528021E-01  0.22250814756E+01  0.51100000000E-03 0. -1.
        -11    1    3    3    0    0 -0.21683014172E+02 -0.19435727420E+02  0.29923579485E+02  0.41753098249E+02  0.51100000000E-03 0.  1.
        -12    1    3    3    0    0 -0.27859272923E+01  0.57313989324E+01  0.15169192077E+01  0.65506769484E+01  0.00000000000E+00 0.  1.
</event>
<event>
 7    1  0.6046695E-013  0.5052886E+02  0.7816164E-02  0.1300439E+00
        -11   -1    0    0    0    0  0.00000000000E+00  0.00000000000E+00  0.45593999997E+02  0.45594000000E+02  0.51100000000E-03 0. -1.
         11   -1    0    0    0    0 -0.00000000000E+00 -0.00000000000E+00 -0.45593999997E+02  0.45594000000E+02  0.51100000000E-03 0.  1.
    9900012    2    1    2    0    0  0.71633703635E+01  0.38609415445E+02  0.10543473177E+02  0.50528860036E+02  0.30000000566E+02 0.  0.
         12    1    1    2    0    0 -0.71633703635E+01 -0.38609415445E+02 -0.10543473177E+02  0.40659139964E+02  0.00000000000E+00 0. -1.
         11    1    3    3    0    0  0.92740802944E+00 -0.12817594350E+01  0.45079878535E+01  0.47775461956E+01  0.51100000000E-03 0. -1.
        -11    1    3    3    0    0  0.99542891554E+01  0.40058571363E+02  0.39013384115E+01  0.41460794178E+02  0.51100000000E-03 0.  1.
        -12    1    3    3    0    0 -0.37183268213E+01 -0.16739648309E+00  0.21341469116E+01  0.42905196623E+01  0.00000000000E+00 0.  1.
</event>
<event>
 7    1  0.6046695E-013  0.5052887E+02  0.7816164E-02  0.1300439E+00
        -11   -1    0    0    0    0  0.00000000000E+00  0.00000000000E+00  0.45593999997E+02  0.45594000000E+02  0.51100000000E-03 0.  1.
         11   -1    0    0    0    0 -0.00000000000E+00 -0.00000000000E+00 -0.45593999997E+02  0.45594000000E+02  0.51100000000E-03 0. -1.
    9900012    2    1    2    0    0  0.15081214219E+02  0.20634480747E+02  0.31621829030E+02  0.50528869546E+02  0.30000029473E+02 0.  0.
         12    1    1    2    0    0 -0.15081214219E+02 -0.20634480747E+02 -0.31621829030E+02  0.40659130454E+02  0.00000000000E+00 0. -1.
         11    1    3    3    0    0  0.11499093318E+02  0.13142254474E+02 -0.16206572828E+00  0.17463512400E+02  0.51100000000E-03 0. -1.
        -11    1    3    3    0    0 -0.38485934191E+00  0.33751671041E+01  0.12158488888E+02  0.12624132524E+02  0.51100000000E-03 0.  1.
         12    1    3    3    0    0  0.39669802431E+01  0.41170591688E+01  0.19625405871E+02  0.20441224622E+02  0.00000000000E+00 0. -1.
</event>
<event>
 7    1  0.6046695E-013  0.5052886E+02  0.7816164E-02  0.1300439E+00
        -11   -1    0    0    0    0  0.00000000000E+00  0.00000000000E+00  0.45593999997E+02  0.45594000000E+02  0.51100000000E-03 0. -1.
         11   -1    0    0    0    0 -0.00000000000E+00 -0.00000000000E+00 -0.45593999997E+02  0.45594000000E+02  0.51100000000E-03 0.  1.
    9900012    2    1    2    0    0  0.79599755139E+01 -0.39832972928E+02  0.17715979245E+01  0.50528862015E+02  0.30000006580E+02 0.  0.
         12    1    1    2    0    0 -0.79599755139E+01  0.39832972928E+02 -0.17715979245E+01  0.40659137985E+02  0.00000000000E+00 0. -1.
         11    1    3    3    0    0  0.14073615481E+00 -0.21941667116E+02  0.14874151468E+02  0.26508431577E+02  0.51100000000E-03 0. -1.
        -11    1    3    3    0    0  0.58991257182E+00 -0.71144677445E+01 -0.51147376233E+01  0.87820378812E+01  0.51100000000E-03 0.  1.
         12    1    3    3    0    0  0.72293267873E+01 -0.10776838067E+02 -0.79878159205E+01  0.15238392557E+02  0.00000000000E+00 0. -1.
</event>
<event>
 7    1  0.6046695E-013  0.5052890E+02  0.7816164E-02  0.1300439E+00
        -11   -1    0    0    0    0  0.00000000000E+00  0.00000000000E+00  0.45593999997E+02  0.45594000000E+02  0.51100000000E-03 0.  1.
         11   -1    0    0    0    0 -0.00000000000E+00 -0.00000000000E+00 -0.45593999997E+02  0.45594000000E+02  0.51100000000E-03 0. -1.
    9900012    2    1    2    0    0  0.14413170751E+02  0.19745541602E+02  0.32489016953E+02  0.50528903517E+02  0.30000132729E+02 0.  0.
         12    1    1    2    0    0 -0.14413170751E+02 -0.19745541602E+02 -0.32489016953E+02  0.40659096483E+02  0.00000000000E+00 0. -1.
         11    1    3    3    0    0  0.79758407980E+01  0.75380395442E+01  0.39629500282E-01  0.10974408748E+02  0.51100000000E-03 0. -1.
        -11    1    3    3    0    0 -0.34720986486E+01  0.10784246328E+02  0.23659416453E+02  0.26232106760E+02  0.51100000000E-03 0.  1.
        -12    1    3    3    0    0  0.99094286017E+01  0.14232557302E+01  0.87899709993E+01  0.13322388009E+02  0.00000000000E+00 0.  1.
</event>
<event>
 7    1  0.6046695E-013  0.5052886E+02  0.7816164E-02  0.1300439E+00
        -11   -1    0    0    0    0  0.00000000000E+00  0.00000000000E+00  0.45593999997E+02  0.45594000000E+02  0.51100000000E-03 0. -1.
         11   -1    0    0    0    0 -0.00000000000E+00 -0.00000000000E+00 -0.45593999997E+02  0.45594000000E+02  0.51100000000E-03 0.  1.
    9900012    2    1    2    0    0 -0.19016241250E+02  0.62969598846E+01 -0.35382147506E+02  0.50528862070E+02  0.30000006747E+02 0.  0.
         12    1    1    2    0    0  0.19016241250E+02 -0.62969598846E+01  0.35382147506E+02  0.40659137930E+02  0.00000000000E+00 0. -1.
         11    1    3    3    0    0  0.28330843179E+01 -0.41647690377E+01 -0.43428285404E+00  0.50557165415E+01  0.51100000000E-03 0. -1.
        -11    1    3    3    0    0 -0.14985390166E+02  0.12179682538E+02 -0.32828378039E+02  0.38086861121E+02  0.51100000000E-03 0.  1.
         12    1    3    3    0    0 -0.68639354025E+01 -0.17179536160E+01 -0.21194866134E+01  0.73862844070E+01  0.00000000000E+00 0. -1.
</event>
<event>
 7    1  0.6046695E-013  0.5052886E+02  0.7816164E-02  0.1300439E+00
        -11   -1    0    0    0    0  0.00000000000E+00  0.00000000000E+00  0.45593999997E+02  0.45594000000E+02  0.51100000000E-03 0.  1.
         11   -1    0    0    0    0 -0.00000000000E+00 -0.00000000000E+00 -0.45593999997E+02  0.45594000000E+02  0.51100000000E-03 0. -1.
    9900012    2    1    2    0    0 -0.14517173775E+02  0.52713279562E+01  0.37611574901E+02  0.50528858354E+02  0.29999995453E+02 0.  0.
         12    1    1    2    0    0  0.14517173775E+02 -0.52713279562E+01 -0.37611574901E+02  0.40659141646E+02  0.00000000000E+00 0. -1.
         11    1    3    3    0    0 -0.74837529733E+01  0.14124699811E+02  0.67528292910E+01  0.17352648415E+02  0.51100000000E-03 0. -1.
        -11    1    3    3    0    0 -0.19393276828E+01 -0.31503336282E+01  0.50604690696E+01  0.62684879592E+01  0.51100000000E-03 0.  1.
         12    1    3    3    0    0 -0.50940931192E+01 -0.57030382263E+01  0.25798276540E+02  0.26907721980E+02  0.00000000000E+00 0. -1.
</event>
<event>
 7    1  0.6046695E-013  0.5052886E+02  0.7816164E-02  0.1300439E+00
        -11   -1    0    0    0    0  0.00000000000E+00  0.00000000000E+00  0.45593999997E+02  0.45594000000E+02  0.51100000000E-03 0.  1.
         11   -1    0    0    0    0 -0.00000000000E+00 -0.00000000000E+00 -0.45593999997E+02  0.45594000000E+02  0.51100000000E-03 0. -1.
    9900012    2    1    2    0    0  0.23871267511E+02  0.58741597028E+00  0.32908712898E+02  0.50528857673E+02  0.29999993384E+02 0.  0.
         12    1    1    2    0    0 -0.23871267511E+02 -0.58741597028E+00 -0.32908712898E+02  0.40659142327E+02  0.00000000000E+00 0. -1.
         11    1    3    3    0    0 -0.46834111912E+01  0.23200892968E+01  0.75465258620E+01  0.91797171840E+01  0.51100000000E-03 0. -1.
        -11    1    3    3    0    0  0.12604279987E+02 -0.39933446683E+01  0.20728312056E+02  0.24586126100E+02  0.51100000000E-03 0.  1.
         12    1    3    3    0    0  0.15950398716E+02  0.22606713418E+01  0.46338749802E+01  0.16763014390E+02  0.00000000000E+00 0. -1.
</event>
<event>
 7    1  0.6046695E-013  0.5052886E+02  0.7816164E-02  0.1300439E+00
        -11   -1    0    0    0    0  0.00000000000E+00  0.00000000000E+00  0.45593999997E+02  0.45594000000E+02  0.51100000000E-03 0. -1.
         11   -1    0    0    0    0 -0.00000000000E+00 -0.00000000000E+00 -0.45593999997E+02  0.45594000000E+02  0.51100000000E-03 0.  1.
    9900012    2    1    2    0    0  0.30662242791E+02 -0.26683975070E+02  0.97876931587E+00  0.50528860217E+02  0.30000001116E+02 0.  0.
         12    1    1    2    0    0 -0.30662242791E+02  0.26683975070E+02 -0.97876931587E+00  0.40659139783E+02  0.00000000000E+00 0. -1.
         11    1    3    3    0    0  0.63667362685E+01 -0.57027725608E+01  0.98135064373E+01  0.13013910037E+02  0.51100000000E-03 0. -1.
        -11    1    3    3    0    0  0.10138555535E+02 -0.19561974192E+02 -0.34474279652E+01  0.22301253383E+02  0.51100000000E-03 0.  1.
        -12    1    3    3    0    0  0.14156950988E+02 -0.14192283167E+01 -0.53873091562E+01  0.15213696797E+02  0.00000000000E+00 0.  1.
</event>
<event>
 7    1  0.6046695E-013  0.5052886E+02  0.7816164E-02  0.1300439E+00
        -11   -1    0    0    0    0  0.00000000000E+00  0.00000000000E+00  0.45593999997E+02  0.45594000000E+02  0.51100000000E-03 0. -1.
         11   -1    0    0    0    0 -0.00000000000E+00 -0.00000000000E+00 -0.45593999997E+02  0.45594000000E+02  0.51100000000E-03 0.  1.
    9900012    2    1    2    0    0  0.39047259543E+02  0.16882728838E+01  0.11208356871E+02  0.50528855802E+02  0.29999987696E+02 0.  0.
         12    1    1    2    0    0 -0.39047259543E+02 -0.16882728838E+01 -0.11208356871E+02  0.40659144198E+02  0.00000000000E+00 0. -1.
         11    1    3    3    0    0  0.27596635141E+02 -0.78519599973E+01  0.92880251469E+00  0.28706971649E+02  0.51100000000E-03 0. -1.
        -11    1    3    3    0    0  0.62023482135E+01  0.90209571901E+01  0.80327224848E+00  0.10976886560E+02  0.51100000000E-03 0.  1.
         12    1    3    3    0    0  0.52482761887E+01  0.51927569102E+00  0.94762821082E+01  0.10844997593E+02  0.00000000000E+00 0. -1.
</event>
<event>
 7    1  0.6046695E-013  0.5052885E+02  0.7816164E-02  0.1300439E+00
        -11   -1    0    0    0    0  0.00000000000E+00  0.00000000000E+00  0.45593999997E+02  0.45594000000E+02  0.51100000000E-03 0. -1.
         11   -1    0    0    0    0 -0.00000000000E+00 -0.00000000000E+00 -0.45593999997E+02  0.45594000000E+02  0.51100000000E-03 0.  1.
    9900012    2    1    2    0    0 -0.36915746831E+02 -0.16432442884E+02 -0.45131616945E+01  0.50528853776E+02  0.29999981537E+02 0.  0.
         12    1    1    2    0    0  0.36915746831E+02  0.16432442884E+02  0.45131616945E+01  0.40659146224E+02  0.00000000000E+00 0. -1.
         11    1    3    3    0    0  0.16542059708E+01  0.43322956998E+01 -0.16617872261E+01  0.49261263149E+01  0.51100000000E-03 0. -1.
        -11    1    3    3    0    0 -0.24851858774E+02 -0.17881400633E+02 -0.60887944793E+01  0.31215906067E+02  0.51100000000E-03 0.  1.
         12    1    3    3    0    0 -0.13718094028E+02 -0.28833379509E+01  0.32374200110E+01  0.14386821394E+02  0.00000000000E+00 0. -1.
</event>
<event>
 7    1  0.6046695E-013  0.5052886E+02  0.7816164E-02  0.1300439E+00
        -11   -1    0    0    0    0  0.00000000000E+00  0.00000000000E+00  0.45593999997E+02  0.45594000000E+02  0.51100000000E-03 0.  1.
         11   -1    0    0    0    0 -0.00000000000E+00 -0.00000000000E+00 -0.45593999997E+02  0.45594000000E+02  0.51100000000E-03 0. -1.
    9900012    2    1    2    0    0 -0.33641891004E+02 -0.98462029354E+01  0.20601971520E+02  0.50528858678E+02  0.29999996437E+02 0.  0.
         12    1    1    2    0    0  0.33641891004E+02  0.98462029354E+01 -0.20601971520E+02  0.40659141322E+02  0.00000000000E+00 0. -1.
         11    1    3    3    0    0 -0.15305086694E+00 -0.80017970023E+01  0.35162521641E+01  0.87416365388E+01  0.51100000000E-03 0. -1.
        -11    1    3    3    0    0 -0.30591726589E+02  0.15357794197E+01  0.79818546093E+01  0.31653157147E+02  0.51100000000E-03 0.  1.
        -12    1    3    3    0    0 -0.28971135476E+01 -0.33801853528E+01  0.91038647468E+01  0.10134064992E+02  0.00000000000E+00 0.  1.
</event>
<event>
 7    1  0.6046695E-013  0.5052886E+02  0.7816164E-02  0.1300439E+00
        -11   -1    0    0    0    0  0.00000000000E+00  0.00000000000E+00  0.45593999997E+02  0.45594000000E+02  0.51100000000E-03 0. -1.
         11   -1    0    0    0    0 -0.00000000000E+00 -0.00000000000E+00 -0.45593999997E+02  0.45594000000E+02  0.51100000000E-03 0.  1.
    9900012    2    1    2    0    0 -0.18075310916E+02 -0.34463531614E+02 -0.11777694678E+02  0.50528856281E+02  0.29999989153E+02 0.  0.
         12    1    1    2    0    0  0.18075310916E+02  0.34463531614E+02  0.11777694678E+02  0.40659143719E+02  0.00000000000E+00 0. -1.
         11    1    3    3    0    0 -0.73289477552E+01  0.93401071815E+00 -0.36892734345E+01  0.82581226653E+01  0.51100000000E-03 0. -1.
        -11    1    3    3    0    0 -0.95707088603E+01 -0.31415174135E+02 -0.13450912243E+02  0.35488571040E+02  0.51100000000E-03 0.  1.
        -12    1    3    3    0    0 -0.11756543007E+01 -0.39823681966E+01  0.53624909996E+01  0.67821625762E+01  0.00000000000E+00 0.  1.
</event>
<event>
 7    1  0.6046695E-013  0.5052885E+02  0.7816164E-02  0.1300439E+00
        -11   -1    0    0    0    0  0.00000000000E+00  0.00000000000E+00  0.45593999997E+02  0.45594000000E+02  0.51100000000E-03 0. -1.
         11   -1    0    0    0    0 -0.00000000000E+00 -0.00000000000E+00 -0.45593999997E+02  0.45594000000E+02  0.51100000000E-03 0.  1.
    9900012    2    1    2    0    0 -0.24505757996E+02  0.17782910446E+02 -0.27136734826E+02  0.50528850281E+02  0.29999970913E+02 0.  0.
         12    1    1    2    0    0  0.24505757996E+02 -0.17782910446E+02  0.27136734826E+02  0.40659149719E+02  0.00000000000E+00 0. -1.
         11    1    3    3    0    0  0.18022712469E+01  0.88774717495E+01 -0.14106279056E+02  0.16764390695E+02  0.51100000000E-03 0. -1.
        -11    1    3    3    0    0 -0.11541989228E+02 -0.32764985550E+01 -0.53988621114E+01  0.13156772799E+02  0.51100000000E-03 0.  1.
         12    1    3    3    0    0 -0.14766040014E+02  0.12181937252E+02 -0.76315936584E+01  0.20607686786E+02  0.00000000000E+00 0. -1.
</event>
<event>
 7    1  0.6046695E-013  0.5052886E+02  0.7816164E-02  0.1300439E+00
        -11   -1    0    0    0    0  0.00000000000E+00  0.00000000000E+00  0.45593999997E+02  0.45594000000E+02  0.51100000000E-03 0.  1.
         11   -1    0    0    0    0 -0.00000000000E+00 -0.00000000000E+00 -0.45593999997E+02  0.45594000000E+02  0.51100000000E-03 0. -1.
    9900012    2    1    2    0    0  0.21813922985E+02  0.31992782194E+02  0.12400808417E+02  0.50528863291E+02  0.30000010460E+02 0.  0.
         12    1    1    2    0    0 -0.21813922985E+02 -0.31992782194E+02 -0.12400808417E+02  0.40659136709E+02  0.00000000000E+00 0. -1.
         11    1    3    3    0    0  0.29898664966E+00  0.15198721938E+02 -0.58739231836E+01  0.16297040081E+02  0.51100000000E-03 0. -1.
        -11    1    3    3    0    0  0.99037758052E+01  0.13138690551E+02  0.79656530488E+01  0.18280087345E+02  0.51100000000E-03 0.  1.
         12    1    3    3    0    0  0.11611160530E+02  0.36553697051E+01  0.10309078552E+02  0.15951735865E+02  0.00000000000E+00 0. -1.
</event>
<event>
 7    1  0.6046695E-013  0.5052885E+02  0.7816164E-02  0.1300439E+00
        -11   -1    0    0    0    0  0.00000000000E+00  0.00000000000E+00  0.45593999997E+02  0.45594000000E+02  0.51100000000E-03 0.  1.
         11   -1    0    0    0    0 -0.00000000000E+00 -0.00000000000E+00 -0.45593999997E+02  0.45594000000E+02  0.51100000000E-03 0. -1.
    9900012    2    1    2    0    0  0.38530287361E+02 -0.12393081621E+02  0.38723339408E+01  0.50528849906E+02  0.29999969775E+02 0.  0.
         12    1    1    2    0    0 -0.38530287361E+02  0.12393081621E+02 -0.38723339408E+01  0.40659150094E+02  0.00000000000E+00 0. -1.
         11    1    3    3    0    0  0.12599253661E+02  0.45325093685E+01  0.32942830633E+01  0.13789022270E+02  0.51100000000E-03 0. -1.
        -11    1    3    3    0    0  0.21917485099E+02 -0.12725941547E+02 -0.78247034280E+01  0.26524549484E+02  0.51100000000E-03 0.  1.
        -12    1    3    3    0    0  0.40135486003E+01 -0.41996494420E+01  0.84027543054E+01  0.10215278152E+02  0.00000000000E+00 0.  1.
</event>
<event>
 7    1  0.6046695E-013  0.5052886E+02  0.7816164E-02  0.1300439E+00
        -11   -1    0    0    0    0  0.00000000000E+00  0.00000000000E+00  0.45593999997E+02  0.45594000000E+02  0.51100000000E-03 0.  1.
         11   -1    0    0    0    0 -0.00000000000E+00 -0.00000000000E+00 -0.45593999997E+02  0.45594000000E+02  0.51100000000E-03 0. -1.
    9900012    2    1    2    0    0  0.35314506042E+02 -0.31583999706E+00  0.20148234161E+02  0.50528862876E+02  0.30000009198E+02 0.  0.
         12    1    1    2    0    0 -0.35314506042E+02  0.31583999706E+00 -0.20148234161E+02  0.40659137124E+02  0.00000000000E+00 0. -1.
         11    1    3    3    0    0  0.15158599871E+02 -0.89757819310E+01  0.18667934928E+02  0.25667871085E+02  0.51100000000E-03 0. -1.
        -11    1    3    3    0    0  0.19381281676E+02  0.41027230257E+01  0.29077605317E+01  0.20023023928E+02  0.51100000000E-03 0.  1.
         12    1    3    3    0    0  0.77462449441E+00  0.45572189083E+01 -0.14274612986E+01  0.48379678631E+01  0.00000000000E+00 0. -1.
</event>
<event>
 7    1  0.6046695E-013  0.5052887E+02  0.7816164E-02  0.1300439E+00
        -11   -1    0    0    0    0  0.00000000000E+00  0.00000000000E+00  0.45593999997E+02  0.45594000000E+02  0.51100000000E-03 0.  1.
         11   -1    0    0    0    0 -0.00000000000E+00 -0.00000000000E+00 -0.45593999997E+02  0.45594000000E+02  0.51100000000E-03 0. -1.
    9900012    2    1    2    0    0  0.34127424695E+02  0.10651766252E+02  0.19365528388E+02  0.50528869041E+02  0.30000027938E+02 0.  0.
         12    1    1    2    0    0 -0.34127424695E+02 -0.10651766252E+02 -0.19365528388E+02  0.40659130959E+02  0.00000000000E+00 0. -1.
         11    1    3    3    0    0 -0.75943093760E+00 -0.55411960267E+00  0.20425906465E+01  0.22485463512E+01  0.51100000000E-03 0. -1.
        -11    1    3    3    0    0  0.23850912353E+02  0.16995476384E+02  0.20089178465E+02  0.35514607266E+02  0.51100000000E-03 0.  1.
        -12    1    3    3    0    0  0.11035943279E+02 -0.57895905286E+01 -0.27662407239E+01  0.12765715425E+02  0.00000000000E+00 0.  1.
</event>
<event>
 7    1  0.6046695E-013  0.5052886E+02  0.7816164E-02  0.1300439E+00
        -11   -1    0    0    0    0  0.00000000000E+00  0.00000000000E+00  0.45593999997E+02  0.45594000000E+02  0.51100000000E-03 0.  1.
         11   -1    0    0    0    0 -0.00000000000E+00 -0.00000000000E+00 -0.45593999997E+02  0.45594000000E+02  0.51100000000E-03 0. -1.
    9900012    2    1    2    0    0  0.37161682785E+02 -0.12162403413E+02  0.11146788676E+02  0.50528860536E+02  0.30000002085E+02 0.  0.
         12    1    1    2    0    0 -0.37161682785E+02  0.12162403413E+02 -0.11146788676E+02  0.40659139464E+02  0.00000000000E+00 0. -1.
         11    1    3    3    0    0  0.29393188709E+01 -0.12819134404E+02  0.21290179119E+01  0.13323007161E+02  0.51100000000E-03 0. -1.
        -11    1    3    3    0    0  0.24054027589E+02 -0.51613657400E+00  0.78889277713E+00  0.24072494517E+02  0.51100000000E-03 0.  1.
        -12    1    3    3    0    0  0.10168336325E+02  0.11728675651E+01  0.82288779873E+01  0.13133358858E+02  0.00000000000E+00 0.  1.
</event>
<event>
 7    1  0.6046695E-013  0.5052888E+02  0.7816164E-02  0.1300439E+00
        -11   -1    0    0    0    0  0.00000000000E+00  0.00000000000E+00  0.45593999997E+02  0.45594000000E+02  0.51100000000E-03 0.  1.
         11   -1    0    0    0    0 -0.00000000000E+00 -0.00000000000E+00 -0.45593999997E+02  0.45594000000E+02  0.51100000000E-03 0. -1.
    9900012    2    1    2    0    0 -0.39170419809E+02  0.86443447523E+01  0.66421240045E+01  0.50528876847E+02  0.30000051666E+02 0.  0.
         12    1    1    2    0    0  0.39170419809E+02 -0.86443447523E+01 -0.66421240045E+01  0.40659123153E+02  0.00000000000E+00 0. -1.
         11    1    3    3    0    0 -0.36738176661E+02  0.52793456479E+01  0.17653388224E+01  0.37157523279E+02  0.51100000000E-03 0.  1.
        -11    1    3    3    0    0 -0.13245866506E+01  0.72715838048E+01  0.51066622047E+00  0.74088623334E+01  0.51100000000E-03 0. -1.
         12    1    3    3    0    0 -0.11076564981E+01 -0.39065847004E+01  0.43661189616E+01  0.59624912349E+01  0.00000000000E+00 0. -1.
</event>
<event>
 7    1  0.6046695E-013  0.5052885E+02  0.7816164E-02  0.1300439E+00
        -11   -1    0    0    0    0  0.00000000000E+00  0.00000000000E+00  0.45593999997E+02  0.45594000000E+02  0.51100000000E-03 0.  1.
         11   -1    0    0    0    0 -0.00000000000E+00 -0.00000000000E+00 -0.45593999997E+02  0.45594000000E+02  0.51100000000E-03 0. -1.
    9900012    2    1    2    0    0 -0.13301086433E+02  0.11947566739E+02  0.36517160746E+02  0.50528852441E+02  0.29999977480E+02 0.  0.
         12    1    1    2    0    0  0.13301086433E+02 -0.11947566739E+02 -0.36517160746E+02  0.40659147559E+02  0.00000000000E+00 0. -1.
         11    1    3    3    0    0  0.51562539773E+01  0.16516294254E+01  0.53747658265E+01  0.76290853179E+01  0.51100000000E-03 0. -1.
        -11    1    3    3    0    0 -0.17800484755E+02  0.42565809228E+01  0.99052257641E+01  0.20810796149E+02  0.51100000000E-03 0.  1.
        -12    1    3    3    0    0 -0.65685565540E+00  0.60393563912E+01  0.21237169155E+02  0.22088970974E+02  0.00000000000E+00 0.  1.
</event>
<event>
 7    1  0.6046695E-013  0.5052886E+02  0.7816164E-02  0.1300439E+00
        -11   -1    0    0    0    0  0.00000000000E+00  0.00000000000E+00  0.45593999997E+02  0.45594000000E+02  0.51100000000E-03 0. -1.
         11   -1    0    0    0    0 -0.00000000000E+00 -0.00000000000E+00 -0.45593999997E+02  0.45594000000E+02  0.51100000000E-03 0.  1.
    9900012    2    1    2    0    0 -0.30556536772E+02 -0.23920821255E+02  0.12134987060E+02  0.50528861544E+02  0.30000005151E+02 0.  0.
         12    1    1    2    0    0  0.30556536772E+02  0.23920821255E+02 -0.12134987060E+02  0.40659138456E+02  0.00000000000E+00 0. -1.
         11    1    3    3    0    0 -0.62899912752E+01 -0.68224550941E+01  0.11370282528E+02  0.14676280482E+02  0.51100000000E-03 0. -1.
        -11    1    3    3    0    0 -0.27229263152E+02 -0.13616133762E+02  0.33040397734E+01  0.30622680312E+02  0.51100000000E-03 0.  1.
        -12    1    3    3    0    0  0.29627176555E+01 -0.34822323988E+01 -0.25393352415E+01  0.52299007500E+01  0.00000000000E+00 0.  1.
</event>
<event>
 7    1  0.6046695E-013  0.5052886E+02  0.7816164E-02  0.1300439E+00
        -11   -1    0    0    0    0  0.00000000000E+00  0.00000000000E+00  0.45593999997E+02  0.45594000000E+02  0.51100000000E-03 0.  1.
         11   -1    0    0    0    0 -0.00000000000E+00 -0.00000000000E+00 -0.45593999997E+02  0.45594000000E+02  0.51100000000E-03 0. -1.
    9900012    2    1    2    0    0  0.37127231856E+02 -0.16559696859E+02  0.71449417709E+00  0.50528863177E+02  0.30000010111E+02 0.  0.
         12    1    1    2    0    0 -0.37127231856E+02  0.16559696859E+02 -0.71449417709E+00  0.40659136823E+02  0.00000000000E+00 0. -1.
         11    1    3    3    0    0  0.52071731190E+01 -0.93200238435E+01 -0.10161921446E+02  0.14739136476E+02  0.51100000000E-03 0. -1.
        -11    1    3    3    0    0  0.18971980466E+02 -0.90236912900E+01  0.72689393407E+01  0.22230621375E+02  0.51100000000E-03 0.  1.
         12    1    3    3    0    0  0.12948078270E+02  0.17840182749E+01  0.36074762823E+01  0.13559105325E+02  0.00000000000E+00 0. -1.
</event>
<event>
 7    1  0.6046695E-013  0.5052886E+02  0.7816164E-02  0.1300439E+00
        -11   -1    0    0    0    0  0.00000000000E+00  0.00000000000E+00  0.45593999997E+02  0.45594000000E+02  0.51100000000E-03 0.  1.
         11   -1    0    0    0    0 -0.00000000000E+00 -0.00000000000E+00 -0.45593999997E+02  0.45594000000E+02  0.51100000000E-03 0. -1.
    9900012    2    1    2    0    0 -0.22451559936E+02 -0.48365556162E+01  0.33551463151E+02  0.50528862117E+02  0.30000006891E+02 0.  0.
         12    1    1    2    0    0  0.22451559936E+02  0.48365556162E+01 -0.33551463151E+02  0.40659137883E+02  0.00000000000E+00 0. -1.
         11    1    3    3    0    0  0.24425152905E+01 -0.12367471538E+01 -0.41250619978E+01  0.49509151895E+01  0.51100000000E-03 0. -1.
        -11    1    3    3    0    0 -0.19490379816E+02 -0.41886583088E+01  0.26617345378E+02  0.33255117486E+02  0.51100000000E-03 0.  1.
         12    1    3    3    0    0 -0.54036954108E+01  0.58884984632E+00  0.11059179771E+02  0.12322829442E+02  0.00000000000E+00 0. -1.
</event>
<event>
 7    1  0.6046695E-013  0.5052886E+02  0.7816164E-02  0.1300439E+00
        -11   -1    0    0    0    0  0.00000000000E+00  0.00000000000E+00  0.45593999997E+02  0.45594000000E+02  0.51100000000E-03 0.  1.
         11   -1    0    0    0    0 -0.00000000000E+00 -0.00000000000E+00 -0.45593999997E+02  0.45594000000E+02  0.51100000000E-03 0. -1.
    9900012    2    1    2    0    0 -0.12603856429E+02  0.15273175940E+02  0.35511107797E+02  0.50528857398E+02  0.29999992547E+02 0.  0.
         12    1    1    2    0    0  0.12603856429E+02 -0.15273175940E+02 -0.35511107797E+02  0.40659142602E+02  0.00000000000E+00 0. -1.
         11    1    3    3    0    0  0.46711538307E+01 -0.11998603216E+00 -0.48251334928E+00  0.46975412878E+01  0.51100000000E-03 0. -1.
        -11    1    3    3    0    0 -0.57593471393E+01  0.15042805550E+02  0.15687377139E+02  0.22484436396E+02  0.51100000000E-03 0.  1.
         12    1    3    3    0    0 -0.11515663120E+02  0.35035642208E+00  0.20306244007E+02  0.23346879714E+02  0.00000000000E+00 0. -1.
</event>
<event>
 7    1  0.6046695E-013  0.5052889E+02  0.7816164E-02  0.1300439E+00
        -11   -1    0    0    0    0  0.00000000000E+00  0.00000000000E+00  0.45593999997E+02  0.45594000000E+02  0.51100000000E-03 0.  1.
         11   -1    0    0    0    0 -0.00000000000E+00 -0.00000000000E+00 -0.45593999997E+02  0.45594000000E+02  0.51100000000E-03 0. -1.
    9900012    2    1    2    0    0 -0.12827301004E+02 -0.99931273380E+01  0.37266082454E+02  0.50528890978E+02  0.30000094616E+02 0.  0.
         12    1    1    2    0    0  0.12827301004E+02  0.99931273380E+01 -0.37266082454E+02  0.40659109022E+02  0.00000000000E+00 0. -1.
         11    1    3    3    0    0  0.26443452210E+01  0.25482897584E+01 -0.18451784960E+01  0.41098693756E+01  0.51100000000E-03 0. -1.
        -11    1    3    3    0    0 -0.86254210153E+01 -0.14800400506E+02  0.31977273324E+02  0.36276655748E+02  0.51100000000E-03 0.  1.
        -12    1    3    3    0    0 -0.68462252097E+01  0.22589834091E+01  0.71339876260E+01  0.10142365854E+02  0.00000000000E+00 0.  1.
</event>
<event>
 7    1  0.6046695E-013  0.5052887E+02  0.7816164E-02  0.1300439E+00
        -11   -1    0    0    0    0  0.00000000000E+00  0.00000000000E+00  0.45593999997E+02  0.45594000000E+02  0.51100000000E-03 0.  1.
         11   -1    0    0    0    0 -0.00000000000E+00 -0.00000000000E+00 -0.45593999997E+02  0.45594000000E+02  0.51100000000E-03 0. -1.
    9900012    2    1    2    0    0 -0.22772439552E+02  0.27331720311E+02  0.19686492540E+02  0.50528869084E+02  0.30000028068E+02 0.  0.
         12    1    1    2    0    0  0.22772439552E+02 -0.27331720311E+02 -0.19686492540E+02  0.40659130916E+02  0.00000000000E+00 0. -1.
         11    1    3    3    0    0  0.24121783341E+01  0.12097333473E+01 -0.41989384148E+01  0.49913067587E+01  0.51100000000E-03 0. -1.
        -11    1    3    3    0    0 -0.11202653373E+02  0.93262919407E+01  0.21844125989E+01  0.14739430879E+02  0.51100000000E-03 0.  1.
         12    1    3    3    0    0 -0.13981964513E+02  0.16795695023E+02  0.21701018355E+02  0.30798131447E+02  0.00000000000E+00 0. -1.
</event>
<event>
 7    1  0.6046695E-013  0.5052886E+02  0.7816164E-02  0.1300439E+00
        -11   -1    0    0    0    0  0.00000000000E+00  0.00000000000E+00  0.45593999997E+02  0.45594000000E+02  0.51100000000E-03 0.  1.
         11   -1    0    0    0    0 -0.00000000000E+00 -0.00000000000E+00 -0.45593999997E+02  0.45594000000E+02  0.51100000000E-03 0. -1.
    9900012    2    1    2    0    0  0.14169127961E+02 -0.65455200759E+01  0.37544075692E+02  0.50528860317E+02  0.30000001419E+02 0.  0.
         12    1    1    2    0    0 -0.14169127961E+02  0.65455200759E+01 -0.37544075692E+02  0.40659139683E+02  0.00000000000E+00 0. -1.
         11    1    3    3    0    0  0.32065918254E+01 -0.12399920667E+02  0.11171502453E+02  0.16995373811E+02  0.51100000000E-03 0. -1.
        -11    1    3    3    0    0  0.13278690885E+02  0.19754566057E+01  0.10537344724E+02  0.17066390787E+02  0.51100000000E-03 0.  1.
        -12    1    3    3    0    0 -0.23161547492E+01  0.38789439850E+01  0.15835228515E+02  0.16467095718E+02  0.00000000000E+00 0.  1.
</event>
<event>
 7    1  0.6046695E-013  0.5052886E+02  0.7816164E-02  0.1300439E+00
        -11   -1    0    0    0    0  0.00000000000E+00  0.00000000000E+00  0.45593999997E+02  0.45594000000E+02  0.51100000000E-03 0.  1.
         11   -1    0    0    0    0 -0.00000000000E+00 -0.00000000000E+00 -0.45593999997E+02  0.45594000000E+02  0.51100000000E-03 0. -1.
    9900012    2    1    2    0    0  0.19612556151E+02  0.89553623413E+01  0.34471942378E+02  0.50528859764E+02  0.29999999738E+02 0.  0.
         12    1    1    2    0    0 -0.19612556151E+02 -0.89553623413E+01 -0.34471942378E+02  0.40659140236E+02  0.00000000000E+00 0. -1.
         11    1    3    3    0    0  0.15921320316E+01  0.73475369533E+01 -0.11169378626E+01  0.76005745925E+01  0.51100000000E-03 0. -1.
        -11    1    3    3    0    0  0.20121244536E+02 -0.13867310343E+01  0.31839682682E+02  0.37690222846E+02  0.51100000000E-03 0.  1.
        -12    1    3    3    0    0 -0.21008204163E+01  0.29945564222E+01  0.37491975582E+01  0.52380623247E+01  0.00000000000E+00 0.  1.
</event>
<event>
 7    1  0.6046695E-013  0.5052886E+02  0.7816164E-02  0.1300439E+00
        -11   -1    0    0    0    0  0.00000000000E+00  0.00000000000E+00  0.45593999997E+02  0.45594000000E+02  0.51100000000E-03 0.  1.
         11   -1    0    0    0    0 -0.00000000000E+00 -0.00000000000E+00 -0.45593999997E+02  0.45594000000E+02  0.51100000000E-03 0. -1.
    9900012    2    1    2    0    0 -0.25273498613E+01  0.44187549055E+01  0.40339221591E+02  0.50528859689E+02  0.29999999511E+02 0.  0.
         12    1    1    2    0    0  0.25273498613E+01 -0.44187549055E+01 -0.40339221591E+02  0.40659140311E+02  0.00000000000E+00 0. -1.
         11    1    3    3    0    0  0.47128953646E+01 -0.42253920703E+00  0.74590733975E+00  0.47902296521E+01  0.51100000000E-03 0. -1.
        -11    1    3    3    0    0 -0.59663698367E+01  0.84775951469E+01  0.40478833607E+02  0.41785202632E+02  0.51100000000E-03 0.  1.
        -12    1    3    3    0    0 -0.12738753893E+01 -0.36363010344E+01 -0.88551935574E+00  0.39534274053E+01  0.00000000000E+00 0.  1.
</event>
<event>
 7    1  0.6046695E-013  0.5052886E+02  0.7816164E-02  0.1300439E+00
        -11   -1    0    0    0    0  0.00000000000E+00  0.00000000000E+00  0.45593999997E+02  0.45594000000E+02  0.51100000000E-03 0. -1.
         11   -1    0    0    0    0 -0.00000000000E+00 -0.00000000000E+00 -0.45593999997E+02  0.45594000000E+02  0.51100000000E-03 0.  1.
    9900012    2    1    2    0    0  0.36197114340E+02  0.95590465395E+01 -0.15860621562E+02  0.50528858671E+02  0.29999996415E+02 0.  0.
         12    1    1    2    0    0 -0.36197114340E+02 -0.95590465395E+01  0.15860621562E+02  0.40659141329E+02  0.00000000000E+00 0. -1.
         11    1    3    3    0    0  0.17846877943E+02 -0.67294243485E+01 -0.14631953498E+02  0.24039348323E+02  0.51100000000E-03 0. -1.
        -11    1    3    3    0    0  0.88661520260E+01  0.11977902873E+02 -0.45056462697E+01  0.15568547060E+02  0.51100000000E-03 0.  1.
        -12    1    3    3    0    0  0.94840843712E+01  0.43105680149E+01  0.32769782057E+01  0.10920963288E+02  0.00000000000E+00 0.  1.
</event>
<event>
 7    1  0.6046695E-013  0.5052886E+02  0.7816164E-02  0.1300439E+00
        -11   -1    0    0    0    0  0.00000000000E+00  0.00000000000E+00  0.45593999997E+02  0.45594000000E+02  0.51100000000E-03 0.  1.
         11   -1    0    0    0    0 -0.00000000000E+00 -0.00000000000E+00 -0.45593999997E+02  0.45594000000E+02  0.51100000000E-03 0. -1.
    9900012    2    1    2    0    0 -0.98318156074E+01 -0.36536046277E+02 -0.14886855053E+02  0.50528859219E+02  0.29999998082E+02 0.  0.
         12    1    1    2    0    0  0.98318156074E+01  0.36536046277E+02  0.14886855053E+02  0.40659140781E+02  0.00000000000E+00 0. -1.
         11    1    3    3    0    0  0.51231646626E+01  0.14295648339E+01 -0.19417674540E+00  0.53224220656E+01  0.51100000000E-03 0. -1.
        -11    1    3    3    0    0 -0.58147874786E+01 -0.27349557978E+02 -0.56305946281E+01  0.28522161053E+02  0.51100000000E-03 0.  1.
        -12    1    3    3    0    0 -0.91401927915E+01 -0.10616053133E+02 -0.90620836795E+01  0.16684276101E+02  0.00000000000E+00 0.  1.
</event>
<event>
 7    1  0.6046695E-013  0.5052886E+02  0.7816164E-02  0.1300439E+00
        -11   -1    0    0    0    0  0.00000000000E+00  0.00000000000E+00  0.45593999997E+02  0.45594000000E+02  0.51100000000E-03 0. -1.
         11   -1    0    0    0    0 -0.00000000000E+00 -0.00000000000E+00 -0.45593999997E+02  0.45594000000E+02  0.51100000000E-03 0.  1.
    9900012    2    1    2    0    0 -0.23361796259E+02 -0.21050308692E+02 -0.25773564035E+02  0.50528860516E+02  0.30000002025E+02 0.  0.
         12    1    1    2    0    0  0.23361796259E+02  0.21050308692E+02  0.25773564035E+02  0.40659139484E+02  0.00000000000E+00 0. -1.
         11    1    3    3    0    0  0.28966963916E+01 -0.21478065815E+01 -0.24653442890E+01  0.43682772143E+01  0.51100000000E-03 0. -1.
        -11    1    3    3    0    0 -0.29545290909E+02 -0.12429864025E+02 -0.21749287785E+02  0.38735736136E+02  0.51100000000E-03 0.  1.
        -12    1    3    3    0    0  0.32867982587E+01 -0.64726380853E+01 -0.15589319616E+01  0.74248471660E+01  0.00000000000E+00 0.  1.
</event>
<event>
 7    1  0.6046695E-013  0.5052886E+02  0.7816164E-02  0.1300439E+00
        -11   -1    0    0    0    0  0.00000000000E+00  0.00000000000E+00  0.45593999997E+02  0.45594000000E+02  0.51100000000E-03 0.  1.
         11   -1    0    0    0    0 -0.00000000000E+00 -0.00000000000E+00 -0.45593999997E+02  0.45594000000E+02  0.51100000000E-03 0. -1.
    9900012    2    1    2    0    0  0.17089530537E+02 -0.17384610326E+02  0.32540576467E+02  0.50528857769E+02  0.29999993674E+02 0.  0.
         12    1    1    2    0    0 -0.17089530537E+02  0.17384610326E+02 -0.32540576467E+02  0.40659142231E+02  0.00000000000E+00 0. -1.
         11    1    3    3    0    0  0.61470477510E+01 -0.12364729159E+02 -0.76513691320E+00  0.13829611635E+02  0.51100000000E-03 0. -1.
        -11    1    3    3    0    0  0.11941320505E+02 -0.40636553908E+01  0.32934671125E+02  0.35267562900E+02  0.51100000000E-03 0.  1.
        -12    1    3    3    0    0 -0.99883771963E+00 -0.95622577633E+00  0.37104225542E+00  0.14316832334E+01  0.00000000000E+00 0.  1.
</event>
<event>
 7    1  0.6046695E-013  0.5052886E+02  0.7816164E-02  0.1300439E+00
        -11   -1    0    0    0    0  0.00000000000E+00  0.00000000000E+00  0.45593999997E+02  0.45594000000E+02  0.51100000000E-03 0.  1.
         11   -1    0    0    0    0 -0.00000000000E+00 -0.00000000000E+00 -0.45593999997E+02  0.45594000000E+02  0.51100000000E-03 0. -1.
    9900012    2    1    2    0    0  0.21617179435E+02  0.33094913094E+02  0.95178669828E+01  0.50528861896E+02  0.30000006220E+02 0.  0.
         12    1    1    2    0    0 -0.21617179435E+02 -0.33094913094E+02 -0.95178669828E+01  0.40659138104E+02  0.00000000000E+00 0. -1.
         11    1    3    3    0    0  0.14256255241E+02  0.30625985272E+02  0.13171515949E+02  0.36258524791E+02  0.51100000000E-03 0. -1.
        -11    1    3    3    0    0  0.97422621159E+01  0.14862309105E+00 -0.46545823349E+01  0.10798096913E+02  0.51100000000E-03 0.  1.
         12    1    3    3    0    0 -0.23813379223E+01  0.23203047314E+01  0.10009333687E+01  0.34722401926E+01  0.00000000000E+00 0. -1.
</event>
<event>
 7    1  0.6046695E-013  0.5052886E+02  0.7816164E-02  0.1300439E+00
        -11   -1    0    0    0    0  0.00000000000E+00  0.00000000000E+00  0.45593999997E+02  0.45594000000E+02  0.51100000000E-03 0.  1.
         11   -1    0    0    0    0 -0.00000000000E+00 -0.00000000000E+00 -0.45593999997E+02  0.45594000000E+02  0.51100000000E-03 0. -1.
    9900012    2    1    2    0    0  0.20593581496E+02 -0.31338634231E+02 -0.15714960692E+02  0.50528861005E+02  0.30000003510E+02 0.  0.
         12    1    1    2    0    0 -0.20593581496E+02  0.31338634231E+02  0.15714960692E+02  0.40659138995E+02  0.00000000000E+00 0. -1.
         11    1    3    3    0    0  0.68882572313E+01 -0.30665779222E+02 -0.13635278157E+02  0.34260165115E+02  0.51100000000E-03 0. -1.
        -11    1    3    3    0    0  0.91734177495E+01  0.10192375604E+01  0.25470078735E+01  0.95748466192E+01  0.51100000000E-03 0.  1.
         12    1    3    3    0    0  0.45319065153E+01 -0.16920925686E+01 -0.46266904084E+01  0.66938492707E+01  0.00000000000E+00 0. -1.
</event>
<event>
 7    1  0.6046695E-013  0.5052888E+02  0.7816164E-02  0.1300439E+00
        -11   -1    0    0    0    0  0.00000000000E+00  0.00000000000E+00  0.45593999997E+02  0.45594000000E+02  0.51100000000E-03 0.  1.
         11   -1    0    0    0    0 -0.00000000000E+00 -0.00000000000E+00 -0.45593999997E+02  0.45594000000E+02  0.51100000000E-03 0. -1.
    9900012    2    1    2    0    0  0.77670236547E+01  0.18222588169E+02  0.35507392820E+02  0.50528876536E+02  0.30000050717E+02 0.  0.
         12    1    1    2    0    0 -0.77670236547E+01 -0.18222588169E+02 -0.35507392820E+02  0.40659123464E+02  0.00000000000E+00 0. -1.
         11    1    3    3    0    0 -0.54778242807E+01  0.87813221430E+01  0.30048790134E+01  0.10777173821E+02  0.51100000000E-03 0. -1.
        -11    1    3    3    0    0  0.16226388336E+02  0.10919043961E+02  0.27681989746E+02  0.33894155190E+02  0.51100000000E-03 0.  1.
        -12    1    3    3    0    0 -0.29815404008E+01 -0.14777779345E+01  0.48205240605E+01  0.58575475246E+01  0.00000000000E+00 0.  1.
</event>
<event>
 7    1  0.6046695E-013  0.5052887E+02  0.7816164E-02  0.1300439E+00
        -11   -1    0    0    0    0  0.00000000000E+00  0.00000000000E+00  0.45593999997E+02  0.45594000000E+02  0.51100000000E-03 0. -1.
         11   -1    0    0    0    0 -0.00000000000E+00 -0.00000000000E+00 -0.45593999997E+02  0.45594000000E+02  0.51100000000E-03 0.  1.
    9900012    2    1    2    0    0  0.56833644820E+01 -0.22675647273E+02 -0.33266794652E+02  0.50528865263E+02  0.30000016454E+02 0.  0.
         12    1    1    2    0    0 -0.56833644820E+01  0.22675647273E+02  0.33266794652E+02  0.40659134737E+02  0.00000000000E+00 0. -1.
         11    1    3    3    0    0 -0.41967217360E+00  0.13225903777E+01 -0.77226971545E+01  0.78463635935E+01  0.51100000000E-03 0. -1.
        -11    1    3    3    0    0  0.57376121301E+01 -0.15427687593E+02 -0.78426379525E+00  0.16478738040E+02  0.51100000000E-03 0.  1.
        -12    1    3    3    0    0  0.36542452554E+00 -0.85705500580E+01 -0.24759833703E+02  0.26203763630E+02  0.00000000000E+00 0.  1.
</event>
<event>
 7    1  0.6046695E-013  0.5052885E+02  0.7816164E-02  0.1300439E+00
        -11   -1    0    0    0    0  0.00000000000E+00  0.00000000000E+00  0.45593999997E+02  0.45594000000E+02  0.51100000000E-03 0. -1.
         11   -1    0    0    0    0 -0.00000000000E+00 -0.00000000000E+00 -0.45593999997E+02  0.45594000000E+02  0.51100000000E-03 0.  1.
    9900012    2    1    2    0    0 -0.16681852256E+02  0.34475550024E+02 -0.13649848162E+02  0.50528854670E+02  0.29999984254E+02 0.  0.
         12    1    1    2    0    0  0.16681852256E+02 -0.34475550024E+02  0.13649848162E+02  0.40659145330E+02  0.00000000000E+00 0. -1.
         11    1    3    3    0    0 -0.20020839848E+02  0.91053280315E+01 -0.46848438568E+01  0.22487525186E+02  0.51100000000E-03 0. -1.
        -11    1    3    3    0    0  0.44429285308E+01  0.89403662096E+01 -0.21068521121E+01  0.10203361602E+02  0.51100000000E-03 0.  1.
         12    1    3    3    0    0 -0.11039409391E+01  0.16429855783E+02 -0.68581521935E+01  0.17837967882E+02  0.00000000000E+00 0. -1.
</event>
<event>
 7    1  0.6046695E-013  0.5052886E+02  0.7816164E-02  0.1300439E+00
        -11   -1    0    0    0    0  0.00000000000E+00  0.00000000000E+00  0.45593999997E+02  0.45594000000E+02  0.51100000000E-03 0.  1.
         11   -1    0    0    0    0 -0.00000000000E+00 -0.00000000000E+00 -0.45593999997E+02  0.45594000000E+02  0.51100000000E-03 0. -1.
    9900012    2    1    2    0    0  0.21999552217E+02 -0.62249372287E+01  0.33621955621E+02  0.50528855382E+02  0.29999986420E+02 0.  0.
         12    1    1    2    0    0 -0.21999552217E+02  0.62249372287E+01 -0.33621955621E+02  0.40659144618E+02  0.00000000000E+00 0. -1.
         11    1    3    3    0    0  0.37584063606E+01 -0.92519692155E+00  0.26025885703E+02  0.26312132840E+02  0.51100000000E-03 0. -1.
        -11    1    3    3    0    0  0.17955755587E+02 -0.52975590633E+01  0.10388231664E+02  0.21410012800E+02  0.51100000000E-03 0.  1.
         12    1    3    3    0    0  0.28539026940E+00 -0.21812438323E-02 -0.27921617457E+01  0.28067097423E+01  0.00000000000E+00 0. -1.
</event>
<event>
 7    1  0.6046695E-013  0.5052886E+02  0.7816164E-02  0.1300439E+00
        -11   -1    0    0    0    0  0.00000000000E+00  0.00000000000E+00  0.45593999997E+02  0.45594000000E+02  0.51100000000E-03 0. -1.
         11   -1    0    0    0    0 -0.00000000000E+00 -0.00000000000E+00 -0.45593999997E+02  0.45594000000E+02  0.51100000000E-03 0.  1.
    9900012    2    1    2    0    0  0.94019832510E+01  0.26800893310E+02 -0.29094339572E+02  0.50528858759E+02  0.29999996684E+02 0.  0.
         12    1    1    2    0    0 -0.94019832510E+01 -0.26800893310E+02  0.29094339572E+02  0.40659141241E+02  0.00000000000E+00 0. -1.
         11    1    3    3    0    0  0.51834653810E+01 -0.89209511938E+00  0.24811417405E+01  0.58155147369E+01  0.51100000000E-03 0. -1.
        -11    1    3    3    0    0 -0.52299619469E+01  0.12933001555E+02 -0.16400900583E+02  0.21531478616E+02  0.51100000000E-03 0.  1.
        -12    1    3    3    0    0  0.94484798170E+01  0.14759986875E+02 -0.15174580730E+02  0.23181865406E+02  0.00000000000E+00 0.  1.
</event>
<event>
 7    1  0.6046695E-013  0.5052887E+02  0.7816164E-02  0.1300439E+00
        -11   -1    0    0    0    0  0.00000000000E+00  0.00000000000E+00  0.45593999997E+02  0.45594000000E+02  0.51100000000E-03 0.  1.
         11   -1    0    0    0    0 -0.00000000000E+00 -0.00000000000E+00 -0.45593999997E+02  0.45594000000E+02  0.51100000000E-03 0. -1.
    9900012    2    1    2    0    0 -0.14549395274E+02  0.17163944009E+02  0.33865601063E+02  0.50528870494E+02  0.30000032354E+02 0.  0.
         12    1    1    2    0    0  0.14549395274E+02 -0.17163944009E+02 -0.33865601063E+02  0.40659129506E+02  0.00000000000E+00 0. -1.
         11    1    3    3    0    0  0.67783241119E+01  0.72481927678E+01  0.16612820824E+02  0.19351170305E+02  0.51100000000E-03 0.  1.
        -11    1    3    3    0    0 -0.16515620745E+02  0.12299156061E+02  0.13973079059E+02  0.24885375365E+02  0.51100000000E-03 0. -1.
         12    1    3    3    0    0 -0.48120986417E+01 -0.23834048192E+01  0.32797011799E+01  0.62923248247E+01  0.00000000000E+00 0. -1.
</event>
<event>
 7    1  0.6046695E-013  0.5052886E+02  0.7816164E-02  0.1300439E+00
        -11   -1    0    0    0    0  0.00000000000E+00  0.00000000000E+00  0.45593999997E+02  0.45594000000E+02  0.51100000000E-03 0. -1.
         11   -1    0    0    0    0 -0.00000000000E+00 -0.00000000000E+00 -0.45593999997E+02  0.45594000000E+02  0.51100000000E-03 0.  1.
    9900012    2    1    2    0    0 -0.14629718781E+02  0.97015628627E+01  0.36674470080E+02  0.50528858971E+02  0.29999997328E+02 0.  0.
         12    1    1    2    0    0  0.14629718781E+02 -0.97015628627E+01 -0.36674470080E+02  0.40659141029E+02  0.00000000000E+00 0. -1.
         11    1    3    3    0    0 -0.21946746719E+01  0.39602062997E+01  0.11844025284E+02  0.12679935569E+02  0.51100000000E-03 0. -1.
        -11    1    3    3    0    0  0.67820965183E+01 -0.29165660864E+01  0.50592264739E+01  0.89498024389E+01  0.51100000000E-03 0.  1.
        -12    1    3    3    0    0 -0.19217140627E+02  0.86579226494E+01  0.19771218322E+02  0.28899120963E+02  0.00000000000E+00 0.  1.
</event>
<event>
 7    1  0.6046695E-013  0.5052888E+02  0.7816164E-02  0.1300439E+00
        -11   -1    0    0    0    0  0.00000000000E+00  0.00000000000E+00  0.45593999997E+02  0.45594000000E+02  0.51100000000E-03 0. -1.
         11   -1    0    0    0    0 -0.00000000000E+00 -0.00000000000E+00 -0.45593999997E+02  0.45594000000E+02  0.51100000000E-03 0.  1.
    9900012    2    1    2    0    0  0.20451451573E+02  0.34138463432E+02 -0.83347365661E+01  0.50528875679E+02  0.30000048115E+02 0.  0.
         12    1    1    2    0    0 -0.20451451573E+02 -0.34138463432E+02  0.83347365661E+01  0.40659124321E+02  0.00000000000E+00 0. -1.
         11    1    3    3    0    0  0.56097051034E+01  0.20564348249E+02 -0.19749393490E+01  0.21407045474E+02  0.51100000000E-03 0. -1.
        -11    1    3    3    0    0  0.69787617814E+01 -0.43633821267E+01 -0.46717556115E+01  0.94640118522E+01  0.51100000000E-03 0.  1.
        -12    1    3    3    0    0  0.78629846878E+01  0.17937497310E+02 -0.16880416057E+01  0.19657818353E+02  0.00000000000E+00 0.  1.
</event>
<event>
 7    1  0.6046695E-013  0.5052886E+02  0.7816164E-02  0.1300439E+00
        -11   -1    0    0    0    0  0.00000000000E+00  0.00000000000E+00  0.45593999997E+02  0.45594000000E+02  0.51100000000E-03 0. -1.
         11   -1    0    0    0    0 -0.00000000000E+00 -0.00000000000E+00 -0.45593999997E+02  0.45594000000E+02  0.51100000000E-03 0.  1.
    9900012    2    1    2    0    0  0.28476725459E+02 -0.25918201598E+02 -0.13057121883E+02  0.50528862051E+02  0.30000006689E+02 0.  0.
         12    1    1    2    0    0 -0.28476725459E+02  0.25918201598E+02  0.13057121883E+02  0.40659137949E+02  0.00000000000E+00 0. -1.
         11    1    3    3    0    0 -0.36765635070E+01 -0.48146491391E+01 -0.92445884291E+01  0.11052618741E+02  0.51100000000E-03 0. -1.
        -11    1    3    3    0    0  0.22834243894E+02 -0.11529509188E+02 -0.49961671502E+01  0.26063268460E+02  0.51100000000E-03 0.  1.
         12    1    3    3    0    0  0.93190450711E+01 -0.95740432708E+01  0.11836336964E+01  0.13412974850E+02  0.00000000000E+00 0. -1.
</event>
<event>
 7    1  0.6046695E-013  0.5052885E+02  0.7816164E-02  0.1300439E+00
        -11   -1    0    0    0    0  0.00000000000E+00  0.00000000000E+00  0.45593999997E+02  0.45594000000E+02  0.51100000000E-03 0.  1.
         11   -1    0    0    0    0 -0.00000000000E+00 -0.00000000000E+00 -0.45593999997E+02  0.45594000000E+02  0.51100000000E-03 0. -1.
    9900012    2    1    2    0    0 -0.12750971718E+02  0.40430056771E+01  0.38395745741E+02  0.50528850161E+02  0.29999970548E+02 0.  0.
         12    1    1    2    0    0  0.12750971718E+02 -0.40430056771E+01 -0.38395745741E+02  0.40659149839E+02  0.00000000000E+00 0. -1.
         11    1    3    3    0    0 -0.17351876961E+02  0.33674064907E+01  0.10314441302E+02  0.20464964212E+02  0.51100000000E-03 0. -1.
        -11    1    3    3    0    0 -0.43936792116E+00  0.30227791295E+01  0.20136147684E+02  0.20366508823E+02  0.51100000000E-03 0.  1.
         12    1    3    3    0    0  0.50402731644E+01 -0.23471799432E+01  0.79451567548E+01  0.96973771256E+01  0.00000000000E+00 0. -1.
</event>
<event>
 7    1  0.6046695E-013  0.5052886E+02  0.7816164E-02  0.1300439E+00
        -11   -1    0    0    0    0  0.00000000000E+00  0.00000000000E+00  0.45593999997E+02  0.45594000000E+02  0.51100000000E-03 0. -1.
         11   -1    0    0    0    0 -0.00000000000E+00 -0.00000000000E+00 -0.45593999997E+02  0.45594000000E+02  0.51100000000E-03 0.  1.
    9900012    2    1    2    0    0 -0.55156947555E+01 -0.28413162869E+02 -0.28555819987E+02  0.50528861200E+02  0.30000004102E+02 0.  0.
         12    1    1    2    0    0  0.55156947555E+01  0.28413162869E+02  0.28555819987E+02  0.40659138800E+02  0.00000000000E+00 0. -1.
         11    1    3    3    0    0  0.22278145209E+01 -0.70608157262E+01 -0.21932976486E+02  0.23148946716E+02  0.51100000000E-03 0. -1.
        -11    1    3    3    0    0  0.17219833684E+00 -0.17881064527E+02 -0.37434194258E+01  0.18269518607E+02  0.51100000000E-03 0.  1.
        -12    1    3    3    0    0 -0.79157076132E+01 -0.34712826155E+01 -0.28794240754E+01  0.91103958761E+01  0.00000000000E+00 0.  1.
</event>
<event>
 7    1  0.6046695E-013  0.5052886E+02  0.7816164E-02  0.1300439E+00
        -11   -1    0    0    0    0  0.00000000000E+00  0.00000000000E+00  0.45593999997E+02  0.45594000000E+02  0.51100000000E-03 0.  1.
         11   -1    0    0    0    0 -0.00000000000E+00 -0.00000000000E+00 -0.45593999997E+02  0.45594000000E+02  0.51100000000E-03 0. -1.
    9900012    2    1    2    0    0 -0.31376738383E+02  0.21094258245E+02  0.14956552146E+02  0.50528857184E+02  0.29999991896E+02 0.  0.
         12    1    1    2    0    0  0.31376738383E+02 -0.21094258245E+02 -0.14956552146E+02  0.40659142816E+02  0.00000000000E+00 0. -1.
         11    1    3    3    0    0 -0.84505134258E+01  0.21593906612E+02  0.97658415562E+01  0.25161073933E+02  0.51100000000E-03 0.  1.
        -11    1    3    3    0    0 -0.20621166865E+02  0.27887009166E+01  0.45620025339E+01  0.21303080600E+02  0.51100000000E-03 0. -1.
        -12    1    3    3    0    0 -0.23050580924E+01 -0.32883492835E+01  0.62870805621E+00  0.40647026508E+01  0.00000000000E+00 0.  1.
</event>
<event>
 7    1  0.6046695E-013  0.5052887E+02  0.7816164E-02  0.1300439E+00
        -11   -1    0    0    0    0  0.00000000000E+00  0.00000000000E+00  0.45593999997E+02  0.45594000000E+02  0.51100000000E-03 0.  1.
         11   -1    0    0    0    0 -0.00000000000E+00 -0.00000000000E+00 -0.45593999997E+02  0.45594000000E+02  0.51100000000E-03 0. -1.
    9900012    2    1    2    0    0  0.22516498897E+02  0.61623761012E+01  0.33289600695E+02  0.50528866755E+02  0.30000020988E+02 0.  0.
         12    1    1    2    0    0 -0.22516498897E+02 -0.61623761012E+01 -0.33289600695E+02  0.40659133245E+02  0.00000000000E+00 0. -1.
         11    1    3    3    0    0  0.14639425809E+02 -0.16407728732E+01  0.23384218284E+02  0.27637412843E+02  0.51100000000E-03 0.  1.
        -11    1    3    3    0    0 -0.52024777984E+01 -0.36681550519E+00  0.24347821295E+01  0.57557356730E+01  0.51100000000E-03 0. -1.
        -12    1    3    3    0    0  0.13079550886E+02  0.81699644796E+01  0.74706002815E+01  0.17135718239E+02  0.00000000000E+00 0.  1.
</event>
<event>
 7    1  0.6046695E-013  0.5052887E+02  0.7816164E-02  0.1300439E+00
        -11   -1    0    0    0    0  0.00000000000E+00  0.00000000000E+00  0.45593999997E+02  0.45594000000E+02  0.51100000000E-03 0.  1.
         11   -1    0    0    0    0 -0.00000000000E+00 -0.00000000000E+00 -0.45593999997E+02  0.45594000000E+02  0.51100000000E-03 0. -1.
    9900012    2    1    2    0    0 -0.47525517117E+01  0.40148963259E+02 -0.43172954107E+01  0.50528867715E+02  0.30000023906E+02 0.  0.
         12    1    1    2    0    0  0.47525517117E+01 -0.40148963259E+02  0.43172954107E+01  0.40659132285E+02  0.00000000000E+00 0. -1.
         11    1    3    3    0    0  0.10117230572E+02  0.72100490698E+01  0.80581930133E+00  0.12449598670E+02  0.51100000000E-03 0. -1.
        -11    1    3    3    0    0 -0.10548091218E+02  0.28085472421E+02 -0.78822450742E+01  0.31019119541E+02  0.51100000000E-03 0.  1.
        -12    1    3    3    0    0 -0.43216910651E+01  0.48534417683E+01  0.27591303622E+01  0.70601495038E+01  0.00000000000E+00 0.  1.
</event>
<event>
 7    1  0.6046695E-013  0.5052887E+02  0.7816164E-02  0.1300439E+00
        -11   -1    0    0    0    0  0.00000000000E+00  0.00000000000E+00  0.45593999997E+02  0.45594000000E+02  0.51100000000E-03 0.  1.
         11   -1    0    0    0    0 -0.00000000000E+00 -0.00000000000E+00 -0.45593999997E+02  0.45594000000E+02  0.51100000000E-03 0. -1.
    9900012    2    1    2    0    0 -0.34279520282E+02 -0.20150092288E+02  0.84884019160E+01  0.50528871910E+02  0.30000036658E+02 0.  0.
         12    1    1    2    0    0  0.34279520282E+02  0.20150092288E+02 -0.84884019160E+01  0.40659128090E+02  0.00000000000E+00 0. -1.
         11    1    3    3    0    0 -0.28310698107E+02 -0.16691621432E+02  0.52505134225E+01  0.33281732899E+02  0.51100000000E-03 0.  1.
        -11    1    3    3    0    0  0.31146651152E+01 -0.59897934796E+01 -0.11468872209E+01  0.68479278082E+01  0.51100000000E-03 0. -1.
         12    1    3    3    0    0 -0.90834872901E+01  0.25313226241E+01  0.43847757144E+01  0.10399211203E+02  0.00000000000E+00 0. -1.
</event>
<event>
 7    1  0.6046695E-013  0.5052887E+02  0.7816164E-02  0.1300439E+00
        -11   -1    0    0    0    0  0.00000000000E+00  0.00000000000E+00  0.45593999997E+02  0.45594000000E+02  0.51100000000E-03 0. -1.
         11   -1    0    0    0    0 -0.00000000000E+00 -0.00000000000E+00 -0.45593999997E+02  0.45594000000E+02  0.51100000000E-03 0.  1.
    9900012    2    1    2    0    0 -0.15359684597E+02  0.21925002660E+02  0.30602933684E+02  0.50528865693E+02  0.30000017759E+02 0.  0.
         12    1    1    2    0    0  0.15359684597E+02 -0.21925002660E+02 -0.30602933684E+02  0.40659134307E+02  0.00000000000E+00 0. -1.
         11    1    3    3    0    0  0.19735341521E+01  0.60902407577E+01  0.21340376952E+02  0.22279981110E+02  0.51100000000E-03 0. -1.
        -11    1    3    3    0    0 -0.11932988855E+02  0.58191721116E+01 -0.45699428457E+00  0.13284119509E+02  0.51100000000E-03 0.  1.
         12    1    3    3    0    0 -0.54002298943E+01  0.10015589790E+02  0.97195510166E+01  0.14964765074E+02  0.00000000000E+00 0. -1.
</event>
<event>
 7    1  0.6046695E-013  0.5052886E+02  0.7816164E-02  0.1300439E+00
        -11   -1    0    0    0    0  0.00000000000E+00  0.00000000000E+00  0.45593999997E+02  0.45594000000E+02  0.51100000000E-03 0.  1.
         11   -1    0    0    0    0 -0.00000000000E+00 -0.00000000000E+00 -0.45593999997E+02  0.45594000000E+02  0.51100000000E-03 0. -1.
    9900012    2    1    2    0    0  0.94302257427E+01  0.37918080134E+02  0.11245267804E+02  0.50528855806E+02  0.29999987708E+02 0.  0.
         12    1    1    2    0    0 -0.94302257427E+01 -0.37918080134E+02 -0.11245267804E+02  0.40659144194E+02  0.00000000000E+00 0. -1.
         11    1    3    3    0    0 -0.39222184034E+01  0.16809799847E+02  0.52805175427E+01  0.18050956592E+02  0.51100000000E-03 0. -1.
        -11    1    3    3    0    0  0.14863995965E+02  0.18937108710E+02 -0.19305333543E+01  0.24151178473E+02  0.51100000000E-03 0.  1.
        -12    1    3    3    0    0 -0.15115518189E+01  0.21711715760E+01  0.78952836158E+01  0.83267207403E+01  0.00000000000E+00 0.  1.
</event>
<event>
 7    1  0.6046695E-013  0.5052886E+02  0.7816164E-02  0.1300439E+00
        -11   -1    0    0    0    0  0.00000000000E+00  0.00000000000E+00  0.45593999997E+02  0.45594000000E+02  0.51100000000E-03 0. -1.
         11   -1    0    0    0    0 -0.00000000000E+00 -0.00000000000E+00 -0.45593999997E+02  0.45594000000E+02  0.51100000000E-03 0.  1.
    9900012    2    1    2    0    0 -0.20323760881E+02 -0.33396605470E+02 -0.11170385444E+02  0.50528855589E+02  0.29999987050E+02 0.  0.
         12    1    1    2    0    0  0.20323760881E+02  0.33396605470E+02  0.11170385444E+02  0.40659144411E+02  0.00000000000E+00 0. -1.
         11    1    3    3    0    0 -0.21710602871E+01  0.10168693446E+01  0.42425376280E+01  0.48730536443E+01  0.51100000000E-03 0. -1.
        -11    1    3    3    0    0 -0.17462735385E+02 -0.35869086252E+02 -0.11646474725E+02  0.41559341302E+02  0.51100000000E-03 0.  1.
        -12    1    3    3    0    0 -0.68996520806E+00  0.14556114379E+01 -0.37664483470E+01  0.40964606427E+01  0.00000000000E+00 0.  1.
</event>
<event>
 7    1  0.6046695E-013  0.5052886E+02  0.7816164E-02  0.1300439E+00
        -11   -1    0    0    0    0  0.00000000000E+00  0.00000000000E+00  0.45593999997E+02  0.45594000000E+02  0.51100000000E-03 0. -1.
         11   -1    0    0    0    0 -0.00000000000E+00 -0.00000000000E+00 -0.45593999997E+02  0.45594000000E+02  0.51100000000E-03 0.  1.
    9900012    2    1    2    0    0 -0.52197271833E+01 -0.29595450782E+02 -0.27386671345E+02  0.50528855565E+02  0.29999986974E+02 0.  0.
         12    1    1    2    0    0  0.52197271833E+01  0.29595450782E+02  0.27386671345E+02  0.40659144435E+02  0.00000000000E+00 0. -1.
         11    1    3    3    0    0  0.14972087007E+01 -0.15005096392E+01  0.23829819276E+01  0.31893206486E+01  0.51100000000E-03 0. -1.
        -11    1    3    3    0    0 -0.10746090549E+02 -0.29891158511E+02 -0.22833573989E+02  0.39119457059E+02  0.51100000000E-03 0.  1.
        -12    1    3    3    0    0  0.40291546650E+01  0.17962173682E+01 -0.69360792839E+01  0.82200778574E+01  0.00000000000E+00 0.  1.
</event>
<event>
 7    1  0.6046695E-013  0.5052886E+02  0.7816164E-02  0.1300439E+00
        -11   -1    0    0    0    0  0.00000000000E+00  0.00000000000E+00  0.45593999997E+02  0.45594000000E+02  0.51100000000E-03 0.  1.
         11   -1    0    0    0    0 -0.00000000000E+00 -0.00000000000E+00 -0.45593999997E+02  0.45594000000E+02  0.51100000000E-03 0. -1.
    9900012    2    1    2    0    0 -0.84464485440E+01 -0.39546450388E+02  0.42310010903E+01  0.50528860787E+02  0.30000002848E+02 0.  0.
         12    1    1    2    0    0  0.84464485440E+01  0.39546450388E+02 -0.42310010903E+01  0.40659139213E+02  0.00000000000E+00 0. -1.
         11    1    3    3    0    0 -0.53887978150E+01 -0.13557385409E+02  0.12602384767E+02  0.19278535813E+02  0.51100000000E-03 0.  1.
        -11    1    3    3    0    0  0.45446453009E+01 -0.97429013610E+01 -0.78395981744E+01  0.13305533722E+02  0.51100000000E-03 0. -1.
        -12    1    3    3    0    0 -0.76022960299E+01 -0.16246163619E+02 -0.53178550217E+00  0.17944791252E+02  0.00000000000E+00 0.  1.
</event>
<event>
 7    1  0.6046695E-013  0.5052886E+02  0.7816164E-02  0.1300439E+00
        -11   -1    0    0    0    0  0.00000000000E+00  0.00000000000E+00  0.45593999997E+02  0.45594000000E+02  0.51100000000E-03 0.  1.
         11   -1    0    0    0    0 -0.00000000000E+00 -0.00000000000E+00 -0.45593999997E+02  0.45594000000E+02  0.51100000000E-03 0. -1.
    9900012    2    1    2    0    0 -0.29868580038E+02 -0.13534746092E+02  0.24038385742E+02  0.50528863089E+02  0.30000009846E+02 0.  0.
         12    1    1    2    0    0  0.29868580038E+02  0.13534746092E+02 -0.24038385742E+02  0.40659136911E+02  0.00000000000E+00 0. -1.
         11    1    3    3    0    0 -0.88295387322E+00  0.44122740379E+01 -0.12461451227E+01  0.46691163678E+01  0.51100000000E-03 0. -1.
        -11    1    3    3    0    0 -0.23681149246E+02 -0.60100693450E+01  0.20681317110E+02  0.32009914727E+02  0.51100000000E-03 0.  1.
        -12    1    3    3    0    0 -0.53044769191E+01 -0.11936950785E+02  0.46032137543E+01  0.13849831995E+02  0.00000000000E+00 0.  1.
</event>
<event>
 7    1  0.6046695E-013  0.5052886E+02  0.7816164E-02  0.1300439E+00
        -11   -1    0    0    0    0  0.00000000000E+00  0.00000000000E+00  0.45593999997E+02  0.45594000000E+02  0.51100000000E-03 0.  1.
         11   -1    0    0    0    0 -0.00000000000E+00 -0.00000000000E+00 -0.45593999997E+02  0.45594000000E+02  0.51100000000E-03 0. -1.
    9900012    2    1    2    0    0  0.11713942315E+02  0.23167567563E+02  0.31292384244E+02  0.50528856588E+02  0.29999990085E+02 0.  0.
         12    1    1    2    0    0 -0.11713942315E+02 -0.23167567563E+02 -0.31292384244E+02  0.40659143412E+02  0.00000000000E+00 0. -1.
         11    1    3    3    0    0  0.62576858457E+01 -0.36872349798E+01  0.35737935857E-01  0.72633058177E+01  0.51100000000E-03 0. -1.
        -11    1    3    3    0    0  0.88930511408E+01  0.16754686427E+02  0.22750779224E+02  0.29621003214E+02  0.51100000000E-03 0.  1.
        -12    1    3    3    0    0 -0.34367946715E+01  0.10100116116E+02  0.85058670838E+01  0.13644547556E+02  0.00000000000E+00 0.  1.
</event>
<event>
 7    1  0.6046695E-013  0.5052886E+02  0.7816164E-02  0.1300439E+00
        -11   -1    0    0    0    0  0.00000000000E+00  0.00000000000E+00  0.45593999997E+02  0.45594000000E+02  0.51100000000E-03 0.  1.
         11   -1    0    0    0    0 -0.00000000000E+00 -0.00000000000E+00 -0.45593999997E+02  0.45594000000E+02  0.51100000000E-03 0. -1.
    9900012    2    1    2    0    0 -0.28010202389E+02 -0.43610537093E+00  0.29468700507E+02  0.50528856682E+02  0.29999990370E+02 0.  0.
         12    1    1    2    0    0  0.28010202389E+02  0.43610537093E+00 -0.29468700507E+02  0.40659143318E+02  0.00000000000E+00 0. -1.
         11    1    3    3    0    0  0.12015047002E+01  0.22118342219E+01  0.63155329714E+01  0.67986602462E+01  0.51100000000E-03 0. -1.
        -11    1    3    3    0    0 -0.27723820374E+02  0.33831968947E+01  0.10878730068E+02  0.29973371608E+02  0.51100000000E-03 0.  1.
        -12    1    3    3    0    0 -0.14878867154E+01 -0.60311364875E+01  0.12274437467E+02  0.13756824828E+02  0.00000000000E+00 0.  1.
</event>
<event>
 7    1  0.6504375E-013  0.5052883E+02  0.7816164E-02  0.1300439E+00
        -11   -1    0    0    0    0  0.00000000000E+00  0.00000000000E+00  0.45593999997E+02  0.45594000000E+02  0.51100000000E-03 0.  1.
         11   -1    0    0    0    0 -0.00000000000E+00 -0.00000000000E+00 -0.45593999997E+02  0.45594000000E+02  0.51100000000E-03 0. -1.
    9900012    2    1    2    0    0  0.39757679927E+02  0.52993589207E+01  0.66642278218E+01  0.50528828211E+02  0.29999903830E+02 0.  0.
         12    1    1    2    0    0 -0.39757679927E+02 -0.52993589207E+01 -0.66642278218E+01  0.40659171789E+02  0.00000000000E+00 0. -1.
         11    1    3    3    0    0  0.18832656749E+02 -0.93768774050E+01 -0.41403175735E+00  0.21042010661E+02  0.51100000000E-03 0. -1.
        -11    1    3    3    0    0  0.15485207253E+02  0.67176618445E+01  0.97373158083E+01  0.19486763296E+02  0.51100000000E-03 0.  1.
         12    1    3    3    0    0  0.54398159244E+01  0.79585744811E+01 -0.26590562291E+01  0.10000054255E+02  0.00000000000E+00 0. -1.
</event>
<event>
 7    1  0.6046695E-013  0.5052886E+02  0.7816164E-02  0.1300439E+00
        -11   -1    0    0    0    0  0.00000000000E+00  0.00000000000E+00  0.45593999997E+02  0.45594000000E+02  0.51100000000E-03 0.  1.
         11   -1    0    0    0    0 -0.00000000000E+00 -0.00000000000E+00 -0.45593999997E+02  0.45594000000E+02  0.51100000000E-03 0. -1.
    9900012    2    1    2    0    0  0.27283703522E+02  0.29941296664E+02 -0.35048812015E+01  0.50528856919E+02  0.29999991092E+02 0.  0.
         12    1    1    2    0    0 -0.27283703522E+02 -0.29941296664E+02  0.35048812015E+01  0.40659143081E+02  0.00000000000E+00 0. -1.
         11    1    3    3    0    0  0.89695421275E+01  0.69734739346E+01 -0.81428860308E+01  0.13978147870E+02  0.51100000000E-03 0. -1.
        -11    1    3    3    0    0  0.17638232047E+02  0.26690911236E+02  0.59593742040E+01  0.32542681413E+02  0.51100000000E-03 0.  1.
        -12    1    3    3    0    0  0.67592934756E+00 -0.37230885070E+01 -0.13213693747E+01  0.40080276369E+01  0.00000000000E+00 0.  1.
</event>
<event>
 7    1  0.6046695E-013  0.5052886E+02  0.7816164E-02  0.1300439E+00
        -11   -1    0    0    0    0  0.00000000000E+00  0.00000000000E+00  0.45593999997E+02  0.45594000000E+02  0.51100000000E-03 0. -1.
         11   -1    0    0    0    0 -0.00000000000E+00 -0.00000000000E+00 -0.45593999997E+02  0.45594000000E+02  0.51100000000E-03 0.  1.
    9900012    2    1    2    0    0 -0.27264645954E+02  0.29305295496E+02 -0.71417259277E+01  0.50528861884E+02  0.30000006183E+02 0.  0.
         12    1    1    2    0    0  0.27264645954E+02 -0.29305295496E+02  0.71417259277E+01  0.40659138116E+02  0.00000000000E+00 0. -1.
         11    1    3    3    0    0  0.25070445287E+01  0.20490524206E+01  0.80076698503E+00  0.33354334226E+01  0.51100000000E-03 0. -1.
        -11    1    3    3    0    0 -0.28237108508E+02  0.19537010501E+02  0.21391353568E+01  0.34403560521E+02  0.51100000000E-03 0.  1.
        -12    1    3    3    0    0 -0.15345819751E+01  0.77192325742E+01 -0.10081628269E+02  0.12789867941E+02  0.00000000000E+00 0.  1.
</event>
<event>
 7    1  0.6046695E-013  0.5052886E+02  0.7816164E-02  0.1300439E+00
        -11   -1    0    0    0    0  0.00000000000E+00  0.00000000000E+00  0.45593999997E+02  0.45594000000E+02  0.51100000000E-03 0.  1.
         11   -1    0    0    0    0 -0.00000000000E+00 -0.00000000000E+00 -0.45593999997E+02  0.45594000000E+02  0.51100000000E-03 0. -1.
    9900012    2    1    2    0    0 -0.34599286550E+02 -0.27907412359E+00  0.21353626679E+02  0.50528857308E+02  0.29999992273E+02 0.  0.
         12    1    1    2    0    0  0.34599286550E+02  0.27907412359E+00 -0.21353626679E+02  0.40659142692E+02  0.00000000000E+00 0. -1.
         11    1    3    3    0    0 -0.48654693432E+01 -0.91424831996E+01 -0.75470327231E+00  0.10383995776E+02  0.51100000000E-03 0. -1.
        -11    1    3    3    0    0 -0.30622117181E+02  0.90748722077E+01  0.22582770157E+02  0.39115839176E+02  0.51100000000E-03 0.  1.
        -12    1    3    3    0    0  0.88829997450E+00 -0.21146313166E+00 -0.47444020545E+00  0.10290223561E+01  0.00000000000E+00 0.  1.
</event>
<event>
 7    1  0.6046695E-013  0.5052885E+02  0.7816164E-02  0.1300439E+00
        -11   -1    0    0    0    0  0.00000000000E+00  0.00000000000E+00  0.45593999997E+02  0.45594000000E+02  0.51100000000E-03 0. -1.
         11   -1    0    0    0    0 -0.00000000000E+00 -0.00000000000E+00 -0.45593999997E+02  0.45594000000E+02  0.51100000000E-03 0.  1.
    9900012    2    1    2    0    0  0.38375147254E+02  0.11841554157E+02  0.63476038928E+01  0.50528850885E+02  0.29999972749E+02 0.  0.
         12    1    1    2    0    0 -0.38375147254E+02 -0.11841554157E+02 -0.63476038928E+01  0.40659149115E+02  0.00000000000E+00 0. -1.
         11    1    3    3    0    0  0.10982566902E+02  0.46090318372E+01  0.12460886727E+02  0.17237565040E+02  0.51100000000E-03 0. -1.
        -11    1    3    3    0    0  0.24364135948E+02  0.11779069128E+02 -0.36805038148E+01  0.27311237588E+02  0.51100000000E-03 0.  1.
        -12    1    3    3    0    0  0.30284444039E+01 -0.45465468081E+01 -0.24327790197E+01  0.59800482561E+01  0.00000000000E+00 0.  1.
</event>
<event>
 7    1  0.6046695E-013  0.5052886E+02  0.7816164E-02  0.1300439E+00
        -11   -1    0    0    0    0  0.00000000000E+00  0.00000000000E+00  0.45593999997E+02  0.45594000000E+02  0.51100000000E-03 0.  1.
         11   -1    0    0    0    0 -0.00000000000E+00 -0.00000000000E+00 -0.45593999997E+02  0.45594000000E+02  0.51100000000E-03 0. -1.
    9900012    2    1    2    0    0 -0.93611799238E+01 -0.19342505927E+02  0.34516682877E+02  0.50528860537E+02  0.30000002087E+02 0.  0.
         12    1    1    2    0    0  0.93611799238E+01  0.19342505927E+02 -0.34516682877E+02  0.40659139463E+02  0.00000000000E+00 0. -1.
         11    1    3    3    0    0 -0.20188250616E+01 -0.52987423968E+01  0.95479958230E+01  0.11104798517E+02  0.51100000000E-03 0. -1.
        -11    1    3    3    0    0  0.41835253883E+01  0.60244937412E+01  0.52488817897E+01  0.90192665897E+01  0.51100000000E-03 0.  1.
        -12    1    3    3    0    0 -0.11525880250E+02 -0.20068257271E+02  0.19719805264E+02  0.30404795429E+02  0.00000000000E+00 0.  1.
</event>
<event>
 7    1  0.6046695E-013  0.5052885E+02  0.7816164E-02  0.1300439E+00
        -11   -1    0    0    0    0  0.00000000000E+00  0.00000000000E+00  0.45593999997E+02  0.45594000000E+02  0.51100000000E-03 0.  1.
         11   -1    0    0    0    0 -0.00000000000E+00 -0.00000000000E+00 -0.45593999997E+02  0.45594000000E+02  0.51100000000E-03 0. -1.
    9900012    2    1    2    0    0 -0.26839486723E+02 -0.41195009440E+01  0.30262815592E+02  0.50528851667E+02  0.29999975127E+02 0.  0.
         12    1    1    2    0    0  0.26839486723E+02  0.41195009440E+01 -0.30262815592E+02  0.40659148333E+02  0.00000000000E+00 0. -1.
         11    1    3    3    0    0 -0.71536837616E+01 -0.13356194124E+02  0.19809954706E+02  0.24939876073E+02  0.51100000000E-03 0. -1.
        -11    1    3    3    0    0 -0.29816342982E+01  0.11159481696E+01  0.55188359180E+01  0.63712662443E+01  0.51100000000E-03 0.  1.
         12    1    3    3    0    0 -0.16704168663E+02  0.81207450105E+01  0.49340249685E+01  0.19217709350E+02  0.00000000000E+00 0. -1.
</event>
<event>
 7    1  0.6046695E-013  0.5052884E+02  0.7816164E-02  0.1300439E+00
        -11   -1    0    0    0    0  0.00000000000E+00  0.00000000000E+00  0.45593999997E+02  0.45594000000E+02  0.51100000000E-03 0. -1.
         11   -1    0    0    0    0 -0.00000000000E+00 -0.00000000000E+00 -0.45593999997E+02  0.45594000000E+02  0.51100000000E-03 0.  1.
    9900012    2    1    2    0    0  0.36863045103E+02 -0.82159165119E+01 -0.15059282632E+02  0.50528839018E+02  0.29999936679E+02 0.  0.
         12    1    1    2    0    0 -0.36863045103E+02  0.82159165119E+01  0.15059282632E+02  0.40659160982E+02  0.00000000000E+00 0. -1.
         11    1    3    3    0    0  0.96581122222E+01  0.40062266391E+01 -0.22730664847E+01  0.10700271730E+02  0.51100000000E-03 0. -1.
        -11    1    3    3    0    0  0.23031852456E+01 -0.11930499030E+02 -0.77765349768E+01  0.14426224936E+02  0.51100000000E-03 0.  1.
        -12    1    3    3    0    0  0.24901747635E+02 -0.29164412069E+00 -0.50096811702E+01  0.25402342353E+02  0.00000000000E+00 0.  1.
</event>
<event>
 7    1  0.6046695E-013  0.5052886E+02  0.7816164E-02  0.1300439E+00
        -11   -1    0    0    0    0  0.00000000000E+00  0.00000000000E+00  0.45593999997E+02  0.45594000000E+02  0.51100000000E-03 0. -1.
         11   -1    0    0    0    0 -0.00000000000E+00 -0.00000000000E+00 -0.45593999997E+02  0.45594000000E+02  0.51100000000E-03 0.  1.
    9900012    2    1    2    0    0  0.32824312046E+02  0.23763577041E+02  0.33200794317E+01  0.50528856102E+02  0.29999988608E+02 0.  0.
         12    1    1    2    0    0 -0.32824312046E+02 -0.23763577041E+02 -0.33200794317E+01  0.40659143898E+02  0.00000000000E+00 0. -1.
         11    1    3    3    0    0  0.14485168207E+01  0.91483992603E+01 -0.89727769330E+01  0.12895818553E+02  0.51100000000E-03 0. -1.
        -11    1    3    3    0    0  0.17920680187E+02  0.12302982304E+02  0.57007432204E+01  0.22472485965E+02  0.51100000000E-03 0.  1.
         12    1    3    3    0    0  0.13455115038E+02  0.23121954768E+01  0.65921131444E+01  0.15160551584E+02  0.00000000000E+00 0. -1.
</event>
<event>
 7    1  0.6046695E-013  0.5052886E+02  0.7816164E-02  0.1300439E+00
        -11   -1    0    0    0    0  0.00000000000E+00  0.00000000000E+00  0.45593999997E+02  0.45594000000E+02  0.51100000000E-03 0.  1.
         11   -1    0    0    0    0 -0.00000000000E+00 -0.00000000000E+00 -0.45593999997E+02  0.45594000000E+02  0.51100000000E-03 0. -1.
    9900012    2    1    2    0    0 -0.20816695149E+02  0.32048546269E+02  0.13882417245E+02  0.50528860518E+02  0.30000002031E+02 0.  0.
         12    1    1    2    0    0  0.20816695149E+02 -0.32048546269E+02 -0.13882417245E+02  0.40659139482E+02  0.00000000000E+00 0. -1.
         11    1    3    3    0    0 -0.17030075891E+01 -0.39842117833E+01  0.38701348824E+01  0.58096577052E+01  0.51100000000E-03 0. -1.
        -11    1    3    3    0    0 -0.29888437233E+01  0.19021985335E+02  0.90097208668E+01  0.21258978886E+02  0.51100000000E-03 0.  1.
         12    1    3    3    0    0 -0.16124843836E+02  0.17010772716E+02  0.10025614957E+01  0.23460223927E+02  0.00000000000E+00 0. -1.
</event>
<event>
 7    1  0.6046695E-013  0.5052886E+02  0.7816164E-02  0.1300439E+00
        -11   -1    0    0    0    0  0.00000000000E+00  0.00000000000E+00  0.45593999997E+02  0.45594000000E+02  0.51100000000E-03 0.  1.
         11   -1    0    0    0    0 -0.00000000000E+00 -0.00000000000E+00 -0.45593999997E+02  0.45594000000E+02  0.51100000000E-03 0. -1.
    9900012    2    1    2    0    0  0.38240594190E+02  0.65704140886E+01  0.12151211229E+02  0.50528864253E+02  0.30000013385E+02 0.  0.
         12    1    1    2    0    0 -0.38240594190E+02 -0.65704140886E+01 -0.12151211229E+02  0.40659135747E+02  0.00000000000E+00 0. -1.
         11    1    3    3    0    0  0.21813168436E+02  0.11087443339E+02  0.78418722681E+01  0.25695148919E+02  0.51100000000E-03 0. -1.
        -11    1    3    3    0    0  0.77102293313E+00 -0.63227346788E+01  0.62872304783E+01  0.89499004201E+01  0.51100000000E-03 0.  1.
        -12    1    3    3    0    0  0.15656402821E+02  0.18057054286E+01 -0.19778915178E+01  0.15883814915E+02  0.00000000000E+00 0.  1.
</event>
<event>
 7    1  0.6046695E-013  0.5052886E+02  0.7816164E-02  0.1300439E+00
        -11   -1    0    0    0    0  0.00000000000E+00  0.00000000000E+00  0.45593999997E+02  0.45594000000E+02  0.51100000000E-03 0.  1.
         11   -1    0    0    0    0 -0.00000000000E+00 -0.00000000000E+00 -0.45593999997E+02  0.45594000000E+02  0.51100000000E-03 0. -1.
    9900012    2    1    2    0    0  0.92017971556E+01 -0.16913953187E+02  0.35810769039E+02  0.50528855119E+02  0.29999985620E+02 0.  0.
         12    1    1    2    0    0 -0.92017971556E+01  0.16913953187E+02 -0.35810769039E+02  0.40659144881E+02  0.00000000000E+00 0. -1.
         11    1    3    3    0    0  0.70682857508E+01 -0.87006202327E+01 -0.31349951347E+00  0.11214264938E+02  0.51100000000E-03 0. -1.
        -11    1    3    3    0    0  0.66189311378E+01 -0.62657287346E+01  0.30639999715E+02  0.31966845149E+02  0.51100000000E-03 0.  1.
         12    1    3    3    0    0 -0.44854197330E+01 -0.19476042197E+01  0.54842688372E+01  0.73477450321E+01  0.00000000000E+00 0. -1.
</event>
<event>
 7    1  0.6046695E-013  0.5052886E+02  0.7816164E-02  0.1300439E+00
        -11   -1    0    0    0    0  0.00000000000E+00  0.00000000000E+00  0.45593999997E+02  0.45594000000E+02  0.51100000000E-03 0.  1.
         11   -1    0    0    0    0 -0.00000000000E+00 -0.00000000000E+00 -0.45593999997E+02  0.45594000000E+02  0.51100000000E-03 0. -1.
    9900012    2    1    2    0    0  0.33264321044E+02  0.11549571975E+02  0.20328750198E+02  0.50528858938E+02  0.29999997227E+02 0.  0.
         12    1    1    2    0    0 -0.33264321044E+02 -0.11549571975E+02 -0.20328750198E+02  0.40659141062E+02  0.00000000000E+00 0. -1.
         11    1    3    3    0    0  0.36441771108E+01  0.14942947471E+02  0.57284656462E+01  0.16413013887E+02  0.51100000000E-03 0. -1.
        -11    1    3    3    0    0  0.12262965477E+02 -0.41763147957E+00  0.19296616274E+01  0.12420882924E+02  0.51100000000E-03 0.  1.
         12    1    3    3    0    0  0.17357178456E+02 -0.29757440162E+01  0.12670622925E+02  0.21694962127E+02  0.00000000000E+00 0. -1.
</event>
<event>
 7    1  0.6046695E-013  0.5052886E+02  0.7816164E-02  0.1300439E+00
        -11   -1    0    0    0    0  0.00000000000E+00  0.00000000000E+00  0.45593999997E+02  0.45594000000E+02  0.51100000000E-03 0. -1.
         11   -1    0    0    0    0 -0.00000000000E+00 -0.00000000000E+00 -0.45593999997E+02  0.45594000000E+02  0.51100000000E-03 0.  1.
    9900012    2    1    2    0    0  0.36605850775E+02  0.16694471063E+02 -0.58713121653E+01  0.50528856113E+02  0.29999988642E+02 0.  0.
         12    1    1    2    0    0 -0.36605850775E+02 -0.16694471063E+02  0.58713121653E+01  0.40659143887E+02  0.00000000000E+00 0. -1.
         11    1    3    3    0    0  0.95076798083E+01  0.52004840470E+01 -0.15669659402E+01  0.10949721101E+02  0.51100000000E-03 0. -1.
        -11    1    3    3    0    0  0.37777232585E+01 -0.80446319803E+01 -0.16554871349E+01  0.90403503600E+01  0.51100000000E-03 0.  1.
        -12    1    3    3    0    0  0.23320447709E+02  0.19538618996E+02 -0.26488590902E+01  0.30538784653E+02  0.00000000000E+00 0.  1.
</event>
<event>
 7    1  0.6046695E-013  0.5052887E+02  0.7816164E-02  0.1300439E+00
        -11   -1    0    0    0    0  0.00000000000E+00  0.00000000000E+00  0.45593999997E+02  0.45594000000E+02  0.51100000000E-03 0.  1.
         11   -1    0    0    0    0 -0.00000000000E+00 -0.00000000000E+00 -0.45593999997E+02  0.45594000000E+02  0.51100000000E-03 0. -1.
    9900012    2    1    2    0    0  0.23146842669E+02  0.20208185224E+02  0.26627393623E+02  0.50528866134E+02  0.30000019102E+02 0.  0.
         12    1    1    2    0    0 -0.23146842669E+02 -0.20208185224E+02 -0.26627393623E+02  0.40659133866E+02  0.00000000000E+00 0. -1.
         11    1    3    3    0    0 -0.10755135459E+01  0.18702139506E+01 -0.54960172571E+01  0.59042895897E+01  0.51100000000E-03 0. -1.
        -11    1    3    3    0    0  0.12616645589E+02  0.82352615979E+01  0.11821890731E+02  0.19150884580E+02  0.51100000000E-03 0.  1.
         12    1    3    3    0    0  0.11605710626E+02  0.10102709675E+02  0.20301520149E+02  0.25473691964E+02  0.00000000000E+00 0. -1.
</event>
<event>
 7    1  0.6046695E-013  0.5052886E+02  0.7816164E-02  0.1300439E+00
        -11   -1    0    0    0    0  0.00000000000E+00  0.00000000000E+00  0.45593999997E+02  0.45594000000E+02  0.51100000000E-03 0.  1.
         11   -1    0    0    0    0 -0.00000000000E+00 -0.00000000000E+00 -0.45593999997E+02  0.45594000000E+02  0.51100000000E-03 0. -1.
    9900012    2    1    2    0    0 -0.27842604307E+02 -0.22807382627E+02  0.18915020508E+02  0.50528864278E+02  0.30000013458E+02 0.  0.
         12    1    1    2    0    0  0.27842604307E+02  0.22807382627E+02 -0.18915020508E+02  0.40659135722E+02  0.00000000000E+00 0. -1.
         11    1    3    3    0    0 -0.13489853679E+02  0.43897504589E+01  0.27988903694E+01  0.14459593664E+02  0.51100000000E-03 0. -1.
        -11    1    3    3    0    0 -0.69480028591E+01 -0.46268882990E+01  0.58413831284E+01  0.10188454062E+02  0.51100000000E-03 0.  1.
         12    1    3    3    0    0 -0.74047477692E+01 -0.22570244787E+02  0.10274747010E+02  0.25880816552E+02  0.00000000000E+00 0. -1.
</event>
<event>
 7    1  0.6046695E-013  0.5052885E+02  0.7816164E-02  0.1300439E+00
        -11   -1    0    0    0    0  0.00000000000E+00  0.00000000000E+00  0.45593999997E+02  0.45594000000E+02  0.51100000000E-03 0.  1.
         11   -1    0    0    0    0 -0.00000000000E+00 -0.00000000000E+00 -0.45593999997E+02  0.45594000000E+02  0.51100000000E-03 0. -1.
    9900012    2    1    2    0    0 -0.12361709462E+02 -0.26857907324E+02  0.27910704777E+02  0.50528849888E+02  0.29999969719E+02 0.  0.
         12    1    1    2    0    0  0.12361709462E+02  0.26857907324E+02 -0.27910704777E+02  0.40659150112E+02  0.00000000000E+00 0. -1.
         11    1    3    3    0    0 -0.24918068350E+01 -0.38497614935E+01 -0.25187193799E+01  0.52319893382E+01  0.51100000000E-03 0. -1.
        -11    1    3    3    0    0  0.13477402575E+01 -0.20227221202E+02  0.25884710492E+02  0.32878186064E+02  0.51100000000E-03 0.  1.
        -12    1    3    3    0    0 -0.11217642884E+02 -0.27809246285E+01  0.45447136653E+01  0.12418674485E+02  0.00000000000E+00 0.  1.
</event>
<event>
 7    1  0.6046695E-013  0.5052886E+02  0.7816164E-02  0.1300439E+00
        -11   -1    0    0    0    0  0.00000000000E+00  0.00000000000E+00  0.45593999997E+02  0.45594000000E+02  0.51100000000E-03 0.  1.
         11   -1    0    0    0    0 -0.00000000000E+00 -0.00000000000E+00 -0.45593999997E+02  0.45594000000E+02  0.51100000000E-03 0. -1.
    9900012    2    1    2    0    0 -0.32319510591E+02  0.11312479529E+02  0.21923561777E+02  0.50528861803E+02  0.30000005937E+02 0.  0.
         12    1    1    2    0    0  0.32319510591E+02 -0.11312479529E+02 -0.21923561777E+02  0.40659138197E+02  0.00000000000E+00 0. -1.
         11    1    3    3    0    0 -0.13890019079E+02  0.73457073999E+01 -0.42724116964E+01  0.16283290490E+02  0.51100000000E-03 0. -1.
        -11    1    3    3    0    0 -0.17200036198E+02  0.45236847359E+01  0.15883467463E+02  0.23845114965E+02  0.51100000000E-03 0.  1.
         12    1    3    3    0    0 -0.12294553136E+01 -0.55691260663E+00  0.10312506011E+02  0.10400456348E+02  0.00000000000E+00 0. -1.
</event>
<event>
 7    1  0.6046695E-013  0.5052887E+02  0.7816164E-02  0.1300439E+00
        -11   -1    0    0    0    0  0.00000000000E+00  0.00000000000E+00  0.45593999997E+02  0.45594000000E+02  0.51100000000E-03 0.  1.
         11   -1    0    0    0    0 -0.00000000000E+00 -0.00000000000E+00 -0.45593999997E+02  0.45594000000E+02  0.51100000000E-03 0. -1.
    9900012    2    1    2    0    0  0.23522392783E+02  0.88243433959E+01  0.31968628371E+02  0.50528865743E+02  0.30000017913E+02 0.  0.
         12    1    1    2    0    0 -0.23522392783E+02 -0.88243433959E+01 -0.31968628371E+02  0.40659134257E+02  0.00000000000E+00 0. -1.
         11    1    3    3    0    0  0.19054556568E+02  0.10396522022E+02  0.28244792908E+02  0.35622073534E+02  0.51100000000E-03 0. -1.
        -11    1    3    3    0    0  0.38343037272E+01  0.56126321369E+01  0.17035610353E-01  0.67973388211E+01  0.51100000000E-03 0.  1.
         12    1    3    3    0    0  0.63353248770E+00 -0.71848107630E+01  0.37067998524E+01  0.81094533884E+01  0.00000000000E+00 0. -1.
</event>
<event>
 7    1  0.6046695E-013  0.5052886E+02  0.7816164E-02  0.1300439E+00
        -11   -1    0    0    0    0  0.00000000000E+00  0.00000000000E+00  0.45593999997E+02  0.45594000000E+02  0.51100000000E-03 0.  1.
         11   -1    0    0    0    0 -0.00000000000E+00 -0.00000000000E+00 -0.45593999997E+02  0.45594000000E+02  0.51100000000E-03 0. -1.
    9900012    2    1    2    0    0 -0.32189394850E+02  0.13451598155E+02  0.20882121348E+02  0.50528860490E+02  0.30000001944E+02 0.  0.
         12    1    1    2    0    0  0.32189394850E+02 -0.13451598155E+02 -0.20882121348E+02  0.40659139510E+02  0.00000000000E+00 0. -1.
         11    1    3    3    0    0 -0.29569313127E+01  0.89910752104E+01  0.15314449774E+02  0.18003201059E+02  0.51100000000E-03 0. -1.
        -11    1    3    3    0    0 -0.17357938683E+02  0.36072029365E+01  0.93381055512E+01  0.20037718530E+02  0.51100000000E-03 0.  1.
         12    1    3    3    0    0 -0.11874524854E+02  0.85332000817E+00 -0.37704339773E+01  0.12487940900E+02  0.00000000000E+00 0. -1.
</event>
<event>
 7    1  0.6046695E-013  0.5052886E+02  0.7816164E-02  0.1300439E+00
        -11   -1    0    0    0    0  0.00000000000E+00  0.00000000000E+00  0.45593999997E+02  0.45594000000E+02  0.51100000000E-03 0.  1.
         11   -1    0    0    0    0 -0.00000000000E+00 -0.00000000000E+00 -0.45593999997E+02  0.45594000000E+02  0.51100000000E-03 0. -1.
    9900012    2    1    2    0    0 -0.21593877523E+02 -0.11681146432E+02  0.32410195140E+02  0.50528862313E+02  0.30000007486E+02 0.  0.
         12    1    1    2    0    0  0.21593877523E+02  0.11681146432E+02 -0.32410195140E+02  0.40659137687E+02  0.00000000000E+00 0. -1.
         11    1    3    3    0    0 -0.21364381756E+01 -0.59179502321E+01 -0.15393027422E+01  0.64773417557E+01  0.51100000000E-03 0. -1.
        -11    1    3    3    0    0 -0.20977495406E+02  0.11167057735E+01  0.24732641352E+02  0.32450052293E+02  0.51100000000E-03 0.  1.
        -12    1    3    3    0    0  0.15200560586E+01 -0.68799019730E+01  0.92168565307E+01  0.11601468264E+02  0.00000000000E+00 0.  1.
</event>
<event>
 7    1  0.6046695E-013  0.5052885E+02  0.7816164E-02  0.1300439E+00
        -11   -1    0    0    0    0  0.00000000000E+00  0.00000000000E+00  0.45593999997E+02  0.45594000000E+02  0.51100000000E-03 0. -1.
         11   -1    0    0    0    0 -0.00000000000E+00 -0.00000000000E+00 -0.45593999997E+02  0.45594000000E+02  0.51100000000E-03 0.  1.
    9900012    2    1    2    0    0 -0.38128131098E+02 -0.10024280247E+02 -0.99461606757E+01  0.50528847430E+02  0.29999962249E+02 0.  0.
         12    1    1    2    0    0  0.38128131098E+02  0.10024280247E+02  0.99461606757E+01  0.40659152570E+02  0.00000000000E+00 0. -1.
         11    1    3    3    0    0 -0.56273570935E+01  0.82206165995E+01 -0.71982048053E+01  0.12290640252E+02  0.51100000000E-03 0. -1.
        -11    1    3    3    0    0 -0.12577562644E+02 -0.36219851374E+01 -0.33742491805E+01  0.13516634795E+02  0.51100000000E-03 0.  1.
         12    1    3    3    0    0 -0.19923211361E+02 -0.14622911709E+02  0.62629331012E+00  0.24721572383E+02  0.00000000000E+00 0. -1.
</event>
<event>
 7    1  0.6046695E-013  0.5052882E+02  0.7816164E-02  0.1300439E+00
        -11   -1    0    0    0    0  0.00000000000E+00  0.00000000000E+00  0.45593999997E+02  0.45594000000E+02  0.51100000000E-03 0. -1.
         11   -1    0    0    0    0 -0.00000000000E+00 -0.00000000000E+00 -0.45593999997E+02  0.45594000000E+02  0.51100000000E-03 0.  1.
    9900012    2    1    2    0    0 -0.29279530699E+02 -0.36883875154E+01 -0.27969154187E+02  0.50528822606E+02  0.29999886793E+02 0.  0.
         12    1    1    2    0    0  0.29279530699E+02  0.36883875154E+01  0.27969154187E+02  0.40659177394E+02  0.00000000000E+00 0. -1.
         11    1    3    3    0    0 -0.75757427194E+01 -0.66581507774E+01 -0.80178884165E+00  0.10117594335E+02  0.51100000000E-03 0. -1.
        -11    1    3    3    0    0 -0.90448214153E+01  0.35212670211E+01 -0.25921568190E+02  0.27679158469E+02  0.51100000000E-03 0.  1.
        -12    1    3    3    0    0 -0.12658966565E+02 -0.55150375906E+00 -0.12457971551E+01  0.12732069801E+02  0.00000000000E+00 0.  1.
</event>
<event>
 7    1  0.6046695E-013  0.5052885E+02  0.7816164E-02  0.1300439E+00
        -11   -1    0    0    0    0  0.00000000000E+00  0.00000000000E+00  0.45593999997E+02  0.45594000000E+02  0.51100000000E-03 0. -1.
         11   -1    0    0    0    0 -0.00000000000E+00 -0.00000000000E+00 -0.45593999997E+02  0.45594000000E+02  0.51100000000E-03 0.  1.
    9900012    2    1    2    0    0 -0.31167399174E+02  0.15394279379E+02  0.21089708021E+02  0.50528851051E+02  0.29999973254E+02 0.  0.
         12    1    1    2    0    0  0.31167399174E+02 -0.15394279379E+02 -0.21089708021E+02  0.40659148949E+02  0.00000000000E+00 0. -1.
         11    1    3    3    0    0 -0.84884208685E+00  0.13604717030E+02  0.78431991175E+01  0.15726558142E+02  0.51100000000E-03 0. -1.
        -11    1    3    3    0    0 -0.17626165559E+02  0.52001821508E+01  0.42116363476E+01  0.18853686316E+02  0.51100000000E-03 0.  1.
         12    1    3    3    0    0 -0.12692391528E+02 -0.34106198013E+01  0.90348725562E+01  0.15948606592E+02  0.00000000000E+00 0. -1.
</event>
<event>
 7    1  0.6046695E-013  0.5052886E+02  0.7816164E-02  0.1300439E+00
        -11   -1    0    0    0    0  0.00000000000E+00  0.00000000000E+00  0.45593999997E+02  0.45594000000E+02  0.51100000000E-03 0. -1.
         11   -1    0    0    0    0 -0.00000000000E+00 -0.00000000000E+00 -0.45593999997E+02  0.45594000000E+02  0.51100000000E-03 0.  1.
    9900012    2    1    2    0    0  0.74932103294E+00 -0.39235988980E+02 -0.10636776747E+02  0.50528864091E+02  0.30000012892E+02 0.  0.
         12    1    1    2    0    0 -0.74932103294E+00  0.39235988980E+02  0.10636776747E+02  0.40659135909E+02  0.00000000000E+00 0. -1.
         11    1    3    3    0    0 -0.59515885090E+01 -0.18788431364E+02  0.23270981485E+01  0.19845451492E+02  0.51100000000E-03 0. -1.
        -11    1    3    3    0    0  0.63078628718E+01 -0.13989410060E+02 -0.17121888255E+02  0.22992428874E+02  0.51100000000E-03 0.  1.
        -12    1    3    3    0    0  0.39304667009E+00 -0.64581475573E+01  0.41580133604E+01  0.76909837252E+01  0.00000000000E+00 0.  1.
</event>
<event>
 7    1  0.6046695E-013  0.5052886E+02  0.7816164E-02  0.1300439E+00
        -11   -1    0    0    0    0  0.00000000000E+00  0.00000000000E+00  0.45593999997E+02  0.45594000000E+02  0.51100000000E-03 0.  1.
         11   -1    0    0    0    0 -0.00000000000E+00 -0.00000000000E+00 -0.45593999997E+02  0.45594000000E+02  0.51100000000E-03 0. -1.
    9900012    2    1    2    0    0  0.97851311065E+01 -0.29976673635E+02  0.25667406520E+02  0.50528861907E+02  0.30000006254E+02 0.  0.
         12    1    1    2    0    0 -0.97851311065E+01  0.29976673635E+02 -0.25667406520E+02  0.40659138093E+02  0.00000000000E+00 0. -1.
         11    1    3    3    0    0  0.18132837294E+01  0.21723822990E+00 -0.55822097808E+01  0.58733513967E+01  0.51100000000E-03 0. -1.
        -11    1    3    3    0    0  0.78844028439E+01 -0.17935986440E+02  0.20413174477E+02  0.28294188631E+02  0.51100000000E-03 0.  1.
         12    1    3    3    0    0  0.87444533295E-01 -0.12257925425E+02  0.10836441824E+02  0.16361321880E+02  0.00000000000E+00 0. -1.
</event>
<event>
 7    1  0.6046695E-013  0.5052888E+02  0.7816164E-02  0.1300439E+00
        -11   -1    0    0    0    0  0.00000000000E+00  0.00000000000E+00  0.45593999997E+02  0.45594000000E+02  0.51100000000E-03 0. -1.
         11   -1    0    0    0    0 -0.00000000000E+00 -0.00000000000E+00 -0.45593999997E+02  0.45594000000E+02  0.51100000000E-03 0.  1.
    9900012    2    1    2    0    0 -0.28793366123E+02 -0.27641528894E+02 -0.77493213538E+01  0.50528880067E+02  0.30000061451E+02 0.  0.
         12    1    1    2    0    0  0.28793366123E+02  0.27641528894E+02  0.77493213538E+01  0.40659119933E+02  0.00000000000E+00 0. -1.
         11    1    3    3    0    0 -0.19110444861E+01 -0.18478373374E+02 -0.29425667852E+01  0.18808537241E+02  0.51100000000E-03 0. -1.
        -11    1    3    3    0    0 -0.25127596291E+02 -0.10226317314E+02 -0.70950222099E+00  0.27138110746E+02  0.51100000000E-03 0.  1.
         12    1    3    3    0    0 -0.17547253457E+01  0.10631617945E+01 -0.40972523476E+01  0.45822320806E+01  0.00000000000E+00 0. -1.
</event>
<event>
 7    1  0.6046695E-013  0.5052886E+02  0.7816164E-02  0.1300439E+00
        -11   -1    0    0    0    0  0.00000000000E+00  0.00000000000E+00  0.45593999997E+02  0.45594000000E+02  0.51100000000E-03 0.  1.
         11   -1    0    0    0    0 -0.00000000000E+00 -0.00000000000E+00 -0.45593999997E+02  0.45594000000E+02  0.51100000000E-03 0. -1.
    9900012    2    1    2    0    0  0.97829758120E+00 -0.40527611316E+02  0.31178762456E+01  0.50528862068E+02  0.30000006741E+02 0.  0.
         12    1    1    2    0    0 -0.97829758120E+00  0.40527611316E+02 -0.31178762456E+01  0.40659137932E+02  0.00000000000E+00 0. -1.
         11    1    3    3    0    0 -0.72465603922E+00 -0.27277136586E+02 -0.10013406245E+02  0.29066056004E+02  0.51100000000E-03 0. -1.
        -11    1    3    3    0    0  0.18657748477E+01 -0.14752093214E+02  0.13291184683E+02  0.19943945460E+02  0.51100000000E-03 0.  1.
         12    1    3    3    0    0 -0.16282122732E+00  0.15016184840E+01 -0.15990219252E+00  0.15188606041E+01  0.00000000000E+00 0. -1.
</event>
<event>
 7    1  0.6046695E-013  0.5052883E+02  0.7816164E-02  0.1300439E+00
        -11   -1    0    0    0    0  0.00000000000E+00  0.00000000000E+00  0.45593999997E+02  0.45594000000E+02  0.51100000000E-03 0. -1.
         11   -1    0    0    0    0 -0.00000000000E+00 -0.00000000000E+00 -0.45593999997E+02  0.45594000000E+02  0.51100000000E-03 0.  1.
    9900012    2    1    2    0    0 -0.21934253797E+02 -0.18322045242E+02 -0.28919880368E+02  0.50528827455E+02  0.29999901533E+02 0.  0.
         12    1    1    2    0    0  0.21934253797E+02  0.18322045242E+02  0.28919880368E+02  0.40659172545E+02  0.00000000000E+00 0. -1.
         11    1    3    3    0    0 -0.73147570380E+01 -0.33371845768E+01 -0.28750763849E+00  0.80451931194E+01  0.51100000000E-03 0. -1.
        -11    1    3    3    0    0 -0.32125497041E+01 -0.17563005377E+02 -0.23981650756E+02  0.29898147212E+02  0.51100000000E-03 0.  1.
        -12    1    3    3    0    0 -0.11406947055E+02  0.25781447114E+01 -0.46507219741E+01  0.12585487124E+02  0.00000000000E+00 0.  1.
</event>
<event>
 7    1  0.6046695E-013  0.5052887E+02  0.7816164E-02  0.1300439E+00
        -11   -1    0    0    0    0  0.00000000000E+00  0.00000000000E+00  0.45593999997E+02  0.45594000000E+02  0.51100000000E-03 0.  1.
         11   -1    0    0    0    0 -0.00000000000E+00 -0.00000000000E+00 -0.45593999997E+02  0.45594000000E+02  0.51100000000E-03 0. -1.
    9900012    2    1    2    0    0  0.50081922712E+01  0.39792195992E+02 -0.66831266244E+01  0.50528867777E+02  0.30000024095E+02 0.  0.
         12    1    1    2    0    0 -0.50081922712E+01 -0.39792195992E+02  0.66831266244E+01  0.40659132223E+02  0.00000000000E+00 0. -1.
         11    1    3    3    0    0 -0.16424615087E+01 -0.31847044684E+01  0.21295509509E+01  0.41683341843E+01  0.51100000000E-03 0. -1.
        -11    1    3    3    0    0  0.62809262103E+01  0.38224983780E+02 -0.30143587753E+01  0.38854675113E+02  0.51100000000E-03 0.  1.
         12    1    3    3    0    0  0.36972756962E+00  0.47519166796E+01 -0.57983188000E+01  0.75058584793E+01  0.00000000000E+00 0. -1.
</event>
<event>
 7    1  0.6046695E-013  0.5052886E+02  0.7816164E-02  0.1300439E+00
        -11   -1    0    0    0    0  0.00000000000E+00  0.00000000000E+00  0.45593999997E+02  0.45594000000E+02  0.51100000000E-03 0.  1.
         11   -1    0    0    0    0 -0.00000000000E+00 -0.00000000000E+00 -0.45593999997E+02  0.45594000000E+02  0.51100000000E-03 0. -1.
    9900012    2    1    2    0    0  0.31723404179E+02 -0.12879903598E+02  0.21929427280E+02  0.50528855024E+02  0.29999985330E+02 0.  0.
         12    1    1    2    0    0 -0.31723404179E+02  0.12879903598E+02 -0.21929427280E+02  0.40659144976E+02  0.00000000000E+00 0. -1.
         11    1    3    3    0    0  0.16902599190E+02  0.12632789720E+01 -0.33890646967E+01  0.17285239163E+02  0.51100000000E-03 0. -1.
        -11    1    3    3    0    0  0.11426409665E+02 -0.65340256532E+01  0.16579297668E+02  0.21169068012E+02  0.51100000000E-03 0.  1.
        -12    1    3    3    0    0  0.33943953241E+01 -0.76091569164E+01  0.87391943087E+01  0.12074547849E+02  0.00000000000E+00 0.  1.
</event>
<event>
 7    1  0.6046695E-013  0.5052886E+02  0.7816164E-02  0.1300439E+00
        -11   -1    0    0    0    0  0.00000000000E+00  0.00000000000E+00  0.45593999997E+02  0.45594000000E+02  0.51100000000E-03 0.  1.
         11   -1    0    0    0    0 -0.00000000000E+00 -0.00000000000E+00 -0.45593999997E+02  0.45594000000E+02  0.51100000000E-03 0. -1.
    9900012    2    1    2    0    0 -0.17527021935E+02  0.18044611714E+02  0.31943089631E+02  0.50528862220E+02  0.30000007204E+02 0.  0.
         12    1    1    2    0    0  0.17527021935E+02 -0.18044611714E+02 -0.31943089631E+02  0.40659137780E+02  0.00000000000E+00 0. -1.
         11    1    3    3    0    0 -0.15123133176E+02  0.37615673214E+01  0.19882688194E+01  0.15710243758E+02  0.51100000000E-03 0. -1.
        -11    1    3    3    0    0 -0.17761304256E+01  0.15870806398E+02  0.26029277451E+02  0.30537852248E+02  0.51100000000E-03 0.  1.
         12    1    3    3    0    0 -0.62775833324E+00 -0.15877620050E+01  0.39255433603E+01  0.42807662145E+01  0.00000000000E+00 0. -1.
</event>
<event>
 7    1  0.6046695E-013  0.5052886E+02  0.7816164E-02  0.1300439E+00
        -11   -1    0    0    0    0  0.00000000000E+00  0.00000000000E+00  0.45593999997E+02  0.45594000000E+02  0.51100000000E-03 0. -1.
         11   -1    0    0    0    0 -0.00000000000E+00 -0.00000000000E+00 -0.45593999997E+02  0.45594000000E+02  0.51100000000E-03 0.  1.
    9900012    2    1    2    0    0 -0.12643874660E+02 -0.45550105885E+01 -0.38373821931E+02  0.50528857148E+02  0.29999991786E+02 0.  0.
         12    1    1    2    0    0  0.12643874660E+02  0.45550105885E+01  0.38373821931E+02  0.40659142852E+02  0.00000000000E+00 0. -1.
         11    1    3    3    0    0  0.46042844525E+01 -0.94478858909E+01 -0.55508256309E+01  0.11885859185E+02  0.51100000000E-03 0. -1.
        -11    1    3    3    0    0 -0.16198543582E+02  0.19408079000E+01 -0.30966409723E+02  0.35001115424E+02  0.51100000000E-03 0.  1.
         12    1    3    3    0    0 -0.10496155297E+01  0.29520674024E+01 -0.18565865773E+01  0.36418825390E+01  0.00000000000E+00 0. -1.
</event>
<event>
 7    1  0.6046695E-013  0.5052885E+02  0.7816164E-02  0.1300439E+00
        -11   -1    0    0    0    0  0.00000000000E+00  0.00000000000E+00  0.45593999997E+02  0.45594000000E+02  0.51100000000E-03 0.  1.
         11   -1    0    0    0    0 -0.00000000000E+00 -0.00000000000E+00 -0.45593999997E+02  0.45594000000E+02  0.51100000000E-03 0. -1.
    9900012    2    1    2    0    0 -0.20224573812E+02  0.19961521256E+02  0.29080418730E+02  0.50528850104E+02  0.29999970376E+02 0.  0.
         12    1    1    2    0    0  0.20224573812E+02 -0.19961521256E+02 -0.29080418730E+02  0.40659149896E+02  0.00000000000E+00 0. -1.
         11    1    3    3    0    0 -0.13991967596E+01 -0.14204378048E+01  0.10193041951E+01  0.22392803381E+01  0.51100000000E-03 0. -1.
        -11    1    3    3    0    0 -0.16524854253E+02  0.27868787386E+02  0.23679683579E+02  0.40130630859E+02  0.51100000000E-03 0.  1.
        -12    1    3    3    0    0 -0.23005227990E+01 -0.64868283248E+01  0.43814309564E+01  0.81589389071E+01  0.00000000000E+00 0.  1.
</event>
<event>
 7    1  0.6046695E-013  0.5052885E+02  0.7816164E-02  0.1300439E+00
        -11   -1    0    0    0    0  0.00000000000E+00  0.00000000000E+00  0.45593999997E+02  0.45594000000E+02  0.51100000000E-03 0. -1.
         11   -1    0    0    0    0 -0.00000000000E+00 -0.00000000000E+00 -0.45593999997E+02  0.45594000000E+02  0.51100000000E-03 0.  1.
    9900012    2    1    2    0    0 -0.68782363765E+01 -0.38071342043E+02 -0.12507157980E+02  0.50528853165E+02  0.29999979681E+02 0.  0.
         12    1    1    2    0    0  0.68782363765E+01  0.38071342043E+02  0.12507157980E+02  0.40659146835E+02  0.00000000000E+00 0. -1.
         11    1    3    3    0    0  0.32671834378E+01 -0.27335559046E+02 -0.18470024920E+02  0.33151909398E+02  0.51100000000E-03 0. -1.
        -11    1    3    3    0    0 -0.66154013448E+01 -0.27762107536E+01  0.71339340984E+00  0.72097025958E+01  0.51100000000E-03 0.  1.
         12    1    3    3    0    0 -0.35300184695E+01 -0.79595722437E+01  0.52494735295E+01  0.10167241171E+02  0.00000000000E+00 0. -1.
</event>
<event>
 7    1  0.6046695E-013  0.5052885E+02  0.7816164E-02  0.1300439E+00
        -11   -1    0    0    0    0  0.00000000000E+00  0.00000000000E+00  0.45593999997E+02  0.45594000000E+02  0.51100000000E-03 0.  1.
         11   -1    0    0    0    0 -0.00000000000E+00 -0.00000000000E+00 -0.45593999997E+02  0.45594000000E+02  0.51100000000E-03 0. -1.
    9900012    2    1    2    0    0 -0.26761645287E+01 -0.40471314488E+02 -0.28420760198E+01  0.50528849135E+02  0.29999967429E+02 0.  0.
         12    1    1    2    0    0  0.26761645287E+01  0.40471314488E+02  0.28420760198E+01  0.40659150865E+02  0.00000000000E+00 0. -1.
         11    1    3    3    0    0  0.43488851124E+01 -0.15853778689E+02 -0.12059065247E+02  0.20388137613E+02  0.51100000000E-03 0. -1.
        -11    1    3    3    0    0 -0.75336366868E+01 -0.10454876580E+02  0.94284675803E+01  0.15967345653E+02  0.51100000000E-03 0.  1.
         12    1    3    3    0    0  0.50858704565E+00 -0.14162659219E+02 -0.21147835341E+00  0.14173365868E+02  0.00000000000E+00 0. -1.
</event>
<event>
 7    1  0.6046695E-013  0.5052886E+02  0.7816164E-02  0.1300439E+00
        -11   -1    0    0    0    0  0.00000000000E+00  0.00000000000E+00  0.45593999997E+02  0.45594000000E+02  0.51100000000E-03 0. -1.
         11   -1    0    0    0    0 -0.00000000000E+00 -0.00000000000E+00 -0.45593999997E+02  0.45594000000E+02  0.51100000000E-03 0.  1.
    9900012    2    1    2    0    0  0.10420656535E+02  0.25275791010E+02 -0.30095011497E+02  0.50528863133E+02  0.30000009979E+02 0.  0.
         12    1    1    2    0    0 -0.10420656535E+02 -0.25275791010E+02  0.30095011497E+02  0.40659136867E+02  0.00000000000E+00 0. -1.
         11    1    3    3    0    0 -0.73374454969E+01  0.10018786715E+02 -0.41090689691E-01  0.12418368748E+02  0.51100000000E-03 0. -1.
        -11    1    3    3    0    0  0.79823385724E+01  0.73030815160E+01 -0.13262675947E+02  0.17115820233E+02  0.51100000000E-03 0.  1.
         12    1    3    3    0    0  0.97757634594E+01  0.79539227784E+01 -0.16791244861E+02  0.20994674152E+02  0.00000000000E+00 0. -1.
</event>
<event>
 7    1  0.6046695E-013  0.5052888E+02  0.7816164E-02  0.1300439E+00
        -11   -1    0    0    0    0  0.00000000000E+00  0.00000000000E+00  0.45593999997E+02  0.45594000000E+02  0.51100000000E-03 0.  1.
         11   -1    0    0    0    0 -0.00000000000E+00 -0.00000000000E+00 -0.45593999997E+02  0.45594000000E+02  0.51100000000E-03 0. -1.
    9900012    2    1    2    0    0  0.16779760360E+02 -0.25795304331E+02  0.26574532308E+02  0.50528882318E+02  0.30000068295E+02 0.  0.
         12    1    1    2    0    0 -0.16779760360E+02  0.25795304331E+02 -0.26574532308E+02  0.40659117682E+02  0.00000000000E+00 0. -1.
         11    1    3    3    0    0  0.80649370297E+01  0.48289940184E+01  0.30658204937E+01  0.98874490180E+01  0.51100000000E-03 0. -1.
        -11    1    3    3    0    0  0.54696615714E+01 -0.17339414335E+02  0.77177244276E+01  0.19751854541E+02  0.51100000000E-03 0.  1.
         12    1    3    3    0    0  0.32451617593E+01 -0.13284884014E+02  0.15790987387E+02  0.20889578760E+02  0.00000000000E+00 0. -1.
</event>
<event>
 7    1  0.6046695E-013  0.5052886E+02  0.7816164E-02  0.1300439E+00
        -11   -1    0    0    0    0  0.00000000000E+00  0.00000000000E+00  0.45593999997E+02  0.45594000000E+02  0.51100000000E-03 0.  1.
         11   -1    0    0    0    0 -0.00000000000E+00 -0.00000000000E+00 -0.45593999997E+02  0.45594000000E+02  0.51100000000E-03 0. -1.
    9900012    2    1    2    0    0 -0.33357354458E+02  0.13472344990E+01  0.23208572743E+02  0.50528856059E+02  0.29999988478E+02 0.  0.
         12    1    1    2    0    0  0.33357354458E+02 -0.13472344990E+01 -0.23208572743E+02  0.40659143941E+02  0.00000000000E+00 0. -1.
         11    1    3    3    0    0 -0.31007731879E+01 -0.27535499393E+01 -0.21326642551E+01  0.46631629520E+01  0.51100000000E-03 0. -1.
        -11    1    3    3    0    0 -0.14717193406E+02  0.13549556038E+02  0.12249971491E+02  0.23457366697E+02  0.51100000000E-03 0.  1.
        -12    1    3    3    0    0 -0.15539387864E+02 -0.94487715998E+01  0.13091265507E+02  0.22408326410E+02  0.00000000000E+00 0.  1.
</event>
<event>
 7    1  0.6046695E-013  0.5052886E+02  0.7816164E-02  0.1300439E+00
        -11   -1    0    0    0    0  0.00000000000E+00  0.00000000000E+00  0.45593999997E+02  0.45594000000E+02  0.51100000000E-03 0. -1.
         11   -1    0    0    0    0 -0.00000000000E+00 -0.00000000000E+00 -0.45593999997E+02  0.45594000000E+02  0.51100000000E-03 0.  1.
    9900012    2    1    2    0    0 -0.24300274082E+02 -0.29770393838E+02 -0.13281053027E+02  0.50528855405E+02  0.29999986488E+02 0.  0.
         12    1    1    2    0    0  0.24300274082E+02  0.29770393838E+02  0.13281053027E+02  0.40659144595E+02  0.00000000000E+00 0. -1.
         11    1    3    3    0    0 -0.54205199556E+00  0.16284069462E+01 -0.92469641994E+00  0.19495110357E+01  0.51100000000E-03 0. -1.
        -11    1    3    3    0    0 -0.26465244894E+02 -0.32743862290E+02 -0.14867191593E+02  0.44649782655E+02  0.51100000000E-03 0.  1.
        -12    1    3    3    0    0  0.27070228076E+01  0.13450615064E+01  0.25108349861E+01  0.39295617140E+01  0.00000000000E+00 0.  1.
</event>
<event>
 7    1  0.6046695E-013  0.5052886E+02  0.7816164E-02  0.1300439E+00
        -11   -1    0    0    0    0  0.00000000000E+00  0.00000000000E+00  0.45593999997E+02  0.45594000000E+02  0.51100000000E-03 0.  1.
         11   -1    0    0    0    0 -0.00000000000E+00 -0.00000000000E+00 -0.45593999997E+02  0.45594000000E+02  0.51100000000E-03 0. -1.
    9900012    2    1    2    0    0 -0.14256698093E+02 -0.38015184214E+02  0.21812964269E+01  0.50528859263E+02  0.29999998216E+02 0.  0.
         12    1    1    2    0    0  0.14256698093E+02  0.38015184214E+02 -0.21812964269E+01  0.40659140737E+02  0.00000000000E+00 0. -1.
         11    1    3    3    0    0  0.44985788266E+01 -0.13132377550E+02 -0.75617482475E+01  0.15807485202E+02  0.51100000000E-03 0. -1.
        -11    1    3    3    0    0 -0.17864410743E+02 -0.25529044792E+02  0.72426133532E+01  0.31989447442E+02  0.51100000000E-03 0.  1.
        -12    1    3    3    0    0 -0.89086617726E+00  0.64623812809E+00  0.25004313213E+01  0.27319266199E+01  0.00000000000E+00 0.  1.
</event>
<event>
 7    1  0.6046695E-013  0.5052886E+02  0.7816164E-02  0.1300439E+00
        -11   -1    0    0    0    0  0.00000000000E+00  0.00000000000E+00  0.45593999997E+02  0.45594000000E+02  0.51100000000E-03 0. -1.
         11   -1    0    0    0    0 -0.00000000000E+00 -0.00000000000E+00 -0.45593999997E+02  0.45594000000E+02  0.51100000000E-03 0.  1.
    9900012    2    1    2    0    0 -0.34501845905E+02 -0.16511476730E+02  0.13789821119E+02  0.50528863251E+02  0.30000010338E+02 0.  0.
         12    1    1    2    0    0  0.34501845905E+02  0.16511476730E+02 -0.13789821119E+02  0.40659136749E+02  0.00000000000E+00 0. -1.
         11    1    3    3    0    0 -0.21213596260E+01  0.48542450812E+01  0.14900096771E+01  0.55030892297E+01  0.51100000000E-03 0. -1.
        -11    1    3    3    0    0 -0.26853850620E+02 -0.24936050090E+02  0.11440120809E+02  0.38390262458E+02  0.51100000000E-03 0.  1.
        -12    1    3    3    0    0 -0.55266356586E+01  0.35703282786E+01  0.85969063376E+00  0.66355115632E+01  0.00000000000E+00 0.  1.
</event>
<event>
 7    1  0.6046695E-013  0.5052885E+02  0.7816164E-02  0.1300439E+00
        -11   -1    0    0    0    0  0.00000000000E+00  0.00000000000E+00  0.45593999997E+02  0.45594000000E+02  0.51100000000E-03 0.  1.
         11   -1    0    0    0    0 -0.00000000000E+00 -0.00000000000E+00 -0.45593999997E+02  0.45594000000E+02  0.51100000000E-03 0. -1.
    9900012    2    1    2    0    0 -0.27791750477E+02 -0.29539492701E+02 -0.28640971490E+01  0.50528854951E+02  0.29999985110E+02 0.  0.
         12    1    1    2    0    0  0.27791750477E+02  0.29539492701E+02  0.28640971490E+01  0.40659145049E+02  0.00000000000E+00 0. -1.
         11    1    3    3    0    0 -0.55041217450E+01 -0.14287292076E+02  0.58684010369E+01  0.16396957097E+02  0.51100000000E-03 0. -1.
        -11    1    3    3    0    0 -0.18719627704E+01 -0.53580715277E+01 -0.99037963075E+01  0.11414830558E+02  0.51100000000E-03 0.  1.
        -12    1    3    3    0    0 -0.20415665962E+02 -0.98941290970E+01  0.11712981216E+01  0.22717067296E+02  0.00000000000E+00 0.  1.
</event>
<event>
 7    1  0.6046695E-013  0.5052889E+02  0.7816164E-02  0.1300439E+00
        -11   -1    0    0    0    0  0.00000000000E+00  0.00000000000E+00  0.45593999997E+02  0.45594000000E+02  0.51100000000E-03 0.  1.
         11   -1    0    0    0    0 -0.00000000000E+00 -0.00000000000E+00 -0.45593999997E+02  0.45594000000E+02  0.51100000000E-03 0. -1.
    9900012    2    1    2    0    0  0.29909335173E+02 -0.51349459913E+01  0.27059700087E+02  0.50528888234E+02  0.30000086275E+02 0.  0.
         12    1    1    2    0    0 -0.29909335173E+02  0.51349459913E+01 -0.27059700087E+02  0.40659111766E+02  0.00000000000E+00 0. -1.
         11    1    3    3    0    0  0.52702445285E+01 -0.67614113454E+01 -0.41743246152E+01  0.95350483494E+01  0.51100000000E-03 0. -1.
        -11    1    3    3    0    0  0.21369145664E+02  0.48866189766E+01  0.26263115219E+02  0.34209218826E+02  0.51100000000E-03 0.  1.
        -12    1    3    3    0    0  0.32699449812E+01 -0.32601536225E+01  0.49709094831E+01  0.67846210588E+01  0.00000000000E+00 0.  1.
</event>
<event>
 7    1  0.6046695E-013  0.5052887E+02  0.7816164E-02  0.1300439E+00
        -11   -1    0    0    0    0  0.00000000000E+00  0.00000000000E+00  0.45593999997E+02  0.45594000000E+02  0.51100000000E-03 0.  1.
         11   -1    0    0    0    0 -0.00000000000E+00 -0.00000000000E+00 -0.45593999997E+02  0.45594000000E+02  0.51100000000E-03 0. -1.
    9900012    2    1    2    0    0 -0.31361812642E+01  0.22253325965E+02  0.33883899951E+02  0.50528870333E+02  0.30000031863E+02 0.  0.
         12    1    1    2    0    0  0.31361812642E+01 -0.22253325965E+02 -0.33883899951E+02  0.40659129667E+02  0.00000000000E+00 0. -1.
         11    1    3    3    0    0 -0.12876279382E+02  0.21192591002E+02  0.18595069777E+02  0.30995178728E+02  0.51100000000E-03 0. -1.
        -11    1    3    3    0    0  0.31586411645E+01 -0.43999587986E+00  0.11191715373E+02  0.11637229208E+02  0.51100000000E-03 0.  1.
         12    1    3    3    0    0  0.65814569538E+01  0.15007308428E+01  0.40971148010E+01  0.78964623972E+01  0.00000000000E+00 0. -1.
</event>
<event>
 7    1  0.6046695E-013  0.5052886E+02  0.7816164E-02  0.1300439E+00
        -11   -1    0    0    0    0  0.00000000000E+00  0.00000000000E+00  0.45593999997E+02  0.45594000000E+02  0.51100000000E-03 0.  1.
         11   -1    0    0    0    0 -0.00000000000E+00 -0.00000000000E+00 -0.45593999997E+02  0.45594000000E+02  0.51100000000E-03 0. -1.
    9900012    2    1    2    0    0  0.35311683326E+02 -0.13703003429E+02  0.14781005491E+02  0.50528863197E+02  0.30000010172E+02 0.  0.
         12    1    1    2    0    0 -0.35311683326E+02  0.13703003429E+02 -0.14781005491E+02  0.40659136803E+02  0.00000000000E+00 0. -1.
         11    1    3    3    0    0 -0.41779560248E+01 -0.57387402373E+00  0.44945993120E+01  0.61632841227E+01  0.51100000000E-03 0. -1.
        -11    1    3    3    0    0  0.11082213257E+02  0.10796993413E+01  0.48318597678E+01  0.12137877509E+02  0.51100000000E-03 0.  1.
         12    1    3    3    0    0  0.28407426094E+02 -0.14208828747E+02  0.54545464115E+01  0.32227701565E+02  0.00000000000E+00 0. -1.
</event>
<event>
 7    1  0.6046695E-013  0.5052884E+02  0.7816164E-02  0.1300439E+00
        -11   -1    0    0    0    0  0.00000000000E+00  0.00000000000E+00  0.45593999997E+02  0.45594000000E+02  0.51100000000E-03 0.  1.
         11   -1    0    0    0    0 -0.00000000000E+00 -0.00000000000E+00 -0.45593999997E+02  0.45594000000E+02  0.51100000000E-03 0. -1.
    9900012    2    1    2    0    0  0.24340310034E+02 -0.54753021444E+01  0.32105106193E+02  0.50528837813E+02  0.29999933015E+02 0.  0.
         12    1    1    2    0    0 -0.24340310034E+02  0.54753021444E+01 -0.32105106193E+02  0.40659162187E+02  0.00000000000E+00 0. -1.
         11    1    3    3    0    0  0.53687678704E+01  0.49493296929E+01 -0.53708081962E+00  0.73217476686E+01  0.51100000000E-03 0. -1.
        -11    1    3    3    0    0  0.57022465317E+01 -0.75680499426E+01  0.26807324991E+02  0.28432792140E+02  0.51100000000E-03 0.  1.
        -12    1    3    3    0    0  0.13269295632E+02 -0.28565818947E+01  0.58348620209E+01  0.14774298004E+02  0.00000000000E+00 0.  1.
</event>
<event>
 7    1  0.6046695E-013  0.5052885E+02  0.7816164E-02  0.1300439E+00
        -11   -1    0    0    0    0  0.00000000000E+00  0.00000000000E+00  0.45593999997E+02  0.45594000000E+02  0.51100000000E-03 0. -1.
         11   -1    0    0    0    0 -0.00000000000E+00 -0.00000000000E+00 -0.45593999997E+02  0.45594000000E+02  0.51100000000E-03 0.  1.
    9900012    2    1    2    0    0 -0.58965594892E+01 -0.13361488769E+02 -0.37945583666E+02  0.50528854465E+02  0.29999983631E+02 0.  0.
         12    1    1    2    0    0  0.58965594892E+01  0.13361488769E+02  0.37945583666E+02  0.40659145535E+02  0.00000000000E+00 0. -1.
         11    1    3    3    0    0  0.14148795964E+00 -0.12888898003E+02 -0.13864535335E+02  0.18930637889E+02  0.51100000000E-03 0. -1.
        -11    1    3    3    0    0 -0.72000405045E+00  0.84746677990E+01 -0.17001740592E+02  0.19010459846E+02  0.51100000000E-03 0.  1.
         12    1    3    3    0    0 -0.53180433984E+01 -0.89472585655E+01 -0.70793077387E+01  0.12587756730E+02  0.00000000000E+00 0. -1.
</event>
<event>
 7    1  0.6046695E-013  0.5052890E+02  0.7816164E-02  0.1300439E+00
        -11   -1    0    0    0    0  0.00000000000E+00  0.00000000000E+00  0.45593999997E+02  0.45594000000E+02  0.51100000000E-03 0.  1.
         11   -1    0    0    0    0 -0.00000000000E+00 -0.00000000000E+00 -0.45593999997E+02  0.45594000000E+02  0.51100000000E-03 0. -1.
    9900012    2    1    2    0    0  0.36700000024E+02  0.17372744375E+02  0.21118462285E+01  0.50528903313E+02  0.30000132111E+02 0.  0.
         12    1    1    2    0    0 -0.36700000024E+02 -0.17372744375E+02 -0.21118462285E+01  0.40659096687E+02  0.00000000000E+00 0. -1.
         11    1    3    3    0    0  0.19214303607E+02  0.10568751853E+02  0.21681831961E+01  0.22036083987E+02  0.51100000000E-03 0. -1.
        -11    1    3    3    0    0  0.45337940854E+01 -0.75591062618E+01  0.20148600334E+01  0.90418492302E+01  0.51100000000E-03 0.  1.
        -12    1    3    3    0    0  0.12951902331E+02  0.14363098784E+02 -0.20711970010E+01  0.19450970096E+02  0.00000000000E+00 0.  1.
</event>
<event>
 7    1  0.6046695E-013  0.5052886E+02  0.7816164E-02  0.1300439E+00
        -11   -1    0    0    0    0  0.00000000000E+00  0.00000000000E+00  0.45593999997E+02  0.45594000000E+02  0.51100000000E-03 0. -1.
         11   -1    0    0    0    0 -0.00000000000E+00 -0.00000000000E+00 -0.45593999997E+02  0.45594000000E+02  0.51100000000E-03 0.  1.
    9900012    2    1    2    0    0  0.26372053868E+02 -0.26864890373E+02 -0.15360918191E+02  0.50528863663E+02  0.30000011591E+02 0.  0.
         12    1    1    2    0    0 -0.26372053868E+02  0.26864890373E+02  0.15360918191E+02  0.40659136337E+02  0.00000000000E+00 0. -1.
         11    1    3    3    0    0  0.10921509128E+02 -0.19096896201E+02  0.24395457630E+01  0.22134186001E+02  0.51100000000E-03 0. -1.
        -11    1    3    3    0    0  0.86606709247E+01  0.31806583191E+01 -0.79100855688E+01  0.12152911675E+02  0.51100000000E-03 0.  1.
        -12    1    3    3    0    0  0.67898738159E+01 -0.10948652491E+02 -0.98903783848E+01  0.16241765988E+02  0.00000000000E+00 0.  1.
</event>
<event>
 7    1  0.6046695E-013  0.5052886E+02  0.7816164E-02  0.1300439E+00
        -11   -1    0    0    0    0  0.00000000000E+00  0.00000000000E+00  0.45593999997E+02  0.45594000000E+02  0.51100000000E-03 0.  1.
         11   -1    0    0    0    0 -0.00000000000E+00 -0.00000000000E+00 -0.45593999997E+02  0.45594000000E+02  0.51100000000E-03 0. -1.
    9900012    2    1    2    0    0  0.33298874152E+02 -0.83307141776E+00  0.23316449716E+02  0.50528857668E+02  0.29999993368E+02 0.  0.
         12    1    1    2    0    0 -0.33298874152E+02  0.83307141776E+00 -0.23316449716E+02  0.40659142332E+02  0.00000000000E+00 0. -1.
         11    1    3    3    0    0  0.21173402800E+02 -0.13833133183E+02  0.87201761490E+01  0.26752757468E+02  0.51100000000E-03 0. -1.
        -11    1    3    3    0    0  0.28130914461E+01  0.23348280211E+01  0.65226646274E+01  0.74773029546E+01  0.51100000000E-03 0.  1.
         12    1    3    3    0    0  0.93123799062E+01  0.10665233745E+02  0.80736089400E+01  0.16298797246E+02  0.00000000000E+00 0. -1.
</event>
<event>
 7    1  0.6046695E-013  0.5052886E+02  0.7816164E-02  0.1300439E+00
        -11   -1    0    0    0    0  0.00000000000E+00  0.00000000000E+00  0.45593999997E+02  0.45594000000E+02  0.51100000000E-03 0.  1.
         11   -1    0    0    0    0 -0.00000000000E+00 -0.00000000000E+00 -0.45593999997E+02  0.45594000000E+02  0.51100000000E-03 0. -1.
    9900012    2    1    2    0    0  0.69038404283E+01  0.36609654210E+02  0.16286069670E+02  0.50528857617E+02  0.29999993212E+02 0.  0.
         12    1    1    2    0    0 -0.69038404283E+01 -0.36609654210E+02 -0.16286069670E+02  0.40659142383E+02  0.00000000000E+00 0. -1.
         11    1    3    3    0    0  0.43380553659E+01  0.33291581254E+02  0.26332789965E+01  0.33676137921E+02  0.51100000000E-03 0.  1.
        -11    1    3    3    0    0  0.40060572110E+01 -0.18718485347E+01  0.71769496413E+01  0.84297638003E+01  0.51100000000E-03 0. -1.
        -12    1    3    3    0    0 -0.14402721486E+01  0.51899214906E+01  0.64758410325E+01  0.84229558955E+01  0.00000000000E+00 0.  1.
</event>
<event>
 7    1  0.6046695E-013  0.5052886E+02  0.7816164E-02  0.1300439E+00
        -11   -1    0    0    0    0  0.00000000000E+00  0.00000000000E+00  0.45593999997E+02  0.45594000000E+02  0.51100000000E-03 0.  1.
         11   -1    0    0    0    0 -0.00000000000E+00 -0.00000000000E+00 -0.45593999997E+02  0.45594000000E+02  0.51100000000E-03 0. -1.
    9900012    2    1    2    0    0  0.17440472077E+02  0.17524640596E+02  0.32278200801E+02  0.50528863987E+02  0.30000012576E+02 0.  0.
         12    1    1    2    0    0 -0.17440472077E+02 -0.17524640596E+02 -0.32278200801E+02  0.40659136013E+02  0.00000000000E+00 0. -1.
         11    1    3    3    0    0  0.62712056367E+01  0.11339759728E+02 -0.61066699000E+00  0.12972705395E+02  0.51100000000E-03 0.  1.
        -11    1    3    3    0    0  0.52166340608E+01 -0.38115517239E+01  0.12914399987E+02  0.14440322876E+02  0.51100000000E-03 0. -1.
        -12    1    3    3    0    0  0.59526323795E+01  0.99964325923E+01  0.19974467805E+02  0.23115835717E+02  0.00000000000E+00 0.  1.
</event>
<event>
 7    1  0.6046695E-013  0.5052872E+02  0.7816164E-02  0.1300439E+00
        -11   -1    0    0    0    0  0.00000000000E+00  0.00000000000E+00  0.45593999997E+02  0.45594000000E+02  0.51100000000E-03 0.  1.
         11   -1    0    0    0    0 -0.00000000000E+00 -0.00000000000E+00 -0.45593999997E+02  0.45594000000E+02  0.51100000000E-03 0. -1.
    9900012    2    1    2    0    0 -0.19433117093E+02 -0.77899401360E+01  0.34854666273E+02  0.50528721007E+02  0.29999577970E+02 0.  0.
         12    1    1    2    0    0  0.19433117093E+02  0.77899401360E+01 -0.34854666273E+02  0.40659278993E+02  0.00000000000E+00 0. -1.
         11    1    3    3    0    0 -0.22926197415E+02  0.34500937679E+00  0.33399014145E+02  0.40512019272E+02  0.51100000000E-03 0. -1.
        -11    1    3    3    0    0  0.20460972042E+01 -0.28554302862E+01 -0.14720096234E+01  0.38087804454E+01  0.51100000000E-03 0.  1.
         12    1    3    3    0    0  0.14469831182E+01 -0.52795192265E+01  0.29276617513E+01  0.62079212896E+01  0.00000000000E+00 0. -1.
</event>
<event>
 7    1  0.6046695E-013  0.5052884E+02  0.7816164E-02  0.1300439E+00
        -11   -1    0    0    0    0  0.00000000000E+00  0.00000000000E+00  0.45593999997E+02  0.45594000000E+02  0.51100000000E-03 0.  1.
         11   -1    0    0    0    0 -0.00000000000E+00 -0.00000000000E+00 -0.45593999997E+02  0.45594000000E+02  0.51100000000E-03 0. -1.
    9900012    2    1    2    0    0 -0.25354287421E+02  0.34380934043E+00  0.31783792818E+02  0.50528836440E+02  0.29999928844E+02 0.  0.
         12    1    1    2    0    0  0.25354287421E+02 -0.34380934043E+00 -0.31783792818E+02  0.40659163560E+02  0.00000000000E+00 0. -1.
         11    1    3    3    0    0 -0.73339715192E+01  0.12516750722E+02  0.71827663273E+01  0.16187906574E+02  0.51100000000E-03 0. -1.
        -11    1    3    3    0    0 -0.16673466401E+02 -0.89155011270E+01  0.24319666908E+02  0.30804818470E+02  0.51100000000E-03 0.  1.
         12    1    3    3    0    0 -0.13468495006E+01 -0.32574402548E+01  0.28135958228E+00  0.35361113961E+01  0.00000000000E+00 0. -1.
</event>
<event>
 7    1  0.6046695E-013  0.5052886E+02  0.7816164E-02  0.1300439E+00
        -11   -1    0    0    0    0  0.00000000000E+00  0.00000000000E+00  0.45593999997E+02  0.45594000000E+02  0.51100000000E-03 0. -1.
         11   -1    0    0    0    0 -0.00000000000E+00 -0.00000000000E+00 -0.45593999997E+02  0.45594000000E+02  0.51100000000E-03 0.  1.
    9900012    2    1    2    0    0  0.34250946270E+02 -0.21793815134E+02  0.22511444835E+01  0.50528863880E+02  0.30000012250E+02 0.  0.
         12    1    1    2    0    0 -0.34250946270E+02  0.21793815134E+02 -0.22511444835E+01  0.40659136120E+02  0.00000000000E+00 0. -1.
         11    1    3    3    0    0  0.97223041955E+01 -0.22360751309E+02  0.52215998510E+01  0.24935747497E+02  0.51100000000E-03 0. -1.
        -11    1    3    3    0    0  0.22917732617E+02  0.23185431399E+01 -0.28496592531E+01  0.23210313844E+02  0.51100000000E-03 0.  1.
        -12    1    3    3    0    0  0.16109094579E+01 -0.17516069654E+01 -0.12079611442E+00  0.23828025399E+01  0.00000000000E+00 0.  1.
</event>
<event>
 7    1  0.6046695E-013  0.5052888E+02  0.7816164E-02  0.1300439E+00
        -11   -1    0    0    0    0  0.00000000000E+00  0.00000000000E+00  0.45593999997E+02  0.45594000000E+02  0.51100000000E-03 0.  1.
         11   -1    0    0    0    0 -0.00000000000E+00 -0.00000000000E+00 -0.45593999997E+02  0.45594000000E+02  0.51100000000E-03 0. -1.
    9900012    2    1    2    0    0 -0.22025299592E+02 -0.25797138798E+02  0.22417798157E+02  0.50528882124E+02  0.30000067704E+02 0.  0.
         12    1    1    2    0    0  0.22025299592E+02  0.25797138798E+02 -0.22417798157E+02  0.40659117876E+02  0.00000000000E+00 0. -1.
         11    1    3    3    0    0 -0.76988657919E+01 -0.10377879676E+01  0.18395988218E+02  0.19969024040E+02  0.51100000000E-03 0. -1.
        -11    1    3    3    0    0 -0.10357442776E+02 -0.21003148249E+02  0.68599132176E+01  0.24402197992E+02  0.51100000000E-03 0.  1.
         12    1    3    3    0    0 -0.39689910235E+01 -0.37562025811E+01 -0.28381032790E+01  0.61576600911E+01  0.00000000000E+00 0. -1.
</event>
<event>
 7    1  0.6196230E-013  0.5052884E+02  0.7816164E-02  0.1300439E+00
        -11   -1    0    0    0    0  0.00000000000E+00  0.00000000000E+00  0.45593999997E+02  0.45594000000E+02  0.51100000000E-03 0. -1.
         11   -1    0    0    0    0 -0.00000000000E+00 -0.00000000000E+00 -0.45593999997E+02  0.45594000000E+02  0.51100000000E-03 0.  1.
    9900012    2    1    2    0    0 -0.91750395712E+01  0.27433134456E+02 -0.28572868491E+02  0.50528843208E+02  0.29999949415E+02 0.  0.
         12    1    1    2    0    0  0.91750395712E+01 -0.27433134456E+02  0.28572868491E+02  0.40659156792E+02  0.00000000000E+00 0. -1.
         11    1    3    3    0    0 -0.11818909410E+02  0.72871511265E+01 -0.35917865361E+01  0.14341900918E+02  0.51100000000E-03 0. -1.
        -11    1    3    3    0    0  0.17977245541E+01  0.20804115519E+02 -0.26860996420E+02  0.34022877083E+02  0.51100000000E-03 0.  1.
         12    1    3    3    0    0  0.84614528436E+00 -0.65813218936E+00  0.18799144651E+01  0.21640652063E+01  0.00000000000E+00 0. -1.
</event>
<event>
 7    1  0.6046695E-013  0.5052886E+02  0.7816164E-02  0.1300439E+00
        -11   -1    0    0    0    0  0.00000000000E+00  0.00000000000E+00  0.45593999997E+02  0.45594000000E+02  0.51100000000E-03 0. -1.
         11   -1    0    0    0    0 -0.00000000000E+00 -0.00000000000E+00 -0.45593999997E+02  0.45594000000E+02  0.51100000000E-03 0.  1.
    9900012    2    1    2    0    0  0.65548571287E+01 -0.39105455652E+02  0.89979324141E+01  0.50528860788E+02  0.30000002851E+02 0.  0.
         12    1    1    2    0    0 -0.65548571287E+01  0.39105455652E+02 -0.89979324141E+01  0.40659139212E+02  0.00000000000E+00 0. -1.
         11    1    3    3    0    0  0.89491729968E+01 -0.96044231738E+01  0.13837695298E+02  0.19073920762E+02  0.51100000000E-03 0. -1.
        -11    1    3    3    0    0 -0.58686568119E+01 -0.13896449013E+02 -0.27248983029E+01  0.15328975796E+02  0.51100000000E-03 0.  1.
        -12    1    3    3    0    0  0.34743409437E+01 -0.15604583465E+02 -0.21148645810E+01  0.16125964229E+02  0.00000000000E+00 0.  1.
</event>
<event>
 7    1  0.6046695E-013  0.5052885E+02  0.7816164E-02  0.1300439E+00
        -11   -1    0    0    0    0  0.00000000000E+00  0.00000000000E+00  0.45593999997E+02  0.45594000000E+02  0.51100000000E-03 0.  1.
         11   -1    0    0    0    0 -0.00000000000E+00 -0.00000000000E+00 -0.45593999997E+02  0.45594000000E+02  0.51100000000E-03 0. -1.
    9900012    2    1    2    0    0 -0.11316515423E+02  0.36614811404E+02  0.13581556039E+02  0.50528848509E+02  0.29999965529E+02 0.  0.
         12    1    1    2    0    0  0.11316515423E+02 -0.36614811404E+02 -0.13581556039E+02  0.40659151491E+02  0.00000000000E+00 0. -1.
         11    1    3    3    0    0  0.25123390849E+00  0.42883490454E+01 -0.62037026186E+01  0.75457923675E+01  0.51100000000E-03 0. -1.
        -11    1    3    3    0    0 -0.13975163096E+02  0.17696813712E+02  0.76127212031E+01  0.23799914359E+02  0.51100000000E-03 0.  1.
        -12    1    3    3    0    0  0.24074137647E+01  0.14629648648E+02  0.12172537454E+02  0.19183141783E+02  0.00000000000E+00 0.  1.
</event>
<event>
 7    1  0.6046695E-013  0.5052886E+02  0.7816164E-02  0.1300439E+00
        -11   -1    0    0    0    0  0.00000000000E+00  0.00000000000E+00  0.45593999997E+02  0.45594000000E+02  0.51100000000E-03 0. -1.
         11   -1    0    0    0    0 -0.00000000000E+00 -0.00000000000E+00 -0.45593999997E+02  0.45594000000E+02  0.51100000000E-03 0.  1.
    9900012    2    1    2    0    0 -0.25790926394E+02  0.30719095253E+02 -0.66581277920E+01  0.50528863719E+02  0.30000011760E+02 0.  0.
         12    1    1    2    0    0  0.25790926394E+02 -0.30719095253E+02  0.66581277920E+01  0.40659136281E+02  0.00000000000E+00 0. -1.
         11    1    3    3    0    0 -0.25410250440E+02  0.27810699035E+02 -0.12616444788E+02  0.39727704283E+02  0.51100000000E-03 0. -1.
        -11    1    3    3    0    0  0.77712035822E+00  0.17225771497E+01 -0.19532986642E+01  0.27178233976E+01  0.51100000000E-03 0.  1.
         12    1    3    3    0    0 -0.11577963116E+01  0.11858190691E+01  0.79116156600E+01  0.80833360387E+01  0.00000000000E+00 0. -1.
</event>
<event>
 7    1  0.6046695E-013  0.5052886E+02  0.7816164E-02  0.1300439E+00
        -11   -1    0    0    0    0  0.00000000000E+00  0.00000000000E+00  0.45593999997E+02  0.45594000000E+02  0.51100000000E-03 0.  1.
         11   -1    0    0    0    0 -0.00000000000E+00 -0.00000000000E+00 -0.45593999997E+02  0.45594000000E+02  0.51100000000E-03 0. -1.
    9900012    2    1    2    0    0 -0.17807080778E+02 -0.11847378876E+02  0.34579081237E+02  0.50528863619E+02  0.30000011456E+02 0.  0.
         12    1    1    2    0    0  0.17807080778E+02  0.11847378876E+02 -0.34579081237E+02  0.40659136381E+02  0.00000000000E+00 0. -1.
         11    1    3    3    0    0 -0.73623503759E+01 -0.49211115338E+01  0.27539894017E+01  0.92739419705E+01  0.51100000000E-03 0.  1.
        -11    1    3    3    0    0  0.16171450929E+01 -0.80824958132E+01  0.26969674295E+02  0.28201156513E+02  0.51100000000E-03 0. -1.
        -12    1    3    3    0    0 -0.12061875495E+02  0.11562284712E+01  0.48554175405E+01  0.13053765136E+02  0.00000000000E+00 0.  1.
</event>
<event>
 7    1  0.6046695E-013  0.5052887E+02  0.7816164E-02  0.1300439E+00
        -11   -1    0    0    0    0  0.00000000000E+00  0.00000000000E+00  0.45593999997E+02  0.45594000000E+02  0.51100000000E-03 0.  1.
         11   -1    0    0    0    0 -0.00000000000E+00 -0.00000000000E+00 -0.45593999997E+02  0.45594000000E+02  0.51100000000E-03 0. -1.
    9900012    2    1    2    0    0  0.14038244702E+01  0.70574797952E+01  0.40017327126E+02  0.50528865546E+02  0.30000017314E+02 0.  0.
         12    1    1    2    0    0 -0.14038244702E+01 -0.70574797952E+01 -0.40017327126E+02  0.40659134454E+02  0.00000000000E+00 0. -1.
         11    1    3    3    0    0  0.60479660656E+01  0.43815972707E+01  0.21563527890E+01  0.77734256146E+01  0.51100000000E-03 0. -1.
        -11    1    3    3    0    0 -0.38576142831E+01 -0.67938710774E+01  0.27965404544E+02  0.29036214005E+02  0.51100000000E-03 0.  1.
        -12    1    3    3    0    0 -0.78652731226E+00  0.94697536018E+01  0.98955697929E+01  0.13719225926E+02  0.00000000000E+00 0.  1.
</event>
<event>
 7    1  0.6046695E-013  0.5052885E+02  0.7816164E-02  0.1300439E+00
        -11   -1    0    0    0    0  0.00000000000E+00  0.00000000000E+00  0.45593999997E+02  0.45594000000E+02  0.51100000000E-03 0.  1.
         11   -1    0    0    0    0 -0.00000000000E+00 -0.00000000000E+00 -0.45593999997E+02  0.45594000000E+02  0.51100000000E-03 0. -1.
    9900012    2    1    2    0    0 -0.11231024035E+02 -0.49828667552E+01  0.38758247069E+02  0.50528848781E+02  0.29999966356E+02 0.  0.
         12    1    1    2    0    0  0.11231024035E+02  0.49828667552E+01 -0.38758247069E+02  0.40659151219E+02  0.00000000000E+00 0. -1.
         11    1    3    3    0    0  0.57475599179E+01  0.70788332277E+01  0.21490340347E+02  0.23344786428E+02  0.51100000000E-03 0. -1.
        -11    1    3    3    0    0 -0.12230217708E+02 -0.83732798589E+01  0.13751677308E+02  0.20218770235E+02  0.51100000000E-03 0.  1.
         12    1    3    3    0    0 -0.47483662450E+01 -0.36884201240E+01  0.35162294141E+01  0.69652921188E+01  0.00000000000E+00 0. -1.
</event>
<event>
 7    1  0.6046695E-013  0.5052886E+02  0.7816164E-02  0.1300439E+00
        -11   -1    0    0    0    0  0.00000000000E+00  0.00000000000E+00  0.45593999997E+02  0.45594000000E+02  0.51100000000E-03 0.  1.
         11   -1    0    0    0    0 -0.00000000000E+00 -0.00000000000E+00 -0.45593999997E+02  0.45594000000E+02  0.51100000000E-03 0. -1.
    9900012    2    1    2    0    0 -0.19052893427E+02  0.30639074070E+02  0.18745658955E+02  0.50528864034E+02  0.30000012719E+02 0.  0.
         12    1    1    2    0    0  0.19052893427E+02 -0.30639074070E+02 -0.18745658955E+02  0.40659135966E+02  0.00000000000E+00 0. -1.
         11    1    3    3    0    0  0.42693304796E+01  0.72307933132E+00 -0.23892401157E-02  0.43301307640E+01  0.51100000000E-03 0. -1.
        -11    1    3    3    0    0 -0.15853263455E+02  0.19683053486E+02  0.21561629306E+02  0.33221264505E+02  0.51100000000E-03 0.  1.
        -12    1    3    3    0    0 -0.74689604523E+01  0.10232941252E+02 -0.28135811101E+01  0.12977468766E+02  0.00000000000E+00 0.  1.
</event>
<event>
 7    1  0.6046695E-013  0.5052887E+02  0.7816164E-02  0.1300439E+00
        -11   -1    0    0    0    0  0.00000000000E+00  0.00000000000E+00  0.45593999997E+02  0.45594000000E+02  0.51100000000E-03 0. -1.
         11   -1    0    0    0    0 -0.00000000000E+00 -0.00000000000E+00 -0.45593999997E+02  0.45594000000E+02  0.51100000000E-03 0.  1.
    9900012    2    1    2    0    0 -0.27041128927E+02  0.27034644312E+02  0.13822805377E+02  0.50528873162E+02  0.30000040462E+02 0.  0.
         12    1    1    2    0    0  0.27041128927E+02 -0.27034644312E+02 -0.13822805377E+02  0.40659126838E+02  0.00000000000E+00 0. -1.
         11    1    3    3    0    0  0.81491511737E+00  0.17465609129E+02  0.79074236320E+01  0.19189552826E+02  0.51100000000E-03 0. -1.
        -11    1    3    3    0    0 -0.32079682324E+01  0.81451754362E+00  0.38854530170E+01  0.51040419687E+01  0.51100000000E-03 0.  1.
         12    1    3    3    0    0 -0.24648075812E+02  0.87545176395E+01  0.20299287284E+01  0.26235278367E+02  0.00000000000E+00 0. -1.
</event>
<event>
 7    1  0.6046695E-013  0.5052885E+02  0.7816164E-02  0.1300439E+00
        -11   -1    0    0    0    0  0.00000000000E+00  0.00000000000E+00  0.45593999997E+02  0.45594000000E+02  0.51100000000E-03 0.  1.
         11   -1    0    0    0    0 -0.00000000000E+00 -0.00000000000E+00 -0.45593999997E+02  0.45594000000E+02  0.51100000000E-03 0. -1.
    9900012    2    1    2    0    0 -0.11642369399E+02  0.31770278639E+02  0.22544866178E+02  0.50528851447E+02  0.29999974459E+02 0.  0.
         12    1    1    2    0    0  0.11642369399E+02 -0.31770278639E+02 -0.22544866178E+02  0.40659148553E+02  0.00000000000E+00 0. -1.
         11    1    3    3    0    0 -0.93799003843E+01  0.81132177115E+01 -0.33982788340E+01  0.12859048649E+02  0.51100000000E-03 0. -1.
        -11    1    3    3    0    0 -0.23665753176E+01  0.25417015527E+02  0.24624659501E+02  0.35468284605E+02  0.51100000000E-03 0.  1.
         12    1    3    3    0    0  0.10410630252E+00 -0.17599545990E+01  0.13184855113E+01  0.22015181935E+01  0.00000000000E+00 0. -1.
</event>
<event>
 7    1  0.6046695E-013  0.5052888E+02  0.7816164E-02  0.1300439E+00
        -11   -1    0    0    0    0  0.00000000000E+00  0.00000000000E+00  0.45593999997E+02  0.45594000000E+02  0.51100000000E-03 0. -1.
         11   -1    0    0    0    0 -0.00000000000E+00 -0.00000000000E+00 -0.45593999997E+02  0.45594000000E+02  0.51100000000E-03 0.  1.
    9900012    2    1    2    0    0  0.34208119347E+02 -0.98576937541E+01 -0.19641660144E+02  0.50528875949E+02  0.30000048934E+02 0.  0.
         12    1    1    2    0    0 -0.34208119347E+02  0.98576937541E+01  0.19641660144E+02  0.40659124051E+02  0.00000000000E+00 0. -1.
         11    1    3    3    0    0  0.10333311432E+02 -0.39541340355E+01  0.25813216650E+00  0.11067029123E+02  0.51100000000E-03 0. -1.
        -11    1    3    3    0    0  0.34405403566E+01  0.43779755268E+01 -0.15092791872E+02  0.16087148735E+02  0.51100000000E-03 0.  1.
        -12    1    3    3    0    0  0.20434267558E+02 -0.10281535245E+02 -0.48070004384E+01  0.23374698091E+02  0.00000000000E+00 0.  1.
</event>
<event>
 7    1  0.6046695E-013  0.5052886E+02  0.7816164E-02  0.1300439E+00
        -11   -1    0    0    0    0  0.00000000000E+00  0.00000000000E+00  0.45593999997E+02  0.45594000000E+02  0.51100000000E-03 0. -1.
         11   -1    0    0    0    0 -0.00000000000E+00 -0.00000000000E+00 -0.45593999997E+02  0.45594000000E+02  0.51100000000E-03 0.  1.
    9900012    2    1    2    0    0  0.53243883960E+01 -0.28112328368E+02 -0.28887953443E+02  0.50528856229E+02  0.29999988993E+02 0.  0.
         12    1    1    2    0    0 -0.53243883960E+01  0.28112328368E+02  0.28887953443E+02  0.40659143771E+02  0.00000000000E+00 0. -1.
         11    1    3    3    0    0 -0.66772106912E+01  0.74667292570E+00 -0.56960011929E+01  0.88083535875E+01  0.51100000000E-03 0. -1.
        -11    1    3    3    0    0  0.53962419079E+01 -0.20167463051E+02 -0.66676993908E+01  0.21915843769E+02  0.51100000000E-03 0.  1.
         12    1    3    3    0    0  0.66053571793E+01 -0.86915382424E+01 -0.16524252860E+02  0.19804658873E+02  0.00000000000E+00 0. -1.
</event>
<event>
 7    1  0.6046695E-013  0.5052885E+02  0.7816164E-02  0.1300439E+00
        -11   -1    0    0    0    0  0.00000000000E+00  0.00000000000E+00  0.45593999997E+02  0.45594000000E+02  0.51100000000E-03 0.  1.
         11   -1    0    0    0    0 -0.00000000000E+00 -0.00000000000E+00 -0.45593999997E+02  0.45594000000E+02  0.51100000000E-03 0. -1.
    9900012    2    1    2    0    0 -0.26185558398E+02  0.17853189168E+02  0.25470500081E+02  0.50528853348E+02  0.29999980236E+02 0.  0.
         12    1    1    2    0    0  0.26185558398E+02 -0.17853189168E+02 -0.25470500081E+02  0.40659146652E+02  0.00000000000E+00 0. -1.
         11    1    3    3    0    0  0.25866274931E+01  0.86249760625E+00 -0.39590117179E+01  0.48071111858E+01  0.51100000000E-03 0.  1.
        -11    1    3    3    0    0 -0.20292026866E+02  0.11556809047E+02  0.13790556188E+02  0.27120207040E+02  0.51100000000E-03 0. -1.
        -12    1    3    3    0    0 -0.84801590255E+01  0.54338825152E+01  0.15638955611E+02  0.18601535122E+02  0.00000000000E+00 0.  1.
</event>
<event>
 7    1  0.6046695E-013  0.5052886E+02  0.7816164E-02  0.1300439E+00
        -11   -1    0    0    0    0  0.00000000000E+00  0.00000000000E+00  0.45593999997E+02  0.45594000000E+02  0.51100000000E-03 0.  1.
         11   -1    0    0    0    0 -0.00000000000E+00 -0.00000000000E+00 -0.45593999997E+02  0.45594000000E+02  0.51100000000E-03 0. -1.
    9900012    2    1    2    0    0 -0.26105478845E+02 -0.35669636216E+01  0.30966855302E+02  0.50528863481E+02  0.30000011037E+02 0.  0.
         12    1    1    2    0    0  0.26105478845E+02  0.35669636216E+01 -0.30966855302E+02  0.40659136519E+02  0.00000000000E+00 0. -1.
         11    1    3    3    0    0 -0.12615348699E+02 -0.14591788041E+00 -0.25687532576E+01  0.12875045956E+02  0.51100000000E-03 0. -1.
        -11    1    3    3    0    0 -0.13075879371E+02  0.37226722502E+00  0.28281569035E+02  0.31160300890E+02  0.51100000000E-03 0.  1.
        -12    1    3    3    0    0 -0.41425077554E+00 -0.37933129662E+01  0.52540395241E+01  0.64935166347E+01  0.00000000000E+00 0.  1.
</event>
<event>
 7    1  0.6046695E-013  0.5052886E+02  0.7816164E-02  0.1300439E+00
        -11   -1    0    0    0    0  0.00000000000E+00  0.00000000000E+00  0.45593999997E+02  0.45594000000E+02  0.51100000000E-03 0. -1.
         11   -1    0    0    0    0 -0.00000000000E+00 -0.00000000000E+00 -0.45593999997E+02  0.45594000000E+02  0.51100000000E-03 0.  1.
    9900012    2    1    2    0    0 -0.29021936687E+02  0.22323377739E+02  0.17679352408E+02  0.50528861982E+02  0.30000006482E+02 0.  0.
         12    1    1    2    0    0  0.29021936687E+02 -0.22323377739E+02 -0.17679352408E+02  0.40659138018E+02  0.00000000000E+00 0. -1.
         11    1    3    3    0    0  0.28531633054E+01  0.33660412500E+01 -0.43029291516E+01  0.61632762463E+01  0.51100000000E-03 0. -1.
        -11    1    3    3    0    0 -0.16654762611E+02  0.64221820173E+01  0.15409203935E+02  0.23581117566E+02  0.51100000000E-03 0.  1.
        -12    1    3    3    0    0 -0.15220337382E+02  0.12535154472E+02  0.65730776244E+01  0.20784468170E+02  0.00000000000E+00 0.  1.
</event>
<event>
 7    1  0.6046695E-013  0.5052886E+02  0.7816164E-02  0.1300439E+00
        -11   -1    0    0    0    0  0.00000000000E+00  0.00000000000E+00  0.45593999997E+02  0.45594000000E+02  0.51100000000E-03 0. -1.
         11   -1    0    0    0    0 -0.00000000000E+00 -0.00000000000E+00 -0.45593999997E+02  0.45594000000E+02  0.51100000000E-03 0.  1.
    9900012    2    1    2    0    0  0.21957900333E+02 -0.73836669169E+01 -0.33414034058E+02  0.50528860853E+02  0.30000003048E+02 0.  0.
         12    1    1    2    0    0 -0.21957900333E+02  0.73836669169E+01  0.33414034058E+02  0.40659139147E+02  0.00000000000E+00 0. -1.
         11    1    3    3    0    0  0.80656754433E+01  0.61970844548E+01 -0.85671594422E+01  0.13298691562E+02  0.51100000000E-03 0. -1.
        -11    1    3    3    0    0 -0.44126591765E+01 -0.61569757648E+01 -0.42222196535E+01  0.86721998731E+01  0.51100000000E-03 0.  1.
        -12    1    3    3    0    0  0.18304884066E+02 -0.74237756069E+01 -0.20624654962E+02  0.28557969417E+02  0.00000000000E+00 0.  1.
</event>
<event>
 7    1  0.6046695E-013  0.5052886E+02  0.7816164E-02  0.1300439E+00
        -11   -1    0    0    0    0  0.00000000000E+00  0.00000000000E+00  0.45593999997E+02  0.45594000000E+02  0.51100000000E-03 0.  1.
         11   -1    0    0    0    0 -0.00000000000E+00 -0.00000000000E+00 -0.45593999997E+02  0.45594000000E+02  0.51100000000E-03 0. -1.
    9900012    2    1    2    0    0 -0.34822446351E+02 -0.77211556491E+01  0.19517855231E+02  0.50528859733E+02  0.29999999646E+02 0.  0.
         12    1    1    2    0    0  0.34822446351E+02  0.77211556491E+01 -0.19517855231E+02  0.40659140267E+02  0.00000000000E+00 0. -1.
         11    1    3    3    0    0 -0.66672375105E+01  0.60845958433E+01  0.93975349977E+01  0.13030273477E+02  0.51100000000E-03 0. -1.
        -11    1    3    3    0    0 -0.31319013859E+01 -0.81139393011E+01 -0.22885413625E+01  0.89934553483E+01  0.51100000000E-03 0.  1.
        -12    1    3    3    0    0 -0.25023307454E+02 -0.56918121913E+01  0.12408861596E+02  0.28505130908E+02  0.00000000000E+00 0.  1.
</event>
<event>
 7    1  0.6046695E-013  0.5052900E+02  0.7816164E-02  0.1300438E+00
        -11   -1    0    0    0    0  0.00000000000E+00  0.00000000000E+00  0.45593999997E+02  0.45594000000E+02  0.51100000000E-03 0.  1.
         11   -1    0    0    0    0 -0.00000000000E+00 -0.00000000000E+00 -0.45593999997E+02  0.45594000000E+02  0.51100000000E-03 0. -1.
    9900012    2    1    2    0    0 -0.17533361657E+01 -0.18532982828E+02  0.36147044775E+02  0.50528997477E+02  0.30000418328E+02 0.  0.
         12    1    1    2    0    0  0.17533361657E+01  0.18532982828E+02 -0.36147044775E+02  0.40659002523E+02  0.00000000000E+00 0. -1.
         11    1    3    3    0    0 -0.12944000843E+02 -0.59728075683E+01  0.72816746696E+01  0.16007634876E+02  0.51100000000E-03 0. -1.
        -11    1    3    3    0    0  0.62231810402E+01 -0.12058611631E+02  0.17806688766E+02  0.22387859697E+02  0.51100000000E-03 0.  1.
        -12    1    3    3    0    0  0.49674836375E+01 -0.50156362919E+00  0.11058681339E+02  0.12133502904E+02  0.00000000000E+00 0.  1.
</event>
<event>
 7    1  0.6046695E-013  0.5052885E+02  0.7816164E-02  0.1300439E+00
        -11   -1    0    0    0    0  0.00000000000E+00  0.00000000000E+00  0.45593999997E+02  0.45594000000E+02  0.51100000000E-03 0. -1.
         11   -1    0    0    0    0 -0.00000000000E+00 -0.00000000000E+00 -0.45593999997E+02  0.45594000000E+02  0.51100000000E-03 0.  1.
    9900012    2    1    2    0    0  0.19630862997E+02 -0.22417396933E+02 -0.27663258204E+02  0.50528851931E+02  0.29999975929E+02 0.  0.
         12    1    1    2    0    0 -0.19630862997E+02  0.22417396933E+02  0.27663258204E+02  0.40659148069E+02  0.00000000000E+00 0. -1.
         11    1    3    3    0    0  0.62139446343E+00 -0.18489874211E+01 -0.15350582796E+02  0.15474019452E+02  0.51100000000E-03 0. -1.
        -11    1    3    3    0    0  0.19394559283E+02 -0.10078820443E+02 -0.11022713086E+02  0.24479210676E+02  0.51100000000E-03 0.  1.
         12    1    3    3    0    0 -0.38509074938E+00 -0.10489589069E+02 -0.12899623219E+01  0.10575621803E+02  0.00000000000E+00 0. -1.
</event>
<event>
 7    1  0.8070947E-013  0.5052886E+02  0.7816164E-02  0.1300439E+00
        -11   -1    0    0    0    0  0.00000000000E+00  0.00000000000E+00  0.45593999997E+02  0.45594000000E+02  0.51100000000E-03 0.  1.
         11   -1    0    0    0    0 -0.00000000000E+00 -0.00000000000E+00 -0.45593999997E+02  0.45594000000E+02  0.51100000000E-03 0. -1.
    9900012    2    1    2    0    0 -0.38094792600E+02  0.13280067744E+02  0.50588889433E+01  0.50528858594E+02  0.29999996182E+02 0.  0.
         12    1    1    2    0    0  0.38094792600E+02 -0.13280067744E+02 -0.50588889433E+01  0.40659141406E+02  0.00000000000E+00 0. -1.
         11    1    3    3    0    0 -0.69793071564E+01  0.45683987565E+01 -0.96492627896E+01  0.12754970334E+02  0.51100000000E-03 0. -1.
        -11    1    3    3    0    0 -0.23095629818E+02  0.46292529140E+01  0.41787303540E+01  0.23922790114E+02  0.51100000000E-03 0.  1.
         12    1    3    3    0    0 -0.80198556262E+01  0.40824160738E+01  0.10529421379E+02  0.13851098146E+02  0.00000000000E+00 0. -1.
</event>
<event>
 7    1  0.6046695E-013  0.5052885E+02  0.7816164E-02  0.1300439E+00
        -11   -1    0    0    0    0  0.00000000000E+00  0.00000000000E+00  0.45593999997E+02  0.45594000000E+02  0.51100000000E-03 0.  1.
         11   -1    0    0    0    0 -0.00000000000E+00 -0.00000000000E+00 -0.45593999997E+02  0.45594000000E+02  0.51100000000E-03 0. -1.
    9900012    2    1    2    0    0  0.18935826379E+01  0.33194003653E+02 -0.23403815481E+02  0.50528854500E+02  0.29999983738E+02 0.  0.
         12    1    1    2    0    0 -0.18935826379E+01 -0.33194003653E+02  0.23403815481E+02  0.40659145500E+02  0.00000000000E+00 0. -1.
         11    1    3    3    0    0 -0.35409142152E+01  0.38979876372E+01  0.46118972123E+01  0.70001412312E+01  0.51100000000E-03 0. -1.
        -11    1    3    3    0    0  0.55958175627E+01  0.29245340961E+02 -0.20824288687E+02  0.36335301590E+02  0.51100000000E-03 0.  1.
        -12    1    3    3    0    0 -0.16132070960E+00  0.50675055234E-01 -0.71914240065E+01  0.71934116783E+01  0.00000000000E+00 0.  1.
</event>
<event>
 7    1  0.6046695E-013  0.5052886E+02  0.7816164E-02  0.1300439E+00
        -11   -1    0    0    0    0  0.00000000000E+00  0.00000000000E+00  0.45593999997E+02  0.45594000000E+02  0.51100000000E-03 0.  1.
         11   -1    0    0    0    0 -0.00000000000E+00 -0.00000000000E+00 -0.45593999997E+02  0.45594000000E+02  0.51100000000E-03 0. -1.
    9900012    2    1    2    0    0  0.26537642856E+01 -0.35273508420E+02  0.20047518951E+02  0.50528857397E+02  0.29999992544E+02 0.  0.
         12    1    1    2    0    0 -0.26537642856E+01  0.35273508420E+02 -0.20047518951E+02  0.40659142603E+02  0.00000000000E+00 0. -1.
         11    1    3    3    0    0 -0.73452347780E+01 -0.45113338692E+01 -0.25675994262E+01  0.89942856469E+01  0.51100000000E-03 0. -1.
        -11    1    3    3    0    0  0.60746704320E+01 -0.29678876640E+02  0.21947810804E+02  0.37409139777E+02  0.51100000000E-03 0.  1.
         12    1    3    3    0    0  0.39243286315E+01 -0.10832979101E+01  0.66730757291E+00  0.41254319734E+01  0.00000000000E+00 0. -1.
</event>
<event>
 7    1  0.6046695E-013  0.5052886E+02  0.7816164E-02  0.1300439E+00
        -11   -1    0    0    0    0  0.00000000000E+00  0.00000000000E+00  0.45593999997E+02  0.45594000000E+02  0.51100000000E-03 0.  1.
         11   -1    0    0    0    0 -0.00000000000E+00 -0.00000000000E+00 -0.45593999997E+02  0.45594000000E+02  0.51100000000E-03 0. -1.
    9900012    2    1    2    0    0  0.32460924304E+02 -0.99428960012E+01  0.22373940059E+02  0.50528856117E+02  0.29999988652E+02 0.  0.
         12    1    1    2    0    0 -0.32460924304E+02  0.99428960012E+01 -0.22373940059E+02  0.40659143883E+02  0.00000000000E+00 0. -1.
         11    1    3    3    0    0 -0.40154438479E+01  0.30013068916E+01  0.15176037788E+01  0.52378195696E+01  0.51100000000E-03 0. -1.
        -11    1    3    3    0    0  0.25973760965E+02 -0.13041685601E+02  0.11607679564E+02  0.31296326415E+02  0.51100000000E-03 0.  1.
        -12    1    3    3    0    0  0.10502607187E+02  0.97482708192E-01  0.92486567171E+01  0.13994710132E+02  0.00000000000E+00 0.  1.
</event>
<event>
 7    1  0.6046695E-013  0.5052887E+02  0.7816164E-02  0.1300439E+00
        -11   -1    0    0    0    0  0.00000000000E+00  0.00000000000E+00  0.45593999997E+02  0.45594000000E+02  0.51100000000E-03 0.  1.
         11   -1    0    0    0    0 -0.00000000000E+00 -0.00000000000E+00 -0.45593999997E+02  0.45594000000E+02  0.51100000000E-03 0. -1.
    9900012    2    1    2    0    0  0.37044297484E+02  0.14802325428E+02 -0.78597932464E+01  0.50528866168E+02  0.30000019203E+02 0.  0.
         12    1    1    2    0    0 -0.37044297484E+02 -0.14802325428E+02  0.78597932464E+01  0.40659133832E+02  0.00000000000E+00 0. -1.
         11    1    3    3    0    0  0.14269023776E+02 -0.66287669136E+01  0.17051083061E+01  0.15825706459E+02  0.51100000000E-03 0. -1.
        -11    1    3    3    0    0  0.61342135182E+01  0.11573771241E+02  0.60432270368E-01  0.13099023190E+02  0.51100000000E-03 0.  1.
        -12    1    3    3    0    0  0.16641060189E+02  0.98573211008E+01 -0.96253338229E+01  0.21604136518E+02  0.00000000000E+00 0.  1.
</event>
<event>
 7    1  0.6046695E-013  0.5052885E+02  0.7816164E-02  0.1300439E+00
        -11   -1    0    0    0    0  0.00000000000E+00  0.00000000000E+00  0.45593999997E+02  0.45594000000E+02  0.51100000000E-03 0.  1.
         11   -1    0    0    0    0 -0.00000000000E+00 -0.00000000000E+00 -0.45593999997E+02  0.45594000000E+02  0.51100000000E-03 0. -1.
    9900012    2    1    2    0    0  0.32446409517E+02  0.23841735226E+02  0.56540669035E+01  0.50528852177E+02  0.29999976678E+02 0.  0.
         12    1    1    2    0    0 -0.32446409517E+02 -0.23841735226E+02 -0.56540669035E+01  0.40659147823E+02  0.00000000000E+00 0. -1.
         11    1    3    3    0    0 -0.47806807151E+01  0.48997048733E+01  0.35465041337E+01  0.77097151553E+01  0.51100000000E-03 0. -1.
        -11    1    3    3    0    0  0.22890488183E+02  0.12960390797E+02  0.56061268487E+01  0.26895628592E+02  0.51100000000E-03 0.  1.
        -12    1    3    3    0    0  0.14336602049E+02  0.59816395556E+01 -0.34985640790E+01  0.15923508430E+02  0.00000000000E+00 0.  1.
</event>
<event>
 7    1  0.6046695E-013  0.5052886E+02  0.7816164E-02  0.1300439E+00
        -11   -1    0    0    0    0  0.00000000000E+00  0.00000000000E+00  0.45593999997E+02  0.45594000000E+02  0.51100000000E-03 0.  1.
         11   -1    0    0    0    0 -0.00000000000E+00 -0.00000000000E+00 -0.45593999997E+02  0.45594000000E+02  0.51100000000E-03 0. -1.
    9900012    2    1    2    0    0  0.13623682588E+02 -0.17895012317E+02  0.33872252337E+02  0.50528859927E+02  0.30000000234E+02 0.  0.
         12    1    1    2    0    0 -0.13623682588E+02  0.17895012317E+02 -0.33872252337E+02  0.40659140073E+02  0.00000000000E+00 0. -1.
         11    1    3    3    0    0 -0.72634551643E+01  0.15059251191E+01  0.68924555511E+01  0.10125785657E+02  0.51100000000E-03 0. -1.
        -11    1    3    3    0    0  0.49246964628E+01 -0.29578258569E+01  0.11174173015E+02  0.12564374711E+02  0.51100000000E-03 0.  1.
         12    1    3    3    0    0  0.15962441290E+02 -0.16443111579E+02  0.15805623770E+02  0.27838699559E+02  0.00000000000E+00 0. -1.
</event>
<event>
 7    1  0.6046695E-013  0.5052884E+02  0.7816164E-02  0.1300439E+00
        -11   -1    0    0    0    0  0.00000000000E+00  0.00000000000E+00  0.45593999997E+02  0.45594000000E+02  0.51100000000E-03 0.  1.
         11   -1    0    0    0    0 -0.00000000000E+00 -0.00000000000E+00 -0.45593999997E+02  0.45594000000E+02  0.51100000000E-03 0. -1.
    9900012    2    1    2    0    0 -0.30191811698E+02  0.25666029320E+02 -0.91036708627E+01  0.50528838943E+02  0.29999936451E+02 0.  0.
         12    1    1    2    0    0  0.30191811698E+02 -0.25666029320E+02  0.91036708627E+01  0.40659161057E+02  0.00000000000E+00 0. -1.
         11    1    3    3    0    0 -0.77013805648E+01  0.10146151747E+02  0.79828421225E+01  0.15032678620E+02  0.51100000000E-03 0.  1.
        -11    1    3    3    0    0 -0.95148409070E+01 -0.15747751348E+01 -0.49400680441E+01  0.10835884216E+02  0.51100000000E-03 0. -1.
        -12    1    3    3    0    0 -0.12975590226E+02  0.17094652708E+02 -0.12146444941E+02  0.24660276107E+02  0.00000000000E+00 0.  1.
</event>
<event>
 7    1  0.6046695E-013  0.5052884E+02  0.7816164E-02  0.1300439E+00
        -11   -1    0    0    0    0  0.00000000000E+00  0.00000000000E+00  0.45593999997E+02  0.45594000000E+02  0.51100000000E-03 0.  1.
         11   -1    0    0    0    0 -0.00000000000E+00 -0.00000000000E+00 -0.45593999997E+02  0.45594000000E+02  0.51100000000E-03 0. -1.
    9900012    2    1    2    0    0  0.17431389857E+01 -0.26304375657E+02  0.30954944934E+02  0.50528839555E+02  0.29999938311E+02 0.  0.
         12    1    1    2    0    0 -0.17431389857E+01  0.26304375657E+02 -0.30954944934E+02  0.40659160445E+02  0.00000000000E+00 0. -1.
         11    1    3    3    0    0 -0.43644237611E+01 -0.29244541623E+01 -0.15649007128E+01  0.54817462013E+01  0.51100000000E-03 0. -1.
        -11    1    3    3    0    0  0.76988257949E+01 -0.18844237525E+01  0.16119529911E+02  0.17962800904E+02  0.51100000000E-03 0.  1.
        -12    1    3    3    0    0 -0.15912630481E+01 -0.21495497742E+02  0.16400315736E+02  0.27084292450E+02  0.00000000000E+00 0.  1.
</event>
<event>
 7    1  0.6046695E-013  0.5052886E+02  0.7816164E-02  0.1300439E+00
        -11   -1    0    0    0    0  0.00000000000E+00  0.00000000000E+00  0.45593999997E+02  0.45594000000E+02  0.51100000000E-03 0.  1.
         11   -1    0    0    0    0 -0.00000000000E+00 -0.00000000000E+00 -0.45593999997E+02  0.45594000000E+02  0.51100000000E-03 0. -1.
    9900012    2    1    2    0    0 -0.35768301139E+02  0.34392552117E+01  0.19025390092E+02  0.50528864361E+02  0.30000013711E+02 0.  0.
         12    1    1    2    0    0  0.35768301139E+02 -0.34392552117E+01 -0.19025390092E+02  0.40659135639E+02  0.00000000000E+00 0. -1.
         11    1    3    3    0    0  0.14663966533E+01  0.59435809546E+01 -0.23274586706E+01  0.65493158294E+01  0.51100000000E-03 0. -1.
        -11    1    3    3    0    0 -0.22760220742E+01 -0.23143124777E+01  0.33212154028E+01  0.46440058936E+01  0.51100000000E-03 0.  1.
         12    1    3    3    0    0 -0.34958675718E+02 -0.19001326525E+00  0.18031633360E+02  0.39335542638E+02  0.00000000000E+00 0. -1.
</event>
<event>
 7    1  0.6046695E-013  0.5052887E+02  0.7816164E-02  0.1300439E+00
        -11   -1    0    0    0    0  0.00000000000E+00  0.00000000000E+00  0.45593999997E+02  0.45594000000E+02  0.51100000000E-03 0.  1.
         11   -1    0    0    0    0 -0.00000000000E+00 -0.00000000000E+00 -0.45593999997E+02  0.45594000000E+02  0.51100000000E-03 0. -1.
    9900012    2    1    2    0    0 -0.10779030494E+02  0.96252448597E+01  0.38004370209E+02  0.50528868283E+02  0.30000025634E+02 0.  0.
         12    1    1    2    0    0  0.10779030494E+02 -0.96252448597E+01 -0.38004370209E+02  0.40659131717E+02  0.00000000000E+00 0. -1.
         11    1    3    3    0    0  0.34009035916E+01 -0.33686605928E+00 -0.14453376296E+01  0.37106098024E+01  0.51100000000E-03 0. -1.
        -11    1    3    3    0    0 -0.13056497509E+02  0.15068951845E+02  0.30076856753E+02  0.36085492228E+02  0.51100000000E-03 0.  1.
         12    1    3    3    0    0 -0.11234365763E+01 -0.51068409258E+01  0.93728510851E+01  0.10732766253E+02  0.00000000000E+00 0. -1.
</event>
<event>
 7    1  0.6046695E-013  0.5052885E+02  0.7816164E-02  0.1300439E+00
        -11   -1    0    0    0    0  0.00000000000E+00  0.00000000000E+00  0.45593999997E+02  0.45594000000E+02  0.51100000000E-03 0.  1.
         11   -1    0    0    0    0 -0.00000000000E+00 -0.00000000000E+00 -0.45593999997E+02  0.45594000000E+02  0.51100000000E-03 0. -1.
    9900012    2    1    2    0    0 -0.17209156648E+02  0.28687864914E+02  0.23108818433E+02  0.50528853978E+02  0.29999982153E+02 0.  0.
         12    1    1    2    0    0  0.17209156648E+02 -0.28687864914E+02 -0.23108818433E+02  0.40659146022E+02  0.00000000000E+00 0. -1.
         11    1    3    3    0    0  0.46354997613E+00  0.20752004026E+02  0.19952249242E+02  0.28791540420E+02  0.51100000000E-03 0. -1.
        -11    1    3    3    0    0 -0.15058225271E+02  0.10083916542E+02  0.27068660005E+01  0.18323827246E+02  0.51100000000E-03 0.  1.
        -12    1    3    3    0    0 -0.26144813533E+01 -0.21480556549E+01  0.44970319035E+00  0.34134863121E+01  0.00000000000E+00 0.  1.
</event>
<event>
 7    1  0.6046695E-013  0.5052886E+02  0.7816164E-02  0.1300439E+00
        -11   -1    0    0    0    0  0.00000000000E+00  0.00000000000E+00  0.45593999997E+02  0.45594000000E+02  0.51100000000E-03 0.  1.
         11   -1    0    0    0    0 -0.00000000000E+00 -0.00000000000E+00 -0.45593999997E+02  0.45594000000E+02  0.51100000000E-03 0. -1.
    9900012    2    1    2    0    0  0.39403948416E+02 -0.93918476585E+01 -0.35053512666E+01  0.50528862765E+02  0.30000008859E+02 0.  0.
         12    1    1    2    0    0 -0.39403948416E+02  0.93918476585E+01  0.35053512666E+01  0.40659137235E+02  0.00000000000E+00 0. -1.
         11    1    3    3    0    0  0.43958376036E+01  0.86145010068E+01 -0.34078131928E+01  0.10254082448E+02  0.51100000000E-03 0. -1.
        -11    1    3    3    0    0  0.82594420588E+01 -0.64389820745E+00 -0.11725820607E+01  0.83670745768E+01  0.51100000000E-03 0.  1.
         12    1    3    3    0    0  0.26748668754E+02 -0.17362450458E+02  0.10750439869E+01  0.31907705740E+02  0.00000000000E+00 0. -1.
</event>
<event>
 7    1  0.6046695E-013  0.5052887E+02  0.7816164E-02  0.1300439E+00
        -11   -1    0    0    0    0  0.00000000000E+00  0.00000000000E+00  0.45593999997E+02  0.45594000000E+02  0.51100000000E-03 0.  1.
         11   -1    0    0    0    0 -0.00000000000E+00 -0.00000000000E+00 -0.45593999997E+02  0.45594000000E+02  0.51100000000E-03 0. -1.
    9900012    2    1    2    0    0  0.20549348406E+02  0.25083492322E+02  0.24529730971E+02  0.50528868080E+02  0.30000025017E+02 0.  0.
         12    1    1    2    0    0 -0.20549348406E+02 -0.25083492322E+02 -0.24529730971E+02  0.40659131920E+02  0.00000000000E+00 0. -1.
         11    1    3    3    0    0  0.45762664522E+01 -0.19702276760E+01 -0.15135768347E+01  0.52071995192E+01  0.51100000000E-03 0. -1.
        -11    1    3    3    0    0  0.16780009393E+02  0.15953449066E+02  0.25106335799E+02  0.34152735613E+02  0.51100000000E-03 0.  1.
        -12    1    3    3    0    0 -0.80692743957E+00  0.11100270932E+02  0.93697200614E+00  0.11168932948E+02  0.00000000000E+00 0.  1.
</event>
<event>
 7    1  0.6046695E-013  0.5052886E+02  0.7816164E-02  0.1300439E+00
        -11   -1    0    0    0    0  0.00000000000E+00  0.00000000000E+00  0.45593999997E+02  0.45594000000E+02  0.51100000000E-03 0.  1.
         11   -1    0    0    0    0 -0.00000000000E+00 -0.00000000000E+00 -0.45593999997E+02  0.45594000000E+02  0.51100000000E-03 0. -1.
    9900012    2    1    2    0    0  0.36494329997E+01  0.40062050013E+02 -0.59059160352E+01  0.50528855190E+02  0.29999985835E+02 0.  0.
         12    1    1    2    0    0 -0.36494329997E+01 -0.40062050013E+02  0.59059160352E+01  0.40659144810E+02  0.00000000000E+00 0. -1.
         11    1    3    3    0    0 -0.57350722764E+01  0.11148440851E+02 -0.14568285506E+01  0.12621455427E+02  0.51100000000E-03 0. -1.
        -11    1    3    3    0    0  0.92382046337E+01  0.24593697265E+01 -0.62007398861E+01  0.11394827761E+02  0.51100000000E-03 0.  1.
        -12    1    3    3    0    0  0.14630064241E+00  0.26454239436E+02  0.17516524016E+01  0.26512572002E+02  0.00000000000E+00 0.  1.
</event>
<event>
 7    1  0.6046695E-013  0.5052886E+02  0.7816164E-02  0.1300439E+00
        -11   -1    0    0    0    0  0.00000000000E+00  0.00000000000E+00  0.45593999997E+02  0.45594000000E+02  0.51100000000E-03 0.  1.
         11   -1    0    0    0    0 -0.00000000000E+00 -0.00000000000E+00 -0.45593999997E+02  0.45594000000E+02  0.51100000000E-03 0. -1.
    9900012    2    1    2    0    0 -0.13351212749E+02  0.28351587174E+02  0.25905557938E+02  0.50528864382E+02  0.30000013776E+02 0.  0.
         12    1    1    2    0    0  0.13351212749E+02 -0.28351587174E+02 -0.25905557938E+02  0.40659135618E+02  0.00000000000E+00 0. -1.
         11    1    3    3    0    0 -0.15175292143E+02  0.18603551583E+02  0.88984589667E+01  0.25603987881E+02  0.51100000000E-03 0. -1.
        -11    1    3    3    0    0  0.49339029655E+01  0.26611914472E+01 -0.65272221408E+00  0.56437031231E+01  0.51100000000E-03 0.  1.
        -12    1    3    3    0    0 -0.31098235710E+01  0.70868441429E+01  0.17659821185E+02  0.19281173378E+02  0.00000000000E+00 0.  1.
</event>
<event>
 7    1  0.6046695E-013  0.5052888E+02  0.7816164E-02  0.1300439E+00
        -11   -1    0    0    0    0  0.00000000000E+00  0.00000000000E+00  0.45593999997E+02  0.45594000000E+02  0.51100000000E-03 0.  1.
         11   -1    0    0    0    0 -0.00000000000E+00 -0.00000000000E+00 -0.45593999997E+02  0.45594000000E+02  0.51100000000E-03 0. -1.
    9900012    2    1    2    0    0 -0.19451336377E+02  0.27494388092E+02  0.22778685702E+02  0.50528875739E+02  0.30000048295E+02 0.  0.
         12    1    1    2    0    0  0.19451336377E+02 -0.27494388092E+02 -0.22778685702E+02  0.40659124261E+02  0.00000000000E+00 0. -1.
         11    1    3    3    0    0 -0.17312202133E+01  0.19335416531E+02  0.18380199123E+02  0.26733633795E+02  0.51100000000E-03 0. -1.
        -11    1    3    3    0    0 -0.12764062621E+02  0.11433822661E+02  0.49295179778E+01  0.17831257471E+02  0.51100000000E-03 0.  1.
         12    1    3    3    0    0 -0.49560535429E+01 -0.32748510996E+01 -0.53103139907E+00  0.59639844728E+01  0.00000000000E+00 0. -1.
</event>
<event>
 7    1  0.6046695E-013  0.5052885E+02  0.7816164E-02  0.1300439E+00
        -11   -1    0    0    0    0  0.00000000000E+00  0.00000000000E+00  0.45593999997E+02  0.45594000000E+02  0.51100000000E-03 0.  1.
         11   -1    0    0    0    0 -0.00000000000E+00 -0.00000000000E+00 -0.45593999997E+02  0.45594000000E+02  0.51100000000E-03 0. -1.
    9900012    2    1    2    0    0  0.27168645855E+02  0.24413279822E+02  0.17861214419E+02  0.50528849372E+02  0.29999968151E+02 0.  0.
         12    1    1    2    0    0 -0.27168645855E+02 -0.24413279822E+02 -0.17861214419E+02  0.40659150628E+02  0.00000000000E+00 0. -1.
         11    1    3    3    0    0  0.49755017348E+00  0.64795176346E+00 -0.38259003856E+01  0.39121492411E+01  0.51100000000E-03 0. -1.
        -11    1    3    3    0    0  0.13233210189E+02  0.22123585244E+02  0.20666451891E+02  0.33040476843E+02  0.51100000000E-03 0.  1.
        -12    1    3    3    0    0  0.13437885493E+02  0.16417428145E+01  0.10206629134E+01  0.13576223288E+02  0.00000000000E+00 0.  1.
</event>
<event>
 7    1  0.6046695E-013  0.5052886E+02  0.7816164E-02  0.1300439E+00
        -11   -1    0    0    0    0  0.00000000000E+00  0.00000000000E+00  0.45593999997E+02  0.45594000000E+02  0.51100000000E-03 0. -1.
         11   -1    0    0    0    0 -0.00000000000E+00 -0.00000000000E+00 -0.45593999997E+02  0.45594000000E+02  0.51100000000E-03 0.  1.
    9900012    2    1    2    0    0  0.34455098704E+01  0.24093134839E+02 -0.32570153710E+02  0.50528860838E+02  0.30000003005E+02 0.  0.
         12    1    1    2    0    0 -0.34455098704E+01 -0.24093134839E+02  0.32570153710E+02  0.40659139162E+02  0.00000000000E+00 0. -1.
         11    1    3    3    0    0  0.82556530149E+01  0.19960398449E+02 -0.12534104058E+02  0.24973527539E+02  0.51100000000E-03 0. -1.
        -11    1    3    3    0    0 -0.36766990074E+01  0.82738898971E+01 -0.19134150725E+02  0.21168162269E+02  0.51100000000E-03 0.  1.
         12    1    3    3    0    0 -0.11334441371E+01 -0.41411535064E+01 -0.90189892661E+00  0.43871710303E+01  0.00000000000E+00 0. -1.
</event>
<event>
 7    1  0.6046695E-013  0.5052882E+02  0.7816164E-02  0.1300439E+00
        -11   -1    0    0    0    0  0.00000000000E+00  0.00000000000E+00  0.45593999997E+02  0.45594000000E+02  0.51100000000E-03 0.  1.
         11   -1    0    0    0    0 -0.00000000000E+00 -0.00000000000E+00 -0.45593999997E+02  0.45594000000E+02  0.51100000000E-03 0. -1.
    9900012    2    1    2    0    0  0.34783402987E+02  0.77159912522E+00  0.21040155116E+02  0.50528823719E+02  0.29999890176E+02 0.  0.
         12    1    1    2    0    0 -0.34783402987E+02 -0.77159912522E+00 -0.21040155116E+02  0.40659176281E+02  0.00000000000E+00 0. -1.
         11    1    3    3    0    0 -0.33223111515E+01 -0.20236910424E+01 -0.95316651465E+00  0.40051970598E+01  0.51100000000E-03 0. -1.
        -11    1    3    3    0    0  0.39414398108E+02  0.33220457862E+01  0.21556690026E+02  0.45046882818E+02  0.51100000000E-03 0.  1.
        -12    1    3    3    0    0 -0.13086839702E+01 -0.52675561859E+00  0.43663160465E+00  0.14767438416E+01  0.00000000000E+00 0.  1.
</event>
<event>
 7    1  0.6046695E-013  0.5052886E+02  0.7816164E-02  0.1300439E+00
        -11   -1    0    0    0    0  0.00000000000E+00  0.00000000000E+00  0.45593999997E+02  0.45594000000E+02  0.51100000000E-03 0. -1.
         11   -1    0    0    0    0 -0.00000000000E+00 -0.00000000000E+00 -0.45593999997E+02  0.45594000000E+02  0.51100000000E-03 0.  1.
    9900012    2    1    2    0    0  0.16240982738E+02 -0.28242237813E+02 -0.24326372128E+02  0.50528857142E+02  0.29999991770E+02 0.  0.
         12    1    1    2    0    0 -0.16240982738E+02  0.28242237813E+02  0.24326372128E+02  0.40659142858E+02  0.00000000000E+00 0. -1.
         11    1    3    3    0    0 -0.43230934059E+01 -0.10874535786E+02  0.46199291911E+00  0.11711451783E+02  0.51100000000E-03 0. -1.
        -11    1    3    3    0    0  0.17542751775E+02 -0.77543291215E+01 -0.19824405947E+02  0.27584140939E+02  0.51100000000E-03 0.  1.
        -12    1    3    3    0    0  0.30213243690E+01 -0.96133729062E+01 -0.49639591009E+01  0.11233264420E+02  0.00000000000E+00 0.  1.
</event>
<event>
 7    1  0.6046695E-013  0.5052885E+02  0.7816164E-02  0.1300439E+00
        -11   -1    0    0    0    0  0.00000000000E+00  0.00000000000E+00  0.45593999997E+02  0.45594000000E+02  0.51100000000E-03 0. -1.
         11   -1    0    0    0    0 -0.00000000000E+00 -0.00000000000E+00 -0.45593999997E+02  0.45594000000E+02  0.51100000000E-03 0.  1.
    9900012    2    1    2    0    0 -0.28437804687E+02  0.29058829398E+02 -0.20459035683E+00  0.50528853937E+02  0.29999982026E+02 0.  0.
         12    1    1    2    0    0  0.28437804687E+02 -0.29058829398E+02  0.20459035683E+00  0.40659146063E+02  0.00000000000E+00 0. -1.
         11    1    3    3    0    0 -0.55456259578E+01  0.77474591902E+01 -0.10803845284E+02  0.14404865996E+02  0.51100000000E-03 0. -1.
        -11    1    3    3    0    0 -0.12513388320E+02  0.60462179180E+01  0.10900202979E+02  0.17662277985E+02  0.51100000000E-03 0.  1.
        -12    1    3    3    0    0 -0.10378790409E+02  0.15265152290E+02 -0.30094805186E+00  0.18461709956E+02  0.00000000000E+00 0.  1.
</event>
<event>
 7    1  0.6046695E-013  0.5052887E+02  0.7816164E-02  0.1300439E+00
        -11   -1    0    0    0    0  0.00000000000E+00  0.00000000000E+00  0.45593999997E+02  0.45594000000E+02  0.51100000000E-03 0.  1.
         11   -1    0    0    0    0 -0.00000000000E+00 -0.00000000000E+00 -0.45593999997E+02  0.45594000000E+02  0.51100000000E-03 0. -1.
    9900012    2    1    2    0    0 -0.99986237252E+01 -0.24557181900E+01  0.39333981815E+02  0.50528866294E+02  0.30000019589E+02 0.  0.
         12    1    1    2    0    0  0.99986237252E+01  0.24557181900E+01 -0.39333981815E+02  0.40659133706E+02  0.00000000000E+00 0. -1.
         11    1    3    3    0    0  0.61006911544E+01 -0.73052276621E+01  0.20360493329E+02  0.22475196831E+02  0.51100000000E-03 0. -1.
        -11    1    3    3    0    0 -0.82102349273E+01  0.71622566838E+01  0.53404635830E+01  0.12133689872E+02  0.51100000000E-03 0.  1.
        -12    1    3    3    0    0 -0.78890799523E+01 -0.23127472117E+01  0.13633024904E+02  0.15919979591E+02  0.00000000000E+00 0.  1.
</event>
<event>
 7    1  0.6046695E-013  0.5052887E+02  0.7816164E-02  0.1300439E+00
        -11   -1    0    0    0    0  0.00000000000E+00  0.00000000000E+00  0.45593999997E+02  0.45594000000E+02  0.51100000000E-03 0.  1.
         11   -1    0    0    0    0 -0.00000000000E+00 -0.00000000000E+00 -0.45593999997E+02  0.45594000000E+02  0.51100000000E-03 0. -1.
    9900012    2    1    2    0    0 -0.18275853110E+02 -0.28742812969E+01  0.36206308458E+02  0.50528867298E+02  0.30000022640E+02 0.  0.
         12    1    1    2    0    0  0.18275853110E+02  0.28742812969E+01 -0.36206308458E+02  0.40659132702E+02  0.00000000000E+00 0. -1.
         11    1    3    3    0    0 -0.31817442191E+01  0.60568300730E+01  0.69662835295E+01  0.97641073982E+01  0.51100000000E-03 0. -1.
        -11    1    3    3    0    0 -0.14877519224E+02 -0.64748811890E+01  0.32706952644E+02  0.36510401480E+02  0.51100000000E-03 0.  1.
        -12    1    3    3    0    0 -0.21658966704E+00 -0.24562301809E+01 -0.34669277156E+01  0.42543584206E+01  0.00000000000E+00 0.  1.
</event>
<event>
 7    1  0.6046695E-013  0.5052887E+02  0.7816164E-02  0.1300439E+00
        -11   -1    0    0    0    0  0.00000000000E+00  0.00000000000E+00  0.45593999997E+02  0.45594000000E+02  0.51100000000E-03 0. -1.
         11   -1    0    0    0    0 -0.00000000000E+00 -0.00000000000E+00 -0.45593999997E+02  0.45594000000E+02  0.51100000000E-03 0.  1.
    9900012    2    1    2    0    0  0.28525921654E+02 -0.74623144728E+01 -0.27995543988E+02  0.50528870316E+02  0.30000031813E+02 0.  0.
         12    1    1    2    0    0 -0.28525921654E+02  0.74623144728E+01  0.27995543988E+02  0.40659129684E+02  0.00000000000E+00 0. -1.
         11    1    3    3    0    0 -0.91367739411E+00  0.37251216922E+01  0.76440398093E+00  0.39109655725E+01  0.51100000000E-03 0. -1.
        -11    1    3    3    0    0  0.30825714665E+02 -0.12105341369E+02 -0.29887012277E+02  0.44609387772E+02  0.51100000000E-03 0.  1.
        -12    1    3    3    0    0 -0.13861156178E+01  0.91790520439E+00  0.11270643080E+01  0.20085169714E+01  0.00000000000E+00 0.  1.
</event>
<event>
 7    1  0.6046695E-013  0.5052887E+02  0.7816164E-02  0.1300439E+00
        -11   -1    0    0    0    0  0.00000000000E+00  0.00000000000E+00  0.45593999997E+02  0.45594000000E+02  0.51100000000E-03 0.  1.
         11   -1    0    0    0    0 -0.00000000000E+00 -0.00000000000E+00 -0.45593999997E+02  0.45594000000E+02  0.51100000000E-03 0. -1.
    9900012    2    1    2    0    0  0.87450340435E+01 -0.15525564917E+02  0.36546486779E+02  0.50528874551E+02  0.30000044684E+02 0.  0.
         12    1    1    2    0    0 -0.87450340435E+01  0.15525564917E+02 -0.36546486779E+02  0.40659125449E+02  0.00000000000E+00 0. -1.
         11    1    3    3    0    0 -0.66230793822E+01  0.23137557579E-01  0.36966492005E+01  0.75849147274E+01  0.51100000000E-03 0. -1.
        -11    1    3    3    0    0  0.18346584137E+02 -0.16328401674E+02  0.28648457402E+02  0.37735235026E+02  0.51100000000E-03 0.  1.
        -12    1    3    3    0    0 -0.29784707111E+01  0.77969919998E+00  0.42013801769E+01  0.52087247970E+01  0.00000000000E+00 0.  1.
</event>
<event>
 7    1  0.6046695E-013  0.5052887E+02  0.7816164E-02  0.1300439E+00
        -11   -1    0    0    0    0  0.00000000000E+00  0.00000000000E+00  0.45593999997E+02  0.45594000000E+02  0.51100000000E-03 0.  1.
         11   -1    0    0    0    0 -0.00000000000E+00 -0.00000000000E+00 -0.45593999997E+02  0.45594000000E+02  0.51100000000E-03 0. -1.
    9900012    2    1    2    0    0  0.33583153082E+02 -0.11885017654E+02  0.19598037185E+02  0.50528869696E+02  0.30000029927E+02 0.  0.
         12    1    1    2    0    0 -0.33583153082E+02  0.11885017654E+02 -0.19598037185E+02  0.40659130304E+02  0.00000000000E+00 0. -1.
         11    1    3    3    0    0  0.84035982260E+01 -0.16749275035E+02  0.10048496331E+02  0.21263371231E+02  0.51100000000E-03 0. -1.
        -11    1    3    3    0    0  0.11094146086E+02  0.72818904027E+01  0.33462688485E+01  0.13685887646E+02  0.51100000000E-03 0.  1.
         12    1    3    3    0    0  0.14085408771E+02 -0.24176330211E+01  0.62032720065E+01  0.15579610818E+02  0.00000000000E+00 0. -1.
</event>
<event>
 7    1  0.6046695E-013  0.5052886E+02  0.7816164E-02  0.1300439E+00
        -11   -1    0    0    0    0  0.00000000000E+00  0.00000000000E+00  0.45593999997E+02  0.45594000000E+02  0.51100000000E-03 0.  1.
         11   -1    0    0    0    0 -0.00000000000E+00 -0.00000000000E+00 -0.45593999997E+02  0.45594000000E+02  0.51100000000E-03 0. -1.
    9900012    2    1    2    0    0  0.77799500871E+01  0.19529266303E+02  0.34802953311E+02  0.50528862959E+02  0.30000009451E+02 0.  0.
         12    1    1    2    0    0 -0.77799500871E+01 -0.19529266303E+02 -0.34802953311E+02  0.40659137041E+02  0.00000000000E+00 0. -1.
         11    1    3    3    0    0 -0.15906912064E+01 -0.64725829234E+01  0.44932412547E+01  0.80382737854E+01  0.51100000000E-03 0. -1.
        -11    1    3    3    0    0  0.24868493071E+01  0.18469863973E+02  0.24385935190E+02  0.30691922879E+02  0.51100000000E-03 0.  1.
         12    1    3    3    0    0  0.68837919864E+01  0.75319852537E+01  0.59237768667E+01  0.11798666295E+02  0.00000000000E+00 0. -1.
</event>
<event>
 7    1  0.6046695E-013  0.5052884E+02  0.7816164E-02  0.1300439E+00
        -11   -1    0    0    0    0  0.00000000000E+00  0.00000000000E+00  0.45593999997E+02  0.45594000000E+02  0.51100000000E-03 0. -1.
         11   -1    0    0    0    0 -0.00000000000E+00 -0.00000000000E+00 -0.45593999997E+02  0.45594000000E+02  0.51100000000E-03 0.  1.
    9900012    2    1    2    0    0 -0.40162340169E+02  0.52930401872E+01  0.34838656857E+01  0.50528841592E+02  0.29999944504E+02 0.  0.
         12    1    1    2    0    0  0.40162340169E+02 -0.52930401872E+01 -0.34838656857E+01  0.40659158408E+02  0.00000000000E+00 0. -1.
         11    1    3    3    0    0  0.19211674199E+01 -0.63674773206E+00  0.74020975660E+01  0.76738113456E+01  0.51100000000E-03 0. -1.
        -11    1    3    3    0    0 -0.27388097231E+02  0.54430089832E+01 -0.15958881580E+01  0.27969288085E+02  0.51100000000E-03 0.  1.
         12    1    3    3    0    0 -0.14695410358E+02  0.48677893609E+00 -0.23223437223E+01  0.14885742161E+02  0.00000000000E+00 0. -1.
</event>
<event>
 7    1  0.6046695E-013  0.5052885E+02  0.7816164E-02  0.1300439E+00
        -11   -1    0    0    0    0  0.00000000000E+00  0.00000000000E+00  0.45593999997E+02  0.45594000000E+02  0.51100000000E-03 0.  1.
         11   -1    0    0    0    0 -0.00000000000E+00 -0.00000000000E+00 -0.45593999997E+02  0.45594000000E+02  0.51100000000E-03 0. -1.
    9900012    2    1    2    0    0 -0.22260991037E+02 -0.13308542710E+02  0.31312896773E+02  0.50528849304E+02  0.29999967944E+02 0.  0.
         12    1    1    2    0    0  0.22260991037E+02  0.13308542710E+02 -0.31312896773E+02  0.40659150696E+02  0.00000000000E+00 0. -1.
         11    1    3    3    0    0 -0.22313868179E+02  0.13925710201E+00  0.14866951102E+02  0.26813323944E+02  0.51100000000E-03 0. -1.
        -11    1    3    3    0    0 -0.11642159561E+01 -0.12800488979E+02  0.17684684065E+02  0.21862204089E+02  0.51100000000E-03 0.  1.
         12    1    3    3    0    0  0.12170930975E+01 -0.64731083287E+00 -0.12387383938E+01  0.18533212702E+01  0.00000000000E+00 0. -1.
</event>
<event>
 7    1  0.6046695E-013  0.5052885E+02  0.7816164E-02  0.1300439E+00
        -11   -1    0    0    0    0  0.00000000000E+00  0.00000000000E+00  0.45593999997E+02  0.45594000000E+02  0.51100000000E-03 0.  1.
         11   -1    0    0    0    0 -0.00000000000E+00 -0.00000000000E+00 -0.45593999997E+02  0.45594000000E+02  0.51100000000E-03 0. -1.
    9900012    2    1    2    0    0 -0.31786702308E+01  0.40526572699E+02 -0.81209490349E+00  0.50528849280E+02  0.29999967870E+02 0.  0.
         12    1    1    2    0    0  0.31786702308E+01 -0.40526572699E+02  0.81209490349E+00  0.40659150720E+02  0.00000000000E+00 0. -1.
         11    1    3    3    0    0 -0.30729606036E+01  0.30566676590E+02 -0.16557045032E+01  0.30765340276E+02  0.51100000000E-03 0. -1.
        -11    1    3    3    0    0 -0.80984342693E-01  0.52271835287E+00  0.79389352220E+01  0.79565372908E+01  0.51100000000E-03 0.  1.
         12    1    3    3    0    0 -0.24725284474E-01  0.94371777560E+01 -0.70953256223E+01  0.11806971713E+02  0.00000000000E+00 0. -1.
</event>
<event>
 7    1  0.6046695E-013  0.5052886E+02  0.7816164E-02  0.1300439E+00
        -11   -1    0    0    0    0  0.00000000000E+00  0.00000000000E+00  0.45593999997E+02  0.45594000000E+02  0.51100000000E-03 0.  1.
         11   -1    0    0    0    0 -0.00000000000E+00 -0.00000000000E+00 -0.45593999997E+02  0.45594000000E+02  0.51100000000E-03 0. -1.
    9900012    2    1    2    0    0  0.83078096717E+01 -0.39159366609E+02  0.71196871094E+01  0.50528860322E+02  0.30000001436E+02 0.  0.
         12    1    1    2    0    0 -0.83078096717E+01  0.39159366609E+02 -0.71196871094E+01  0.40659139678E+02  0.00000000000E+00 0. -1.
         11    1    3    3    0    0  0.12609077539E+01 -0.52647049392E+01 -0.73767052585E+01  0.91500156936E+01  0.51100000000E-03 0. -1.
        -11    1    3    3    0    0  0.54405383973E+01 -0.17256992817E+02  0.16570799154E+02  0.24535579145E+02  0.51100000000E-03 0.  1.
        -12    1    3    3    0    0  0.16063635205E+01 -0.16637668853E+02 -0.20744067861E+01  0.16843265484E+02  0.00000000000E+00 0.  1.
</event>
<event>
 7    1  0.6046695E-013  0.5052885E+02  0.7816164E-02  0.1300439E+00
        -11   -1    0    0    0    0  0.00000000000E+00  0.00000000000E+00  0.45593999997E+02  0.45594000000E+02  0.51100000000E-03 0. -1.
         11   -1    0    0    0    0 -0.00000000000E+00 -0.00000000000E+00 -0.45593999997E+02  0.45594000000E+02  0.51100000000E-03 0.  1.
    9900012    2    1    2    0    0 -0.31257025027E+02 -0.22193331502E+02 -0.13550665489E+02  0.50528854511E+02  0.29999983772E+02 0.  0.
         12    1    1    2    0    0  0.31257025027E+02  0.22193331502E+02  0.13550665489E+02  0.40659145489E+02  0.00000000000E+00 0. -1.
         11    1    3    3    0    0  0.23173602667E+00 -0.44452001609E+01  0.21134778171E+01  0.49275039118E+01  0.51100000000E-03 0. -1.
        -11    1    3    3    0    0 -0.34273003305E+02 -0.14217875084E+02 -0.17135454474E+02  0.40870656072E+02  0.51100000000E-03 0.  1.
        -12    1    3    3    0    0  0.27842422518E+01 -0.35302562571E+01  0.14713111680E+01  0.47306945273E+01  0.00000000000E+00 0.  1.
</event>
<event>
 7    1  0.6046695E-013  0.5052888E+02  0.7816164E-02  0.1300439E+00
        -11   -1    0    0    0    0  0.00000000000E+00  0.00000000000E+00  0.45593999997E+02  0.45594000000E+02  0.51100000000E-03 0.  1.
         11   -1    0    0    0    0 -0.00000000000E+00 -0.00000000000E+00 -0.45593999997E+02  0.45594000000E+02  0.51100000000E-03 0. -1.
    9900012    2    1    2    0    0 -0.31556183021E+01  0.13062675551E+02  0.38374119024E+02  0.50528875190E+02  0.30000046628E+02 0.  0.
         12    1    1    2    0    0  0.31556183021E+01 -0.13062675551E+02 -0.38374119024E+02  0.40659124810E+02  0.00000000000E+00 0. -1.
         11    1    3    3    0    0  0.10914968344E+01 -0.25624578657E+01 -0.99413833102E-01  0.27870125626E+01  0.51100000000E-03 0. -1.
        -11    1    3    3    0    0 -0.10724225164E+02  0.93064473381E+01  0.87668389792E+01  0.16687613172E+02  0.51100000000E-03 0.  1.
        -12    1    3    3    0    0  0.64771100277E+01  0.63186860781E+01  0.29706693878E+02  0.31054249455E+02  0.00000000000E+00 0.  1.
</event>
<event>
 7    1  0.7887375E-013  0.5052889E+02  0.7816164E-02  0.1300439E+00
        -11   -1    0    0    0    0  0.00000000000E+00  0.00000000000E+00  0.45593999997E+02  0.45594000000E+02  0.51100000000E-03 0. -1.
         11   -1    0    0    0    0 -0.00000000000E+00 -0.00000000000E+00 -0.45593999997E+02  0.45594000000E+02  0.51100000000E-03 0.  1.
    9900012    2    1    2    0    0  0.24437678183E+01  0.26761859208E+02 -0.30512202654E+02  0.50528885152E+02  0.30000076909E+02 0.  0.
         12    1    1    2    0    0 -0.24437678183E+01 -0.26761859208E+02  0.30512202654E+02  0.40659114848E+02  0.00000000000E+00 0. -1.
         11    1    3    3    0    0  0.46761258354E+01  0.77756279089E+01  0.18196751630E+01  0.92540672229E+01  0.51100000000E-03 0. -1.
        -11    1    3    3    0    0  0.33431088913E+01  0.74013257854E+01 -0.25403480681E+02  0.26670073705E+02  0.51100000000E-03 0.  1.
         12    1    3    3    0    0 -0.55754669084E+01  0.11584905513E+02 -0.69283971358E+01  0.14604744225E+02  0.00000000000E+00 0. -1.
</event>
<event>
 7    1  0.6046695E-013  0.5052885E+02  0.7816164E-02  0.1300439E+00
        -11   -1    0    0    0    0  0.00000000000E+00  0.00000000000E+00  0.45593999997E+02  0.45594000000E+02  0.51100000000E-03 0.  1.
         11   -1    0    0    0    0 -0.00000000000E+00 -0.00000000000E+00 -0.45593999997E+02  0.45594000000E+02  0.51100000000E-03 0. -1.
    9900012    2    1    2    0    0 -0.32725891030E+01  0.31998116750E+02  0.24871204976E+02  0.50528854019E+02  0.29999982276E+02 0.  0.
         12    1    1    2    0    0  0.32725891030E+01 -0.31998116750E+02 -0.24871204976E+02  0.40659145981E+02  0.00000000000E+00 0. -1.
         11    1    3    3    0    0  0.56583000525E-01 -0.27930996986E+01  0.67300438958E+01  0.72868442184E+01  0.51100000000E-03 0. -1.
        -11    1    3    3    0    0 -0.10428241398E+02  0.18538371596E+02  0.74709409357E+01  0.22544054622E+02  0.51100000000E-03 0.  1.
         12    1    3    3    0    0  0.70990692941E+01  0.16252844852E+02  0.10670220145E+02  0.20697955178E+02  0.00000000000E+00 0. -1.
</event>
<event>
 7    1  0.6046695E-013  0.5052886E+02  0.7816164E-02  0.1300439E+00
        -11   -1    0    0    0    0  0.00000000000E+00  0.00000000000E+00  0.45593999997E+02  0.45594000000E+02  0.51100000000E-03 0.  1.
         11   -1    0    0    0    0 -0.00000000000E+00 -0.00000000000E+00 -0.45593999997E+02  0.45594000000E+02  0.51100000000E-03 0. -1.
    9900012    2    1    2    0    0  0.33683144746E+02  0.18682070198E+02  0.13022741399E+02  0.50528858588E+02  0.29999996163E+02 0.  0.
         12    1    1    2    0    0 -0.33683144746E+02 -0.18682070198E+02 -0.13022741399E+02  0.40659141412E+02  0.00000000000E+00 0. -1.
         11    1    3    3    0    0  0.18731719758E+02 -0.24165477752E+01 -0.27574223575E+01  0.19087179114E+02  0.51100000000E-03 0. -1.
        -11    1    3    3    0    0  0.88563999054E+01  0.11740840816E+02  0.13665412027E+02  0.20075523616E+02  0.51100000000E-03 0.  1.
         12    1    3    3    0    0  0.60950250826E+01  0.93577771576E+01  0.21147517299E+01  0.11366155857E+02  0.00000000000E+00 0. -1.
</event>
<event>
 7    1  0.6046695E-013  0.5052886E+02  0.7816164E-02  0.1300439E+00
        -11   -1    0    0    0    0  0.00000000000E+00  0.00000000000E+00  0.45593999997E+02  0.45594000000E+02  0.51100000000E-03 0.  1.
         11   -1    0    0    0    0 -0.00000000000E+00 -0.00000000000E+00 -0.45593999997E+02  0.45594000000E+02  0.51100000000E-03 0. -1.
    9900012    2    1    2    0    0  0.22580085399E+02  0.13728828083E+02  0.30900241370E+02  0.50528857192E+02  0.29999991922E+02 0.  0.
         12    1    1    2    0    0 -0.22580085399E+02 -0.13728828083E+02 -0.30900241370E+02  0.40659142808E+02  0.00000000000E+00 0. -1.
         11    1    3    3    0    0  0.32634141537E+01  0.39632812068E+01 -0.33411922040E+01  0.61254416549E+01  0.51100000000E-03 0. -1.
        -11    1    3    3    0    0  0.56867440443E+01  0.24131129372E+01  0.26268301367E+02  0.26984918544E+02  0.51100000000E-03 0.  1.
        -12    1    3    3    0    0  0.13629927201E+02  0.73524339393E+01  0.79731322067E+01  0.17418496993E+02  0.00000000000E+00 0.  1.
</event>
<event>
 7    1  0.6046695E-013  0.5052887E+02  0.7816164E-02  0.1300439E+00
        -11   -1    0    0    0    0  0.00000000000E+00  0.00000000000E+00  0.45593999997E+02  0.45594000000E+02  0.51100000000E-03 0.  1.
         11   -1    0    0    0    0 -0.00000000000E+00 -0.00000000000E+00 -0.45593999997E+02  0.45594000000E+02  0.51100000000E-03 0. -1.
    9900012    2    1    2    0    0 -0.71188190316E+01  0.49036130995E+01  0.39729609985E+02  0.50528869225E+02  0.30000028497E+02 0.  0.
         12    1    1    2    0    0  0.71188190316E+01 -0.49036130995E+01 -0.39729609985E+02  0.40659130775E+02  0.00000000000E+00 0. -1.
         11    1    3    3    0    0  0.17139882348E+01  0.18354458323E+01 -0.17826029600E+01  0.30796575534E+01  0.51100000000E-03 0. -1.
        -11    1    3    3    0    0 -0.47113180423E+01 -0.19030141953E+00  0.41915409096E+02  0.42179784877E+02  0.51100000000E-03 0.  1.
        -12    1    3    3    0    0 -0.41214892241E+01  0.32584686867E+01 -0.40319615138E+00  0.52694267945E+01  0.00000000000E+00 0.  1.
</event>
<event>
 7    1  0.6046695E-013  0.5052886E+02  0.7816164E-02  0.1300439E+00
        -11   -1    0    0    0    0  0.00000000000E+00  0.00000000000E+00  0.45593999997E+02  0.45594000000E+02  0.51100000000E-03 0. -1.
         11   -1    0    0    0    0 -0.00000000000E+00 -0.00000000000E+00 -0.45593999997E+02  0.45594000000E+02  0.51100000000E-03 0.  1.
    9900012    2    1    2    0    0 -0.13990394149E+02 -0.84076318486E+01 -0.37239045103E+02  0.50528857339E+02  0.29999992367E+02 0.  0.
         12    1    1    2    0    0  0.13990394149E+02  0.84076318486E+01  0.37239045103E+02  0.40659142661E+02  0.00000000000E+00 0. -1.
         11    1    3    3    0    0  0.26470180713E+01  0.13031882859E+00 -0.93554454389E+00  0.28105037843E+01  0.51100000000E-03 0. -1.
        -11    1    3    3    0    0 -0.19450859087E+02 -0.68908217560E+01 -0.38573171297E+02  0.43745958532E+02  0.51100000000E-03 0.  1.
        -12    1    3    3    0    0  0.28134468662E+01 -0.16471289212E+01  0.22696707383E+01  0.39723950222E+01  0.00000000000E+00 0.  1.
</event>
<event>
 7    1  0.6046695E-013  0.5052886E+02  0.7816164E-02  0.1300439E+00
        -11   -1    0    0    0    0  0.00000000000E+00  0.00000000000E+00  0.45593999997E+02  0.45594000000E+02  0.51100000000E-03 0.  1.
         11   -1    0    0    0    0 -0.00000000000E+00 -0.00000000000E+00 -0.45593999997E+02  0.45594000000E+02  0.51100000000E-03 0. -1.
    9900012    2    1    2    0    0 -0.19593903655E+02 -0.13328542695E+02  0.33039290865E+02  0.50528857711E+02  0.29999993499E+02 0.  0.
         12    1    1    2    0    0  0.19593903655E+02  0.13328542695E+02 -0.33039290865E+02  0.40659142289E+02  0.00000000000E+00 0. -1.
         11    1    3    3    0    0  0.51068234413E+00 -0.10433703496E+02  0.44670047776E+01  0.11361210193E+02  0.51100000000E-03 0. -1.
        -11    1    3    3    0    0 -0.14909194596E+02 -0.99703229239E+01  0.20546607575E+02  0.27273696225E+02  0.51100000000E-03 0.  1.
         12    1    3    3    0    0 -0.51953914030E+01  0.70754837251E+01  0.80256785127E+01  0.11893951293E+02  0.00000000000E+00 0. -1.
</event>
<event>
 7    1  0.6046695E-013  0.5052883E+02  0.7816164E-02  0.1300439E+00
        -11   -1    0    0    0    0  0.00000000000E+00  0.00000000000E+00  0.45593999997E+02  0.45594000000E+02  0.51100000000E-03 0.  1.
         11   -1    0    0    0    0 -0.00000000000E+00 -0.00000000000E+00 -0.45593999997E+02  0.45594000000E+02  0.51100000000E-03 0. -1.
    9900012    2    1    2    0    0 -0.31701392903E+02 -0.17107617188E+02  0.18855219928E+02  0.50528828878E+02  0.29999905856E+02 0.  0.
         12    1    1    2    0    0  0.31701392903E+02  0.17107617188E+02 -0.18855219928E+02  0.40659171122E+02  0.00000000000E+00 0. -1.
         11    1    3    3    0    0 -0.99223865187E+01 -0.13676191979E+02 -0.48062681985E+01  0.17566792409E+02  0.51100000000E-03 0. -1.
        -11    1    3    3    0    0 -0.20113619912E+02 -0.12995342786E+01  0.21726948711E+02  0.29636241257E+02  0.51100000000E-03 0.  1.
         12    1    3    3    0    0 -0.16653864725E+01 -0.21318909303E+01  0.19345394149E+01  0.33257952116E+01  0.00000000000E+00 0. -1.
</event>
<event>
 7    1  0.6046695E-013  0.5052886E+02  0.7816164E-02  0.1300439E+00
        -11   -1    0    0    0    0  0.00000000000E+00  0.00000000000E+00  0.45593999997E+02  0.45594000000E+02  0.51100000000E-03 0.  1.
         11   -1    0    0    0    0 -0.00000000000E+00 -0.00000000000E+00 -0.45593999997E+02  0.45594000000E+02  0.51100000000E-03 0. -1.
    9900012    2    1    2    0    0  0.35210599372E+02  0.19280504571E+02 -0.64530306255E+01  0.50528858729E+02  0.29999996592E+02 0.  0.
         12    1    1    2    0    0 -0.35210599372E+02 -0.19280504571E+02  0.64530306255E+01  0.40659141271E+02  0.00000000000E+00 0. -1.
         11    1    3    3    0    0  0.29090633596E+02  0.21516021794E+02 -0.15171120929E+02  0.39234768604E+02  0.51100000000E-03 0. -1.
        -11    1    3    3    0    0  0.25676344813E+01 -0.21757861296E+01  0.57592972574E+01  0.66705544951E+01  0.51100000000E-03 0.  1.
         12    1    3    3    0    0  0.35523312950E+01 -0.59731093620E-01  0.29587930460E+01  0.46235356300E+01  0.00000000000E+00 0. -1.
</event>
<event>
 7    1  0.6046695E-013  0.5052888E+02  0.7816164E-02  0.1300439E+00
        -11   -1    0    0    0    0  0.00000000000E+00  0.00000000000E+00  0.45593999997E+02  0.45594000000E+02  0.51100000000E-03 0.  1.
         11   -1    0    0    0    0 -0.00000000000E+00 -0.00000000000E+00 -0.45593999997E+02  0.45594000000E+02  0.51100000000E-03 0. -1.
    9900012    2    1    2    0    0 -0.31790376544E+02 -0.16349450450E+02  0.19370898062E+02  0.50528877253E+02  0.30000052900E+02 0.  0.
         12    1    1    2    0    0  0.31790376544E+02  0.16349450450E+02 -0.19370898062E+02  0.40659122747E+02  0.00000000000E+00 0. -1.
         11    1    3    3    0    0 -0.26376804735E+00  0.39874731076E+01 -0.99120052501E-01  0.39974167174E+01  0.51100000000E-03 0. -1.
        -11    1    3    3    0    0 -0.32242931358E+02 -0.22793000726E+02  0.17049400821E+02  0.43009412612E+02  0.51100000000E-03 0.  1.
        -12    1    3    3    0    0  0.71632286134E+00  0.24560771684E+01  0.24206172931E+01  0.35220479239E+01  0.00000000000E+00 0.  1.
</event>
<event>
 7    1  0.6046695E-013  0.5052883E+02  0.7816164E-02  0.1300439E+00
        -11   -1    0    0    0    0  0.00000000000E+00  0.00000000000E+00  0.45593999997E+02  0.45594000000E+02  0.51100000000E-03 0. -1.
         11   -1    0    0    0    0 -0.00000000000E+00 -0.00000000000E+00 -0.45593999997E+02  0.45594000000E+02  0.51100000000E-03 0.  1.
    9900012    2    1    2    0    0 -0.26118392288E+02 -0.10161228511E+01 -0.31144268127E+02  0.50528826883E+02  0.29999899794E+02 0.  0.
         12    1    1    2    0    0  0.26118392288E+02  0.10161228511E+01  0.31144268127E+02  0.40659173117E+02  0.00000000000E+00 0. -1.
         11    1    3    3    0    0 -0.73915853439E+01  0.12666353575E+01 -0.14754195562E+01  0.76430859051E+01  0.51100000000E-03 0. -1.
        -11    1    3    3    0    0 -0.11370990460E+02  0.48479623663E+01 -0.30195185951E+02  0.32627464168E+02  0.51100000000E-03 0.  1.
        -12    1    3    3    0    0 -0.73558164840E+01 -0.71307205750E+01  0.52633738057E+00  0.10258276810E+02  0.00000000000E+00 0.  1.
</event>
<event>
 7    1  0.6046695E-013  0.5052886E+02  0.7816164E-02  0.1300439E+00
        -11   -1    0    0    0    0  0.00000000000E+00  0.00000000000E+00  0.45593999997E+02  0.45594000000E+02  0.51100000000E-03 0. -1.
         11   -1    0    0    0    0 -0.00000000000E+00 -0.00000000000E+00 -0.45593999997E+02  0.45594000000E+02  0.51100000000E-03 0.  1.
    9900012    2    1    2    0    0 -0.39381227526E+02 -0.93852837595E+01  0.37684778474E+01  0.50528855174E+02  0.29999985786E+02 0.  0.
         12    1    1    2    0    0  0.39381227526E+02  0.93852837595E+01 -0.37684778474E+01  0.40659144826E+02  0.00000000000E+00 0. -1.
         11    1    3    3    0    0 -0.39228936899E+01 -0.10504708351E+02 -0.14936297442E+01  0.11312334972E+02  0.51100000000E-03 0. -1.
        -11    1    3    3    0    0 -0.16344964737E+02  0.33504449943E+01  0.99288410340E+01  0.19415592663E+02  0.51100000000E-03 0.  1.
        -12    1    3    3    0    0 -0.19113369099E+02 -0.22310204028E+01 -0.46667334425E+01  0.19800927539E+02  0.00000000000E+00 0.  1.
</event>
<event>
 7    1  0.6046695E-013  0.5052886E+02  0.7816164E-02  0.1300439E+00
        -11   -1    0    0    0    0  0.00000000000E+00  0.00000000000E+00  0.45593999997E+02  0.45594000000E+02  0.51100000000E-03 0. -1.
         11   -1    0    0    0    0 -0.00000000000E+00 -0.00000000000E+00 -0.45593999997E+02  0.45594000000E+02  0.51100000000E-03 0.  1.
    9900012    2    1    2    0    0 -0.25257822682E+01 -0.25800919854E+01 -0.40498506686E+02  0.50528862103E+02  0.30000006849E+02 0.  0.
         12    1    1    2    0    0  0.25257822682E+01  0.25800919854E+01  0.40498506686E+02  0.40659137897E+02  0.00000000000E+00 0. -1.
         11    1    3    3    0    0  0.10134841495E+02  0.57763732028E+01 -0.17110969473E+02  0.20709098871E+02  0.51100000000E-03 0. -1.
        -11    1    3    3    0    0 -0.75411258119E+01 -0.10419912849E+02 -0.14765063504E+02  0.19581886090E+02  0.51100000000E-03 0.  1.
        -12    1    3    3    0    0 -0.51194979511E+01  0.20634476604E+01 -0.86224737085E+01  0.10237877142E+02  0.00000000000E+00 0.  1.
</event>
<event>
 7    1  0.6046695E-013  0.5052885E+02  0.7816164E-02  0.1300439E+00
        -11   -1    0    0    0    0  0.00000000000E+00  0.00000000000E+00  0.45593999997E+02  0.45594000000E+02  0.51100000000E-03 0. -1.
         11   -1    0    0    0    0 -0.00000000000E+00 -0.00000000000E+00 -0.45593999997E+02  0.45594000000E+02  0.51100000000E-03 0.  1.
    9900012    2    1    2    0    0 -0.20452911294E+01 -0.33550834086E+02 -0.22876293137E+02  0.50528850090E+02  0.29999970335E+02 0.  0.
         12    1    1    2    0    0  0.20452911294E+01  0.33550834086E+02  0.22876293137E+02  0.40659149910E+02  0.00000000000E+00 0. -1.
         11    1    3    3    0    0 -0.12755218549E+02 -0.75241944354E+01 -0.14253411144E+02  0.20554046600E+02  0.51100000000E-03 0. -1.
        -11    1    3    3    0    0  0.37523035376E+01 -0.16006825835E+02 -0.39242259657E+01  0.16902597577E+02  0.51100000000E-03 0.  1.
         12    1    3    3    0    0  0.69576238819E+01 -0.10019813816E+02 -0.46986560274E+01  0.13072205914E+02  0.00000000000E+00 0. -1.
</event>
<event>
 7    1  0.6046695E-013  0.5052888E+02  0.7816164E-02  0.1300439E+00
        -11   -1    0    0    0    0  0.00000000000E+00  0.00000000000E+00  0.45593999997E+02  0.45594000000E+02  0.51100000000E-03 0. -1.
         11   -1    0    0    0    0 -0.00000000000E+00 -0.00000000000E+00 -0.45593999997E+02  0.45594000000E+02  0.51100000000E-03 0.  1.
    9900012    2    1    2    0    0  0.28668511679E+02 -0.14413461662E+02 -0.24970639603E+02  0.50528877024E+02  0.30000052201E+02 0.  0.
         12    1    1    2    0    0 -0.28668511679E+02  0.14413461662E+02  0.24970639603E+02  0.40659122976E+02  0.00000000000E+00 0. -1.
         11    1    3    3    0    0  0.16048802216E+01 -0.71706125693E+01  0.29405394214E+01  0.79145497342E+01  0.51100000000E-03 0. -1.
        -11    1    3    3    0    0  0.36115938261E+01 -0.69560379700E+00 -0.14203875764E+02  0.14672340017E+02  0.51100000000E-03 0.  1.
         12    1    3    3    0    0  0.23452037632E+02 -0.65472452962E+01 -0.13707303261E+02  0.27941987272E+02  0.00000000000E+00 0. -1.
</event>
<event>
 7    1  0.6046695E-013  0.5052886E+02  0.7816164E-02  0.1300439E+00
        -11   -1    0    0    0    0  0.00000000000E+00  0.00000000000E+00  0.45593999997E+02  0.45594000000E+02  0.51100000000E-03 0.  1.
         11   -1    0    0    0    0 -0.00000000000E+00 -0.00000000000E+00 -0.45593999997E+02  0.45594000000E+02  0.51100000000E-03 0. -1.
    9900012    2    1    2    0    0  0.12709401548E+02  0.26631528762E+02  0.27971388119E+02  0.50528858774E+02  0.29999996730E+02 0.  0.
         12    1    1    2    0    0 -0.12709401548E+02 -0.26631528762E+02 -0.27971388119E+02  0.40659141226E+02  0.00000000000E+00 0. -1.
         11    1    3    3    0    0  0.10475492363E+02  0.40611939694E+01  0.13055830563E+02  0.17224515920E+02  0.51100000000E-03 0. -1.
        -11    1    3    3    0    0 -0.78616434077E+01  0.13886834984E+02  0.11145618717E+02  0.19464697270E+02  0.51100000000E-03 0.  1.
        -12    1    3    3    0    0  0.10095552592E+02  0.86834998083E+01  0.37699388381E+01  0.13839645585E+02  0.00000000000E+00 0.  1.
</event>
<event>
 7    1  0.6046695E-013  0.5052886E+02  0.7816164E-02  0.1300439E+00
        -11   -1    0    0    0    0  0.00000000000E+00  0.00000000000E+00  0.45593999997E+02  0.45594000000E+02  0.51100000000E-03 0. -1.
         11   -1    0    0    0    0 -0.00000000000E+00 -0.00000000000E+00 -0.45593999997E+02  0.45594000000E+02  0.51100000000E-03 0.  1.
    9900012    2    1    2    0    0 -0.19341443761E+02  0.25472046893E+02 -0.25104764758E+02  0.50528857938E+02  0.29999994189E+02 0.  0.
         12    1    1    2    0    0  0.19341443761E+02 -0.25472046893E+02  0.25104764758E+02  0.40659142062E+02  0.00000000000E+00 0. -1.
         11    1    3    3    0    0  0.73082786299E+01  0.10711012479E+01 -0.53538686055E+01  0.91226149608E+01  0.51100000000E-03 0. -1.
        -11    1    3    3    0    0 -0.12074741807E+02  0.83100347111E+01 -0.72329081252E+01  0.16345367136E+02  0.51100000000E-03 0.  1.
         12    1    3    3    0    0 -0.14574980584E+02  0.16090910933E+02 -0.12517988027E+02  0.25060875842E+02  0.00000000000E+00 0. -1.
</event>
<event>
 7    1  0.6046695E-013  0.5052886E+02  0.7816164E-02  0.1300439E+00
        -11   -1    0    0    0    0  0.00000000000E+00  0.00000000000E+00  0.45593999997E+02  0.45594000000E+02  0.51100000000E-03 0.  1.
         11   -1    0    0    0    0 -0.00000000000E+00 -0.00000000000E+00 -0.45593999997E+02  0.45594000000E+02  0.51100000000E-03 0. -1.
    9900012    2    1    2    0    0  0.24634531600E+02  0.11936239576E+02  0.30063791915E+02  0.50528861462E+02  0.30000004900E+02 0.  0.
         12    1    1    2    0    0 -0.24634531600E+02 -0.11936239576E+02 -0.30063791915E+02  0.40659138538E+02  0.00000000000E+00 0. -1.
         11    1    3    3    0    0 -0.26368074839E+01  0.36106762943E+01  0.72141454107E+01  0.84872628849E+01  0.51100000000E-03 0. -1.
        -11    1    3    3    0    0  0.27736717459E+02  0.74518329307E+01  0.25999075031E+02  0.38740253124E+02  0.51100000000E-03 0.  1.
        -12    1    3    3    0    0 -0.46537837449E+00  0.87373035065E+00 -0.31494285265E+01  0.33013454531E+01  0.00000000000E+00 0.  1.
</event>
<event>
 7    1  0.6046695E-013  0.5052887E+02  0.7816164E-02  0.1300439E+00
        -11   -1    0    0    0    0  0.00000000000E+00  0.00000000000E+00  0.45593999997E+02  0.45594000000E+02  0.51100000000E-03 0.  1.
         11   -1    0    0    0    0 -0.00000000000E+00 -0.00000000000E+00 -0.45593999997E+02  0.45594000000E+02  0.51100000000E-03 0. -1.
    9900012    2    1    2    0    0  0.19720358793E+02  0.98716084501E+01  0.34158800618E+02  0.50528869857E+02  0.30000030417E+02 0.  0.
         12    1    1    2    0    0 -0.19720358793E+02 -0.98716084501E+01 -0.34158800618E+02  0.40659130143E+02  0.00000000000E+00 0. -1.
         11    1    3    3    0    0 -0.32114748807E+01  0.78147804699E+01  0.14284164463E+01  0.85688236362E+01  0.51100000000E-03 0. -1.
        -11    1    3    3    0    0  0.10987224937E+02 -0.52422900349E+01  0.16902393795E+02  0.20830065599E+02  0.51100000000E-03 0.  1.
         12    1    3    3    0    0  0.11944608737E+02  0.72991180151E+01  0.15827990377E+02  0.21129980621E+02  0.00000000000E+00 0. -1.
</event>
<event>
 7    1  0.6046695E-013  0.5052901E+02  0.7816164E-02  0.1300438E+00
        -11   -1    0    0    0    0  0.00000000000E+00  0.00000000000E+00  0.45593999997E+02  0.45594000000E+02  0.51100000000E-03 0. -1.
         11   -1    0    0    0    0 -0.00000000000E+00 -0.00000000000E+00 -0.45593999997E+02  0.45594000000E+02  0.51100000000E-03 0.  1.
    9900012    2    1    2    0    0 -0.22940014162E+02 -0.16057686048E+02 -0.29479827260E+02  0.50529006576E+02  0.30000445986E+02 0.  0.
         12    1    1    2    0    0  0.22940014162E+02  0.16057686048E+02  0.29479827260E+02  0.40658993424E+02  0.00000000000E+00 0. -1.
         11    1    3    3    0    0  0.47019259362E+01 -0.29645936791E+01 -0.74841731913E+01  0.93225410597E+01  0.51100000000E-03 0. -1.
        -11    1    3    3    0    0 -0.60789069740E+01 -0.11295543061E+02 -0.53129261838E+01  0.13884148801E+02  0.51100000000E-03 0.  1.
         12    1    3    3    0    0 -0.21563033124E+02 -0.17975493082E+01 -0.16682727884E+02  0.27322316715E+02  0.00000000000E+00 0. -1.
</event>
<event>
 7    1  0.6046695E-013  0.5052886E+02  0.7816164E-02  0.1300439E+00
        -11   -1    0    0    0    0  0.00000000000E+00  0.00000000000E+00  0.45593999997E+02  0.45594000000E+02  0.51100000000E-03 0.  1.
         11   -1    0    0    0    0 -0.00000000000E+00 -0.00000000000E+00 -0.45593999997E+02  0.45594000000E+02  0.51100000000E-03 0. -1.
    9900012    2    1    2    0    0 -0.33599766741E+02  0.12336112491E+02  0.19288383079E+02  0.50528859352E+02  0.29999998486E+02 0.  0.
         12    1    1    2    0    0  0.33599766741E+02 -0.12336112491E+02 -0.19288383079E+02  0.40659140648E+02  0.00000000000E+00 0. -1.
         11    1    3    3    0    0 -0.31873392413E+02  0.53100842393E+01  0.50290944254E+01  0.32701711416E+02  0.51100000000E-03 0. -1.
        -11    1    3    3    0    0  0.30326662140E+01  0.41462969712E+01  0.68256744904E+01  0.85427557292E+01  0.51100000000E-03 0.  1.
        -12    1    3    3    0    0 -0.47590405424E+01  0.28797312801E+01  0.74336141628E+01  0.92843922069E+01  0.00000000000E+00 0.  1.
</event>
<event>
 7    1  0.6046695E-013  0.5052886E+02  0.7816164E-02  0.1300439E+00
        -11   -1    0    0    0    0  0.00000000000E+00  0.00000000000E+00  0.45593999997E+02  0.45594000000E+02  0.51100000000E-03 0.  1.
         11   -1    0    0    0    0 -0.00000000000E+00 -0.00000000000E+00 -0.45593999997E+02  0.45594000000E+02  0.51100000000E-03 0. -1.
    9900012    2    1    2    0    0 -0.26782067899E+02 -0.20549094708E+02  0.22663213577E+02  0.50528859528E+02  0.29999999022E+02 0.  0.
         12    1    1    2    0    0  0.26782067899E+02  0.20549094708E+02 -0.22663213577E+02  0.40659140472E+02  0.00000000000E+00 0. -1.
         11    1    3    3    0    0 -0.14552582155E+02 -0.10804923421E+02 -0.16204419230E+01  0.18197523178E+02  0.51100000000E-03 0. -1.
        -11    1    3    3    0    0 -0.10058453234E+02 -0.13500238503E+02  0.20851465197E+02  0.26799487350E+02  0.51100000000E-03 0.  1.
        -12    1    3    3    0    0 -0.21710325100E+01  0.37560672158E+01  0.34321903026E+01  0.55318490003E+01  0.00000000000E+00 0.  1.
</event>
<event>
 7    1  0.6046695E-013  0.5052883E+02  0.7816164E-02  0.1300439E+00
        -11   -1    0    0    0    0  0.00000000000E+00  0.00000000000E+00  0.45593999997E+02  0.45594000000E+02  0.51100000000E-03 0.  1.
         11   -1    0    0    0    0 -0.00000000000E+00 -0.00000000000E+00 -0.45593999997E+02  0.45594000000E+02  0.51100000000E-03 0. -1.
    9900012    2    1    2    0    0 -0.25356733002E+02  0.31307527548E+02 -0.54811655448E+01  0.50528826798E+02  0.29999899536E+02 0.  0.
         12    1    1    2    0    0  0.25356733002E+02 -0.31307527548E+02  0.54811655448E+01  0.40659173202E+02  0.00000000000E+00 0. -1.
         11    1    3    3    0    0 -0.70107830711E+01 -0.48325103052E+01 -0.83694239629E+00  0.85559749857E+01  0.51100000000E-03 0. -1.
        -11    1    3    3    0    0 -0.82638651212E+01  0.15034323868E+02  0.28935172688E+01  0.17398126433E+02  0.51100000000E-03 0.  1.
         12    1    3    3    0    0 -0.10082084810E+02  0.21105713985E+02 -0.75377404173E+01  0.24574725380E+02  0.00000000000E+00 0. -1.
</event>
<event>
 7    1  0.6046695E-013  0.5052885E+02  0.7816164E-02  0.1300439E+00
        -11   -1    0    0    0    0  0.00000000000E+00  0.00000000000E+00  0.45593999997E+02  0.45594000000E+02  0.51100000000E-03 0.  1.
         11   -1    0    0    0    0 -0.00000000000E+00 -0.00000000000E+00 -0.45593999997E+02  0.45594000000E+02  0.51100000000E-03 0. -1.
    9900012    2    1    2    0    0 -0.21352283688E+02  0.19897533999E+02  0.28307859818E+02  0.50528845983E+02  0.29999957849E+02 0.  0.
         12    1    1    2    0    0  0.21352283688E+02 -0.19897533999E+02 -0.28307859818E+02  0.40659154017E+02  0.00000000000E+00 0. -1.
         11    1    3    3    0    0 -0.91850513004E+01  0.56505609642E+00  0.22527336422E+02  0.24334447648E+02  0.51100000000E-03 0. -1.
        -11    1    3    3    0    0 -0.19244698136E+01  0.13303144350E+02  0.13473940016E+01  0.13508986065E+02  0.51100000000E-03 0.  1.
         12    1    3    3    0    0 -0.10242762574E+02  0.60293335529E+01  0.44331293941E+01  0.12685412270E+02  0.00000000000E+00 0. -1.
</event>
<event>
 7    1  0.6046695E-013  0.5052886E+02  0.7816164E-02  0.1300439E+00
        -11   -1    0    0    0    0  0.00000000000E+00  0.00000000000E+00  0.45593999997E+02  0.45594000000E+02  0.51100000000E-03 0. -1.
         11   -1    0    0    0    0 -0.00000000000E+00 -0.00000000000E+00 -0.45593999997E+02  0.45594000000E+02  0.51100000000E-03 0.  1.
    9900012    2    1    2    0    0  0.12749769661E+01  0.26594647767E+02 -0.30728895327E+02  0.50528857558E+02  0.29999993035E+02 0.  0.
         12    1    1    2    0    0 -0.12749769661E+01 -0.26594647767E+02  0.30728895327E+02  0.40659142442E+02  0.00000000000E+00 0. -1.
         11    1    3    3    0    0 -0.37459377948E+01 -0.27718760817E+01 -0.14730659360E+00  0.46623005553E+01  0.51100000000E-03 0. -1.
        -11    1    3    3    0    0  0.24209378062E+01  0.28310659629E+02 -0.31939479579E+02  0.42749090570E+02  0.51100000000E-03 0.  1.
        -12    1    3    3    0    0  0.25999769547E+01  0.10558642187E+01  0.13578908460E+01  0.31174664333E+01  0.00000000000E+00 0.  1.
</event>
<event>
 7    1  0.6046695E-013  0.5052886E+02  0.7816164E-02  0.1300439E+00
        -11   -1    0    0    0    0  0.00000000000E+00  0.00000000000E+00  0.45593999997E+02  0.45594000000E+02  0.51100000000E-03 0. -1.
         11   -1    0    0    0    0 -0.00000000000E+00 -0.00000000000E+00 -0.45593999997E+02  0.45594000000E+02  0.51100000000E-03 0.  1.
    9900012    2    1    2    0    0 -0.32525733913E+02  0.10701100711E+02 -0.21925524602E+02  0.50528861396E+02  0.30000004699E+02 0.  0.
         12    1    1    2    0    0  0.32525733913E+02 -0.10701100711E+02  0.21925524602E+02  0.40659138604E+02  0.00000000000E+00 0. -1.
         11    1    3    3    0    0  0.50356233403E+01  0.22659519994E+01 -0.93741610182E+00  0.56009633187E+01  0.51100000000E-03 0. -1.
        -11    1    3    3    0    0 -0.31551400470E+02  0.40984810127E+01 -0.19654336068E+02  0.37397611485E+02  0.51100000000E-03 0.  1.
        -12    1    3    3    0    0 -0.60099567829E+01  0.43366676987E+01 -0.13337724318E+01  0.75302865922E+01  0.00000000000E+00 0.  1.
</event>
<event>
 7    1  0.6046695E-013  0.5052886E+02  0.7816164E-02  0.1300439E+00
        -11   -1    0    0    0    0  0.00000000000E+00  0.00000000000E+00  0.45593999997E+02  0.45594000000E+02  0.51100000000E-03 0.  1.
         11   -1    0    0    0    0 -0.00000000000E+00 -0.00000000000E+00 -0.45593999997E+02  0.45594000000E+02  0.51100000000E-03 0. -1.
    9900012    2    1    2    0    0 -0.12114563261E+02 -0.34606399755E+02 -0.17572698351E+02  0.50528864810E+02  0.30000015078E+02 0.  0.
         12    1    1    2    0    0  0.12114563261E+02  0.34606399755E+02  0.17572698351E+02  0.40659135190E+02  0.00000000000E+00 0. -1.
         11    1    3    3    0    0 -0.25576550129E+01 -0.12635558616E+01 -0.11173128850E+02  0.11531564558E+02  0.51100000000E-03 0. -1.
        -11    1    3    3    0    0 -0.79328250112E+01 -0.24522299997E+02  0.30686934691E+01  0.25955534856E+02  0.51100000000E-03 0.  1.
        -12    1    3    3    0    0 -0.16240832370E+01 -0.88205438970E+01 -0.94682629694E+01  0.13041765396E+02  0.00000000000E+00 0.  1.
</event>
<event>
 7    1  0.6046695E-013  0.5052884E+02  0.7816164E-02  0.1300439E+00
        -11   -1    0    0    0    0  0.00000000000E+00  0.00000000000E+00  0.45593999997E+02  0.45594000000E+02  0.51100000000E-03 0. -1.
         11   -1    0    0    0    0 -0.00000000000E+00 -0.00000000000E+00 -0.45593999997E+02  0.45594000000E+02  0.51100000000E-03 0.  1.
    9900012    2    1    2    0    0  0.10039202487E+02  0.26392703301E+02 -0.29254183754E+02  0.50528835705E+02  0.29999926608E+02 0.  0.
         12    1    1    2    0    0 -0.10039202487E+02 -0.26392703301E+02  0.29254183754E+02  0.40659164295E+02  0.00000000000E+00 0. -1.
         11    1    3    3    0    0  0.51285226958E+01  0.18131331288E+01 -0.52162804378E+00  0.54645487335E+01  0.51100000000E-03 0. -1.
        -11    1    3    3    0    0  0.27531418039E+00  0.27940517053E+02 -0.19057983154E+02  0.33822404013E+02  0.51100000000E-03 0.  1.
        -12    1    3    3    0    0  0.46353656106E+01 -0.33609468813E+01 -0.96745725565E+01  0.11241882958E+02  0.00000000000E+00 0.  1.
</event>
<event>
 7    1  0.6046695E-013  0.5052886E+02  0.7816164E-02  0.1300439E+00
        -11   -1    0    0    0    0  0.00000000000E+00  0.00000000000E+00  0.45593999997E+02  0.45594000000E+02  0.51100000000E-03 0. -1.
         11   -1    0    0    0    0 -0.00000000000E+00 -0.00000000000E+00 -0.45593999997E+02  0.45594000000E+02  0.51100000000E-03 0.  1.
    9900012    2    1    2    0    0 -0.37818812684E+02  0.14758903621E+02 -0.22533526096E+01  0.50528862934E+02  0.30000009375E+02 0.  0.
         12    1    1    2    0    0  0.37818812684E+02 -0.14758903621E+02  0.22533526096E+01  0.40659137066E+02  0.00000000000E+00 0. -1.
         11    1    3    3    0    0 -0.13427334131E+02  0.69150127960E-01 -0.13389702351E+02  0.18962653108E+02  0.51100000000E-03 0. -1.
        -11    1    3    3    0    0 -0.65478070064E+01  0.82150580062E+01  0.31004454172E+01  0.10953251421E+02  0.51100000000E-03 0.  1.
         12    1    3    3    0    0 -0.17843671547E+02  0.64746954868E+01  0.80359043238E+01  0.20612958406E+02  0.00000000000E+00 0. -1.
</event>
<event>
 7    1  0.6046695E-013  0.5052885E+02  0.7816164E-02  0.1300439E+00
        -11   -1    0    0    0    0  0.00000000000E+00  0.00000000000E+00  0.45593999997E+02  0.45594000000E+02  0.51100000000E-03 0. -1.
         11   -1    0    0    0    0 -0.00000000000E+00 -0.00000000000E+00 -0.45593999997E+02  0.45594000000E+02  0.51100000000E-03 0.  1.
    9900012    2    1    2    0    0  0.14249036612E+02 -0.83294401127E+01 -0.37158465273E+02  0.50528853939E+02  0.29999982034E+02 0.  0.
         12    1    1    2    0    0 -0.14249036612E+02  0.83294401127E+01  0.37158465273E+02  0.40659146061E+02  0.00000000000E+00 0. -1.
         11    1    3    3    0    0  0.37483283583E+01 -0.98993050293E+01 -0.31771047620E+01  0.11051705772E+02  0.51100000000E-03 0. -1.
        -11    1    3    3    0    0  0.10289089741E+02  0.80039890901E+01 -0.26991357326E+02  0.29974365375E+02  0.51100000000E-03 0.  1.
         12    1    3    3    0    0  0.21161851278E+00 -0.64341241735E+01 -0.69900031848E+01  0.95027827923E+01  0.00000000000E+00 0. -1.
</event>
<event>
 7    1  0.6046695E-013  0.5052887E+02  0.7816164E-02  0.1300439E+00
        -11   -1    0    0    0    0  0.00000000000E+00  0.00000000000E+00  0.45593999997E+02  0.45594000000E+02  0.51100000000E-03 0. -1.
         11   -1    0    0    0    0 -0.00000000000E+00 -0.00000000000E+00 -0.45593999997E+02  0.45594000000E+02  0.51100000000E-03 0.  1.
    9900012    2    1    2    0    0 -0.40142925619E+02 -0.26332555078E+01 -0.58971610264E+01  0.50528867939E+02  0.30000024587E+02 0.  0.
         12    1    1    2    0    0  0.40142925619E+02  0.26332555078E+01  0.58971610264E+01  0.40659132061E+02  0.00000000000E+00 0. -1.
         11    1    3    3    0    0  0.12550899595E+01  0.58214132746E+01 -0.53624564337E+01  0.80137408608E+01  0.51100000000E-03 0. -1.
        -11    1    3    3    0    0 -0.16932613477E+02 -0.38399111969E+01 -0.24965532862E+01  0.17541125840E+02  0.51100000000E-03 0.  1.
         12    1    3    3    0    0 -0.24465402102E+02 -0.46147575855E+01  0.19618486935E+01  0.24974001238E+02  0.00000000000E+00 0. -1.
</event>
<event>
 7    1  0.6046695E-013  0.5052885E+02  0.7816164E-02  0.1300439E+00
        -11   -1    0    0    0    0  0.00000000000E+00  0.00000000000E+00  0.45593999997E+02  0.45594000000E+02  0.51100000000E-03 0.  1.
         11   -1    0    0    0    0 -0.00000000000E+00 -0.00000000000E+00 -0.45593999997E+02  0.45594000000E+02  0.51100000000E-03 0. -1.
    9900012    2    1    2    0    0  0.18467397040E+02 -0.19177573835E+01  0.36172417007E+02  0.50528852211E+02  0.29999976782E+02 0.  0.
         12    1    1    2    0    0 -0.18467397040E+02  0.19177573835E+01 -0.36172417007E+02  0.40659147789E+02  0.00000000000E+00 0. -1.
         11    1    3    3    0    0  0.40508127246E+01  0.69140358947E+01 -0.46091986071E+00  0.80265449268E+01  0.51100000000E-03 0. -1.
        -11    1    3    3    0    0  0.24248125929E+01 -0.90238093251E+01  0.13124227634E+02  0.16110685959E+02  0.51100000000E-03 0.  1.
         12    1    3    3    0    0  0.11991771722E+02  0.19201604688E+00  0.23509109234E+02  0.26391621325E+02  0.00000000000E+00 0. -1.
</event>
<event>
 7    1  0.6046695E-013  0.5052883E+02  0.7816164E-02  0.1300439E+00
        -11   -1    0    0    0    0  0.00000000000E+00  0.00000000000E+00  0.45593999997E+02  0.45594000000E+02  0.51100000000E-03 0. -1.
         11   -1    0    0    0    0 -0.00000000000E+00 -0.00000000000E+00 -0.45593999997E+02  0.45594000000E+02  0.51100000000E-03 0.  1.
    9900012    2    1    2    0    0  0.14761357212E+02 -0.21302188147E+02 -0.31328696690E+02  0.50528829781E+02  0.29999908602E+02 0.  0.
         12    1    1    2    0    0 -0.14761357212E+02  0.21302188147E+02  0.31328696690E+02  0.40659170219E+02  0.00000000000E+00 0. -1.
         11    1    3    3    0    0 -0.27639287091E+01  0.51375658172E+01 -0.33534992251E+01  0.67290297777E+01  0.51100000000E-03 0. -1.
        -11    1    3    3    0    0  0.11152755434E+02 -0.23788508613E+02 -0.18746061508E+02  0.32275252410E+02  0.51100000000E-03 0.  1.
         12    1    3    3    0    0  0.63725304875E+01 -0.26512453513E+01 -0.92291359564E+01  0.11524547593E+02  0.00000000000E+00 0. -1.
</event>
<event>
 7    1  0.6046695E-013  0.5052888E+02  0.7816164E-02  0.1300439E+00
        -11   -1    0    0    0    0  0.00000000000E+00  0.00000000000E+00  0.45593999997E+02  0.45594000000E+02  0.51100000000E-03 0.  1.
         11   -1    0    0    0    0 -0.00000000000E+00 -0.00000000000E+00 -0.45593999997E+02  0.45594000000E+02  0.51100000000E-03 0. -1.
    9900012    2    1    2    0    0  0.80870317303E+01 -0.22932245091E+02  0.32586435257E+02  0.50528884049E+02  0.30000073556E+02 0.  0.
         12    1    1    2    0    0 -0.80870317303E+01  0.22932245091E+02 -0.32586435257E+02  0.40659115951E+02  0.00000000000E+00 0. -1.
         11    1    3    3    0    0  0.94095872929E+01 -0.14638360012E+02  0.16488571489E+02  0.23972795141E+02  0.51100000000E-03 0. -1.
        -11    1    3    3    0    0 -0.75612825357E+01 -0.78327146597E+01  0.17048931629E+02  0.20228457244E+02  0.51100000000E-03 0.  1.
        -12    1    3    3    0    0  0.62387269731E+01 -0.46117042008E+00 -0.95106786098E+00  0.63276316641E+01  0.00000000000E+00 0.  1.
</event>
<event>
 7    1  0.6046695E-013  0.5052887E+02  0.7816164E-02  0.1300439E+00
        -11   -1    0    0    0    0  0.00000000000E+00  0.00000000000E+00  0.45593999997E+02  0.45594000000E+02  0.51100000000E-03 0.  1.
         11   -1    0    0    0    0 -0.00000000000E+00 -0.00000000000E+00 -0.45593999997E+02  0.45594000000E+02  0.51100000000E-03 0. -1.
    9900012    2    1    2    0    0 -0.27012485213E+02  0.10451943388E+02  0.28535024231E+02  0.50528867129E+02  0.30000022126E+02 0.  0.
         12    1    1    2    0    0  0.27012485213E+02 -0.10451943388E+02 -0.28535024231E+02  0.40659132871E+02  0.00000000000E+00 0. -1.
         11    1    3    3    0    0 -0.62133232024E+01 -0.40649349138E+01  0.17508328906E+02  0.19017640821E+02  0.51100000000E-03 0. -1.
        -11    1    3    3    0    0 -0.22241683092E+02  0.13854576360E+02  0.12773131039E+02  0.29151237190E+02  0.51100000000E-03 0.  1.
        -12    1    3    3    0    0  0.14425210819E+01  0.66230194160E+00 -0.17464357143E+01  0.23599891182E+01  0.00000000000E+00 0.  1.
</event>
<event>
 7    1  0.6046695E-013  0.5052886E+02  0.7816164E-02  0.1300439E+00
        -11   -1    0    0    0    0  0.00000000000E+00  0.00000000000E+00  0.45593999997E+02  0.45594000000E+02  0.51100000000E-03 0. -1.
         11   -1    0    0    0    0 -0.00000000000E+00 -0.00000000000E+00 -0.45593999997E+02  0.45594000000E+02  0.51100000000E-03 0.  1.
    9900012    2    1    2    0    0  0.30565369959E+02 -0.67737366150E+01 -0.25943013001E+02  0.50528864839E+02  0.30000015164E+02 0.  0.
         12    1    1    2    0    0 -0.30565369959E+02  0.67737366150E+01  0.25943013001E+02  0.40659135161E+02  0.00000000000E+00 0. -1.
         11    1    3    3    0    0  0.22745220849E+02 -0.11270859673E+02 -0.21696784394E+02  0.33393529351E+02  0.51100000000E-03 0. -1.
        -11    1    3    3    0    0 -0.29730450415E+01 -0.19744882949E+01  0.65741560028E+00  0.36290214078E+01  0.51100000000E-03 0.  1.
         12    1    3    3    0    0  0.10793194152E+02  0.64716113533E+01 -0.49036442073E+01  0.13506314080E+02  0.00000000000E+00 0. -1.
</event>
<event>
 7    1  0.6046695E-013  0.5052886E+02  0.7816164E-02  0.1300439E+00
        -11   -1    0    0    0    0  0.00000000000E+00  0.00000000000E+00  0.45593999997E+02  0.45594000000E+02  0.51100000000E-03 0. -1.
         11   -1    0    0    0    0 -0.00000000000E+00 -0.00000000000E+00 -0.45593999997E+02  0.45594000000E+02  0.51100000000E-03 0.  1.
    9900012    2    1    2    0    0 -0.23314589390E+02  0.26656004689E+02 -0.19976317888E+02  0.50528856616E+02  0.29999990169E+02 0.  0.
         12    1    1    2    0    0  0.23314589390E+02 -0.26656004689E+02  0.19976317888E+02  0.40659143384E+02  0.00000000000E+00 0. -1.
         11    1    3    3    0    0 -0.16485346987E+02  0.38023905860E+01  0.76252153880E+00  0.16935355881E+02  0.51100000000E-03 0. -1.
        -11    1    3    3    0    0 -0.19678230614E+01  0.20475117453E+02 -0.13698656729E+02  0.24713477269E+02  0.51100000000E-03 0.  1.
        -12    1    3    3    0    0 -0.48614193415E+01  0.23784966499E+01 -0.70401826975E+01  0.88800234651E+01  0.00000000000E+00 0.  1.
</event>
<event>
 7    1  0.6046695E-013  0.5052886E+02  0.7816164E-02  0.1300439E+00
        -11   -1    0    0    0    0  0.00000000000E+00  0.00000000000E+00  0.45593999997E+02  0.45594000000E+02  0.51100000000E-03 0.  1.
         11   -1    0    0    0    0 -0.00000000000E+00 -0.00000000000E+00 -0.45593999997E+02  0.45594000000E+02  0.51100000000E-03 0. -1.
    9900012    2    1    2    0    0  0.29404200690E+02  0.53494378537E+01  0.27567050920E+02  0.50528858346E+02  0.29999995429E+02 0.  0.
         12    1    1    2    0    0 -0.29404200690E+02 -0.53494378537E+01 -0.27567050920E+02  0.40659141654E+02  0.00000000000E+00 0. -1.
         11    1    3    3    0    0  0.10919198667E+02  0.12152778196E+02  0.91841033935E+01  0.18742109615E+02  0.51100000000E-03 0. -1.
        -11    1    3    3    0    0  0.21241973158E+02 -0.37161032672E+01  0.16871828698E+02  0.27380457465E+02  0.51100000000E-03 0.  1.
         12    1    3    3    0    0 -0.27569711355E+01 -0.30872370754E+01  0.15111188290E+01  0.44062912656E+01  0.00000000000E+00 0. -1.
</event>
<event>
 7    1  0.6046695E-013  0.5052888E+02  0.7816164E-02  0.1300439E+00
        -11   -1    0    0    0    0  0.00000000000E+00  0.00000000000E+00  0.45593999997E+02  0.45594000000E+02  0.51100000000E-03 0.  1.
         11   -1    0    0    0    0 -0.00000000000E+00 -0.00000000000E+00 -0.45593999997E+02  0.45594000000E+02  0.51100000000E-03 0. -1.
    9900012    2    1    2    0    0 -0.23721492073E+02  0.31372029048E+02  0.10307814429E+02  0.50528875181E+02  0.30000046600E+02 0.  0.
         12    1    1    2    0    0  0.23721492073E+02 -0.31372029048E+02 -0.10307814429E+02  0.40659124819E+02  0.00000000000E+00 0. -1.
         11    1    3    3    0    0 -0.39664207678E+01  0.12918700295E+02  0.52472431918E+01  0.14496857328E+02  0.51100000000E-03 0. -1.
        -11    1    3    3    0    0 -0.35703294657E+01  0.11387493326E+01 -0.80980691952E+01  0.89231568118E+01  0.51100000000E-03 0.  1.
        -12    1    3    3    0    0 -0.16184741839E+02  0.17314579420E+02  0.13158640433E+02  0.27108861041E+02  0.00000000000E+00 0.  1.
</event>
<event>
 7    1  0.6046695E-013  0.5052889E+02  0.7816164E-02  0.1300439E+00
        -11   -1    0    0    0    0  0.00000000000E+00  0.00000000000E+00  0.45593999997E+02  0.45594000000E+02  0.51100000000E-03 0.  1.
         11   -1    0    0    0    0 -0.00000000000E+00 -0.00000000000E+00 -0.45593999997E+02  0.45594000000E+02  0.51100000000E-03 0. -1.
    9900012    2    1    2    0    0  0.68614444997E+01 -0.30712902038E+02  0.25744926591E+02  0.50528892566E+02  0.30000099442E+02 0.  0.
         12    1    1    2    0    0 -0.68614444997E+01  0.30712902038E+02 -0.25744926591E+02  0.40659107434E+02  0.00000000000E+00 0. -1.
         11    1    3    3    0    0  0.24444367531E+01 -0.23838689016E+01 -0.30340369090E+01  0.45676560954E+01  0.51100000000E-03 0. -1.
        -11    1    3    3    0    0  0.11563089580E+02 -0.18670659168E+02  0.11156002737E+02  0.24632396386E+02  0.51100000000E-03 0.  1.
         12    1    3    3    0    0 -0.71460818330E+01 -0.96583739678E+01  0.17622960763E+02  0.21328840084E+02  0.00000000000E+00 0. -1.
</event>
<event>
 7    1  0.6046695E-013  0.5052886E+02  0.7816164E-02  0.1300439E+00
        -11   -1    0    0    0    0  0.00000000000E+00  0.00000000000E+00  0.45593999997E+02  0.45594000000E+02  0.51100000000E-03 0. -1.
         11   -1    0    0    0    0 -0.00000000000E+00 -0.00000000000E+00 -0.45593999997E+02  0.45594000000E+02  0.51100000000E-03 0.  1.
    9900012    2    1    2    0    0  0.22275821483E+02 -0.29820838513E+02  0.16360663427E+02  0.50528856623E+02  0.29999990192E+02 0.  0.
         12    1    1    2    0    0 -0.22275821483E+02  0.29820838513E+02 -0.16360663427E+02  0.40659143377E+02  0.00000000000E+00 0. -1.
         11    1    3    3    0    0  0.15984790306E+02 -0.70925199144E+01  0.12822259121E+02  0.21684734011E+02  0.51100000000E-03 0.  1.
        -11    1    3    3    0    0  0.32211774169E+01 -0.32480231298E-01 -0.36230555876E+01  0.48480481607E+01  0.51100000000E-03 0. -1.
         12    1    3    3    0    0  0.30698537596E+01 -0.22695838367E+02  0.71614598937E+01  0.23996074452E+02  0.00000000000E+00 0. -1.
</event>
<event>
 7    1  0.6046695E-013  0.5052886E+02  0.7816164E-02  0.1300439E+00
        -11   -1    0    0    0    0  0.00000000000E+00  0.00000000000E+00  0.45593999997E+02  0.45594000000E+02  0.51100000000E-03 0. -1.
         11   -1    0    0    0    0 -0.00000000000E+00 -0.00000000000E+00 -0.45593999997E+02  0.45594000000E+02  0.51100000000E-03 0.  1.
    9900012    2    1    2    0    0 -0.36932906359E+02 -0.16304553050E+02  0.48257531292E+01  0.50528856926E+02  0.29999991111E+02 0.  0.
         12    1    1    2    0    0  0.36932906359E+02  0.16304553050E+02 -0.48257531292E+01  0.40659143074E+02  0.00000000000E+00 0. -1.
         11    1    3    3    0    0 -0.93674925054E+01 -0.17473507611E+02  0.20971438799E+01  0.19936684699E+02  0.51100000000E-03 0. -1.
        -11    1    3    3    0    0 -0.11602841136E+02  0.38058640062E+01 -0.43087928011E+01  0.12948985247E+02  0.51100000000E-03 0.  1.
         12    1    3    3    0    0 -0.15962572717E+02 -0.26369094456E+01  0.70374020504E+01  0.17643186980E+02  0.00000000000E+00 0. -1.
</event>
<event>
 7    1  0.6046695E-013  0.5052887E+02  0.7816164E-02  0.1300439E+00
        -11   -1    0    0    0    0  0.00000000000E+00  0.00000000000E+00  0.45593999997E+02  0.45594000000E+02  0.51100000000E-03 0. -1.
         11   -1    0    0    0    0 -0.00000000000E+00 -0.00000000000E+00 -0.45593999997E+02  0.45594000000E+02  0.51100000000E-03 0.  1.
    9900012    2    1    2    0    0  0.36936695131E+02 -0.16270523595E+02  0.49107588851E+01  0.50528868946E+02  0.30000027649E+02 0.  0.
         12    1    1    2    0    0 -0.36936695131E+02  0.16270523595E+02 -0.49107588851E+01  0.40659131054E+02  0.00000000000E+00 0. -1.
         11    1    3    3    0    0  0.25522030796E+01 -0.41328701956E+01 -0.26985571944E+01  0.55566687688E+01  0.51100000000E-03 0. -1.
        -11    1    3    3    0    0  0.13554057216E+02 -0.50643277590E+01  0.15867961464E+02  0.21474451889E+02  0.51100000000E-03 0.  1.
        -12    1    3    3    0    0  0.20830434835E+02 -0.70733256402E+01 -0.82586453843E+01  0.23497748289E+02  0.00000000000E+00 0.  1.
</event>
<event>
 7    1  0.6046695E-013  0.5052886E+02  0.7816164E-02  0.1300439E+00
        -11   -1    0    0    0    0  0.00000000000E+00  0.00000000000E+00  0.45593999997E+02  0.45594000000E+02  0.51100000000E-03 0.  1.
         11   -1    0    0    0    0 -0.00000000000E+00 -0.00000000000E+00 -0.45593999997E+02  0.45594000000E+02  0.51100000000E-03 0. -1.
    9900012    2    1    2    0    0  0.38433331178E+02  0.12196125943E+02  0.52248887174E+01  0.50528857171E+02  0.29999991858E+02 0.  0.
         12    1    1    2    0    0 -0.38433331178E+02 -0.12196125943E+02 -0.52248887174E+01  0.40659142829E+02  0.00000000000E+00 0. -1.
         11    1    3    3    0    0  0.22723965843E+02  0.20909770659E+01  0.11318402289E+02  0.25472672403E+02  0.51100000000E-03 0. -1.
        -11    1    3    3    0    0  0.19425425511E+01  0.99331288144E+01 -0.48759252937E+01  0.11234552387E+02  0.51100000000E-03 0.  1.
         12    1    3    3    0    0  0.13766822784E+02  0.17202006288E+00 -0.12175882783E+01  0.13821632381E+02  0.00000000000E+00 0. -1.
</event>
<event>
 7    1  0.6046695E-013  0.5052886E+02  0.7816164E-02  0.1300439E+00
        -11   -1    0    0    0    0  0.00000000000E+00  0.00000000000E+00  0.45593999997E+02  0.45594000000E+02  0.51100000000E-03 0.  1.
         11   -1    0    0    0    0 -0.00000000000E+00 -0.00000000000E+00 -0.45593999997E+02  0.45594000000E+02  0.51100000000E-03 0. -1.
    9900012    2    1    2    0    0 -0.24951282441E+02  0.25012881984E+02  0.20123496248E+02  0.50528857586E+02  0.29999993119E+02 0.  0.
         12    1    1    2    0    0  0.24951282441E+02 -0.25012881984E+02 -0.20123496248E+02  0.40659142414E+02  0.00000000000E+00 0. -1.
         11    1    3    3    0    0  0.82151883118E+00  0.13290350258E+02  0.98799918108E+01  0.16580788329E+02  0.51100000000E-03 0. -1.
        -11    1    3    3    0    0 -0.19049568169E+02  0.13651570222E+02  0.25882588019E+01  0.23578602606E+02  0.51100000000E-03 0.  1.
         12    1    3    3    0    0 -0.67232331033E+01 -0.19290384969E+01  0.76552456356E+01  0.10369466651E+02  0.00000000000E+00 0. -1.
</event>
<event>
 7    1  0.6046695E-013  0.5052886E+02  0.7816164E-02  0.1300439E+00
        -11   -1    0    0    0    0  0.00000000000E+00  0.00000000000E+00  0.45593999997E+02  0.45594000000E+02  0.51100000000E-03 0.  1.
         11   -1    0    0    0    0 -0.00000000000E+00 -0.00000000000E+00 -0.45593999997E+02  0.45594000000E+02  0.51100000000E-03 0. -1.
    9900012    2    1    2    0    0  0.27914168122E+02 -0.49129977042E+01  0.29151793740E+02  0.50528863184E+02  0.30000010135E+02 0.  0.
         12    1    1    2    0    0 -0.27914168122E+02  0.49129977042E+01 -0.29151793740E+02  0.40659136816E+02  0.00000000000E+00 0. -1.
         11    1    3    3    0    0 -0.19713028906E+01 -0.77531899402E+01  0.12739849201E+02  0.15043328995E+02  0.51100000000E-03 0.  1.
        -11    1    3    3    0    0  0.29876811018E+02  0.25302945123E+01  0.17250160854E+02  0.34591823841E+02  0.51100000000E-03 0. -1.
         12    1    3    3    0    0  0.86599947452E-02  0.30989772371E+00 -0.83821631532E+00  0.89371034789E+00  0.00000000000E+00 0. -1.
</event>
<event>
 7    1  0.6046695E-013  0.5052886E+02  0.7816164E-02  0.1300439E+00
        -11   -1    0    0    0    0  0.00000000000E+00  0.00000000000E+00  0.45593999997E+02  0.45594000000E+02  0.51100000000E-03 0. -1.
         11   -1    0    0    0    0 -0.00000000000E+00 -0.00000000000E+00 -0.45593999997E+02  0.45594000000E+02  0.51100000000E-03 0.  1.
    9900012    2    1    2    0    0  0.11590783267E+01 -0.22564577701E+02 -0.33803287433E+02  0.50528857478E+02  0.29999992790E+02 0.  0.
         12    1    1    2    0    0 -0.11590783267E+01  0.22564577701E+02  0.33803287433E+02  0.40659142522E+02  0.00000000000E+00 0. -1.
         11    1    3    3    0    0  0.11094459922E+02 -0.12241007637E+02 -0.12992905465E+02  0.21017728270E+02  0.51100000000E-03 0. -1.
        -11    1    3    3    0    0 -0.76517341822E+01  0.16557279067E+01 -0.41392168765E+01  0.88557093170E+01  0.51100000000E-03 0.  1.
        -12    1    3    3    0    0 -0.22836474134E+01 -0.11979297970E+02 -0.16671165091E+02  0.20655419891E+02  0.00000000000E+00 0.  1.
</event>
<event>
 7    1  0.6046695E-013  0.5052887E+02  0.7816164E-02  0.1300439E+00
        -11   -1    0    0    0    0  0.00000000000E+00  0.00000000000E+00  0.45593999997E+02  0.45594000000E+02  0.51100000000E-03 0.  1.
         11   -1    0    0    0    0 -0.00000000000E+00 -0.00000000000E+00 -0.45593999997E+02  0.45594000000E+02  0.51100000000E-03 0. -1.
    9900012    2    1    2    0    0 -0.58564332193E+01 -0.19018351777E+02  0.35456587861E+02  0.50528866498E+02  0.30000020209E+02 0.  0.
         12    1    1    2    0    0  0.58564332193E+01  0.19018351777E+02 -0.35456587861E+02  0.40659133502E+02  0.00000000000E+00 0. -1.
         11    1    3    3    0    0  0.10353965973E+02 -0.15395529997E+02  0.20214128022E+02  0.27437892179E+02  0.51100000000E-03 0. -1.
        -11    1    3    3    0    0 -0.82500362607E+01 -0.30507810430E+01  0.50394957424E+01  0.10137400104E+02  0.51100000000E-03 0.  1.
         12    1    3    3    0    0 -0.79603629315E+01 -0.57204073745E+00  0.10202964096E+02  0.12953574215E+02  0.00000000000E+00 0. -1.
</event>
<event>
 7    1  0.6046695E-013  0.5052884E+02  0.7816164E-02  0.1300439E+00
        -11   -1    0    0    0    0  0.00000000000E+00  0.00000000000E+00  0.45593999997E+02  0.45594000000E+02  0.51100000000E-03 0. -1.
         11   -1    0    0    0    0 -0.00000000000E+00 -0.00000000000E+00 -0.45593999997E+02  0.45594000000E+02  0.51100000000E-03 0.  1.
    9900012    2    1    2    0    0 -0.21548550297E+02 -0.85290502413E+01 -0.33407821589E+02  0.50528840377E+02  0.29999940810E+02 0.  0.
         12    1    1    2    0    0  0.21548550297E+02  0.85290502413E+01  0.33407821589E+02  0.40659159623E+02  0.00000000000E+00 0. -1.
         11    1    3    3    0    0  0.22943095548E+01 -0.11523212012E+01 -0.39360764510E+01  0.46994040658E+01  0.51100000000E-03 0. -1.
        -11    1    3    3    0    0 -0.25090987624E+02 -0.12174232272E+02 -0.17634571310E+02  0.32996177005E+02  0.51100000000E-03 0.  1.
        -12    1    3    3    0    0  0.12481277724E+01  0.47975032317E+01 -0.11837173828E+02  0.12833259306E+02  0.00000000000E+00 0.  1.
</event>
<event>
 7    1  0.6046695E-013  0.5052886E+02  0.7816164E-02  0.1300439E+00
        -11   -1    0    0    0    0  0.00000000000E+00  0.00000000000E+00  0.45593999997E+02  0.45594000000E+02  0.51100000000E-03 0. -1.
         11   -1    0    0    0    0 -0.00000000000E+00 -0.00000000000E+00 -0.45593999997E+02  0.45594000000E+02  0.51100000000E-03 0.  1.
    9900012    2    1    2    0    0  0.59562511417E+01  0.70453612083E+01 -0.39598631832E+02  0.50528859758E+02  0.29999999720E+02 0.  0.
         12    1    1    2    0    0 -0.59562511417E+01 -0.70453612083E+01  0.39598631832E+02  0.40659140242E+02  0.00000000000E+00 0. -1.
         11    1    3    3    0    0 -0.36544516860E+01  0.17094366222E+01 -0.11966134763E+01  0.42082151518E+01  0.51100000000E-03 0. -1.
        -11    1    3    3    0    0  0.16884827168E+02  0.56609458418E+01 -0.21504684811E+02  0.27921231446E+02  0.51100000000E-03 0.  1.
        -12    1    3    3    0    0 -0.72741243407E+01 -0.32502125569E+00 -0.16897333545E+02  0.18399413161E+02  0.00000000000E+00 0.  1.
</event>
<event>
 7    1  0.6046695E-013  0.5052882E+02  0.7816164E-02  0.1300439E+00
        -11   -1    0    0    0    0  0.00000000000E+00  0.00000000000E+00  0.45593999997E+02  0.45594000000E+02  0.51100000000E-03 0.  1.
         11   -1    0    0    0    0 -0.00000000000E+00 -0.00000000000E+00 -0.45593999997E+02  0.45594000000E+02  0.51100000000E-03 0. -1.
    9900012    2    1    2    0    0 -0.37533923088E+02 -0.13671452116E+02 -0.75805754116E+01  0.50528817656E+02  0.29999871746E+02 0.  0.
         12    1    1    2    0    0  0.37533923088E+02  0.13671452116E+02  0.75805754116E+01  0.40659182344E+02  0.00000000000E+00 0. -1.
         11    1    3    3    0    0 -0.76972064473E+01 -0.10757049936E+02  0.51720535232E+01  0.14202508522E+02  0.51100000000E-03 0.  1.
        -11    1    3    3    0    0 -0.17278029529E+02  0.58189916340E+01 -0.99661792041E+01  0.20777769279E+02  0.51100000000E-03 0. -1.
        -12    1    3    3    0    0 -0.12558687112E+02 -0.87333938149E+01 -0.27864497308E+01  0.15548539854E+02  0.00000000000E+00 0.  1.
</event>
<event>
 7    1  0.6046695E-013  0.5052886E+02  0.7816164E-02  0.1300439E+00
        -11   -1    0    0    0    0  0.00000000000E+00  0.00000000000E+00  0.45593999997E+02  0.45594000000E+02  0.51100000000E-03 0. -1.
         11   -1    0    0    0    0 -0.00000000000E+00 -0.00000000000E+00 -0.45593999997E+02  0.45594000000E+02  0.51100000000E-03 0.  1.
    9900012    2    1    2    0    0  0.11689533792E+02  0.19373100991E+02 -0.33781704719E+02  0.50528858149E+02  0.29999994831E+02 0.  0.
         12    1    1    2    0    0 -0.11689533792E+02 -0.19373100991E+02  0.33781704719E+02  0.40659141851E+02  0.00000000000E+00 0. -1.
         11    1    3    3    0    0  0.10501155727E+01  0.17946501055E+02 -0.64496666378E+01  0.19099158171E+02  0.51100000000E-03 0. -1.
        -11    1    3    3    0    0  0.47259508774E+01 -0.18019394754E+01 -0.22692596262E+02  0.23249419841E+02  0.51100000000E-03 0.  1.
         12    1    3    3    0    0  0.59134673422E+01  0.32285394117E+01 -0.46394418194E+01  0.81802801380E+01  0.00000000000E+00 0. -1.
</event>
<event>
 7    1  0.6046695E-013  0.5052885E+02  0.7816164E-02  0.1300439E+00
        -11   -1    0    0    0    0  0.00000000000E+00  0.00000000000E+00  0.45593999997E+02  0.45594000000E+02  0.51100000000E-03 0. -1.
         11   -1    0    0    0    0 -0.00000000000E+00 -0.00000000000E+00 -0.45593999997E+02  0.45594000000E+02  0.51100000000E-03 0.  1.
    9900012    2    1    2    0    0  0.66448168784E+01 -0.34624961273E+02 -0.20251533661E+02  0.50528854041E+02  0.29999982342E+02 0.  0.
         12    1    1    2    0    0 -0.66448168784E+01  0.34624961273E+02  0.20251533661E+02  0.40659145959E+02  0.00000000000E+00 0. -1.
         11    1    3    3    0    0  0.13649713281E+02 -0.11332687946E+02  0.13277184067E+01  0.17790652747E+02  0.51100000000E-03 0. -1.
        -11    1    3    3    0    0 -0.19944303152E+01 -0.11637808941E+02 -0.12061386384E+02  0.16878785235E+02  0.51100000000E-03 0.  1.
         12    1    3    3    0    0 -0.50104660878E+01 -0.11654464386E+02 -0.95178656837E+01  0.15859416059E+02  0.00000000000E+00 0. -1.
</event>
<event>
 7    1  0.6046695E-013  0.5052884E+02  0.7816164E-02  0.1300439E+00
        -11   -1    0    0    0    0  0.00000000000E+00  0.00000000000E+00  0.45593999997E+02  0.45594000000E+02  0.51100000000E-03 0.  1.
         11   -1    0    0    0    0 -0.00000000000E+00 -0.00000000000E+00 -0.45593999997E+02  0.45594000000E+02  0.51100000000E-03 0. -1.
    9900012    2    1    2    0    0 -0.50797393994E+01 -0.30682250181E+02  0.26190890360E+02  0.50528844003E+02  0.29999951832E+02 0.  0.
         12    1    1    2    0    0  0.50797393994E+01  0.30682250181E+02 -0.26190890360E+02  0.40659155997E+02  0.00000000000E+00 0. -1.
         11    1    3    3    0    0 -0.50377401403E+01 -0.10345189052E+01  0.35106133464E+00  0.51548326266E+01  0.51100000000E-03 0. -1.
        -11    1    3    3    0    0 -0.46917559861E+00 -0.32983320881E+02  0.19832748191E+02  0.38489706198E+02  0.51100000000E-03 0.  1.
        -12    1    3    3    0    0  0.42717633958E+00  0.33355896060E+01  0.60070808346E+01  0.68843051790E+01  0.00000000000E+00 0.  1.
</event>
<event>
 7    1  0.6046695E-013  0.5052886E+02  0.7816164E-02  0.1300439E+00
        -11   -1    0    0    0    0  0.00000000000E+00  0.00000000000E+00  0.45593999997E+02  0.45594000000E+02  0.51100000000E-03 0.  1.
         11   -1    0    0    0    0 -0.00000000000E+00 -0.00000000000E+00 -0.45593999997E+02  0.45594000000E+02  0.51100000000E-03 0. -1.
    9900012    2    1    2    0    0  0.30847640289E+02 -0.26396829677E+02  0.21899464913E+01  0.50528863339E+02  0.30000010606E+02 0.  0.
         12    1    1    2    0    0 -0.30847640289E+02  0.26396829677E+02 -0.21899464913E+01  0.40659136661E+02  0.00000000000E+00 0. -1.
         11    1    3    3    0    0  0.23478737769E+02 -0.15925988639E+02 -0.92751043403E+01  0.29848212713E+02  0.51100000000E-03 0. -1.
        -11    1    3    3    0    0  0.56735630922E+01 -0.12935846078E+02  0.85946513965E+01  0.16534614141E+02  0.51100000000E-03 0.  1.
        -12    1    3    3    0    0  0.16953394275E+01  0.24650050401E+01  0.28703994352E+01  0.41460364856E+01  0.00000000000E+00 0.  1.
</event>
<event>
 7    1  0.6046695E-013  0.5052894E+02  0.7816164E-02  0.1300439E+00
        -11   -1    0    0    0    0  0.00000000000E+00  0.00000000000E+00  0.45593999997E+02  0.45594000000E+02  0.51100000000E-03 0.  1.
         11   -1    0    0    0    0 -0.00000000000E+00 -0.00000000000E+00 -0.45593999997E+02  0.45594000000E+02  0.51100000000E-03 0. -1.
    9900012    2    1    2    0    0  0.11189282949E+02 -0.31467886738E+01  0.38962253825E+02  0.50528935144E+02  0.30000228862E+02 0.  0.
         12    1    1    2    0    0 -0.11189282949E+02  0.31467886738E+01 -0.38962253825E+02  0.40659064856E+02  0.00000000000E+00 0. -1.
         11    1    3    3    0    0  0.23554406604E+01  0.29895771836E+01  0.45009305340E+01  0.58944082293E+01  0.51100000000E-03 0.  1.
        -11    1    3    3    0    0 -0.52484854138E+01 -0.88890587423E+01  0.26005666318E+02  0.27979575504E+02  0.51100000000E-03 0. -1.
        -12    1    3    3    0    0  0.14082327702E+02  0.27526928850E+01  0.84556569729E+01  0.16654951410E+02  0.00000000000E+00 0.  1.
</event>
<event>
 7    1  0.6046695E-013  0.5052885E+02  0.7816164E-02  0.1300439E+00
        -11   -1    0    0    0    0  0.00000000000E+00  0.00000000000E+00  0.45593999997E+02  0.45594000000E+02  0.51100000000E-03 0.  1.
         11   -1    0    0    0    0 -0.00000000000E+00 -0.00000000000E+00 -0.45593999997E+02  0.45594000000E+02  0.51100000000E-03 0. -1.
    9900012    2    1    2    0    0 -0.14378936037E+02 -0.34471302845E+02 -0.16066805380E+02  0.50528846584E+02  0.29999959676E+02 0.  0.
         12    1    1    2    0    0  0.14378936037E+02  0.34471302845E+02  0.16066805380E+02  0.40659153416E+02  0.00000000000E+00 0. -1.
         11    1    3    3    0    0  0.65069550148E+00 -0.46638308685E+01  0.63917128741E+01  0.79390627112E+01  0.51100000000E-03 0. -1.
        -11    1    3    3    0    0 -0.13115245268E+02 -0.15602835695E+02 -0.18955923232E+02  0.27834963014E+02  0.51100000000E-03 0.  1.
         12    1    3    3    0    0 -0.19143862705E+01 -0.14204636281E+02 -0.35025950224E+01  0.14754820858E+02  0.00000000000E+00 0. -1.
</event>
<event>
 7    1  0.6046695E-013  0.5052886E+02  0.7816164E-02  0.1300439E+00
        -11   -1    0    0    0    0  0.00000000000E+00  0.00000000000E+00  0.45593999997E+02  0.45594000000E+02  0.51100000000E-03 0.  1.
         11   -1    0    0    0    0 -0.00000000000E+00 -0.00000000000E+00 -0.45593999997E+02  0.45594000000E+02  0.51100000000E-03 0. -1.
    9900012    2    1    2    0    0 -0.14636904229E+02 -0.34496043891E+02 -0.15778127750E+02  0.50528864189E+02  0.30000013190E+02 0.  0.
         12    1    1    2    0    0  0.14636904229E+02  0.34496043891E+02  0.15778127750E+02  0.40659135811E+02  0.00000000000E+00 0. -1.
         11    1    3    3    0    0 -0.78916414944E+01 -0.13725268696E+01 -0.13891463703E+02  0.16035417037E+02  0.51100000000E-03 0. -1.
        -11    1    3    3    0    0 -0.37246872464E+01 -0.28033434939E+02  0.45430879477E-02  0.28279794739E+02  0.51100000000E-03 0.  1.
         12    1    3    3    0    0 -0.30205754878E+01 -0.50900820826E+01 -0.18912071354E+01  0.62136524134E+01  0.00000000000E+00 0. -1.
</event>
<event>
 7    1  0.6046695E-013  0.5052885E+02  0.7816164E-02  0.1300439E+00
        -11   -1    0    0    0    0  0.00000000000E+00  0.00000000000E+00  0.45593999997E+02  0.45594000000E+02  0.51100000000E-03 0.  1.
         11   -1    0    0    0    0 -0.00000000000E+00 -0.00000000000E+00 -0.45593999997E+02  0.45594000000E+02  0.51100000000E-03 0. -1.
    9900012    2    1    2    0    0 -0.72989851848E+01 -0.12556413472E+01  0.39978929952E+02  0.50528847771E+02  0.29999963284E+02 0.  0.
         12    1    1    2    0    0  0.72989851848E+01  0.12556413472E+01 -0.39978929952E+02  0.40659152229E+02  0.00000000000E+00 0. -1.
         11    1    3    3    0    0 -0.10244613438E+02 -0.10749654353E+02  0.14962637431E+02  0.21080505031E+02  0.51100000000E-03 0. -1.
        -11    1    3    3    0    0  0.19149495773E+01  0.53666006577E+01  0.19948325013E+01  0.60371178117E+01  0.51100000000E-03 0.  1.
         12    1    3    3    0    0  0.10306786763E+01  0.41274123479E+01  0.23021460020E+02  0.23411224929E+02  0.00000000000E+00 0. -1.
</event>
<event>
 7    1  0.6046695E-013  0.5052884E+02  0.7816164E-02  0.1300439E+00
        -11   -1    0    0    0    0  0.00000000000E+00  0.00000000000E+00  0.45593999997E+02  0.45594000000E+02  0.51100000000E-03 0.  1.
         11   -1    0    0    0    0 -0.00000000000E+00 -0.00000000000E+00 -0.45593999997E+02  0.45594000000E+02  0.51100000000E-03 0. -1.
    9900012    2    1    2    0    0  0.75457622951E+01  0.17511678040E+02  0.35910584342E+02  0.50528837881E+02  0.29999933223E+02 0.  0.
         12    1    1    2    0    0 -0.75457622951E+01 -0.17511678040E+02 -0.35910584342E+02  0.40659162119E+02  0.00000000000E+00 0. -1.
         11    1    3    3    0    0 -0.99128778982E+00 -0.37029759141E+00 -0.20749393045E+01  0.23291941025E+01  0.51100000000E-03 0. -1.
        -11    1    3    3    0    0  0.51650849009E+01  0.18515430626E+02  0.39886852479E+02  0.44277085205E+02  0.51100000000E-03 0.  1.
        -12    1    3    3    0    0  0.33719651840E+01 -0.63345499461E+00 -0.19013288321E+01  0.39225585732E+01  0.00000000000E+00 0.  1.
</event>
<event>
 7    1  0.6046695E-013  0.5052885E+02  0.7816164E-02  0.1300439E+00
        -11   -1    0    0    0    0  0.00000000000E+00  0.00000000000E+00  0.45593999997E+02  0.45594000000E+02  0.51100000000E-03 0.  1.
         11   -1    0    0    0    0 -0.00000000000E+00 -0.00000000000E+00 -0.45593999997E+02  0.45594000000E+02  0.51100000000E-03 0. -1.
    9900012    2    1    2    0    0  0.23980418115E+02 -0.27686998503E+02  0.17650376841E+02  0.50528854145E+02  0.29999982658E+02 0.  0.
         12    1    1    2    0    0 -0.23980418115E+02  0.27686998503E+02 -0.17650376841E+02  0.40659145855E+02  0.00000000000E+00 0. -1.
         11    1    3    3    0    0  0.79032061979E+01  0.36950489736E+01  0.97181066123E+01  0.13059695690E+02  0.51100000000E-03 0. -1.
        -11    1    3    3    0    0  0.86541439457E+01 -0.95763939162E+01 -0.55871683880E+00  0.12919508220E+02  0.51100000000E-03 0.  1.
         12    1    3    3    0    0  0.74230679711E+01 -0.21805653560E+02  0.84909870675E+01  0.24549650235E+02  0.00000000000E+00 0. -1.
</event>
<event>
 7    1  0.6046695E-013  0.5052886E+02  0.7816164E-02  0.1300439E+00
        -11   -1    0    0    0    0  0.00000000000E+00  0.00000000000E+00  0.45593999997E+02  0.45594000000E+02  0.51100000000E-03 0.  1.
         11   -1    0    0    0    0 -0.00000000000E+00 -0.00000000000E+00 -0.45593999997E+02  0.45594000000E+02  0.51100000000E-03 0. -1.
    9900012    2    1    2    0    0  0.84878171974E+01 -0.33299461723E+02  0.21731738930E+02  0.50528859961E+02  0.30000000336E+02 0.  0.
         12    1    1    2    0    0 -0.84878171974E+01  0.33299461723E+02 -0.21731738930E+02  0.40659140039E+02  0.00000000000E+00 0. -1.
         11    1    3    3    0    0  0.69499338509E+01 -0.68100462567E+01 -0.48644326580E+01  0.10878465696E+02  0.51100000000E-03 0. -1.
        -11    1    3    3    0    0  0.32454671131E+01 -0.27123921505E+02  0.26053793677E+02  0.37749706487E+02  0.51100000000E-03 0.  1.
        -12    1    3    3    0    0 -0.17075837666E+01  0.63450603837E+00  0.54237791036E+00  0.19006877782E+01  0.00000000000E+00 0.  1.
</event>
<event>
 7    1  0.6046695E-013  0.5052877E+02  0.7816164E-02  0.1300439E+00
        -11   -1    0    0    0    0  0.00000000000E+00  0.00000000000E+00  0.45593999997E+02  0.45594000000E+02  0.51100000000E-03 0. -1.
         11   -1    0    0    0    0 -0.00000000000E+00 -0.00000000000E+00 -0.45593999997E+02  0.45594000000E+02  0.51100000000E-03 0.  1.
    9900012    2    1    2    0    0  0.17663099638E+02  0.21824827571E+02 -0.29408585467E+02  0.50528768742E+02  0.29999723068E+02 0.  0.
         12    1    1    2    0    0 -0.17663099638E+02 -0.21824827571E+02  0.29408585467E+02  0.40659231258E+02  0.00000000000E+00 0. -1.
         11    1    3    3    0    0 -0.61276941170E+01 -0.16981555426E+01 -0.99461731596E+01  0.11805029785E+02  0.51100000000E-03 0. -1.
        -11    1    3    3    0    0  0.60898348931E+01  0.54083354179E+01 -0.44324152819E+01  0.92726741833E+01  0.51100000000E-03 0.  1.
         12    1    3    3    0    0  0.17700958862E+02  0.18114647695E+02 -0.15029997025E+02  0.29451064774E+02  0.00000000000E+00 0. -1.
</event>
<event>
 7    1  0.6046695E-013  0.5052886E+02  0.7816164E-02  0.1300439E+00
        -11   -1    0    0    0    0  0.00000000000E+00  0.00000000000E+00  0.45593999997E+02  0.45594000000E+02  0.51100000000E-03 0. -1.
         11   -1    0    0    0    0 -0.00000000000E+00 -0.00000000000E+00 -0.45593999997E+02  0.45594000000E+02  0.51100000000E-03 0.  1.
    9900012    2    1    2    0    0 -0.35080312197E+02  0.84161814113E+01 -0.18753817082E+02  0.50528855044E+02  0.29999985392E+02 0.  0.
         12    1    1    2    0    0  0.35080312197E+02 -0.84161814113E+01  0.18753817082E+02  0.40659144956E+02  0.00000000000E+00 0. -1.
         11    1    3    3    0    0  0.10203507395E+01  0.30807855729E+01  0.34617136380E+01  0.47450834504E+01  0.51100000000E-03 0. -1.
        -11    1    3    3    0    0 -0.24765657371E+02  0.11081469190E+02 -0.17183252314E+02  0.32115430945E+02  0.51100000000E-03 0.  1.
        -12    1    3    3    0    0 -0.11335005565E+02 -0.57460733516E+01 -0.50322784066E+01  0.13668340649E+02  0.00000000000E+00 0.  1.
</event>
<event>
 7    1  0.6046695E-013  0.5052886E+02  0.7816164E-02  0.1300439E+00
        -11   -1    0    0    0    0  0.00000000000E+00  0.00000000000E+00  0.45593999997E+02  0.45594000000E+02  0.51100000000E-03 0.  1.
         11   -1    0    0    0    0 -0.00000000000E+00 -0.00000000000E+00 -0.45593999997E+02  0.45594000000E+02  0.51100000000E-03 0. -1.
    9900012    2    1    2    0    0 -0.38088792732E+02  0.60870095661E+01  0.12859156448E+02  0.50528859308E+02  0.29999998352E+02 0.  0.
         12    1    1    2    0    0  0.38088792732E+02 -0.60870095661E+01 -0.12859156448E+02  0.40659140692E+02  0.00000000000E+00 0. -1.
         11    1    3    3    0    0 -0.92546861068E+00  0.88153564352E+01 -0.26766268668E+01  0.92591216038E+01  0.51100000000E-03 0. -1.
        -11    1    3    3    0    0 -0.28725702486E+02 -0.39802210909E+01  0.15178742821E+02  0.32732283408E+02  0.51100000000E-03 0.  1.
        -12    1    3    3    0    0 -0.84376216362E+01  0.12518742218E+01  0.35704049400E+00  0.85374542960E+01  0.00000000000E+00 0.  1.
</event>
<event>
 7    1  0.6046695E-013  0.5052885E+02  0.7816164E-02  0.1300439E+00
        -11   -1    0    0    0    0  0.00000000000E+00  0.00000000000E+00  0.45593999997E+02  0.45594000000E+02  0.51100000000E-03 0.  1.
         11   -1    0    0    0    0 -0.00000000000E+00 -0.00000000000E+00 -0.45593999997E+02  0.45594000000E+02  0.51100000000E-03 0. -1.
    9900012    2    1    2    0    0 -0.16236976353E+02  0.33327523617E+02  0.16697396839E+02  0.50528852287E+02  0.29999977011E+02 0.  0.
         12    1    1    2    0    0  0.16236976353E+02 -0.33327523617E+02 -0.16697396839E+02  0.40659147713E+02  0.00000000000E+00 0. -1.
         11    1    3    3    0    0  0.13990361161E+01  0.25047237874E+02  0.45885450756E+01  0.25502473867E+02  0.51100000000E-03 0. -1.
        -11    1    3    3    0    0 -0.17578707965E+02  0.75724485981E+01  0.78151884144E+01  0.20674383224E+02  0.51100000000E-03 0.  1.
        -12    1    3    3    0    0 -0.57304504016E-01  0.70783714572E+00  0.42936633490E+01  0.43519951959E+01  0.00000000000E+00 0.  1.
</event>
<event>
 7    1  0.6046695E-013  0.5052889E+02  0.7816164E-02  0.1300439E+00
        -11   -1    0    0    0    0  0.00000000000E+00  0.00000000000E+00  0.45593999997E+02  0.45594000000E+02  0.51100000000E-03 0.  1.
         11   -1    0    0    0    0 -0.00000000000E+00 -0.00000000000E+00 -0.45593999997E+02  0.45594000000E+02  0.51100000000E-03 0. -1.
    9900012    2    1    2    0    0  0.40110590036E+02  0.66092072249E+01 -0.78887557173E+00  0.50528888133E+02  0.30000085967E+02 0.  0.
         12    1    1    2    0    0 -0.40110590036E+02 -0.66092072249E+01  0.78887557173E+00  0.40659111867E+02  0.00000000000E+00 0. -1.
         11    1    3    3    0    0  0.27938405325E+02 -0.40000472046E+01 -0.10719553023E+02  0.30190456887E+02  0.51100000000E-03 0. -1.
        -11    1    3    3    0    0  0.12411045947E+01  0.27628497529E+01  0.53071106381E+01  0.61105730466E+01  0.51100000000E-03 0.  1.
         12    1    3    3    0    0  0.10931080116E+02  0.78464046767E+01  0.46235668134E+01  0.14227858199E+02  0.00000000000E+00 0. -1.
</event>
<event>
 7    1  0.6046695E-013  0.5052886E+02  0.7816164E-02  0.1300439E+00
        -11   -1    0    0    0    0  0.00000000000E+00  0.00000000000E+00  0.45593999997E+02  0.45594000000E+02  0.51100000000E-03 0. -1.
         11   -1    0    0    0    0 -0.00000000000E+00 -0.00000000000E+00 -0.45593999997E+02  0.45594000000E+02  0.51100000000E-03 0.  1.
    9900012    2    1    2    0    0 -0.35076323011E+02  0.20406010107E+02  0.25322050462E+01  0.50528859000E+02  0.29999997416E+02 0.  0.
         12    1    1    2    0    0  0.35076323011E+02 -0.20406010107E+02 -0.25322050462E+01  0.40659141000E+02  0.00000000000E+00 0. -1.
         11    1    3    3    0    0 -0.12536977952E+02  0.19333203848E+01  0.88264500114E+01  0.15453794483E+02  0.51100000000E-03 0. -1.
        -11    1    3    3    0    0 -0.24591482145E+02  0.13842469308E+02 -0.86129970117E+01  0.29504892279E+02  0.51100000000E-03 0.  1.
         12    1    3    3    0    0  0.20521370855E+01  0.46302204139E+01  0.23187520464E+01  0.55701722372E+01  0.00000000000E+00 0. -1.
</event>
<event>
 7    1  0.6046695E-013  0.5052885E+02  0.7816164E-02  0.1300439E+00
        -11   -1    0    0    0    0  0.00000000000E+00  0.00000000000E+00  0.45593999997E+02  0.45594000000E+02  0.51100000000E-03 0.  1.
         11   -1    0    0    0    0 -0.00000000000E+00 -0.00000000000E+00 -0.45593999997E+02  0.45594000000E+02  0.51100000000E-03 0. -1.
    9900012    2    1    2    0    0 -0.18127004956E+02 -0.20382091038E+02  0.30152095522E+02  0.50528845949E+02  0.29999957747E+02 0.  0.
         12    1    1    2    0    0  0.18127004956E+02  0.20382091038E+02 -0.30152095522E+02  0.40659154051E+02  0.00000000000E+00 0. -1.
         11    1    3    3    0    0 -0.28169594619E+00 -0.22653657039E+01 -0.49678228661E+01  0.54672203786E+01  0.51100000000E-03 0. -1.
        -11    1    3    3    0    0 -0.17992174442E+02 -0.19588569264E+02  0.32012135627E+02  0.41619793543E+02  0.51100000000E-03 0.  1.
        -12    1    3    3    0    0  0.14686543200E+00  0.14718439302E+01  0.31077827615E+01  0.34418320271E+01  0.00000000000E+00 0.  1.
</event>
<event>
 7    1  0.6046695E-013  0.5052885E+02  0.7816164E-02  0.1300439E+00
        -11   -1    0    0    0    0  0.00000000000E+00  0.00000000000E+00  0.45593999997E+02  0.45594000000E+02  0.51100000000E-03 0. -1.
         11   -1    0    0    0    0 -0.00000000000E+00 -0.00000000000E+00 -0.45593999997E+02  0.45594000000E+02  0.51100000000E-03 0.  1.
    9900012    2    1    2    0    0  0.41463478599E+01  0.30108427578E+02 -0.27008463191E+02  0.50528847332E+02  0.29999961949E+02 0.  0.
         12    1    1    2    0    0 -0.41463478599E+01 -0.30108427578E+02  0.27008463191E+02  0.40659152668E+02  0.00000000000E+00 0. -1.
         11    1    3    3    0    0 -0.64987593635E+01  0.19937699455E+02 -0.11388208943E+02  0.23862879877E+02  0.51100000000E-03 0. -1.
        -11    1    3    3    0    0  0.13713559004E+02  0.11652739464E+02 -0.14394833349E+02  0.23044723149E+02  0.51100000000E-03 0.  1.
         12    1    3    3    0    0 -0.30684517805E+01 -0.14820113419E+01 -0.12254208986E+01  0.36212443062E+01  0.00000000000E+00 0. -1.
</event>
<event>
 7    1  0.6046695E-013  0.5052887E+02  0.7816164E-02  0.1300439E+00
        -11   -1    0    0    0    0  0.00000000000E+00  0.00000000000E+00  0.45593999997E+02  0.45594000000E+02  0.51100000000E-03 0.  1.
         11   -1    0    0    0    0 -0.00000000000E+00 -0.00000000000E+00 -0.45593999997E+02  0.45594000000E+02  0.51100000000E-03 0. -1.
    9900012    2    1    2    0    0  0.66049769982E-01 -0.24251684963E+02  0.32634592197E+02  0.50528865799E+02  0.30000018083E+02 0.  0.
         12    1    1    2    0    0 -0.66049769982E-01  0.24251684963E+02 -0.32634592197E+02  0.40659134201E+02  0.00000000000E+00 0. -1.
         11    1    3    3    0    0  0.48100845071E+01 -0.40474126016E+01  0.18390651687E+02  0.19435393782E+02  0.51100000000E-03 0. -1.
        -11    1    3    3    0    0 -0.11394374392E+01 -0.15660595319E+02 -0.12965146973E-01  0.15701997700E+02  0.51100000000E-03 0.  1.
        -12    1    3    3    0    0 -0.36045972980E+01 -0.45436770427E+01  0.14256905656E+02  0.15391474317E+02  0.00000000000E+00 0.  1.
</event>
<event>
 7    1  0.6046695E-013  0.5052886E+02  0.7816164E-02  0.1300439E+00
        -11   -1    0    0    0    0  0.00000000000E+00  0.00000000000E+00  0.45593999997E+02  0.45594000000E+02  0.51100000000E-03 0. -1.
         11   -1    0    0    0    0 -0.00000000000E+00 -0.00000000000E+00 -0.45593999997E+02  0.45594000000E+02  0.51100000000E-03 0.  1.
    9900012    2    1    2    0    0  0.34950425595E+02  0.91443097394E+00 -0.20755652561E+02  0.50528861463E+02  0.30000004904E+02 0.  0.
         12    1    1    2    0    0 -0.34950425595E+02 -0.91443097394E+00  0.20755652561E+02  0.40659138537E+02  0.00000000000E+00 0. -1.
         11    1    3    3    0    0  0.18329035715E+02 -0.20185821629E+01  0.47011108294E+01  0.19029678596E+02  0.51100000000E-03 0. -1.
        -11    1    3    3    0    0  0.40828424255E+01  0.31842559446E+01 -0.12184924075E+02  0.13239390589E+02  0.51100000000E-03 0.  1.
         12    1    3    3    0    0  0.12538547455E+02 -0.25124280769E+00 -0.13271839315E+02  0.18259792278E+02  0.00000000000E+00 0. -1.
</event>
<event>
 7    1  0.6046695E-013  0.5052886E+02  0.7816164E-02  0.1300439E+00
        -11   -1    0    0    0    0  0.00000000000E+00  0.00000000000E+00  0.45593999997E+02  0.45594000000E+02  0.51100000000E-03 0. -1.
         11   -1    0    0    0    0 -0.00000000000E+00 -0.00000000000E+00 -0.45593999997E+02  0.45594000000E+02  0.51100000000E-03 0.  1.
    9900012    2    1    2    0    0  0.39840935607E+02  0.42028815080E+01 -0.69427353764E+01  0.50528856655E+02  0.29999990288E+02 0.  0.
         12    1    1    2    0    0 -0.39840935607E+02 -0.42028815080E+01  0.69427353764E+01  0.40659143345E+02  0.00000000000E+00 0. -1.
         11    1    3    3    0    0  0.30003183623E+02 -0.52638010013E+01 -0.12016786916E+02  0.32746019553E+02  0.51100000000E-03 0. -1.
        -11    1    3    3    0    0  0.91485187751E+01  0.45434276436E+01  0.70733646391E+01  0.12424597302E+02  0.51100000000E-03 0.  1.
         12    1    3    3    0    0  0.68923320933E+00  0.49232548657E+01 -0.19993130991E+01  0.53582398003E+01  0.00000000000E+00 0. -1.
</event>
<event>
 7    1  0.6046695E-013  0.5052886E+02  0.7816164E-02  0.1300439E+00
        -11   -1    0    0    0    0  0.00000000000E+00  0.00000000000E+00  0.45593999997E+02  0.45594000000E+02  0.51100000000E-03 0. -1.
         11   -1    0    0    0    0 -0.00000000000E+00 -0.00000000000E+00 -0.45593999997E+02  0.45594000000E+02  0.51100000000E-03 0.  1.
    9900012    2    1    2    0    0  0.38110344714E+02 -0.75096247008E+01  0.12015514581E+02  0.50528862921E+02  0.30000009334E+02 0.  0.
         12    1    1    2    0    0 -0.38110344714E+02  0.75096247008E+01 -0.12015514581E+02  0.40659137079E+02  0.00000000000E+00 0. -1.
         11    1    3    3    0    0  0.20655622043E+02  0.72132645593E+01  0.90528557975E+01  0.23677839976E+02  0.51100000000E-03 0. -1.
        -11    1    3    3    0    0  0.44399398725E+01 -0.93012948962E+01  0.66652593864E+01  0.12274071687E+02  0.51100000000E-03 0.  1.
        -12    1    3    3    0    0  0.13014782799E+02 -0.54215943639E+01 -0.37026006033E+01  0.14576951258E+02  0.00000000000E+00 0.  1.
</event>
<event>
 7    1  0.6046695E-013  0.5052889E+02  0.7816164E-02  0.1300439E+00
        -11   -1    0    0    0    0  0.00000000000E+00  0.00000000000E+00  0.45593999997E+02  0.45594000000E+02  0.51100000000E-03 0. -1.
         11   -1    0    0    0    0 -0.00000000000E+00 -0.00000000000E+00 -0.45593999997E+02  0.45594000000E+02  0.51100000000E-03 0.  1.
    9900012    2    1    2    0    0 -0.21853865258E+02  0.53760180415E+01 -0.33862523379E+02  0.50528886799E+02  0.30000081915E+02 0.  0.
         12    1    1    2    0    0  0.21853865258E+02 -0.53760180415E+01  0.33862523379E+02  0.40659113201E+02  0.00000000000E+00 0. -1.
         11    1    3    3    0    0 -0.83435274436E+01  0.98221555146E+01 -0.67441303366E+01  0.14545531390E+02  0.51100000000E-03 0. -1.
        -11    1    3    3    0    0 -0.10017460388E+02 -0.92370223668E+01 -0.26776912462E+02  0.30044552520E+02  0.51100000000E-03 0.  1.
         12    1    3    3    0    0 -0.34928774259E+01  0.47908848936E+01 -0.34148058006E+00  0.59388028897E+01  0.00000000000E+00 0. -1.
</event>
<event>
 7    1  0.6046695E-013  0.5052889E+02  0.7816164E-02  0.1300439E+00
        -11   -1    0    0    0    0  0.00000000000E+00  0.00000000000E+00  0.45593999997E+02  0.45594000000E+02  0.51100000000E-03 0.  1.
         11   -1    0    0    0    0 -0.00000000000E+00 -0.00000000000E+00 -0.45593999997E+02  0.45594000000E+02  0.51100000000E-03 0. -1.
    9900012    2    1    2    0    0 -0.94778993570E+01  0.39243415254E+02  0.48256612463E+01  0.50528890031E+02  0.30000091737E+02 0.  0.
         12    1    1    2    0    0  0.94778993570E+01 -0.39243415254E+02 -0.48256612463E+01  0.40659109969E+02  0.00000000000E+00 0. -1.
         11    1    3    3    0    0 -0.11808094916E+00  0.98867376095E+00  0.91231861333E+01  0.91773604266E+01  0.51100000000E-03 0. -1.
        -11    1    3    3    0    0 -0.37082856388E+01  0.27611504914E+02  0.16597080082E+01  0.27908801782E+02  0.51100000000E-03 0.  1.
         12    1    3    3    0    0 -0.56515327690E+01  0.10643236579E+02 -0.59572328952E+01  0.13442727822E+02  0.00000000000E+00 0. -1.
</event>
<event>
 7    1  0.6046695E-013  0.5052886E+02  0.7816164E-02  0.1300439E+00
        -11   -1    0    0    0    0  0.00000000000E+00  0.00000000000E+00  0.45593999997E+02  0.45594000000E+02  0.51100000000E-03 0. -1.
         11   -1    0    0    0    0 -0.00000000000E+00 -0.00000000000E+00 -0.45593999997E+02  0.45594000000E+02  0.51100000000E-03 0.  1.
    9900012    2    1    2    0    0 -0.35402059294E+02 -0.19254982706E+02  0.53949785913E+01  0.50528856437E+02  0.29999989627E+02 0.  0.
         12    1    1    2    0    0  0.35402059294E+02  0.19254982706E+02 -0.53949785913E+01  0.40659143563E+02  0.00000000000E+00 0. -1.
         11    1    3    3    0    0 -0.20037872985E+01  0.34251413238E+01  0.35028295226E+01  0.52930682549E+01  0.51100000000E-03 0. -1.
        -11    1    3    3    0    0 -0.26709636563E+02 -0.25846005448E+02 -0.12683115924E+01  0.37189101865E+02  0.51100000000E-03 0.  1.
        -12    1    3    3    0    0 -0.66886354322E+01  0.31658814187E+01  0.31604606612E+01  0.80466863176E+01  0.00000000000E+00 0.  1.
</event>
<event>
 7    1  0.6046695E-013  0.5052886E+02  0.7816164E-02  0.1300439E+00
        -11   -1    0    0    0    0  0.00000000000E+00  0.00000000000E+00  0.45593999997E+02  0.45594000000E+02  0.51100000000E-03 0.  1.
         11   -1    0    0    0    0 -0.00000000000E+00 -0.00000000000E+00 -0.45593999997E+02  0.45594000000E+02  0.51100000000E-03 0. -1.
    9900012    2    1    2    0    0  0.27456595230E+01 -0.84531478217E+01  0.39675824413E+02  0.50528863300E+02  0.30000010488E+02 0.  0.
         12    1    1    2    0    0 -0.27456595230E+01  0.84531478217E+01 -0.39675824413E+02  0.40659136700E+02  0.00000000000E+00 0. -1.
         11    1    3    3    0    0 -0.27734753582E+01 -0.16703848574E+02  0.23630570638E+02  0.29070854677E+02  0.51100000000E-03 0. -1.
        -11    1    3    3    0    0  0.68760732493E+01  0.21584583854E+01  0.12070512497E+02  0.14058328426E+02  0.51100000000E-03 0.  1.
         12    1    3    3    0    0 -0.13569383682E+01  0.60922423667E+01  0.39747412777E+01  0.73996801967E+01  0.00000000000E+00 0. -1.
</event>
<event>
 7    1  0.6046695E-013  0.5052886E+02  0.7816164E-02  0.1300439E+00
        -11   -1    0    0    0    0  0.00000000000E+00  0.00000000000E+00  0.45593999997E+02  0.45594000000E+02  0.51100000000E-03 0.  1.
         11   -1    0    0    0    0 -0.00000000000E+00 -0.00000000000E+00 -0.45593999997E+02  0.45594000000E+02  0.51100000000E-03 0. -1.
    9900012    2    1    2    0    0 -0.25748859845E+02  0.31230976484E+02  0.38455173114E+01  0.50528859836E+02  0.29999999958E+02 0.  0.
         12    1    1    2    0    0  0.25748859845E+02 -0.31230976484E+02 -0.38455173114E+01  0.40659140164E+02  0.00000000000E+00 0. -1.
         11    1    3    3    0    0 -0.40112542912E+01 -0.32064884499E+01  0.66941490486E+01  0.84370232259E+01  0.51100000000E-03 0. -1.
        -11    1    3    3    0    0 -0.20803068144E+02  0.32694846710E+02 -0.15753145638E+00  0.38752360728E+02  0.51100000000E-03 0.  1.
        -12    1    3    3    0    0 -0.93453740930E+00  0.17426182245E+01 -0.26911002808E+01  0.33394758821E+01  0.00000000000E+00 0.  1.
</event>
<event>
 7    1  0.6046695E-013  0.5052885E+02  0.7816164E-02  0.1300439E+00
        -11   -1    0    0    0    0  0.00000000000E+00  0.00000000000E+00  0.45593999997E+02  0.45594000000E+02  0.51100000000E-03 0.  1.
         11   -1    0    0    0    0 -0.00000000000E+00 -0.00000000000E+00 -0.45593999997E+02  0.45594000000E+02  0.51100000000E-03 0. -1.
    9900012    2    1    2    0    0 -0.73617108250E+01 -0.39796504249E+02 -0.39000053789E+01  0.50528848770E+02  0.29999966323E+02 0.  0.
         12    1    1    2    0    0  0.73617108250E+01  0.39796504249E+02  0.39000053789E+01  0.40659151230E+02  0.00000000000E+00 0. -1.
         11    1    3    3    0    0 -0.13885616678E+02 -0.28034995351E+02  0.16894122597E+00  0.31285777220E+02  0.51100000000E-03 0. -1.
        -11    1    3    3    0    0  0.50787140685E+01 -0.26500541469E+01  0.39999930758E+01  0.69868496791E+01  0.51100000000E-03 0.  1.
         12    1    3    3    0    0  0.14451917849E+01 -0.91114547514E+01 -0.80689396807E+01  0.12256221871E+02  0.00000000000E+00 0. -1.
</event>
<event>
 7    1  0.6046695E-013  0.5052897E+02  0.7816164E-02  0.1300438E+00
        -11   -1    0    0    0    0  0.00000000000E+00  0.00000000000E+00  0.45593999997E+02  0.45594000000E+02  0.51100000000E-03 0.  1.
         11   -1    0    0    0    0 -0.00000000000E+00 -0.00000000000E+00 -0.45593999997E+02  0.45594000000E+02  0.51100000000E-03 0. -1.
    9900012    2    1    2    0    0  0.36263437219E+02 -0.81249110809E+01  0.16495624113E+02  0.50528970574E+02  0.30000336554E+02 0.  0.
         12    1    1    2    0    0 -0.36263437219E+02  0.81249110809E+01 -0.16495624113E+02  0.40659029426E+02  0.00000000000E+00 0. -1.
         11    1    3    3    0    0  0.66628869709E+01 -0.50493765663E+01 -0.20461059436E+01  0.86067889650E+01  0.51100000000E-03 0. -1.
        -11    1    3    3    0    0  0.25886516189E+02 -0.72089158926E+01  0.22542560582E+02  0.35074880279E+02  0.51100000000E-03 0.  1.
        -12    1    3    3    0    0  0.37140340589E+01  0.41333813780E+01 -0.40008305251E+01  0.68473013295E+01  0.00000000000E+00 0.  1.
</event>
<event>
 7    1  0.6046695E-013  0.5052879E+02  0.7816164E-02  0.1300439E+00
        -11   -1    0    0    0    0  0.00000000000E+00  0.00000000000E+00  0.45593999997E+02  0.45594000000E+02  0.51100000000E-03 0. -1.
         11   -1    0    0    0    0 -0.00000000000E+00 -0.00000000000E+00 -0.45593999997E+02  0.45594000000E+02  0.51100000000E-03 0.  1.
    9900012    2    1    2    0    0 -0.21713516182E+02  0.34321184738E+02 -0.19366690503E+01  0.50528792017E+02  0.29999793813E+02 0.  0.
         12    1    1    2    0    0  0.21713516182E+02 -0.34321184738E+02  0.19366690503E+01  0.40659207983E+02  0.00000000000E+00 0. -1.
         11    1    3    3    0    0 -0.47771625748E+01  0.21157625538E+01  0.65908521808E+01  0.84105330497E+01  0.51100000000E-03 0. -1.
        -11    1    3    3    0    0 -0.10651371183E+02  0.26637000891E+02 -0.14175227464E+02  0.31998728076E+02  0.51100000000E-03 0.  1.
        -12    1    3    3    0    0 -0.62849824236E+01  0.55684212936E+01  0.56477062329E+01  0.10119530891E+02  0.00000000000E+00 0.  1.
</event>
<event>
 7    1  0.6046695E-013  0.5052887E+02  0.7816164E-02  0.1300439E+00
        -11   -1    0    0    0    0  0.00000000000E+00  0.00000000000E+00  0.45593999997E+02  0.45594000000E+02  0.51100000000E-03 0. -1.
         11   -1    0    0    0    0 -0.00000000000E+00 -0.00000000000E+00 -0.45593999997E+02  0.45594000000E+02  0.51100000000E-03 0.  1.
    9900012    2    1    2    0    0 -0.10157244601E+01 -0.28666237869E+02 -0.28816317730E+02  0.50528867480E+02  0.30000023192E+02 0.  0.
         12    1    1    2    0    0  0.10157244601E+01  0.28666237869E+02  0.28816317730E+02  0.40659132520E+02  0.00000000000E+00 0. -1.
         11    1    3    3    0    0  0.23699775727E+01  0.29914955517E+01  0.10770020661E+01  0.39655734821E+01  0.51100000000E-03 0. -1.
        -11    1    3    3    0    0 -0.48446612842E+01 -0.28945268719E+02 -0.31530560013E+02  0.43075231157E+02  0.51100000000E-03 0.  1.
        -12    1    3    3    0    0  0.14589592514E+01 -0.27124647019E+01  0.16372402172E+01  0.34880628413E+01  0.00000000000E+00 0.  1.
</event>
<event>
 7    1  0.6046695E-013  0.5052885E+02  0.7816164E-02  0.1300439E+00
        -11   -1    0    0    0    0  0.00000000000E+00  0.00000000000E+00  0.45593999997E+02  0.45594000000E+02  0.51100000000E-03 0. -1.
         11   -1    0    0    0    0 -0.00000000000E+00 -0.00000000000E+00 -0.45593999997E+02  0.45594000000E+02  0.51100000000E-03 0.  1.
    9900012    2    1    2    0    0  0.23738566961E+01 -0.12262831061E+00 -0.40589603599E+02  0.50528853998E+02  0.29999982211E+02 0.  0.
         12    1    1    2    0    0 -0.23738566961E+01  0.12262831061E+00  0.40589603599E+02  0.40659146002E+02  0.00000000000E+00 0. -1.
         11    1    3    3    0    0 -0.92277385677E+01  0.10215515385E+02 -0.15278314469E+02  0.20565378842E+02  0.51100000000E-03 0. -1.
        -11    1    3    3    0    0  0.99656078472E+01 -0.95920524379E+01 -0.24126235548E+02  0.27809999132E+02  0.51100000000E-03 0.  1.
         12    1    3    3    0    0  0.16359874166E+01 -0.74609125728E+00 -0.11850535820E+01  0.21534760235E+01  0.00000000000E+00 0. -1.
</event>
<event>
 7    1  0.6046695E-013  0.5052886E+02  0.7816164E-02  0.1300439E+00
        -11   -1    0    0    0    0  0.00000000000E+00  0.00000000000E+00  0.45593999997E+02  0.45594000000E+02  0.51100000000E-03 0. -1.
         11   -1    0    0    0    0 -0.00000000000E+00 -0.00000000000E+00 -0.45593999997E+02  0.45594000000E+02  0.51100000000E-03 0.  1.
    9900012    2    1    2    0    0 -0.16449975355E+02  0.11664839806E+02 -0.35305743707E+02  0.50528859385E+02  0.29999998587E+02 0.  0.
         12    1    1    2    0    0  0.16449975355E+02 -0.11664839806E+02  0.35305743707E+02  0.40659140615E+02  0.00000000000E+00 0. -1.
         11    1    3    3    0    0  0.68975003246E+01 -0.28795343253E+01 -0.94542351218E+01  0.12051962108E+02  0.51100000000E-03 0. -1.
        -11    1    3    3    0    0 -0.22288521561E+02  0.13804815113E+02 -0.26274865725E+02  0.37117646515E+02  0.51100000000E-03 0.  1.
         12    1    3    3    0    0 -0.10589541185E+01  0.73955901785E+00  0.42335714004E+00  0.13592507620E+01  0.00000000000E+00 0. -1.
</event>
<event>
 7    1  0.6046695E-013  0.5052887E+02  0.7816164E-02  0.1300439E+00
        -11   -1    0    0    0    0  0.00000000000E+00  0.00000000000E+00  0.45593999997E+02  0.45594000000E+02  0.51100000000E-03 0. -1.
         11   -1    0    0    0    0 -0.00000000000E+00 -0.00000000000E+00 -0.45593999997E+02  0.45594000000E+02  0.51100000000E-03 0.  1.
    9900012    2    1    2    0    0  0.29740881965E+02 -0.99578351541E-01 -0.27724268821E+02  0.50528867477E+02  0.30000023182E+02 0.  0.
         12    1    1    2    0    0 -0.29740881965E+02  0.99578351541E-01  0.27724268821E+02  0.40659132523E+02  0.00000000000E+00 0. -1.
         11    1    3    3    0    0  0.40448461889E+01  0.87289298232E+01 -0.18446740667E-01  0.96205684392E+01  0.51100000000E-03 0. -1.
        -11    1    3    3    0    0  0.26097788543E+02 -0.81812774604E+01 -0.21858978319E+02  0.35012037946E+02  0.51100000000E-03 0.  1.
        -12    1    3    3    0    0 -0.40175276753E+00 -0.64723071440E+00 -0.58468437612E+01  0.58962610909E+01  0.00000000000E+00 0.  1.
</event>
<event>
 7    1  0.6046695E-013  0.5052887E+02  0.7816164E-02  0.1300439E+00
        -11   -1    0    0    0    0  0.00000000000E+00  0.00000000000E+00  0.45593999997E+02  0.45594000000E+02  0.51100000000E-03 0.  1.
         11   -1    0    0    0    0 -0.00000000000E+00 -0.00000000000E+00 -0.45593999997E+02  0.45594000000E+02  0.51100000000E-03 0. -1.
    9900012    2    1    2    0    0 -0.24179410820E+02 -0.13106889098E+02  0.29945452758E+02  0.50528873222E+02  0.30000040646E+02 0.  0.
         12    1    1    2    0    0  0.24179410820E+02  0.13106889098E+02 -0.29945452758E+02  0.40659126778E+02  0.00000000000E+00 0. -1.
         11    1    3    3    0    0 -0.13928444046E+02 -0.14651469551E+02  0.20512100537E+02  0.28799537883E+02  0.51100000000E-03 0. -1.
        -11    1    3    3    0    0  0.19662320342E+01  0.55034381885E+01  0.61285021127E+01  0.84683197101E+01  0.51100000000E-03 0.  1.
         12    1    3    3    0    0 -0.12217198808E+02 -0.39588577359E+01  0.33048501086E+01  0.13261015629E+02  0.00000000000E+00 0. -1.
</event>
<event>
 7    1  0.6046695E-013  0.5052884E+02  0.7816164E-02  0.1300439E+00
        -11   -1    0    0    0    0  0.00000000000E+00  0.00000000000E+00  0.45593999997E+02  0.45594000000E+02  0.51100000000E-03 0.  1.
         11   -1    0    0    0    0 -0.00000000000E+00 -0.00000000000E+00 -0.45593999997E+02  0.45594000000E+02  0.51100000000E-03 0. -1.
    9900012    2    1    2    0    0  0.33250390004E+02  0.42586878514E+01  0.23009608271E+02  0.50528844445E+02  0.29999953176E+02 0.  0.
         12    1    1    2    0    0 -0.33250390004E+02 -0.42586878514E+01 -0.23009608271E+02  0.40659155555E+02  0.00000000000E+00 0. -1.
         11    1    3    3    0    0  0.49619271659E+01  0.96690594383E+01  0.12844021783E+01  0.10943542426E+02  0.51100000000E-03 0. -1.
        -11    1    3    3    0    0  0.33938369256E+01 -0.24893165559E+01  0.11970122908E+02  0.12688525079E+02  0.51100000000E-03 0.  1.
         12    1    3    3    0    0  0.24894625912E+02 -0.29210550310E+01  0.97550831847E+01  0.26896776940E+02  0.00000000000E+00 0. -1.
</event>
<event>
 7    1  0.6046695E-013  0.5052886E+02  0.7816164E-02  0.1300439E+00
        -11   -1    0    0    0    0  0.00000000000E+00  0.00000000000E+00  0.45593999997E+02  0.45594000000E+02  0.51100000000E-03 0. -1.
         11   -1    0    0    0    0 -0.00000000000E+00 -0.00000000000E+00 -0.45593999997E+02  0.45594000000E+02  0.51100000000E-03 0.  1.
    9900012    2    1    2    0    0  0.11700036567E+02  0.14948532001E+02 -0.35955753809E+02  0.50528859618E+02  0.29999999293E+02 0.  0.
         12    1    1    2    0    0 -0.11700036567E+02 -0.14948532001E+02  0.35955753809E+02  0.40659140382E+02  0.00000000000E+00 0. -1.
         11    1    3    3    0    0  0.35852724402E+01 -0.24599724991E+01 -0.51554722899E+00  0.43785194271E+01  0.51100000000E-03 0. -1.
        -11    1    3    3    0    0 -0.49036698638E+01  0.13983145052E+02 -0.11785064311E+02  0.18933094432E+02  0.51100000000E-03 0.  1.
        -12    1    3    3    0    0  0.13018433990E+02  0.34253594478E+01 -0.23655142269E+02  0.27217245759E+02  0.00000000000E+00 0.  1.
</event>
<event>
 7    1  0.6046695E-013  0.5052886E+02  0.7816164E-02  0.1300439E+00
        -11   -1    0    0    0    0  0.00000000000E+00  0.00000000000E+00  0.45593999997E+02  0.45594000000E+02  0.51100000000E-03 0.  1.
         11   -1    0    0    0    0 -0.00000000000E+00 -0.00000000000E+00 -0.45593999997E+02  0.45594000000E+02  0.51100000000E-03 0. -1.
    9900012    2    1    2    0    0  0.35486893275E+02  0.19602298368E+02 -0.30977876920E+01  0.50528856081E+02  0.29999988544E+02 0.  0.
         12    1    1    2    0    0 -0.35486893275E+02 -0.19602298368E+02  0.30977876920E+01  0.40659143919E+02  0.00000000000E+00 0. -1.
         11    1    3    3    0    0  0.38030806379E+02  0.22749475708E+02 -0.62460250152E+01  0.44753700490E+02  0.51100000000E-03 0. -1.
        -11    1    3    3    0    0  0.28884462432E+00 -0.10848432737E+01  0.15751607579E+01  0.19342822493E+01  0.51100000000E-03 0.  1.
         12    1    3    3    0    0 -0.28327577282E+01 -0.20623340659E+01  0.15730765654E+01  0.38408733416E+01  0.00000000000E+00 0. -1.
</event>
<event>
 7    1  0.6046695E-013  0.5052886E+02  0.7816164E-02  0.1300439E+00
        -11   -1    0    0    0    0  0.00000000000E+00  0.00000000000E+00  0.45593999997E+02  0.45594000000E+02  0.51100000000E-03 0. -1.
         11   -1    0    0    0    0 -0.00000000000E+00 -0.00000000000E+00 -0.45593999997E+02  0.45594000000E+02  0.51100000000E-03 0.  1.
    9900012    2    1    2    0    0  0.80244395808E+01  0.57175922403E+01 -0.39447224114E+02  0.50528856109E+02  0.29999988629E+02 0.  0.
         12    1    1    2    0    0 -0.80244395808E+01 -0.57175922403E+01  0.39447224114E+02  0.40659143891E+02  0.00000000000E+00 0. -1.
         11    1    3    3    0    0  0.30027169958E+01  0.89547178676E+01 -0.21694508052E+02  0.23661254433E+02  0.51100000000E-03 0. -1.
        -11    1    3    3    0    0  0.11112157916E+02 -0.52255670765E+01 -0.16104903270E+02  0.20252271834E+02  0.51100000000E-03 0.  1.
        -12    1    3    3    0    0 -0.60904353314E+01  0.19884414492E+01 -0.16478127916E+01  0.66153298420E+01  0.00000000000E+00 0.  1.
</event>
<event>
 7    1  0.6046695E-013  0.5052886E+02  0.7816164E-02  0.1300439E+00
        -11   -1    0    0    0    0  0.00000000000E+00  0.00000000000E+00  0.45593999997E+02  0.45594000000E+02  0.51100000000E-03 0. -1.
         11   -1    0    0    0    0 -0.00000000000E+00 -0.00000000000E+00 -0.45593999997E+02  0.45594000000E+02  0.51100000000E-03 0.  1.
    9900012    2    1    2    0    0 -0.22137423449E+02  0.33285103570E+02  0.74298230476E+01  0.50528857029E+02  0.29999991426E+02 0.  0.
         12    1    1    2    0    0  0.22137423449E+02 -0.33285103570E+02 -0.74298230476E+01  0.40659142971E+02  0.00000000000E+00 0. -1.
         11    1    3    3    0    0 -0.59751961373E+01 -0.98376425427E+00  0.79068517890E+01  0.99593707865E+01  0.51100000000E-03 0. -1.
        -11    1    3    3    0    0 -0.25584410519E+01  0.17047278789E+02  0.50024031340E+01  0.17949355758E+02  0.51100000000E-03 0.  1.
         12    1    3    3    0    0 -0.13603786260E+02  0.17221589035E+02 -0.54794318754E+01  0.22620130485E+02  0.00000000000E+00 0. -1.
</event>
<event>
 7    1  0.6046695E-013  0.5052886E+02  0.7816164E-02  0.1300439E+00
        -11   -1    0    0    0    0  0.00000000000E+00  0.00000000000E+00  0.45593999997E+02  0.45594000000E+02  0.51100000000E-03 0.  1.
         11   -1    0    0    0    0 -0.00000000000E+00 -0.00000000000E+00 -0.45593999997E+02  0.45594000000E+02  0.51100000000E-03 0. -1.
    9900012    2    1    2    0    0 -0.14710797838E+02  0.68438373242E-01  0.37904532682E+02  0.50528857674E+02  0.29999993384E+02 0.  0.
         12    1    1    2    0    0  0.14710797838E+02 -0.68438373242E-01 -0.37904532682E+02  0.40659142326E+02  0.00000000000E+00 0. -1.
         11    1    3    3    0    0 -0.72263375391E+00  0.43447610120E+01 -0.83472575278E+00  0.44828467670E+01  0.51100000000E-03 0. -1.
        -11    1    3    3    0    0 -0.18267803550E+02 -0.11229748293E+01  0.22761778792E+02  0.29207401340E+02  0.51100000000E-03 0.  1.
        -12    1    3    3    0    0  0.42796394661E+01 -0.31533478094E+01  0.15977479644E+02  0.16838609567E+02  0.00000000000E+00 0.  1.
</event>
<event>
 7    1  0.6046695E-013  0.5052891E+02  0.7816164E-02  0.1300439E+00
        -11   -1    0    0    0    0  0.00000000000E+00  0.00000000000E+00  0.45593999997E+02  0.45594000000E+02  0.51100000000E-03 0.  1.
         11   -1    0    0    0    0 -0.00000000000E+00 -0.00000000000E+00 -0.45593999997E+02  0.45594000000E+02  0.51100000000E-03 0. -1.
    9900012    2    1    2    0    0  0.36708917768E+02 -0.14183830061E+02  0.10219380906E+02  0.50528912147E+02  0.30000158962E+02 0.  0.
         12    1    1    2    0    0 -0.36708917768E+02  0.14183830061E+02 -0.10219380906E+02  0.40659087853E+02  0.00000000000E+00 0. -1.
         11    1    3    3    0    0  0.44703327160E+01  0.21328032196E+01  0.75148962219E+01  0.90003549736E+01  0.51100000000E-03 0. -1.
        -11    1    3    3    0    0  0.31364611847E+02 -0.12502209208E+02 -0.37585920863E+01  0.33973094150E+02  0.51100000000E-03 0.  1.
        -12    1    3    3    0    0  0.87397320570E+00 -0.38144240730E+01  0.64630767700E+01  0.75554630241E+01  0.00000000000E+00 0.  1.
</event>
<event>
 7    1  0.6046695E-013  0.5052889E+02  0.7816164E-02  0.1300439E+00
        -11   -1    0    0    0    0  0.00000000000E+00  0.00000000000E+00  0.45593999997E+02  0.45594000000E+02  0.51100000000E-03 0.  1.
         11   -1    0    0    0    0 -0.00000000000E+00 -0.00000000000E+00 -0.45593999997E+02  0.45594000000E+02  0.51100000000E-03 0. -1.
    9900012    2    1    2    0    0  0.35169745277E+02 -0.13436343172E+02  0.15353075647E+02  0.50528889920E+02  0.30000091399E+02 0.  0.
         12    1    1    2    0    0 -0.35169745277E+02  0.13436343172E+02 -0.15353075647E+02  0.40659110080E+02  0.00000000000E+00 0. -1.
         11    1    3    3    0    0  0.85625526379E+01 -0.10922815299E+02  0.45527879399E+01  0.14606610833E+02  0.51100000000E-03 0.  1.
        -11    1    3    3    0    0  0.17482814090E+02  0.92650725112E+00 -0.42251197263E+01  0.18009965051E+02  0.51100000000E-03 0. -1.
        -12    1    3    3    0    0  0.91243785497E+01 -0.34400351244E+01  0.15025407433E+02  0.17912314035E+02  0.00000000000E+00 0.  1.
</event>
<event>
 7    1  0.6046695E-013  0.5052885E+02  0.7816164E-02  0.1300439E+00
        -11   -1    0    0    0    0  0.00000000000E+00  0.00000000000E+00  0.45593999997E+02  0.45594000000E+02  0.51100000000E-03 0.  1.
         11   -1    0    0    0    0 -0.00000000000E+00 -0.00000000000E+00 -0.45593999997E+02  0.45594000000E+02  0.51100000000E-03 0. -1.
    9900012    2    1    2    0    0  0.19107245435E+02  0.35062126364E+01  0.35718149101E+02  0.50528849365E+02  0.29999968130E+02 0.  0.
         12    1    1    2    0    0 -0.19107245435E+02 -0.35062126364E+01 -0.35718149101E+02  0.40659150635E+02  0.00000000000E+00 0. -1.
         11    1    3    3    0    0  0.98218333943E+01  0.92068420311E+01  0.21328990220E+02  0.25222215911E+02  0.51100000000E-03 0. -1.
        -11    1    3    3    0    0 -0.50439768340E+01 -0.14430030956E+01  0.12238340674E+01  0.53871820390E+01  0.51100000000E-03 0.  1.
         12    1    3    3    0    0  0.14329388875E+02 -0.42576262991E+01  0.13165324813E+02  0.19919451415E+02  0.00000000000E+00 0. -1.
</event>
<event>
 7    1  0.6046695E-013  0.5052885E+02  0.7816164E-02  0.1300439E+00
        -11   -1    0    0    0    0  0.00000000000E+00  0.00000000000E+00  0.45593999997E+02  0.45594000000E+02  0.51100000000E-03 0. -1.
         11   -1    0    0    0    0 -0.00000000000E+00 -0.00000000000E+00 -0.45593999997E+02  0.45594000000E+02  0.51100000000E-03 0.  1.
    9900012    2    1    2    0    0 -0.21046286154E+02 -0.11333388284E+02 -0.32890341431E+02  0.50528850842E+02  0.29999972618E+02 0.  0.
         12    1    1    2    0    0  0.21046286154E+02  0.11333388284E+02  0.32890341431E+02  0.40659149158E+02  0.00000000000E+00 0. -1.
         11    1    3    3    0    0 -0.11009337629E+02 -0.37867266409E+01 -0.32295851143E+02  0.34330260922E+02  0.51100000000E-03 0. -1.
        -11    1    3    3    0    0 -0.16088931738E+01 -0.61650265691E+01  0.28624119607E+01  0.69849475543E+01  0.51100000000E-03 0.  1.
         12    1    3    3    0    0 -0.84280553510E+01 -0.13816350741E+01 -0.34569022480E+01  0.92136423650E+01  0.00000000000E+00 0. -1.
</event>
<event>
 7    1  0.6046695E-013  0.5052886E+02  0.7816164E-02  0.1300439E+00
        -11   -1    0    0    0    0  0.00000000000E+00  0.00000000000E+00  0.45593999997E+02  0.45594000000E+02  0.51100000000E-03 0. -1.
         11   -1    0    0    0    0 -0.00000000000E+00 -0.00000000000E+00 -0.45593999997E+02  0.45594000000E+02  0.51100000000E-03 0.  1.
    9900012    2    1    2    0    0 -0.26710403414E+02  0.98941723877E+01 -0.29014230469E+02  0.50528857517E+02  0.29999992909E+02 0.  0.
         12    1    1    2    0    0  0.26710403414E+02 -0.98941723877E+01  0.29014230469E+02  0.40659142483E+02  0.00000000000E+00 0. -1.
         11    1    3    3    0    0 -0.54880939814E+01  0.81844039404E+01  0.23981044751E+01  0.10141723164E+02  0.51100000000E-03 0. -1.
        -11    1    3    3    0    0 -0.10972890080E+02 -0.38582786297E+01 -0.23709818076E+02  0.26409204913E+02  0.51100000000E-03 0.  1.
         12    1    3    3    0    0 -0.10249419353E+02  0.55680470770E+01 -0.77025168678E+01  0.13977929440E+02  0.00000000000E+00 0. -1.
</event>
<event>
 7    1  0.6046695E-013  0.5052886E+02  0.7816164E-02  0.1300439E+00
        -11   -1    0    0    0    0  0.00000000000E+00  0.00000000000E+00  0.45593999997E+02  0.45594000000E+02  0.51100000000E-03 0.  1.
         11   -1    0    0    0    0 -0.00000000000E+00 -0.00000000000E+00 -0.45593999997E+02  0.45594000000E+02  0.51100000000E-03 0. -1.
    9900012    2    1    2    0    0 -0.59056937331E+01  0.47347936699E+01  0.39948346179E+02  0.50528857707E+02  0.29999993485E+02 0.  0.
         12    1    1    2    0    0  0.59056937331E+01 -0.47347936699E+01 -0.39948346179E+02  0.40659142293E+02  0.00000000000E+00 0. -1.
         11    1    3    3    0    0  0.14208158418E+01  0.41217818439E+01  0.33402594073E+02  0.33685918338E+02  0.51100000000E-03 0.  1.
        -11    1    3    3    0    0 -0.11575126700E+01  0.11047704260E+01 -0.41711580199E+01  0.44675399006E+01  0.51100000000E-03 0. -1.
         12    1    3    3    0    0 -0.61689969049E+01 -0.49175859994E+00  0.10716910126E+02  0.12375399468E+02  0.00000000000E+00 0. -1.
</event>
<event>
 7    1  0.6046695E-013  0.5052886E+02  0.7816164E-02  0.1300439E+00
        -11   -1    0    0    0    0  0.00000000000E+00  0.00000000000E+00  0.45593999997E+02  0.45594000000E+02  0.51100000000E-03 0. -1.
         11   -1    0    0    0    0 -0.00000000000E+00 -0.00000000000E+00 -0.45593999997E+02  0.45594000000E+02  0.51100000000E-03 0.  1.
    9900012    2    1    2    0    0 -0.30063179127E+02 -0.45296086268E+01 -0.26997289843E+02  0.50528858932E+02  0.29999997209E+02 0.  0.
         12    1    1    2    0    0  0.30063179127E+02  0.45296086268E+01  0.26997289843E+02  0.40659141068E+02  0.00000000000E+00 0. -1.
         11    1    3    3    0    0 -0.94743673543E+00 -0.38842066605E+01  0.26842142410E+01  0.48155689282E+01  0.51100000000E-03 0. -1.
        -11    1    3    3    0    0 -0.19765610050E+02 -0.78645807517E+01 -0.25440056798E+02  0.33162138972E+02  0.51100000000E-03 0.  1.
        -12    1    3    3    0    0 -0.93501323415E+01  0.72191787854E+01 -0.42414472857E+01  0.12551151032E+02  0.00000000000E+00 0.  1.
</event>
<event>
 7    1  0.6046695E-013  0.5052890E+02  0.7816164E-02  0.1300439E+00
        -11   -1    0    0    0    0  0.00000000000E+00  0.00000000000E+00  0.45593999997E+02  0.45594000000E+02  0.51100000000E-03 0. -1.
         11   -1    0    0    0    0 -0.00000000000E+00 -0.00000000000E+00 -0.45593999997E+02  0.45594000000E+02  0.51100000000E-03 0.  1.
    9900012    2    1    2    0    0  0.19753793265E+02 -0.30914030986E+02 -0.17529201981E+02  0.50528897916E+02  0.30000115706E+02 0.  0.
         12    1    1    2    0    0 -0.19753793265E+02  0.30914030986E+02  0.17529201981E+02  0.40659102084E+02  0.00000000000E+00 0. -1.
         11    1    3    3    0    0 -0.24621763013E+01 -0.83077352794E+01  0.63744229802E+01  0.10757046351E+02  0.51100000000E-03 0. -1.
        -11    1    3    3    0    0  0.16742285151E+02 -0.15938244139E+02 -0.18328087040E+02  0.29500008697E+02  0.51100000000E-03 0.  1.
         12    1    3    3    0    0  0.54736844154E+01 -0.66680515679E+01 -0.55755379214E+01  0.10271842868E+02  0.00000000000E+00 0. -1.
</event>
<event>
 7    1  0.6046695E-013  0.5052887E+02  0.7816164E-02  0.1300439E+00
        -11   -1    0    0    0    0  0.00000000000E+00  0.00000000000E+00  0.45593999997E+02  0.45594000000E+02  0.51100000000E-03 0.  1.
         11   -1    0    0    0    0 -0.00000000000E+00 -0.00000000000E+00 -0.45593999997E+02  0.45594000000E+02  0.51100000000E-03 0. -1.
    9900012    2    1    2    0    0 -0.84515949719E+01 -0.39765159614E+02 -0.68388521193E+00  0.50528867254E+02  0.30000022506E+02 0.  0.
         12    1    1    2    0    0  0.84515949719E+01  0.39765159614E+02  0.68388521193E+00  0.40659132746E+02  0.00000000000E+00 0. -1.
         11    1    3    3    0    0  0.66328091903E+01 -0.97486699214E+01  0.20211537720E+01  0.11963101012E+02  0.51100000000E-03 0.  1.
        -11    1    3    3    0    0 -0.93944530918E+01 -0.30702495000E+02  0.26934811295E+00  0.32108744865E+02  0.51100000000E-03 0. -1.
         12    1    3    3    0    0 -0.56899510704E+01  0.68600530804E+00 -0.29743870968E+01  0.64570213774E+01  0.00000000000E+00 0. -1.
</event>
<event>
 7    1  0.6046695E-013  0.5052887E+02  0.7816164E-02  0.1300439E+00
        -11   -1    0    0    0    0  0.00000000000E+00  0.00000000000E+00  0.45593999997E+02  0.45594000000E+02  0.51100000000E-03 0.  1.
         11   -1    0    0    0    0 -0.00000000000E+00 -0.00000000000E+00 -0.45593999997E+02  0.45594000000E+02  0.51100000000E-03 0. -1.
    9900012    2    1    2    0    0  0.39752447771E+02 -0.45150821189E+01  0.72471898645E+01  0.50528870260E+02  0.30000031641E+02 0.  0.
         12    1    1    2    0    0 -0.39752447771E+02  0.45150821189E+01 -0.72471898645E+01  0.40659129740E+02  0.00000000000E+00 0. -1.
         11    1    3    3    0    0  0.10063360037E+02  0.85293141638E+01  0.57834596330E+01  0.14403778009E+02  0.51100000000E-03 0. -1.
        -11    1    3    3    0    0  0.18652439834E+02 -0.39254885509E+01 -0.59957597375E+01  0.19981794394E+02  0.51100000000E-03 0.  1.
         12    1    3    3    0    0  0.11036647900E+02 -0.91189077318E+01  0.74594899690E+01  0.16143297857E+02  0.00000000000E+00 0. -1.
</event>
<event>
 7    1  0.6046695E-013  0.5052886E+02  0.7816164E-02  0.1300439E+00
        -11   -1    0    0    0    0  0.00000000000E+00  0.00000000000E+00  0.45593999997E+02  0.45594000000E+02  0.51100000000E-03 0.  1.
         11   -1    0    0    0    0 -0.00000000000E+00 -0.00000000000E+00 -0.45593999997E+02  0.45594000000E+02  0.51100000000E-03 0. -1.
    9900012    2    1    2    0    0 -0.23162947311E+02 -0.12833480205E+02  0.30853608287E+02  0.50528862200E+02  0.30000007144E+02 0.  0.
         12    1    1    2    0    0  0.23162947311E+02  0.12833480205E+02 -0.30853608287E+02  0.40659137800E+02  0.00000000000E+00 0. -1.
         11    1    3    3    0    0  0.49694530585E+00  0.70498100828E+01  0.41563551743E+00  0.70795148128E+01  0.51100000000E-03 0. -1.
        -11    1    3    3    0    0 -0.15341453319E+02 -0.14351631885E+02  0.20151992135E+02  0.29110690733E+02  0.51100000000E-03 0.  1.
         12    1    3    3    0    0 -0.83184392981E+01 -0.55316584028E+01  0.10285980635E+02  0.14338656655E+02  0.00000000000E+00 0. -1.
</event>
<event>
 7    1  0.6046695E-013  0.5052886E+02  0.7816164E-02  0.1300439E+00
        -11   -1    0    0    0    0  0.00000000000E+00  0.00000000000E+00  0.45593999997E+02  0.45594000000E+02  0.51100000000E-03 0. -1.
         11   -1    0    0    0    0 -0.00000000000E+00 -0.00000000000E+00 -0.45593999997E+02  0.45594000000E+02  0.51100000000E-03 0.  1.
    9900012    2    1    2    0    0 -0.32733740162E+02 -0.11886439700E+02 -0.20985239571E+02  0.50528862360E+02  0.30000007630E+02 0.  0.
         12    1    1    2    0    0  0.32733740162E+02  0.11886439700E+02  0.20985239571E+02  0.40659137640E+02  0.00000000000E+00 0. -1.
         11    1    3    3    0    0  0.40917055236E+01 -0.15451189850E+01 -0.39051821713E+01  0.58634371167E+01  0.51100000000E-03 0. -1.
        -11    1    3    3    0    0 -0.29278113981E+02 -0.14166136031E+02 -0.11359031130E+02  0.34451632136E+02  0.51100000000E-03 0.  1.
         12    1    3    3    0    0 -0.75473317046E+01  0.38248153162E+01 -0.57210262704E+01  0.10213793108E+02  0.00000000000E+00 0. -1.
</event>
<event>
 7    1  0.6046695E-013  0.5052884E+02  0.7816164E-02  0.1300439E+00
        -11   -1    0    0    0    0  0.00000000000E+00  0.00000000000E+00  0.45593999997E+02  0.45594000000E+02  0.51100000000E-03 0. -1.
         11   -1    0    0    0    0 -0.00000000000E+00 -0.00000000000E+00 -0.45593999997E+02  0.45594000000E+02  0.51100000000E-03 0.  1.
    9900012    2    1    2    0    0  0.22052980611E+02  0.33238293166E+02 -0.78771063245E+01  0.50528844937E+02  0.29999954669E+02 0.  0.
         12    1    1    2    0    0 -0.22052980611E+02 -0.33238293166E+02  0.78771063245E+01  0.40659155063E+02  0.00000000000E+00 0. -1.
         11    1    3    3    0    0 -0.69752292156E+01  0.80239308831E+01 -0.55395338058E+01  0.11988482993E+02  0.51100000000E-03 0. -1.
        -11    1    3    3    0    0  0.10637229410E+02  0.94350620566E+01 -0.29224912720E+00  0.14221689610E+02  0.51100000000E-03 0.  1.
         12    1    3    3    0    0  0.18390980416E+02  0.15779300226E+02 -0.20453233915E+01  0.24318672334E+02  0.00000000000E+00 0. -1.
</event>
<event>
 7    1  0.6046695E-013  0.5052885E+02  0.7816164E-02  0.1300439E+00
        -11   -1    0    0    0    0  0.00000000000E+00  0.00000000000E+00  0.45593999997E+02  0.45594000000E+02  0.51100000000E-03 0.  1.
         11   -1    0    0    0    0 -0.00000000000E+00 -0.00000000000E+00 -0.45593999997E+02  0.45594000000E+02  0.51100000000E-03 0. -1.
    9900012    2    1    2    0    0 -0.35670062959E+02  0.15809209113E+02  0.11440353241E+02  0.50528853839E+02  0.29999981730E+02 0.  0.
         12    1    1    2    0    0  0.35670062959E+02 -0.15809209113E+02 -0.11440353241E+02  0.40659146161E+02  0.00000000000E+00 0. -1.
         11    1    3    3    0    0 -0.89076684251E+01  0.17985782877E+02  0.43354612994E+01  0.20533659377E+02  0.51100000000E-03 0. -1.
        -11    1    3    3    0    0 -0.18491595882E+02  0.29239520986E+01  0.15091115409E+01  0.18782066767E+02  0.51100000000E-03 0.  1.
         12    1    3    3    0    0 -0.82707986516E+01 -0.51005258630E+01  0.55957804005E+01  0.11213127695E+02  0.00000000000E+00 0. -1.
</event>
<event>
 7    1  0.6046695E-013  0.5052885E+02  0.7816164E-02  0.1300439E+00
        -11   -1    0    0    0    0  0.00000000000E+00  0.00000000000E+00  0.45593999997E+02  0.45594000000E+02  0.51100000000E-03 0.  1.
         11   -1    0    0    0    0 -0.00000000000E+00 -0.00000000000E+00 -0.45593999997E+02  0.45594000000E+02  0.51100000000E-03 0. -1.
    9900012    2    1    2    0    0  0.10247871409E+01 -0.13547509510E+02  0.38322076613E+02  0.50528846559E+02  0.29999959600E+02 0.  0.
         12    1    1    2    0    0 -0.10247871409E+01  0.13547509510E+02 -0.38322076613E+02  0.40659153441E+02  0.00000000000E+00 0. -1.
         11    1    3    3    0    0 -0.24387639249E+01 -0.13314513966E+02  0.12798491432E+02  0.18628613337E+02  0.51100000000E-03 0. -1.
        -11    1    3    3    0    0 -0.25485629204E+01  0.81877873604E+01  0.13959914534E+02  0.16383352797E+02  0.51100000000E-03 0.  1.
        -12    1    3    3    0    0  0.60121139862E+01 -0.84207829040E+01  0.11563670647E+02  0.15516880425E+02  0.00000000000E+00 0.  1.
</event>
<event>
 7    1  0.6046695E-013  0.5052888E+02  0.7816164E-02  0.1300439E+00
        -11   -1    0    0    0    0  0.00000000000E+00  0.00000000000E+00  0.45593999997E+02  0.45594000000E+02  0.51100000000E-03 0.  1.
         11   -1    0    0    0    0 -0.00000000000E+00 -0.00000000000E+00 -0.45593999997E+02  0.45594000000E+02  0.51100000000E-03 0. -1.
    9900012    2    1    2    0    0  0.21293422190E+02  0.34540468813E+02 -0.25904555987E+01  0.50528877105E+02  0.30000052447E+02 0.  0.
         12    1    1    2    0    0 -0.21293422190E+02 -0.34540468813E+02  0.25904555987E+01  0.40659122895E+02  0.00000000000E+00 0. -1.
         11    1    3    3    0    0 -0.87027664408E+00  0.14512900633E+02  0.62460780894E+01  0.15823879360E+02  0.51100000000E-03 0.  1.
        -11    1    3    3    0    0  0.23033976957E+02  0.20782935464E+02 -0.59399703649E+01  0.31587620188E+02  0.51100000000E-03 0. -1.
         12    1    3    3    0    0 -0.87027812265E+00 -0.75536728429E+00 -0.28965633232E+01  0.31173775566E+01  0.00000000000E+00 0. -1.
</event>
<event>
 7    1  0.6046695E-013  0.5052874E+02  0.7816164E-02  0.1300439E+00
        -11   -1    0    0    0    0  0.00000000000E+00  0.00000000000E+00  0.45593999997E+02  0.45594000000E+02  0.51100000000E-03 0.  1.
         11   -1    0    0    0    0 -0.00000000000E+00 -0.00000000000E+00 -0.45593999997E+02  0.45594000000E+02  0.51100000000E-03 0. -1.
    9900012    2    1    2    0    0  0.16077928179E+02  0.25765372946E+02  0.27033708946E+02  0.50528737378E+02  0.29999627732E+02 0.  0.
         12    1    1    2    0    0 -0.16077928179E+02 -0.25765372946E+02 -0.27033708946E+02  0.40659262622E+02  0.00000000000E+00 0. -1.
         11    1    3    3    0    0  0.12212278208E+02  0.17549056848E+02  0.25982926075E+02  0.33648500456E+02  0.51100000000E-03 0.  1.
        -11    1    3    3    0    0  0.88583377764E+01  0.78584637888E+01  0.69141521236E+00  0.11861857213E+02  0.51100000000E-03 0. -1.
         12    1    3    3    0    0 -0.49926878050E+01  0.35785230918E+00  0.35936765946E+00  0.50183797095E+01  0.00000000000E+00 0. -1.
</event>
<event>
 7    1  0.6046695E-013  0.5052885E+02  0.7816164E-02  0.1300439E+00
        -11   -1    0    0    0    0  0.00000000000E+00  0.00000000000E+00  0.45593999997E+02  0.45594000000E+02  0.51100000000E-03 0.  1.
         11   -1    0    0    0    0 -0.00000000000E+00 -0.00000000000E+00 -0.45593999997E+02  0.45594000000E+02  0.51100000000E-03 0. -1.
    9900012    2    1    2    0    0 -0.25976548354E+02  0.15824000441E+02  0.26981226152E+02  0.50528848275E+02  0.29999964817E+02 0.  0.
         12    1    1    2    0    0  0.25976548354E+02 -0.15824000441E+02 -0.26981226152E+02  0.40659151725E+02  0.00000000000E+00 0. -1.
         11    1    3    3    0    0 -0.10646398123E+00 -0.17434592200E+01 -0.28704181829E+01  0.33601019979E+01  0.51100000000E-03 0. -1.
        -11    1    3    3    0    0 -0.81002662318E+01  0.11891113266E+02  0.23324823406E+02  0.27405478921E+02  0.51100000000E-03 0.  1.
         12    1    3    3    0    0 -0.17769818141E+02  0.56763463945E+01  0.65268209287E+01  0.19763267356E+02  0.00000000000E+00 0. -1.
</event>
<event>
 7    1  0.6046695E-013  0.5052886E+02  0.7816164E-02  0.1300439E+00
        -11   -1    0    0    0    0  0.00000000000E+00  0.00000000000E+00  0.45593999997E+02  0.45594000000E+02  0.51100000000E-03 0.  1.
         11   -1    0    0    0    0 -0.00000000000E+00 -0.00000000000E+00 -0.45593999997E+02  0.45594000000E+02  0.51100000000E-03 0. -1.
    9900012    2    1    2    0    0  0.33570734614E+02  0.18577617882E+02  0.13455257200E+02  0.50528855211E+02  0.29999985898E+02 0.  0.
         12    1    1    2    0    0 -0.33570734614E+02 -0.18577617882E+02 -0.13455257200E+02  0.40659144789E+02  0.00000000000E+00 0. -1.
         11    1    3    3    0    0 -0.10995905034E+01  0.74890688168E+00 -0.34395862238E+00  0.13741428556E+01  0.51100000000E-03 0. -1.
        -11    1    3    3    0    0  0.38968405151E+02  0.17399791784E+02  0.13743397446E+02  0.44834923082E+02  0.51100000000E-03 0.  1.
        -12    1    3    3    0    0 -0.42980800338E+01  0.42891921606E+00  0.55818376321E-01  0.43197892728E+01  0.00000000000E+00 0.  1.
</event>
<event>
 7    1  0.6046695E-013  0.5052887E+02  0.7816164E-02  0.1300439E+00
        -11   -1    0    0    0    0  0.00000000000E+00  0.00000000000E+00  0.45593999997E+02  0.45594000000E+02  0.51100000000E-03 0.  1.
         11   -1    0    0    0    0 -0.00000000000E+00 -0.00000000000E+00 -0.45593999997E+02  0.45594000000E+02  0.51100000000E-03 0. -1.
    9900012    2    1    2    0    0 -0.12574801989E+02 -0.34673739395E+02 -0.17110556291E+02  0.50528868365E+02  0.30000025883E+02 0.  0.
         12    1    1    2    0    0  0.12574801989E+02  0.34673739395E+02  0.17110556291E+02  0.40659131635E+02  0.00000000000E+00 0. -1.
         11    1    3    3    0    0 -0.72344250572E+01 -0.10151590871E+02 -0.11769662032E+02  0.17143997426E+02  0.51100000000E-03 0. -1.
        -11    1    3    3    0    0  0.81025170687E+01 -0.10065982116E+02  0.47848524898E-01  0.12921960709E+02  0.51100000000E-03 0.  1.
        -12    1    3    3    0    0 -0.13442894001E+02 -0.14456166408E+02 -0.53887427834E+01  0.20462910231E+02  0.00000000000E+00 0.  1.
</event>
<event>
 7    1  0.6046695E-013  0.5052889E+02  0.7816164E-02  0.1300439E+00
        -11   -1    0    0    0    0  0.00000000000E+00  0.00000000000E+00  0.45593999997E+02  0.45594000000E+02  0.51100000000E-03 0. -1.
         11   -1    0    0    0    0 -0.00000000000E+00 -0.00000000000E+00 -0.45593999997E+02  0.45594000000E+02  0.51100000000E-03 0.  1.
    9900012    2    1    2    0    0  0.22685196803E+02 -0.86816452874E+00 -0.33731169068E+02  0.50528885028E+02  0.30000076530E+02 0.  0.
         12    1    1    2    0    0 -0.22685196803E+02  0.86816452874E+00  0.33731169068E+02  0.40659114972E+02  0.00000000000E+00 0. -1.
         11    1    3    3    0    0  0.12608146578E+02 -0.57987290798E+01 -0.62953805559E+01  0.15238846271E+02  0.51100000000E-03 0. -1.
        -11    1    3    3    0    0  0.13113437453E+02  0.97200133073E+01 -0.22325987414E+02  0.27656655886E+02  0.51100000000E-03 0.  1.
         12    1    3    3    0    0 -0.30363872280E+01 -0.47894487563E+01 -0.51098010984E+01  0.76333828708E+01  0.00000000000E+00 0. -1.
</event>
<event>
 7    1  0.6046695E-013  0.5052886E+02  0.7816164E-02  0.1300439E+00
        -11   -1    0    0    0    0  0.00000000000E+00  0.00000000000E+00  0.45593999997E+02  0.45594000000E+02  0.51100000000E-03 0. -1.
         11   -1    0    0    0    0 -0.00000000000E+00 -0.00000000000E+00 -0.45593999997E+02  0.45594000000E+02  0.51100000000E-03 0.  1.
    9900012    2    1    2    0    0  0.82798977689E+01  0.37503611438E+02 -0.13344968188E+02  0.50528858914E+02  0.29999997154E+02 0.  0.
         12    1    1    2    0    0 -0.82798977689E+01 -0.37503611438E+02  0.13344968188E+02  0.40659141086E+02  0.00000000000E+00 0. -1.
         11    1    3    3    0    0 -0.41538257596E+01  0.42345144370E+01 -0.10571838179E+02  0.12122258193E+02  0.51100000000E-03 0. -1.
        -11    1    3    3    0    0  0.13499803621E+02  0.23415202225E+02  0.25642817303E+01  0.27149437086E+02  0.51100000000E-03 0.  1.
        -12    1    3    3    0    0 -0.10660800929E+01  0.98538947758E+01 -0.53374117397E+01  0.11257163635E+02  0.00000000000E+00 0.  1.
</event>
<event>
 7    1  0.6046695E-013  0.5052886E+02  0.7816164E-02  0.1300439E+00
        -11   -1    0    0    0    0  0.00000000000E+00  0.00000000000E+00  0.45593999997E+02  0.45594000000E+02  0.51100000000E-03 0.  1.
         11   -1    0    0    0    0 -0.00000000000E+00 -0.00000000000E+00 -0.45593999997E+02  0.45594000000E+02  0.51100000000E-03 0. -1.
    9900012    2    1    2    0    0  0.29471211113E+02 -0.25875547251E+02 -0.10727060542E+02  0.50528855175E+02  0.29999985790E+02 0.  0.
         12    1    1    2    0    0 -0.29471211113E+02  0.25875547251E+02  0.10727060542E+02  0.40659144825E+02  0.00000000000E+00 0. -1.
         11    1    3    3    0    0  0.18293809761E+02 -0.55586319605E+01 -0.22704126179E+01  0.19254003183E+02  0.51100000000E-03 0. -1.
        -11    1    3    3    0    0 -0.20602619257E+01 -0.13495248880E+02 -0.90367246079E+01  0.16371585550E+02  0.51100000000E-03 0.  1.
        -12    1    3    3    0    0  0.13237663278E+02 -0.68216664108E+01  0.58007668421E+00  0.14903266442E+02  0.00000000000E+00 0.  1.
</event>
<event>
 7    1  0.6046695E-013  0.5052886E+02  0.7816164E-02  0.1300439E+00
        -11   -1    0    0    0    0  0.00000000000E+00  0.00000000000E+00  0.45593999997E+02  0.45594000000E+02  0.51100000000E-03 0.  1.
         11   -1    0    0    0    0 -0.00000000000E+00 -0.00000000000E+00 -0.45593999997E+02  0.45594000000E+02  0.51100000000E-03 0. -1.
    9900012    2    1    2    0    0 -0.17705326296E+02  0.90766990883E+01  0.35458430811E+02  0.50528863743E+02  0.30000011833E+02 0.  0.
         12    1    1    2    0    0  0.17705326296E+02 -0.90766990883E+01 -0.35458430811E+02  0.40659136257E+02  0.00000000000E+00 0. -1.
         11    1    3    3    0    0 -0.13031478558E+02  0.76977934949E+01  0.25761434532E+02  0.29878536904E+02  0.51100000000E-03 0.  1.
        -11    1    3    3    0    0 -0.21758617538E+00  0.43266415263E+01 -0.40321060205E+01  0.59181965043E+01  0.51100000000E-03 0. -1.
         12    1    3    3    0    0 -0.44562615623E+01 -0.29477359329E+01  0.13729102300E+02  0.14732130335E+02  0.00000000000E+00 0. -1.
</event>
<event>
 7    1  0.6046695E-013  0.5052886E+02  0.7816164E-02  0.1300439E+00
        -11   -1    0    0    0    0  0.00000000000E+00  0.00000000000E+00  0.45593999997E+02  0.45594000000E+02  0.51100000000E-03 0. -1.
         11   -1    0    0    0    0 -0.00000000000E+00 -0.00000000000E+00 -0.45593999997E+02  0.45594000000E+02  0.51100000000E-03 0.  1.
    9900012    2    1    2    0    0  0.95179986554E+01  0.33858248528E+02  0.20400789065E+02  0.50528862205E+02  0.30000007158E+02 0.  0.
         12    1    1    2    0    0 -0.95179986554E+01 -0.33858248528E+02 -0.20400789065E+02  0.40659137795E+02  0.00000000000E+00 0. -1.
         11    1    3    3    0    0 -0.11741340990E+01 -0.38489676024E+01  0.10949789263E+01  0.41703862647E+01  0.51100000000E-03 0. -1.
        -11    1    3    3    0    0  0.70376353791E+01  0.10988581053E+02  0.13495037765E+02  0.18772140790E+02  0.51100000000E-03 0.  1.
         12    1    3    3    0    0  0.36544973753E+01  0.26718635077E+02  0.58107723735E+01  0.27586335151E+02  0.00000000000E+00 0. -1.
</event>
<event>
 7    1  0.6046695E-013  0.5052886E+02  0.7816164E-02  0.1300439E+00
        -11   -1    0    0    0    0  0.00000000000E+00  0.00000000000E+00  0.45593999997E+02  0.45594000000E+02  0.51100000000E-03 0.  1.
         11   -1    0    0    0    0 -0.00000000000E+00 -0.00000000000E+00 -0.45593999997E+02  0.45594000000E+02  0.51100000000E-03 0. -1.
    9900012    2    1    2    0    0 -0.90137049714E+01  0.39507727801E+02  0.33253770113E+01  0.50528861229E+02  0.30000004193E+02 0.  0.
         12    1    1    2    0    0  0.90137049714E+01 -0.39507727801E+02 -0.33253770113E+01  0.40659138771E+02  0.00000000000E+00 0. -1.
         11    1    3    3    0    0  0.14388246011E+01  0.46839752823E+01  0.10854212611E+02  0.11908978644E+02  0.51100000000E-03 0. -1.
        -11    1    3    3    0    0 -0.99144221477E+01  0.27001664598E+02 -0.16343150257E+01  0.28810703626E+02  0.51100000000E-03 0.  1.
        -12    1    3    3    0    0 -0.53810742467E+00  0.78220879209E+01 -0.58945205744E+01  0.98091789587E+01  0.00000000000E+00 0.  1.
</event>
<event>
 7    1  0.6046695E-013  0.5052885E+02  0.7816164E-02  0.1300439E+00
        -11   -1    0    0    0    0  0.00000000000E+00  0.00000000000E+00  0.45593999997E+02  0.45594000000E+02  0.51100000000E-03 0.  1.
         11   -1    0    0    0    0 -0.00000000000E+00 -0.00000000000E+00 -0.45593999997E+02  0.45594000000E+02  0.51100000000E-03 0. -1.
    9900012    2    1    2    0    0  0.25163017398E+02 -0.20356782299E+02  0.24608743947E+02  0.50528852090E+02  0.29999976413E+02 0.  0.
         12    1    1    2    0    0 -0.25163017398E+02  0.20356782299E+02 -0.24608743947E+02  0.40659147910E+02  0.00000000000E+00 0. -1.
         11    1    3    3    0    0 -0.41672568453E+01 -0.72982956154E+01  0.37727692050E+01  0.92122166844E+01  0.51100000000E-03 0. -1.
        -11    1    3    3    0    0  0.26340138936E+02 -0.76623787749E+01  0.21842608104E+02  0.35065859418E+02  0.51100000000E-03 0.  1.
        -12    1    3    3    0    0  0.29901353065E+01 -0.53961079091E+01 -0.10066333625E+01  0.62507759874E+01  0.00000000000E+00 0.  1.
</event>
<event>
 7    1  0.6046695E-013  0.5052885E+02  0.7816164E-02  0.1300439E+00
        -11   -1    0    0    0    0  0.00000000000E+00  0.00000000000E+00  0.45593999997E+02  0.45594000000E+02  0.51100000000E-03 0.  1.
         11   -1    0    0    0    0 -0.00000000000E+00 -0.00000000000E+00 -0.45593999997E+02  0.45594000000E+02  0.51100000000E-03 0. -1.
    9900012    2    1    2    0    0 -0.19841920748E+02 -0.27070506576E+02  0.22948909829E+02  0.50528848415E+02  0.29999965243E+02 0.  0.
         12    1    1    2    0    0  0.19841920748E+02  0.27070506576E+02 -0.22948909829E+02  0.40659151585E+02  0.00000000000E+00 0. -1.
         11    1    3    3    0    0 -0.17884447252E+02 -0.73421055006E+01  0.16741701851E+02  0.25574294669E+02  0.51100000000E-03 0. -1.
        -11    1    3    3    0    0 -0.55490480158E+01 -0.14195977676E+02  0.91002860084E+01  0.17751983600E+02  0.51100000000E-03 0.  1.
         12    1    3    3    0    0  0.35915745199E+01 -0.55324234001E+01 -0.28930780309E+01  0.72025701456E+01  0.00000000000E+00 0. -1.
</event>
<event>
 7    1  0.6046695E-013  0.5052886E+02  0.7816164E-02  0.1300439E+00
        -11   -1    0    0    0    0  0.00000000000E+00  0.00000000000E+00  0.45593999997E+02  0.45594000000E+02  0.51100000000E-03 0.  1.
         11   -1    0    0    0    0 -0.00000000000E+00 -0.00000000000E+00 -0.45593999997E+02  0.45594000000E+02  0.51100000000E-03 0. -1.
    9900012    2    1    2    0    0 -0.31884782778E+02  0.19241616297E+02  0.16318278964E+02  0.50528863279E+02  0.30000010423E+02 0.  0.
         12    1    1    2    0    0  0.31884782778E+02 -0.19241616297E+02 -0.16318278964E+02  0.40659136721E+02  0.00000000000E+00 0. -1.
         11    1    3    3    0    0 -0.55198848845E+01 -0.14655667984E-01  0.28961880231E+01  0.62335583139E+01  0.51100000000E-03 0. -1.
        -11    1    3    3    0    0 -0.58892448002E+01 -0.58067877789E+01  0.79506599948E+01  0.11472357353E+02  0.51100000000E-03 0.  1.
        -12    1    3    3    0    0 -0.20475653094E+02  0.25063059744E+02  0.54714309461E+01  0.32822947612E+02  0.00000000000E+00 0.  1.
</event>
<event>
 7    1  0.6046695E-013  0.5052887E+02  0.7816164E-02  0.1300439E+00
        -11   -1    0    0    0    0  0.00000000000E+00  0.00000000000E+00  0.45593999997E+02  0.45594000000E+02  0.51100000000E-03 0. -1.
         11   -1    0    0    0    0 -0.00000000000E+00 -0.00000000000E+00 -0.45593999997E+02  0.45594000000E+02  0.51100000000E-03 0.  1.
    9900012    2    1    2    0    0  0.15097694422E+02 -0.17269286691E+02 -0.33570767386E+02  0.50528867415E+02  0.30000022996E+02 0.  0.
         12    1    1    2    0    0 -0.15097694422E+02  0.17269286691E+02  0.33570767386E+02  0.40659132585E+02  0.00000000000E+00 0. -1.
         11    1    3    3    0    0  0.89868007980E+01  0.15823828982E+01 -0.69378479524E+01  0.11462995188E+02  0.51100000000E-03 0. -1.
        -11    1    3    3    0    0  0.10204697836E+01 -0.22369063706E+02 -0.20775028035E+02  0.30545345959E+02  0.51100000000E-03 0.  1.
        -12    1    3    3    0    0  0.50904238402E+01  0.35173941168E+01 -0.58578913986E+01  0.85205262680E+01  0.00000000000E+00 0.  1.
</event>
<event>
 7    1  0.6046695E-013  0.5052885E+02  0.7816164E-02  0.1300439E+00
        -11   -1    0    0    0    0  0.00000000000E+00  0.00000000000E+00  0.45593999997E+02  0.45594000000E+02  0.51100000000E-03 0. -1.
         11   -1    0    0    0    0 -0.00000000000E+00 -0.00000000000E+00 -0.45593999997E+02  0.45594000000E+02  0.51100000000E-03 0.  1.
    9900012    2    1    2    0    0  0.26250135451E+02 -0.20255053364E+02 -0.23533579522E+02  0.50528853881E+02  0.29999981858E+02 0.  0.
         12    1    1    2    0    0 -0.26250135451E+02  0.20255053364E+02  0.23533579522E+02  0.40659146119E+02  0.00000000000E+00 0. -1.
         11    1    3    3    0    0  0.31630044307E+01 -0.32337848298E+01 -0.21239213749E+02  0.21715574187E+02  0.51100000000E-03 0. -1.
        -11    1    3    3    0    0  0.90590102640E+01 -0.74620366362E+01 -0.13062263029E+01  0.11809059452E+02  0.51100000000E-03 0.  1.
         12    1    3    3    0    0  0.14028120756E+02 -0.95592318976E+01 -0.98813947066E+00  0.17004220242E+02  0.00000000000E+00 0. -1.
</event>
<event>
 7    1  0.6046695E-013  0.5052886E+02  0.7816164E-02  0.1300439E+00
        -11   -1    0    0    0    0  0.00000000000E+00  0.00000000000E+00  0.45593999997E+02  0.45594000000E+02  0.51100000000E-03 0. -1.
         11   -1    0    0    0    0 -0.00000000000E+00 -0.00000000000E+00 -0.45593999997E+02  0.45594000000E+02  0.51100000000E-03 0.  1.
    9900012    2    1    2    0    0 -0.27543466429E+02  0.27611709340E+02 -0.11494204762E+02  0.50528858608E+02  0.29999996225E+02 0.  0.
         12    1    1    2    0    0  0.27543466429E+02 -0.27611709340E+02  0.11494204762E+02  0.40659141392E+02  0.00000000000E+00 0. -1.
         11    1    3    3    0    0  0.12525132285E+01 -0.34921869910E+01  0.33270009716E+01  0.49832815588E+01  0.51100000000E-03 0. -1.
        -11    1    3    3    0    0 -0.22836301495E+02  0.22408723471E+02 -0.79665852153E+01  0.32971412372E+02  0.51100000000E-03 0.  1.
         12    1    3    3    0    0 -0.59596781621E+01  0.86951728603E+01 -0.68546205188E+01  0.12574164677E+02  0.00000000000E+00 0. -1.
</event>
<event>
 7    1  0.6046695E-013  0.5052886E+02  0.7816164E-02  0.1300439E+00
        -11   -1    0    0    0    0  0.00000000000E+00  0.00000000000E+00  0.45593999997E+02  0.45594000000E+02  0.51100000000E-03 0.  1.
         11   -1    0    0    0    0 -0.00000000000E+00 -0.00000000000E+00 -0.45593999997E+02  0.45594000000E+02  0.51100000000E-03 0. -1.
    9900012    2    1    2    0    0  0.35628594690E+02 -0.90789999850E+01  0.17359164794E+02  0.50528860774E+02  0.30000002807E+02 0.  0.
         12    1    1    2    0    0 -0.35628594690E+02  0.90789999850E+01 -0.17359164794E+02  0.40659139226E+02  0.00000000000E+00 0. -1.
         11    1    3    3    0    0  0.22611761855E+02  0.52359953242E+00  0.75533547351E+01  0.23845735440E+02  0.51100000000E-03 0.  1.
        -11    1    3    3    0    0 -0.24530227672E+01 -0.88261066556E+01  0.21710608269E+01  0.94144030490E+01  0.51100000000E-03 0. -1.
         12    1    3    3    0    0  0.15469855602E+02 -0.77649286181E+00  0.76347492318E+01  0.17268722284E+02  0.00000000000E+00 0. -1.
</event>
<event>
 7    1  0.6046695E-013  0.5052886E+02  0.7816164E-02  0.1300439E+00
        -11   -1    0    0    0    0  0.00000000000E+00  0.00000000000E+00  0.45593999997E+02  0.45594000000E+02  0.51100000000E-03 0. -1.
         11   -1    0    0    0    0 -0.00000000000E+00 -0.00000000000E+00 -0.45593999997E+02  0.45594000000E+02  0.51100000000E-03 0.  1.
    9900012    2    1    2    0    0 -0.89057178941E+01 -0.83381219391E+01 -0.38785688638E+02  0.50528859185E+02  0.29999997980E+02 0.  0.
         12    1    1    2    0    0  0.89057178941E+01  0.83381219391E+01  0.38785688638E+02  0.40659140815E+02  0.00000000000E+00 0. -1.
         11    1    3    3    0    0 -0.99453027605E+00  0.31163725396E+01  0.20570084764E+01  0.38642143327E+01  0.51100000000E-03 0. -1.
        -11    1    3    3    0    0  0.47010630034E+01 -0.44725307463E+01 -0.22017836802E+02  0.22954055466E+02  0.51100000000E-03 0.  1.
         12    1    3    3    0    0 -0.12612250621E+02 -0.69819637323E+01 -0.18824860312E+02  0.23710589387E+02  0.00000000000E+00 0. -1.
</event>
<event>
 7    1  0.6046695E-013  0.5052886E+02  0.7816164E-02  0.1300439E+00
        -11   -1    0    0    0    0  0.00000000000E+00  0.00000000000E+00  0.45593999997E+02  0.45594000000E+02  0.51100000000E-03 0.  1.
         11   -1    0    0    0    0 -0.00000000000E+00 -0.00000000000E+00 -0.45593999997E+02  0.45594000000E+02  0.51100000000E-03 0. -1.
    9900012    2    1    2    0    0 -0.20844908934E+02 -0.14031471606E+01  0.34881035192E+02  0.50528859988E+02  0.30000000420E+02 0.  0.
         12    1    1    2    0    0  0.20844908934E+02  0.14031471606E+01 -0.34881035192E+02  0.40659140012E+02  0.00000000000E+00 0. -1.
         11    1    3    3    0    0 -0.35982639448E+01 -0.99515412329E+01  0.11138370553E+02  0.15363722699E+02  0.51100000000E-03 0. -1.
        -11    1    3    3    0    0 -0.15404297945E+02  0.11497458041E+02  0.24939668763E+02  0.31487632728E+02  0.51100000000E-03 0.  1.
        -12    1    3    3    0    0 -0.18423470450E+01 -0.29490639687E+01 -0.11970041236E+01  0.36775045611E+01  0.00000000000E+00 0.  1.
</event>
<event>
 7    1  0.6046695E-013  0.5052885E+02  0.7816164E-02  0.1300439E+00
        -11   -1    0    0    0    0  0.00000000000E+00  0.00000000000E+00  0.45593999997E+02  0.45594000000E+02  0.51100000000E-03 0. -1.
         11   -1    0    0    0    0 -0.00000000000E+00 -0.00000000000E+00 -0.45593999997E+02  0.45594000000E+02  0.51100000000E-03 0.  1.
    9900012    2    1    2    0    0  0.31285700965E+02  0.24729486098E+02 -0.79261697080E+01  0.50528846863E+02  0.29999960525E+02 0.  0.
         12    1    1    2    0    0 -0.31285700965E+02 -0.24729486098E+02  0.79261697080E+01  0.40659153137E+02  0.00000000000E+00 0. -1.
         11    1    3    3    0    0  0.17898018797E+01  0.49239180251E+01  0.32493627866E+01  0.61649589023E+01  0.51100000000E-03 0. -1.
        -11    1    3    3    0    0  0.22037329615E+02  0.26467475691E+01 -0.12734324636E+02  0.25589298416E+02  0.51100000000E-03 0.  1.
        -12    1    3    3    0    0  0.74585694705E+01  0.17158820504E+02  0.15587921409E+01  0.18774589545E+02  0.00000000000E+00 0.  1.
</event>
<event>
 7    1  0.6046695E-013  0.5052885E+02  0.7816164E-02  0.1300439E+00
        -11   -1    0    0    0    0  0.00000000000E+00  0.00000000000E+00  0.45593999997E+02  0.45594000000E+02  0.51100000000E-03 0.  1.
         11   -1    0    0    0    0 -0.00000000000E+00 -0.00000000000E+00 -0.45593999997E+02  0.45594000000E+02  0.51100000000E-03 0. -1.
    9900012    2    1    2    0    0 -0.33779808845E+02  0.61162946923E+01  0.21787190824E+02  0.50528853054E+02  0.29999979343E+02 0.  0.
         12    1    1    2    0    0  0.33779808845E+02 -0.61162946923E+01 -0.21787190824E+02  0.40659146946E+02  0.00000000000E+00 0. -1.
         11    1    3    3    0    0 -0.18469567214E+01  0.97247676977E+00 -0.54410610778E+01  0.58277016149E+01  0.51100000000E-03 0. -1.
        -11    1    3    3    0    0 -0.15239194680E+02 -0.11409354988E+01  0.20649315082E+02  0.25689083322E+02  0.51100000000E-03 0.  1.
        -12    1    3    3    0    0 -0.16693657444E+02  0.62847534214E+01  0.65789368201E+01  0.19012068118E+02  0.00000000000E+00 0.  1.
</event>
<event>
 7    1  0.6046695E-013  0.5052886E+02  0.7816164E-02  0.1300439E+00
        -11   -1    0    0    0    0  0.00000000000E+00  0.00000000000E+00  0.45593999997E+02  0.45594000000E+02  0.51100000000E-03 0. -1.
         11   -1    0    0    0    0 -0.00000000000E+00 -0.00000000000E+00 -0.45593999997E+02  0.45594000000E+02  0.51100000000E-03 0.  1.
    9900012    2    1    2    0    0 -0.21345071684E+02  0.31507225695E+02 -0.14312523417E+02  0.50528859788E+02  0.29999999813E+02 0.  0.
         12    1    1    2    0    0  0.21345071684E+02 -0.31507225695E+02  0.14312523417E+02  0.40659140212E+02  0.00000000000E+00 0. -1.
         11    1    3    3    0    0 -0.11621041234E+01 -0.12017383013E+01 -0.54605932345E+01  0.57107564887E+01  0.51100000000E-03 0. -1.
        -11    1    3    3    0    0 -0.15902771948E+02  0.35393618976E+02 -0.86884346975E+01  0.39762989294E+02  0.51100000000E-03 0.  1.
        -12    1    3    3    0    0 -0.42801956121E+01 -0.26846549795E+01 -0.16349548514E+00  0.50551140057E+01  0.00000000000E+00 0.  1.
</event>
<event>
 7    1  0.6046695E-013  0.5052887E+02  0.7816164E-02  0.1300439E+00
        -11   -1    0    0    0    0  0.00000000000E+00  0.00000000000E+00  0.45593999997E+02  0.45594000000E+02  0.51100000000E-03 0.  1.
         11   -1    0    0    0    0 -0.00000000000E+00 -0.00000000000E+00 -0.45593999997E+02  0.45594000000E+02  0.51100000000E-03 0. -1.
    9900012    2    1    2    0    0  0.20498250080E+02 -0.19432820935E+02  0.29246399886E+02  0.50528871970E+02  0.30000036841E+02 0.  0.
         12    1    1    2    0    0 -0.20498250080E+02  0.19432820935E+02 -0.29246399886E+02  0.40659128030E+02  0.00000000000E+00 0. -1.
         11    1    3    3    0    0  0.26661692010E+02 -0.15824513711E+02  0.16906924899E+02  0.35314376178E+02  0.51100000000E-03 0. -1.
        -11    1    3    3    0    0 -0.59122868592E+01 -0.48354871941E+01  0.10841822664E+02  0.13262058334E+02  0.51100000000E-03 0.  1.
        -12    1    3    3    0    0 -0.25115507077E+00  0.12271799703E+01  0.14976523237E+01  0.19524374591E+01  0.00000000000E+00 0.  1.
</event>
<event>
 7    1  0.6046695E-013  0.5052876E+02  0.7816164E-02  0.1300439E+00
        -11   -1    0    0    0    0  0.00000000000E+00  0.00000000000E+00  0.45593999997E+02  0.45594000000E+02  0.51100000000E-03 0. -1.
         11   -1    0    0    0    0 -0.00000000000E+00 -0.00000000000E+00 -0.45593999997E+02  0.45594000000E+02  0.51100000000E-03 0.  1.
    9900012    2    1    2    0    0  0.96836233544E+01  0.21693460531E+02 -0.32996896245E+02  0.50528758088E+02  0.29999690683E+02 0.  0.
         12    1    1    2    0    0 -0.96836233544E+01 -0.21693460531E+02  0.32996896245E+02  0.40659241912E+02  0.00000000000E+00 0. -1.
         11    1    3    3    0    0 -0.30655263781E+01  0.28062130855E+01 -0.21890294492E+02  0.22281321259E+02  0.51100000000E-03 0. -1.
        -11    1    3    3    0    0  0.95422874267E+01  0.18965423494E+02 -0.57362488934E+01  0.21991977839E+02  0.51100000000E-03 0.  1.
        -12    1    3    3    0    0  0.32068623057E+01 -0.78176048490E-01 -0.53703528596E+01  0.62554589903E+01  0.00000000000E+00 0.  1.
</event>
<event>
 7    1  0.6046695E-013  0.5052885E+02  0.7816164E-02  0.1300439E+00
        -11   -1    0    0    0    0  0.00000000000E+00  0.00000000000E+00  0.45593999997E+02  0.45594000000E+02  0.51100000000E-03 0.  1.
         11   -1    0    0    0    0 -0.00000000000E+00 -0.00000000000E+00 -0.45593999997E+02  0.45594000000E+02  0.51100000000E-03 0. -1.
    9900012    2    1    2    0    0  0.36440921163E+02  0.83456657677E+01  0.15986730368E+02  0.50528850719E+02  0.29999972247E+02 0.  0.
         12    1    1    2    0    0 -0.36440921163E+02 -0.83456657677E+01 -0.15986730368E+02  0.40659149281E+02  0.00000000000E+00 0. -1.
         11    1    3    3    0    0  0.23260022240E+02 -0.48918178897E+01 -0.16320441458E+01  0.23824820780E+02  0.51100000000E-03 0. -1.
        -11    1    3    3    0    0  0.96862771916E+01  0.10809081717E+02  0.89626500407E+01  0.17058408759E+02  0.51100000000E-03 0.  1.
         12    1    3    3    0    0  0.34946217321E+01  0.24284019406E+01  0.86561244736E+01  0.96456211795E+01  0.00000000000E+00 0. -1.
</event>
<event>
 7    1  0.6046695E-013  0.5052886E+02  0.7816164E-02  0.1300439E+00
        -11   -1    0    0    0    0  0.00000000000E+00  0.00000000000E+00  0.45593999997E+02  0.45594000000E+02  0.51100000000E-03 0.  1.
         11   -1    0    0    0    0 -0.00000000000E+00 -0.00000000000E+00 -0.45593999997E+02  0.45594000000E+02  0.51100000000E-03 0. -1.
    9900012    2    1    2    0    0  0.18178075323E+01 -0.28473243429E+02  0.28967839186E+02  0.50528859297E+02  0.29999998320E+02 0.  0.
         12    1    1    2    0    0 -0.18178075323E+01  0.28473243429E+02 -0.28967839186E+02  0.40659140703E+02  0.00000000000E+00 0. -1.
         11    1    3    3    0    0 -0.21240314713E+01 -0.69509207867E+01 -0.50705518917E+01  0.88621276352E+01  0.51100000000E-03 0. -1.
        -11    1    3    3    0    0 -0.12200502377E+01  0.53671610294E+00  0.25239797515E+01  0.28543056607E+01  0.51100000000E-03 0.  1.
         12    1    3    3    0    0  0.51618892413E+01 -0.22059038745E+02  0.31514411326E+02  0.38812426001E+02  0.00000000000E+00 0. -1.
</event>
<event>
 7    1  0.6046695E-013  0.5052883E+02  0.7816164E-02  0.1300439E+00
        -11   -1    0    0    0    0  0.00000000000E+00  0.00000000000E+00  0.45593999997E+02  0.45594000000E+02  0.51100000000E-03 0.  1.
         11   -1    0    0    0    0 -0.00000000000E+00 -0.00000000000E+00 -0.45593999997E+02  0.45594000000E+02  0.51100000000E-03 0. -1.
    9900012    2    1    2    0    0 -0.85740100619E+01  0.20087190868E+02  0.34295173734E+02  0.50528833420E+02  0.29999919665E+02 0.  0.
         12    1    1    2    0    0  0.85740100619E+01 -0.20087190868E+02 -0.34295173734E+02  0.40659166580E+02  0.00000000000E+00 0. -1.
         11    1    3    3    0    0  0.78841359405E+01  0.14281547645E+02  0.11847443343E+02  0.20161451255E+02  0.51100000000E-03 0. -1.
        -11    1    3    3    0    0 -0.16007992815E+02  0.27553511073E+01  0.14246863590E+02  0.21606038881E+02  0.51100000000E-03 0.  1.
        -12    1    3    3    0    0 -0.45015318739E+00  0.30502921157E+01  0.82008668004E+01  0.87613432852E+01  0.00000000000E+00 0.  1.
</event>
<event>
 7    1  0.6046695E-013  0.5052886E+02  0.7816164E-02  0.1300439E+00
        -11   -1    0    0    0    0  0.00000000000E+00  0.00000000000E+00  0.45593999997E+02  0.45594000000E+02  0.51100000000E-03 0.  1.
         11   -1    0    0    0    0 -0.00000000000E+00 -0.00000000000E+00 -0.45593999997E+02  0.45594000000E+02  0.51100000000E-03 0. -1.
    9900012    2    1    2    0    0 -0.40204408054E+01 -0.40428325526E+02 -0.15975820092E+01  0.50528859363E+02  0.29999998519E+02 0.  0.
         12    1    1    2    0    0  0.40204408054E+01  0.40428325526E+02  0.15975820092E+01  0.40659140637E+02  0.00000000000E+00 0. -1.
         11    1    3    3    0    0 -0.39428396927E+01 -0.51303812513E+00 -0.60518973989E+01  0.72411777598E+01  0.51100000000E-03 0. -1.
        -11    1    3    3    0    0  0.55187837678E+01 -0.21759415684E+02 -0.34467469439E+01  0.22711433463E+02  0.51100000000E-03 0.  1.
         12    1    3    3    0    0 -0.55963848806E+01 -0.18155871716E+02  0.79010623336E+01  0.20576248140E+02  0.00000000000E+00 0. -1.
</event>
<event>
 7    1  0.6046695E-013  0.5052888E+02  0.7816164E-02  0.1300439E+00
        -11   -1    0    0    0    0  0.00000000000E+00  0.00000000000E+00  0.45593999997E+02  0.45594000000E+02  0.51100000000E-03 0.  1.
         11   -1    0    0    0    0 -0.00000000000E+00 -0.00000000000E+00 -0.45593999997E+02  0.45594000000E+02  0.51100000000E-03 0. -1.
    9900012    2    1    2    0    0  0.23605985805E+02  0.19633193927E+02  0.26654445739E+02  0.50528876212E+02  0.30000049733E+02 0.  0.
         12    1    1    2    0    0 -0.23605985805E+02 -0.19633193927E+02 -0.26654445739E+02  0.40659123788E+02  0.00000000000E+00 0. -1.
         11    1    3    3    0    0  0.24862482631E+02  0.21014234060E+02  0.27682341528E+02  0.42732342651E+02  0.51100000000E-03 0. -1.
        -11    1    3    3    0    0  0.30974392648E+01 -0.13096054641E+01 -0.65467405111E+00  0.34260465328E+01  0.51100000000E-03 0.  1.
         12    1    3    3    0    0 -0.43539360910E+01 -0.71434668542E-01 -0.37322173833E+00  0.43704870281E+01  0.00000000000E+00 0. -1.
</event>
<event>
 7    1  0.6046695E-013  0.5052886E+02  0.7816164E-02  0.1300439E+00
        -11   -1    0    0    0    0  0.00000000000E+00  0.00000000000E+00  0.45593999997E+02  0.45594000000E+02  0.51100000000E-03 0.  1.
         11   -1    0    0    0    0 -0.00000000000E+00 -0.00000000000E+00 -0.45593999997E+02  0.45594000000E+02  0.51100000000E-03 0. -1.
    9900012    2    1    2    0    0 -0.14364697967E+02  0.24711420350E+02  0.28916555013E+02  0.50528855921E+02  0.29999988058E+02 0.  0.
         12    1    1    2    0    0  0.14364697967E+02 -0.24711420350E+02 -0.28916555013E+02  0.40659144079E+02  0.00000000000E+00 0. -1.
         11    1    3    3    0    0 -0.57239490184E+01 -0.23128473771E+01  0.17839711557E+01  0.64261503796E+01  0.51100000000E-03 0. -1.
        -11    1    3    3    0    0 -0.93304598127E+01  0.30116743471E+02  0.25426579298E+02  0.40504155993E+02  0.51100000000E-03 0.  1.
         12    1    3    3    0    0  0.68971086442E+00 -0.30924757437E+01  0.17060045591E+01  0.35985495491E+01  0.00000000000E+00 0. -1.
</event>
<event>
 7    1  0.6046695E-013  0.5052886E+02  0.7816164E-02  0.1300439E+00
        -11   -1    0    0    0    0  0.00000000000E+00  0.00000000000E+00  0.45593999997E+02  0.45594000000E+02  0.51100000000E-03 0.  1.
         11   -1    0    0    0    0 -0.00000000000E+00 -0.00000000000E+00 -0.45593999997E+02  0.45594000000E+02  0.51100000000E-03 0. -1.
    9900012    2    1    2    0    0 -0.81191154845E+01  0.10690341802E+02  0.38379193744E+02  0.50528856422E+02  0.29999989579E+02 0.  0.
         12    1    1    2    0    0  0.81191154845E+01 -0.10690341802E+02 -0.38379193744E+02  0.40659143578E+02  0.00000000000E+00 0. -1.
         11    1    3    3    0    0  0.29454699672E+01  0.23672472957E+01  0.19955311426E+02  0.20309950946E+02  0.51100000000E-03 0. -1.
        -11    1    3    3    0    0 -0.11483809217E+02  0.50249881737E+01  0.11048835221E+01  0.12583685793E+02  0.51100000000E-03 0.  1.
        -12    1    3    3    0    0  0.41922376496E+00  0.32981063326E+01  0.17318998796E+02  0.17635219683E+02  0.00000000000E+00 0.  1.
</event>
<event>
 7    1  0.6046695E-013  0.5052886E+02  0.7816164E-02  0.1300439E+00
        -11   -1    0    0    0    0  0.00000000000E+00  0.00000000000E+00  0.45593999997E+02  0.45594000000E+02  0.51100000000E-03 0.  1.
         11   -1    0    0    0    0 -0.00000000000E+00 -0.00000000000E+00 -0.45593999997E+02  0.45594000000E+02  0.51100000000E-03 0. -1.
    9900012    2    1    2    0    0 -0.17494121563E+02  0.30474565932E+02  0.20455368615E+02  0.50528861259E+02  0.30000004282E+02 0.  0.
         12    1    1    2    0    0  0.17494121563E+02 -0.30474565932E+02 -0.20455368615E+02  0.40659138741E+02  0.00000000000E+00 0. -1.
         11    1    3    3    0    0 -0.84757850543E+01 -0.23098432958E+00  0.86207087169E+01  0.12091687438E+02  0.51100000000E-03 0. -1.
        -11    1    3    3    0    0  0.41334588600E+01  0.17054772798E+02  0.68416140458E+01  0.18835032263E+02  0.51100000000E-03 0.  1.
        -12    1    3    3    0    0 -0.13151795368E+02  0.13650777464E+02  0.49930458521E+01  0.19602141558E+02  0.00000000000E+00 0.  1.
</event>
<event>
 7    1  0.6046695E-013  0.5052887E+02  0.7816164E-02  0.1300439E+00
        -11   -1    0    0    0    0  0.00000000000E+00  0.00000000000E+00  0.45593999997E+02  0.45594000000E+02  0.51100000000E-03 0. -1.
         11   -1    0    0    0    0 -0.00000000000E+00 -0.00000000000E+00 -0.45593999997E+02  0.45594000000E+02  0.51100000000E-03 0.  1.
    9900012    2    1    2    0    0  0.34862321696E+02 -0.17804238763E+02 -0.10990572554E+02  0.50528867237E+02  0.30000022455E+02 0.  0.
         12    1    1    2    0    0 -0.34862321696E+02  0.17804238763E+02  0.10990572554E+02  0.40659132763E+02  0.00000000000E+00 0. -1.
         11    1    3    3    0    0  0.25424268158E+02 -0.19625987137E+02 -0.46153574957E+01  0.32448024710E+02  0.51100000000E-03 0.  1.
        -11    1    3    3    0    0  0.11192505896E+02  0.41895960058E+01 -0.10530554261E+01  0.11997242554E+02  0.51100000000E-03 0. -1.
        -12    1    3    3    0    0 -0.17544523579E+01 -0.23678476317E+01 -0.53221596325E+01  0.60835999735E+01  0.00000000000E+00 0.  1.
</event>
<event>
 7    1  0.6046695E-013  0.5052886E+02  0.7816164E-02  0.1300439E+00
        -11   -1    0    0    0    0  0.00000000000E+00  0.00000000000E+00  0.45593999997E+02  0.45594000000E+02  0.51100000000E-03 0. -1.
         11   -1    0    0    0    0 -0.00000000000E+00 -0.00000000000E+00 -0.45593999997E+02  0.45594000000E+02  0.51100000000E-03 0.  1.
    9900012    2    1    2    0    0  0.17978260156E+02  0.63813135309E+00 -0.36462862766E+02  0.50528863130E+02  0.30000009971E+02 0.  0.
         12    1    1    2    0    0 -0.17978260156E+02 -0.63813135309E+00  0.36462862766E+02  0.40659136870E+02  0.00000000000E+00 0. -1.
         11    1    3    3    0    0  0.14183921677E+02  0.14133960487E+02 -0.25728582313E+02  0.32602337666E+02  0.51100000000E-03 0. -1.
        -11    1    3    3    0    0  0.21928021516E+01 -0.63380104060E+01 -0.70058726866E+01  0.96985055315E+01  0.51100000000E-03 0.  1.
         12    1    3    3    0    0  0.16015363279E+01 -0.71578187277E+01 -0.37284077669E+01  0.82280199334E+01  0.00000000000E+00 0. -1.
</event>
<event>
 7    1  0.6046695E-013  0.5052886E+02  0.7816164E-02  0.1300439E+00
        -11   -1    0    0    0    0  0.00000000000E+00  0.00000000000E+00  0.45593999997E+02  0.45594000000E+02  0.51100000000E-03 0. -1.
         11   -1    0    0    0    0 -0.00000000000E+00 -0.00000000000E+00 -0.45593999997E+02  0.45594000000E+02  0.51100000000E-03 0.  1.
    9900012    2    1    2    0    0 -0.56525022053E+01  0.37520159692E+02 -0.14610023841E+02  0.50528856365E+02  0.29999989408E+02 0.  0.
         12    1    1    2    0    0  0.56525022053E+01 -0.37520159692E+02  0.14610023841E+02  0.40659143635E+02  0.00000000000E+00 0. -1.
         11    1    3    3    0    0 -0.29419153370E+00 -0.29393724329E+01 -0.24305397812E+01  0.38254389090E+01  0.51100000000E-03 0. -1.
        -11    1    3    3    0    0  0.47570695223E+01  0.30383890817E+02 -0.72285844195E+01  0.31592134537E+02  0.51100000000E-03 0.  1.
        -12    1    3    3    0    0 -0.10115380194E+02  0.10075641307E+02 -0.49508996400E+01  0.15111282919E+02  0.00000000000E+00 0.  1.
</event>
<event>
 7    1  0.6046695E-013  0.5052889E+02  0.7816164E-02  0.1300439E+00
        -11   -1    0    0    0    0  0.00000000000E+00  0.00000000000E+00  0.45593999997E+02  0.45594000000E+02  0.51100000000E-03 0. -1.
         11   -1    0    0    0    0 -0.00000000000E+00 -0.00000000000E+00 -0.45593999997E+02  0.45594000000E+02  0.51100000000E-03 0.  1.
    9900012    2    1    2    0    0  0.27789482584E+02 -0.10581825068E+02  0.27729636869E+02  0.50528891242E+02  0.30000095419E+02 0.  0.
         12    1    1    2    0    0 -0.27789482584E+02  0.10581825068E+02 -0.27729636869E+02  0.40659108758E+02  0.00000000000E+00 0. -1.
         11    1    3    3    0    0 -0.37616917385E+01  0.44932994471E+01  0.10431261431E+01  0.59521573457E+01  0.51100000000E-03 0. -1.
        -11    1    3    3    0    0  0.22031420587E+02 -0.13184559180E+02  0.16572801163E+02  0.30559349346E+02  0.51100000000E-03 0.  1.
         12    1    3    3    0    0  0.95197537363E+01 -0.18905653357E+01  0.10113709564E+02  0.14017384550E+02  0.00000000000E+00 0. -1.
</event>
<event>
 7    1  0.6046695E-013  0.5052886E+02  0.7816164E-02  0.1300439E+00
        -11   -1    0    0    0    0  0.00000000000E+00  0.00000000000E+00  0.45593999997E+02  0.45594000000E+02  0.51100000000E-03 0.  1.
         11   -1    0    0    0    0 -0.00000000000E+00 -0.00000000000E+00 -0.45593999997E+02  0.45594000000E+02  0.51100000000E-03 0. -1.
    9900012    2    1    2    0    0  0.21026623458E+02 -0.14715808332E+02  0.31535562689E+02  0.50528860523E+02  0.30000002047E+02 0.  0.
         12    1    1    2    0    0 -0.21026623458E+02  0.14715808332E+02 -0.31535562689E+02  0.40659139477E+02  0.00000000000E+00 0. -1.
         11    1    3    3    0    0 -0.66861107760E+00  0.45719485970E+01  0.70310380096E+01  0.84133970844E+01  0.51100000000E-03 0. -1.
        -11    1    3    3    0    0  0.16125095509E+02 -0.22179817773E+02  0.22662374929E+02  0.35574516993E+02  0.51100000000E-03 0.  1.
        -12    1    3    3    0    0  0.55701390266E+01  0.28920608443E+01  0.18421497500E+01  0.65409464456E+01  0.00000000000E+00 0.  1.
</event>
<event>
 7    1  0.6046695E-013  0.5052885E+02  0.7816164E-02  0.1300439E+00
        -11   -1    0    0    0    0  0.00000000000E+00  0.00000000000E+00  0.45593999997E+02  0.45594000000E+02  0.51100000000E-03 0.  1.
         11   -1    0    0    0    0 -0.00000000000E+00 -0.00000000000E+00 -0.45593999997E+02  0.45594000000E+02  0.51100000000E-03 0. -1.
    9900012    2    1    2    0    0 -0.34907253209E+02  0.10106393983E+02  0.18234884184E+02  0.50528849405E+02  0.29999968250E+02 0.  0.
         12    1    1    2    0    0  0.34907253209E+02 -0.10106393983E+02 -0.18234884184E+02  0.40659150595E+02  0.00000000000E+00 0. -1.
         11    1    3    3    0    0  0.25155738657E+01  0.42909061027E+01 -0.35424458542E+00  0.49865295089E+01  0.51100000000E-03 0. -1.
        -11    1    3    3    0    0 -0.34258844116E+02  0.13902906812E+01  0.20292363564E+02  0.39841954365E+02  0.51100000000E-03 0.  1.
        -12    1    3    3    0    0 -0.31639829584E+01  0.44251971992E+01 -0.17032347947E+01  0.57003655303E+01  0.00000000000E+00 0.  1.
</event>
<event>
 7    1  0.6472007E-013  0.5052886E+02  0.7816164E-02  0.1300439E+00
        -11   -1    0    0    0    0  0.00000000000E+00  0.00000000000E+00  0.45593999997E+02  0.45594000000E+02  0.51100000000E-03 0. -1.
         11   -1    0    0    0    0 -0.00000000000E+00 -0.00000000000E+00 -0.45593999997E+02  0.45594000000E+02  0.51100000000E-03 0.  1.
    9900012    2    1    2    0    0  0.25694239696E+02  0.30716082579E+02 -0.70351837278E+01  0.50528862126E+02  0.30000006919E+02 0.  0.
         12    1    1    2    0    0 -0.25694239696E+02 -0.30716082579E+02  0.70351837278E+01  0.40659137874E+02  0.00000000000E+00 0. -1.
         11    1    3    3    0    0 -0.49588177142E+01  0.53608627650E+01 -0.45558198582E+01  0.86072189207E+01  0.51100000000E-03 0. -1.
        -11    1    3    3    0    0  0.15110321694E+02  0.20627373641E+02 -0.23226673224E+01  0.25674990726E+02  0.51100000000E-03 0.  1.
         12    1    3    3    0    0  0.15542735717E+02  0.47278461730E+01 -0.15669654714E+00  0.16246652480E+02  0.00000000000E+00 0. -1.
</event>
<event>
 7    1  0.6046695E-013  0.5052886E+02  0.7816164E-02  0.1300439E+00
        -11   -1    0    0    0    0  0.00000000000E+00  0.00000000000E+00  0.45593999997E+02  0.45594000000E+02  0.51100000000E-03 0. -1.
         11   -1    0    0    0    0 -0.00000000000E+00 -0.00000000000E+00 -0.45593999997E+02  0.45594000000E+02  0.51100000000E-03 0.  1.
    9900012    2    1    2    0    0  0.39131447111E+02  0.10077946821E+02  0.45089416615E+01  0.50528859330E+02  0.29999998419E+02 0.  0.
         12    1    1    2    0    0 -0.39131447111E+02 -0.10077946821E+02 -0.45089416615E+01  0.40659140670E+02  0.00000000000E+00 0. -1.
         11    1    3    3    0    0 -0.28170400061E+01  0.61504612685E+01  0.18011712974E+00  0.67672986230E+01  0.51100000000E-03 0. -1.
        -11    1    3    3    0    0  0.35468161348E+02  0.17266141952E+01 -0.27867645567E+00  0.35511256339E+02  0.51100000000E-03 0.  1.
        -12    1    3    3    0    0  0.64803257693E+01  0.22008713578E+01  0.46075009875E+01  0.82503043677E+01  0.00000000000E+00 0.  1.
</event>
<event>
 7    1  0.6046695E-013  0.5052886E+02  0.7816164E-02  0.1300439E+00
        -11   -1    0    0    0    0  0.00000000000E+00  0.00000000000E+00  0.45593999997E+02  0.45594000000E+02  0.51100000000E-03 0.  1.
         11   -1    0    0    0    0 -0.00000000000E+00 -0.00000000000E+00 -0.45593999997E+02  0.45594000000E+02  0.51100000000E-03 0. -1.
    9900012    2    1    2    0    0  0.50352794061E+01  0.29946071869E+02  0.27037830714E+02  0.50528861436E+02  0.30000004820E+02 0.  0.
         12    1    1    2    0    0 -0.50352794061E+01 -0.29946071869E+02 -0.27037830714E+02  0.40659138564E+02  0.00000000000E+00 0. -1.
         11    1    3    3    0    0  0.82261093897E+01  0.68690499377E+01  0.96848576332E+01  0.14444694195E+02  0.51100000000E-03 0. -1.
        -11    1    3    3    0    0 -0.55014899586E+01  0.91017745863E+01 -0.32148563221E+01  0.11110535262E+02  0.51100000000E-03 0.  1.
        -12    1    3    3    0    0  0.23106599750E+01  0.13975247345E+02  0.20567829403E+02  0.24973631979E+02  0.00000000000E+00 0.  1.
</event>
<event>
 7    1  0.6046695E-013  0.5052887E+02  0.7816164E-02  0.1300439E+00
        -11   -1    0    0    0    0  0.00000000000E+00  0.00000000000E+00  0.45593999997E+02  0.45594000000E+02  0.51100000000E-03 0.  1.
         11   -1    0    0    0    0 -0.00000000000E+00 -0.00000000000E+00 -0.45593999997E+02  0.45594000000E+02  0.51100000000E-03 0. -1.
    9900012    2    1    2    0    0 -0.37281365503E+02  0.21179765365E+01  0.16086605807E+02  0.50528869110E+02  0.30000028147E+02 0.  0.
         12    1    1    2    0    0  0.37281365503E+02 -0.21179765365E+01 -0.16086605807E+02  0.40659130890E+02  0.00000000000E+00 0. -1.
         11    1    3    3    0    0 -0.92130961325E+01  0.39587856067E+01 -0.16450737581E+01  0.10161662844E+02  0.51100000000E-03 0. -1.
        -11    1    3    3    0    0 -0.18462895300E+02 -0.12114680519E+02  0.92402685517E+01  0.23937972974E+02  0.51100000000E-03 0.  1.
        -12    1    3    3    0    0 -0.96053740698E+01  0.10273871448E+02  0.84914110132E+01  0.16429233292E+02  0.00000000000E+00 0.  1.
</event>
<event>
 7    1  0.6046695E-013  0.5052894E+02  0.7816164E-02  0.1300439E+00
        -11   -1    0    0    0    0  0.00000000000E+00  0.00000000000E+00  0.45593999997E+02  0.45594000000E+02  0.51100000000E-03 0. -1.
         11   -1    0    0    0    0 -0.00000000000E+00 -0.00000000000E+00 -0.45593999997E+02  0.45594000000E+02  0.51100000000E-03 0.  1.
    9900012    2    1    2    0    0 -0.50965849308E+01 -0.27451383712E+02  0.29556821485E+02  0.50528937764E+02  0.30000236827E+02 0.  0.
         12    1    1    2    0    0  0.50965849308E+01  0.27451383712E+02 -0.29556821485E+02  0.40659062236E+02  0.00000000000E+00 0. -1.
         11    1    3    3    0    0 -0.86803114613E+01 -0.25801185353E+01  0.17022046296E+02  0.19280946011E+02  0.51100000000E-03 0. -1.
        -11    1    3    3    0    0  0.40540814797E+01 -0.66913801968E+01 -0.18749230538E+01  0.80452148698E+01  0.51100000000E-03 0.  1.
        -12    1    3    3    0    0 -0.47035494920E+00 -0.18179884979E+02  0.14409698242E+02  0.23202776883E+02  0.00000000000E+00 0.  1.
</event>
<event>
 7    1  0.6046695E-013  0.5052886E+02  0.7816164E-02  0.1300439E+00
        -11   -1    0    0    0    0  0.00000000000E+00  0.00000000000E+00  0.45593999997E+02  0.45594000000E+02  0.51100000000E-03 0.  1.
         11   -1    0    0    0    0 -0.00000000000E+00 -0.00000000000E+00 -0.45593999997E+02  0.45594000000E+02  0.51100000000E-03 0. -1.
    9900012    2    1    2    0    0 -0.22358449516E+02 -0.33305389249E+02  0.66344774704E+01  0.50528861924E+02  0.30000006305E+02 0.  0.
         12    1    1    2    0    0  0.22358449516E+02  0.33305389249E+02 -0.66344774704E+01  0.40659138076E+02  0.00000000000E+00 0. -1.
         11    1    3    3    0    0  0.55396726797E+01 -0.16185208052E+01 -0.32233244757E+00  0.57802665564E+01  0.51100000000E-03 0. -1.
        -11    1    3    3    0    0 -0.22604990491E+02 -0.22491864705E+02 -0.30825472795E+00  0.31889882318E+02  0.51100000000E-03 0.  1.
        -12    1    3    3    0    0 -0.52931317039E+01 -0.91950037391E+01  0.72650646460E+01  0.12858713050E+02  0.00000000000E+00 0.  1.
</event>
<event>
 7    1  0.6046695E-013  0.5052887E+02  0.7816164E-02  0.1300439E+00
        -11   -1    0    0    0    0  0.00000000000E+00  0.00000000000E+00  0.45593999997E+02  0.45594000000E+02  0.51100000000E-03 0.  1.
         11   -1    0    0    0    0 -0.00000000000E+00 -0.00000000000E+00 -0.45593999997E+02  0.45594000000E+02  0.51100000000E-03 0. -1.
    9900012    2    1    2    0    0  0.38845026904E+02 -0.10795165647E+02  0.52624546414E+01  0.50528866396E+02  0.30000019898E+02 0.  0.
         12    1    1    2    0    0 -0.38845026904E+02  0.10795165647E+02 -0.52624546414E+01  0.40659133604E+02  0.00000000000E+00 0. -1.
         11    1    3    3    0    0 -0.22963170831E+01  0.81367792314E+00 -0.45506933215E+01  0.51617781700E+01  0.51100000000E-03 0. -1.
        -11    1    3    3    0    0  0.37532442833E+02 -0.92213744959E+01  0.12066348310E+02  0.40488452359E+02  0.51100000000E-03 0.  1.
         12    1    3    3    0    0  0.36089011543E+01 -0.23874690743E+01 -0.22532003471E+01  0.48786358674E+01  0.00000000000E+00 0. -1.
</event>
<event>
 7    1  0.6046695E-013  0.5052886E+02  0.7816164E-02  0.1300439E+00
        -11   -1    0    0    0    0  0.00000000000E+00  0.00000000000E+00  0.45593999997E+02  0.45594000000E+02  0.51100000000E-03 0. -1.
         11   -1    0    0    0    0 -0.00000000000E+00 -0.00000000000E+00 -0.45593999997E+02  0.45594000000E+02  0.51100000000E-03 0.  1.
    9900012    2    1    2    0    0  0.29127940898E+02  0.22894752753E+02 -0.16749894607E+02  0.50528860635E+02  0.30000002385E+02 0.  0.
         12    1    1    2    0    0 -0.29127940898E+02 -0.22894752753E+02  0.16749894607E+02  0.40659139365E+02  0.00000000000E+00 0. -1.
         11    1    3    3    0    0  0.22681546386E+00  0.10515582916E+02 -0.56720842184E+00  0.10533311681E+02  0.51100000000E-03 0. -1.
        -11    1    3    3    0    0  0.23436049636E+02  0.15486255187E+02 -0.71423186330E+01  0.28984223950E+02  0.51100000000E-03 0.  1.
        -12    1    3    3    0    0  0.54650757978E+01 -0.31070853503E+01 -0.90403675520E+01  0.11011325003E+02  0.00000000000E+00 0.  1.
</event>
<event>
 7    1  0.6046695E-013  0.5052886E+02  0.7816164E-02  0.1300439E+00
        -11   -1    0    0    0    0  0.00000000000E+00  0.00000000000E+00  0.45593999997E+02  0.45594000000E+02  0.51100000000E-03 0.  1.
         11   -1    0    0    0    0 -0.00000000000E+00 -0.00000000000E+00 -0.45593999997E+02  0.45594000000E+02  0.51100000000E-03 0. -1.
    9900012    2    1    2    0    0  0.22155294206E+00  0.22370930455E+02  0.33950823706E+02  0.50528855328E+02  0.29999986255E+02 0.  0.
         12    1    1    2    0    0 -0.22155294206E+00 -0.22370930455E+02 -0.33950823706E+02  0.40659144672E+02  0.00000000000E+00 0. -1.
         11    1    3    3    0    0 -0.11283873500E+02  0.51373973596E+01  0.34507450067E+01  0.12869587956E+02  0.51100000000E-03 0. -1.
        -11    1    3    3    0    0  0.23402064878E+01  0.93543486330E+01  0.16959151718E+02  0.19508798836E+02  0.51100000000E-03 0.  1.
         12    1    3    3    0    0  0.91652199539E+01  0.78791844629E+01  0.13540926981E+02  0.18150468537E+02  0.00000000000E+00 0. -1.
</event>
<event>
 7    1  0.6046695E-013  0.5052885E+02  0.7816164E-02  0.1300439E+00
        -11   -1    0    0    0    0  0.00000000000E+00  0.00000000000E+00  0.45593999997E+02  0.45594000000E+02  0.51100000000E-03 0. -1.
         11   -1    0    0    0    0 -0.00000000000E+00 -0.00000000000E+00 -0.45593999997E+02  0.45594000000E+02  0.51100000000E-03 0.  1.
    9900012    2    1    2    0    0  0.22583991891E+02  0.96769511707E+01 -0.32395779802E+02  0.50528848230E+02  0.29999964680E+02 0.  0.
         12    1    1    2    0    0 -0.22583991891E+02 -0.96769511707E+01  0.32395779802E+02  0.40659151770E+02  0.00000000000E+00 0. -1.
         11    1    3    3    0    0  0.11896589450E+02  0.11630709061E+02 -0.29259888752E+02  0.33659223459E+02  0.51100000000E-03 0. -1.
        -11    1    3    3    0    0  0.12089414941E+02  0.12453195191E+00 -0.56270343094E+01  0.13335403151E+02  0.51100000000E-03 0.  1.
         12    1    3    3    0    0 -0.14020125000E+01 -0.20782898422E+01  0.24911432598E+01  0.35342216199E+01  0.00000000000E+00 0. -1.
</event>
<event>
 7    1  0.6046695E-013  0.5052886E+02  0.7816164E-02  0.1300439E+00
        -11   -1    0    0    0    0  0.00000000000E+00  0.00000000000E+00  0.45593999997E+02  0.45594000000E+02  0.51100000000E-03 0. -1.
         11   -1    0    0    0    0 -0.00000000000E+00 -0.00000000000E+00 -0.45593999997E+02  0.45594000000E+02  0.51100000000E-03 0.  1.
    9900012    2    1    2    0    0 -0.26473801717E+02 -0.19580280795E+02  0.23851957106E+02  0.50528862882E+02  0.30000009217E+02 0.  0.
         12    1    1    2    0    0  0.26473801717E+02  0.19580280795E+02 -0.23851957106E+02  0.40659137118E+02  0.00000000000E+00 0. -1.
         11    1    3    3    0    0 -0.12278306516E+02 -0.11816529960E+02  0.16468934258E+02  0.23698375199E+02  0.51100000000E-03 0. -1.
        -11    1    3    3    0    0 -0.83253901162E+01  0.11648370653E+01 -0.55356061421E+01  0.10065381344E+02  0.51100000000E-03 0.  1.
        -12    1    3    3    0    0 -0.58701050849E+01 -0.89285879001E+01  0.12918628990E+02  0.16765106340E+02  0.00000000000E+00 0.  1.
</event>
<event>
 7    1  0.6046695E-013  0.5052886E+02  0.7816164E-02  0.1300439E+00
        -11   -1    0    0    0    0  0.00000000000E+00  0.00000000000E+00  0.45593999997E+02  0.45594000000E+02  0.51100000000E-03 0.  1.
         11   -1    0    0    0    0 -0.00000000000E+00 -0.00000000000E+00 -0.45593999997E+02  0.45594000000E+02  0.51100000000E-03 0. -1.
    9900012    2    1    2    0    0 -0.25199585813E+02  0.11874511244E+02  0.29616592957E+02  0.50528859320E+02  0.29999998390E+02 0.  0.
         12    1    1    2    0    0  0.25199585813E+02 -0.11874511244E+02 -0.29616592957E+02  0.40659140680E+02  0.00000000000E+00 0. -1.
         11    1    3    3    0    0 -0.97468427166E+01 -0.31003026682E+01 -0.29014757617E+01  0.10631621769E+02  0.51100000000E-03 0. -1.
        -11    1    3    3    0    0 -0.57842239352E+01  0.11103027306E+02  0.20215665317E+02  0.23778300746E+02  0.51100000000E-03 0.  1.
         12    1    3    3    0    0 -0.96685191612E+01  0.38717866057E+01  0.12302403401E+02  0.16118936806E+02  0.00000000000E+00 0. -1.
</event>
<event>
 7    1  0.6046695E-013  0.5052887E+02  0.7816164E-02  0.1300439E+00
        -11   -1    0    0    0    0  0.00000000000E+00  0.00000000000E+00  0.45593999997E+02  0.45594000000E+02  0.51100000000E-03 0.  1.
         11   -1    0    0    0    0 -0.00000000000E+00 -0.00000000000E+00 -0.45593999997E+02  0.45594000000E+02  0.51100000000E-03 0. -1.
    9900012    2    1    2    0    0  0.61885291158E+01 -0.40103888673E+02  0.25583730053E+01  0.50528867548E+02  0.30000023398E+02 0.  0.
         12    1    1    2    0    0 -0.61885291158E+01  0.40103888673E+02 -0.25583730053E+01  0.40659132452E+02  0.00000000000E+00 0. -1.
         11    1    3    3    0    0  0.11989583995E+02 -0.11103212724E+02  0.80281617578E+01  0.18206670169E+02  0.51100000000E-03 0. -1.
        -11    1    3    3    0    0 -0.64873829224E+01 -0.25221614343E+02 -0.50803108683E+00  0.26047534684E+02  0.51100000000E-03 0.  1.
        -12    1    3    3    0    0  0.68632804340E+00 -0.37790616065E+01 -0.49617576657E+01  0.62746626954E+01  0.00000000000E+00 0.  1.
</event>
<event>
 7    1  0.6046695E-013  0.5052887E+02  0.7816164E-02  0.1300439E+00
        -11   -1    0    0    0    0  0.00000000000E+00  0.00000000000E+00  0.45593999997E+02  0.45594000000E+02  0.51100000000E-03 0.  1.
         11   -1    0    0    0    0 -0.00000000000E+00 -0.00000000000E+00 -0.45593999997E+02  0.45594000000E+02  0.51100000000E-03 0. -1.
    9900012    2    1    2    0    0  0.31521445994E+02  0.19436477626E+02  0.16786513390E+02  0.50528865087E+02  0.30000015919E+02 0.  0.
         12    1    1    2    0    0 -0.31521445994E+02 -0.19436477626E+02 -0.16786513390E+02  0.40659134913E+02  0.00000000000E+00 0. -1.
         11    1    3    3    0    0  0.58251589117E+01 -0.60064628706E+01  0.10960774983E+02  0.13789440200E+02  0.51100000000E-03 0. -1.
        -11    1    3    3    0    0  0.13043262283E+02  0.13727846315E+02  0.17230160764E+01  0.19014448194E+02  0.51100000000E-03 0.  1.
         12    1    3    3    0    0  0.12653024799E+02  0.11715094181E+02  0.41027223312E+01  0.17724976693E+02  0.00000000000E+00 0. -1.
</event>
<event>
 7    1  0.6046695E-013  0.5052888E+02  0.7816164E-02  0.1300439E+00
        -11   -1    0    0    0    0  0.00000000000E+00  0.00000000000E+00  0.45593999997E+02  0.45594000000E+02  0.51100000000E-03 0.  1.
         11   -1    0    0    0    0 -0.00000000000E+00 -0.00000000000E+00 -0.45593999997E+02  0.45594000000E+02  0.51100000000E-03 0. -1.
    9900012    2    1    2    0    0 -0.97193360149E+01  0.38915632342E+02 -0.66537572089E+01  0.50528875339E+02  0.30000047081E+02 0.  0.
         12    1    1    2    0    0  0.97193360149E+01 -0.38915632342E+02  0.66537572089E+01  0.40659124661E+02  0.00000000000E+00 0. -1.
         11    1    3    3    0    0 -0.11406239470E+02  0.53863664016E+01 -0.35581078872E+01  0.13106310459E+02  0.51100000000E-03 0. -1.
        -11    1    3    3    0    0  0.84662963980E+01  0.22468417019E+02  0.29973292993E+00  0.24012450482E+02  0.51100000000E-03 0.  1.
        -12    1    3    3    0    0 -0.67793929431E+01  0.11060848922E+02 -0.33953822517E+01  0.13410114398E+02  0.00000000000E+00 0.  1.
</event>
<event>
 7    1  0.6046695E-013  0.5052886E+02  0.7816164E-02  0.1300439E+00
        -11   -1    0    0    0    0  0.00000000000E+00  0.00000000000E+00  0.45593999997E+02  0.45594000000E+02  0.51100000000E-03 0.  1.
         11   -1    0    0    0    0 -0.00000000000E+00 -0.00000000000E+00 -0.45593999997E+02  0.45594000000E+02  0.51100000000E-03 0. -1.
    9900012    2    1    2    0    0 -0.16921879153E+02 -0.36119015591E+02  0.78887625432E+01  0.50528857661E+02  0.29999993345E+02 0.  0.
         12    1    1    2    0    0  0.16921879153E+02  0.36119015591E+02 -0.78887625432E+01  0.40659142339E+02  0.00000000000E+00 0. -1.
         11    1    3    3    0    0 -0.54291970591E+01 -0.32421148056E+02 -0.19538693206E+01  0.32930603207E+02  0.51100000000E-03 0. -1.
        -11    1    3    3    0    0 -0.79582231513E+01 -0.60770454485E+01  0.84902730232E+01  0.13128158035E+02  0.51100000000E-03 0.  1.
        -12    1    3    3    0    0 -0.35344589428E+01  0.23791779139E+01  0.13523588405E+01  0.44700964193E+01  0.00000000000E+00 0.  1.
</event>
<event>
 7    1  0.6046695E-013  0.5052886E+02  0.7816164E-02  0.1300439E+00
        -11   -1    0    0    0    0  0.00000000000E+00  0.00000000000E+00  0.45593999997E+02  0.45594000000E+02  0.51100000000E-03 0.  1.
         11   -1    0    0    0    0 -0.00000000000E+00 -0.00000000000E+00 -0.45593999997E+02  0.45594000000E+02  0.51100000000E-03 0. -1.
    9900012    2    1    2    0    0  0.59898756840E+01 -0.26959966388E+02 -0.29840364607E+02  0.50528858860E+02  0.29999996992E+02 0.  0.
         12    1    1    2    0    0 -0.59898756840E+01  0.26959966388E+02  0.29840364607E+02  0.40659141140E+02  0.00000000000E+00 0. -1.
         11    1    3    3    0    0 -0.80823093931E+01 -0.55650552329E+01 -0.16986355357E+02  0.19617080146E+02  0.51100000000E-03 0. -1.
        -11    1    3    3    0    0  0.78420658713E+01 -0.14174885109E+02 -0.17792868547E+01  0.16296969870E+02  0.51100000000E-03 0.  1.
        -12    1    3    3    0    0  0.62301192059E+01 -0.72200260464E+01 -0.11074722395E+02  0.14614808844E+02  0.00000000000E+00 0.  1.
</event>
<event>
 7    1  0.6046695E-013  0.5052886E+02  0.7816164E-02  0.1300439E+00
        -11   -1    0    0    0    0  0.00000000000E+00  0.00000000000E+00  0.45593999997E+02  0.45594000000E+02  0.51100000000E-03 0. -1.
         11   -1    0    0    0    0 -0.00000000000E+00 -0.00000000000E+00 -0.45593999997E+02  0.45594000000E+02  0.51100000000E-03 0.  1.
    9900012    2    1    2    0    0 -0.48549811768E+01 -0.37523980771E+02  0.14884407412E+02  0.50528861308E+02  0.30000004432E+02 0.  0.
         12    1    1    2    0    0  0.48549811768E+01  0.37523980771E+02 -0.14884407412E+02  0.40659138692E+02  0.00000000000E+00 0. -1.
         11    1    3    3    0    0  0.35533650637E+01 -0.34212118722E+02  0.12394507523E+02  0.36561171859E+02  0.51100000000E-03 0. -1.
        -11    1    3    3    0    0 -0.16588835346E+00 -0.20831497408E+01 -0.32392067346E+01  0.38548012036E+01  0.51100000000E-03 0.  1.
         12    1    3    3    0    0 -0.82424578871E+01 -0.12287123090E+01  0.57291066236E+01  0.10112888245E+02  0.00000000000E+00 0. -1.
</event>
<event>
 7    1  0.6046695E-013  0.5052894E+02  0.7816164E-02  0.1300439E+00
        -11   -1    0    0    0    0  0.00000000000E+00  0.00000000000E+00  0.45593999997E+02  0.45594000000E+02  0.51100000000E-03 0.  1.
         11   -1    0    0    0    0 -0.00000000000E+00 -0.00000000000E+00 -0.45593999997E+02  0.45594000000E+02  0.51100000000E-03 0. -1.
    9900012    2    1    2    0    0 -0.29438047509E+02 -0.59755632631E+01  0.27401699591E+02  0.50528940273E+02  0.30000244451E+02 0.  0.
         12    1    1    2    0    0  0.29438047509E+02  0.59755632631E+01 -0.27401699591E+02  0.40659059727E+02  0.00000000000E+00 0. -1.
         11    1    3    3    0    0 -0.31266972653E+01 -0.21178655163E+01  0.11883216835E+01  0.39590022503E+01  0.51100000000E-03 0. -1.
        -11    1    3    3    0    0 -0.27961442018E+02  0.12969999123E+01  0.10408554676E+02  0.29864066354E+02  0.51100000000E-03 0.  1.
        -12    1    3    3    0    0  0.16500917740E+01 -0.51546976591E+01  0.15804823231E+02  0.16705871668E+02  0.00000000000E+00 0.  1.
</event>
<event>
 7    1  0.6046695E-013  0.5052885E+02  0.7816164E-02  0.1300439E+00
        -11   -1    0    0    0    0  0.00000000000E+00  0.00000000000E+00  0.45593999997E+02  0.45594000000E+02  0.51100000000E-03 0. -1.
         11   -1    0    0    0    0 -0.00000000000E+00 -0.00000000000E+00 -0.45593999997E+02  0.45594000000E+02  0.51100000000E-03 0.  1.
    9900012    2    1    2    0    0 -0.83669137249E+01 -0.28660840901E+02 -0.27599227641E+02  0.50528850810E+02  0.29999972523E+02 0.  0.
         12    1    1    2    0    0  0.83669137249E+01  0.28660840901E+02  0.27599227641E+02  0.40659149190E+02  0.00000000000E+00 0. -1.
         11    1    3    3    0    0 -0.65055401344E+01 -0.20245964487E+02 -0.22295039277E+01  0.21382044301E+02  0.51100000000E-03 0.  1.
        -11    1    3    3    0    0  0.30456407130E+01 -0.76298772172E+00 -0.15138855575E+02  0.15461016332E+02  0.51100000000E-03 0. -1.
        -12    1    3    3    0    0 -0.49070143035E+01 -0.76518886922E+01 -0.10230868138E+02  0.13685790178E+02  0.00000000000E+00 0.  1.
</event>
<event>
 7    1  0.6046695E-013  0.5052885E+02  0.7816164E-02  0.1300439E+00
        -11   -1    0    0    0    0  0.00000000000E+00  0.00000000000E+00  0.45593999997E+02  0.45594000000E+02  0.51100000000E-03 0.  1.
         11   -1    0    0    0    0 -0.00000000000E+00 -0.00000000000E+00 -0.45593999997E+02  0.45594000000E+02  0.51100000000E-03 0. -1.
    9900012    2    1    2    0    0  0.22748462263E+02  0.16854568904E+02  0.29182140189E+02  0.50528851776E+02  0.29999975459E+02 0.  0.
         12    1    1    2    0    0 -0.22748462263E+02 -0.16854568904E+02 -0.29182140189E+02  0.40659148224E+02  0.00000000000E+00 0. -1.
         11    1    3    3    0    0 -0.26647182266E+01  0.82058874551E+01  0.22178335264E+01  0.89082039697E+01  0.51100000000E-03 0. -1.
        -11    1    3    3    0    0  0.11218444024E+02  0.30065528137E+01  0.23113954707E+02  0.25867890301E+02  0.51100000000E-03 0.  1.
         12    1    3    3    0    0  0.14194736465E+02  0.56421286350E+01  0.38503519553E+01  0.15752757506E+02  0.00000000000E+00 0. -1.
</event>
<event>
 7    1  0.6046695E-013  0.5052886E+02  0.7816164E-02  0.1300439E+00
        -11   -1    0    0    0    0  0.00000000000E+00  0.00000000000E+00  0.45593999997E+02  0.45594000000E+02  0.51100000000E-03 0. -1.
         11   -1    0    0    0    0 -0.00000000000E+00 -0.00000000000E+00 -0.45593999997E+02  0.45594000000E+02  0.51100000000E-03 0.  1.
    9900012    2    1    2    0    0  0.14975351540E+02 -0.37413990771E+02  0.53942692949E+01  0.50528855882E+02  0.29999987939E+02 0.  0.
         12    1    1    2    0    0 -0.14975351540E+02  0.37413990771E+02 -0.53942692949E+01  0.40659144118E+02  0.00000000000E+00 0. -1.
         11    1    3    3    0    0 -0.45685303775E+01 -0.20781355052E+02  0.55874185071E+01  0.21998987101E+02  0.51100000000E-03 0. -1.
        -11    1    3    3    0    0  0.15538449678E+02 -0.12987842797E+02 -0.54608626458E+01  0.20974949345E+02  0.51100000000E-03 0.  1.
         12    1    3    3    0    0  0.40054322402E+01 -0.36447929215E+01  0.52677134336E+01  0.75549194364E+01  0.00000000000E+00 0. -1.
</event>
<event>
 7    1  0.6046695E-013  0.5052886E+02  0.7816164E-02  0.1300439E+00
        -11   -1    0    0    0    0  0.00000000000E+00  0.00000000000E+00  0.45593999997E+02  0.45594000000E+02  0.51100000000E-03 0.  1.
         11   -1    0    0    0    0 -0.00000000000E+00 -0.00000000000E+00 -0.45593999997E+02  0.45594000000E+02  0.51100000000E-03 0. -1.
    9900012    2    1    2    0    0  0.29118007747E+02  0.22572387067E+02  0.17198682498E+02  0.50528859419E+02  0.29999998691E+02 0.  0.
         12    1    1    2    0    0 -0.29118007747E+02 -0.22572387067E+02 -0.17198682498E+02  0.40659140581E+02  0.00000000000E+00 0. -1.
         11    1    3    3    0    0  0.15272009158E+02 -0.22189699410E+01  0.10382359102E+02  0.18599770754E+02  0.51100000000E-03 0. -1.
        -11    1    3    3    0    0  0.33015231093E+01  0.98346003421E+01 -0.34666804225E+01  0.10937883348E+02  0.51100000000E-03 0.  1.
         12    1    3    3    0    0  0.10544475479E+02  0.14956756666E+02  0.10283003819E+02  0.20991205317E+02  0.00000000000E+00 0. -1.
</event>
<event>
 7    1  0.6046695E-013  0.5052885E+02  0.7816164E-02  0.1300439E+00
        -11   -1    0    0    0    0  0.00000000000E+00  0.00000000000E+00  0.45593999997E+02  0.45594000000E+02  0.51100000000E-03 0. -1.
         11   -1    0    0    0    0 -0.00000000000E+00 -0.00000000000E+00 -0.45593999997E+02  0.45594000000E+02  0.51100000000E-03 0.  1.
    9900012    2    1    2    0    0  0.39269506482E+02 -0.16695579133E+01 -0.10406006848E+02  0.50528849229E+02  0.29999967715E+02 0.  0.
         12    1    1    2    0    0 -0.39269506482E+02  0.16695579133E+01  0.10406006848E+02  0.40659150771E+02  0.00000000000E+00 0. -1.
         11    1    3    3    0    0  0.46629090269E+01  0.99389475853E+01  0.15561988241E+01  0.11088153802E+02  0.51100000000E-03 0. -1.
        -11    1    3    3    0    0  0.23033733839E+02 -0.45830564249E+01 -0.10809003076E+02  0.25853275393E+02  0.51100000000E-03 0.  1.
        -12    1    3    3    0    0  0.11572863615E+02 -0.70254490737E+01 -0.11532025964E+01  0.13587420034E+02  0.00000000000E+00 0.  1.
</event>
<event>
 7    1  0.6046695E-013  0.5052886E+02  0.7816164E-02  0.1300439E+00
        -11   -1    0    0    0    0  0.00000000000E+00  0.00000000000E+00  0.45593999997E+02  0.45594000000E+02  0.51100000000E-03 0. -1.
         11   -1    0    0    0    0 -0.00000000000E+00 -0.00000000000E+00 -0.45593999997E+02  0.45594000000E+02  0.51100000000E-03 0.  1.
    9900012    2    1    2    0    0 -0.71109301738E+01 -0.27621836772E+02  0.28976440750E+02  0.50528864333E+02  0.30000013627E+02 0.  0.
         12    1    1    2    0    0  0.71109301738E+01  0.27621836772E+02 -0.28976440750E+02  0.40659135667E+02  0.00000000000E+00 0. -1.
         11    1    3    3    0    0  0.46575777316E+01 -0.16638427633E+02  0.10825578487E+02  0.20389297542E+02  0.51100000000E-03 0. -1.
        -11    1    3    3    0    0 -0.10174949917E+02  0.23333027551E+01  0.99372550003E+01  0.14412596739E+02  0.51100000000E-03 0.  1.
        -12    1    3    3    0    0 -0.15935579881E+01 -0.13316711894E+02  0.82136072627E+01  0.15726970052E+02  0.00000000000E+00 0.  1.
</event>
<event>
 7    1  0.6046695E-013  0.5052884E+02  0.7816164E-02  0.1300439E+00
        -11   -1    0    0    0    0  0.00000000000E+00  0.00000000000E+00  0.45593999997E+02  0.45594000000E+02  0.51100000000E-03 0.  1.
         11   -1    0    0    0    0 -0.00000000000E+00 -0.00000000000E+00 -0.45593999997E+02  0.45594000000E+02  0.51100000000E-03 0. -1.
    9900012    2    1    2    0    0 -0.40121468579E+02 -0.18987587917E+00  0.65877737218E+01  0.50528842896E+02  0.29999948467E+02 0.  0.
         12    1    1    2    0    0  0.40121468579E+02  0.18987587917E+00 -0.65877737218E+01  0.40659157104E+02  0.00000000000E+00 0. -1.
         11    1    3    3    0    0 -0.14257090050E+02 -0.93098492799E+01 -0.60072087150E+01  0.18056147627E+02  0.51100000000E-03 0. -1.
        -11    1    3    3    0    0 -0.12257609414E+02  0.68330584401E+00  0.10820580063E+02  0.16364621859E+02  0.51100000000E-03 0.  1.
        -12    1    3    3    0    0 -0.13606769115E+02  0.84366675567E+01  0.17744023740E+01  0.16108073410E+02  0.00000000000E+00 0.  1.
</event>
<event>
 7    1  0.6046695E-013  0.5052886E+02  0.7816164E-02  0.1300439E+00
        -11   -1    0    0    0    0  0.00000000000E+00  0.00000000000E+00  0.45593999997E+02  0.45594000000E+02  0.51100000000E-03 0.  1.
         11   -1    0    0    0    0 -0.00000000000E+00 -0.00000000000E+00 -0.45593999997E+02  0.45594000000E+02  0.51100000000E-03 0. -1.
    9900012    2    1    2    0    0  0.20225367015E+02 -0.12220382689E+01  0.35250629696E+02  0.50528859055E+02  0.29999997584E+02 0.  0.
         12    1    1    2    0    0 -0.20225367015E+02  0.12220382689E+01 -0.35250629696E+02  0.40659140945E+02  0.00000000000E+00 0. -1.
         11    1    3    3    0    0  0.60909850380E+01 -0.12790975521E+01  0.42775991792E+01  0.75520887362E+01  0.51100000000E-03 0. -1.
        -11    1    3    3    0    0  0.38059717965E+01  0.12288353081E+02  0.19174038274E+02  0.23089668399E+02  0.51100000000E-03 0.  1.
        -12    1    3    3    0    0  0.10328410181E+02 -0.12231293798E+02  0.11798992242E+02  0.19887101920E+02  0.00000000000E+00 0.  1.
</event>
<event>
 7    1  0.6046695E-013  0.5052886E+02  0.7816164E-02  0.1300439E+00
        -11   -1    0    0    0    0  0.00000000000E+00  0.00000000000E+00  0.45593999997E+02  0.45594000000E+02  0.51100000000E-03 0.  1.
         11   -1    0    0    0    0 -0.00000000000E+00 -0.00000000000E+00 -0.45593999997E+02  0.45594000000E+02  0.51100000000E-03 0. -1.
    9900012    2    1    2    0    0  0.97611816554E+01 -0.38053686477E+02 -0.10478648988E+02  0.50528858268E+02  0.29999995190E+02 0.  0.
         12    1    1    2    0    0 -0.97611816554E+01  0.38053686477E+02  0.10478648988E+02  0.40659141732E+02  0.00000000000E+00 0. -1.
         11    1    3    3    0    0  0.47637074388E+01 -0.23401045604E+02 -0.18454467448E+02  0.30180609884E+02  0.51100000000E-03 0. -1.
        -11    1    3    3    0    0  0.49514460330E+01 -0.15491263251E+02  0.93338766984E+01  0.18751461527E+02  0.51100000000E-03 0.  1.
         12    1    3    3    0    0  0.46028183527E-01  0.83862237768E+00 -0.13580582379E+01  0.15967868560E+01  0.00000000000E+00 0. -1.
</event>
<event>
 7    1  0.6046695E-013  0.5052886E+02  0.7816164E-02  0.1300439E+00
        -11   -1    0    0    0    0  0.00000000000E+00  0.00000000000E+00  0.45593999997E+02  0.45594000000E+02  0.51100000000E-03 0.  1.
         11   -1    0    0    0    0 -0.00000000000E+00 -0.00000000000E+00 -0.45593999997E+02  0.45594000000E+02  0.51100000000E-03 0. -1.
    9900012    2    1    2    0    0 -0.35289397622E+02 -0.14925285920E+02  0.13603665419E+02  0.50528862563E+02  0.30000008247E+02 0.  0.
         12    1    1    2    0    0  0.35289397622E+02  0.14925285920E+02 -0.13603665419E+02  0.40659137437E+02  0.00000000000E+00 0. -1.
         11    1    3    3    0    0  0.52125811762E+01 -0.27870536906E+00  0.67573945815E+00  0.52635827416E+01  0.51100000000E-03 0. -1.
        -11    1    3    3    0    0 -0.15813051371E+02 -0.67796689676E+01  0.27377525873E+01  0.17421589895E+02  0.51100000000E-03 0.  1.
         12    1    3    3    0    0 -0.24688927427E+02 -0.78669115837E+01  0.10190173373E+02  0.27843689927E+02  0.00000000000E+00 0. -1.
</event>
<event>
 7    1  0.6046695E-013  0.5052888E+02  0.7816164E-02  0.1300439E+00
        -11   -1    0    0    0    0  0.00000000000E+00  0.00000000000E+00  0.45593999997E+02  0.45594000000E+02  0.51100000000E-03 0.  1.
         11   -1    0    0    0    0 -0.00000000000E+00 -0.00000000000E+00 -0.45593999997E+02  0.45594000000E+02  0.51100000000E-03 0. -1.
    9900012    2    1    2    0    0  0.41354466459E+01 -0.31571133911E+01  0.40324867659E+02  0.50528877584E+02  0.30000053905E+02 0.  0.
         12    1    1    2    0    0 -0.41354466459E+01  0.31571133911E+01 -0.40324867659E+02  0.40659122416E+02  0.00000000000E+00 0. -1.
         11    1    3    3    0    0  0.55382557988E+01  0.48966942273E+01  0.35544197336E+00  0.74010966016E+01  0.51100000000E-03 0. -1.
        -11    1    3    3    0    0  0.45657318086E+01 -0.87666944590E+01  0.28716746503E+02  0.30370254669E+02  0.51100000000E-03 0.  1.
        -12    1    3    3    0    0 -0.59685409614E+01  0.71288684047E+00  0.11252679183E+02  0.12757526314E+02  0.00000000000E+00 0.  1.
</event>
<event>
 7    1  0.6046695E-013  0.5052886E+02  0.7816164E-02  0.1300439E+00
        -11   -1    0    0    0    0  0.00000000000E+00  0.00000000000E+00  0.45593999997E+02  0.45594000000E+02  0.51100000000E-03 0. -1.
         11   -1    0    0    0    0 -0.00000000000E+00 -0.00000000000E+00 -0.45593999997E+02  0.45594000000E+02  0.51100000000E-03 0.  1.
    9900012    2    1    2    0    0  0.52622358235E+01 -0.82523465820E+01 -0.39463574027E+02  0.50528855580E+02  0.29999987020E+02 0.  0.
         12    1    1    2    0    0 -0.52622358235E+01  0.82523465820E+01  0.39463574027E+02  0.40659144420E+02  0.00000000000E+00 0. -1.
         11    1    3    3    0    0 -0.44242319350E+01 -0.35510798951E+01 -0.49572466857E-01  0.56733107024E+01  0.51100000000E-03 0. -1.
        -11    1    3    3    0    0  0.99519905660E+01 -0.10968978124E+02 -0.23847212099E+02  0.28072230450E+02  0.51100000000E-03 0.  1.
        -12    1    3    3    0    0 -0.26552280754E+00  0.62677114368E+01 -0.15566789462E+02  0.16783314427E+02  0.00000000000E+00 0.  1.
</event>
<event>
 7    1  0.6046695E-013  0.5052882E+02  0.7816164E-02  0.1300439E+00
        -11   -1    0    0    0    0  0.00000000000E+00  0.00000000000E+00  0.45593999997E+02  0.45594000000E+02  0.51100000000E-03 0.  1.
         11   -1    0    0    0    0 -0.00000000000E+00 -0.00000000000E+00 -0.45593999997E+02  0.45594000000E+02  0.51100000000E-03 0. -1.
    9900012    2    1    2    0    0  0.31893912589E+02 -0.24508899090E+02 -0.59381037528E+01  0.50528820582E+02  0.29999880639E+02 0.  0.
         12    1    1    2    0    0 -0.31893912589E+02  0.24508899090E+02  0.59381037528E+01  0.40659179418E+02  0.00000000000E+00 0. -1.
         11    1    3    3    0    0  0.15090451981E+02 -0.66868662450E+00  0.37451968663E+01  0.15562627754E+02  0.51100000000E-03 0. -1.
        -11    1    3    3    0    0  0.12240743380E+02 -0.16259699799E+02  0.18430943705E+01  0.20435523805E+02  0.51100000000E-03 0.  1.
         12    1    3    3    0    0  0.45627172274E+01 -0.75805126658E+01 -0.11526394990E+02  0.14530669022E+02  0.00000000000E+00 0. -1.
</event>
<event>
 7    1  0.6046695E-013  0.5052886E+02  0.7816164E-02  0.1300439E+00
        -11   -1    0    0    0    0  0.00000000000E+00  0.00000000000E+00  0.45593999997E+02  0.45594000000E+02  0.51100000000E-03 0.  1.
         11   -1    0    0    0    0 -0.00000000000E+00 -0.00000000000E+00 -0.45593999997E+02  0.45594000000E+02  0.51100000000E-03 0. -1.
    9900012    2    1    2    0    0 -0.36421229844E+02  0.11059281105E+02  0.14295163159E+02  0.50528863614E+02  0.30000011441E+02 0.  0.
         12    1    1    2    0    0  0.36421229844E+02 -0.11059281105E+02 -0.14295163159E+02  0.40659136386E+02  0.00000000000E+00 0. -1.
         11    1    3    3    0    0 -0.57877985674E+01  0.29111000886E+00 -0.40162913261E+01  0.70508122632E+01  0.51100000000E-03 0. -1.
        -11    1    3    3    0    0 -0.21540119310E+02  0.12595845771E+02  0.22220958588E+02  0.33412618445E+02  0.51100000000E-03 0.  1.
        -12    1    3    3    0    0 -0.90933119669E+01 -0.18276746752E+01 -0.39095041025E+01  0.10065432905E+02  0.00000000000E+00 0.  1.
</event>
<event>
 7    1  0.6046695E-013  0.5052886E+02  0.7816164E-02  0.1300439E+00
        -11   -1    0    0    0    0  0.00000000000E+00  0.00000000000E+00  0.45593999997E+02  0.45594000000E+02  0.51100000000E-03 0.  1.
         11   -1    0    0    0    0 -0.00000000000E+00 -0.00000000000E+00 -0.45593999997E+02  0.45594000000E+02  0.51100000000E-03 0. -1.
    9900012    2    1    2    0    0 -0.57913163937E+01  0.22614774843E+02  0.33289608824E+02  0.50528862744E+02  0.30000008796E+02 0.  0.
         12    1    1    2    0    0  0.57913163937E+01 -0.22614774843E+02 -0.33289608824E+02  0.40659137256E+02  0.00000000000E+00 0. -1.
         11    1    3    3    0    0  0.37210451063E-01 -0.51730482573E+01 -0.34214823890E+00  0.51844844072E+01  0.51100000000E-03 0. -1.
        -11    1    3    3    0    0  0.22155429833E+01  0.10382715496E+02  0.16564342944E+02  0.19674523354E+02  0.51100000000E-03 0.  1.
         12    1    3    3    0    0 -0.80440698280E+01  0.17405107604E+02  0.17067414119E+02  0.25669854983E+02  0.00000000000E+00 0. -1.
</event>
<event>
 7    1  0.6046695E-013  0.5052880E+02  0.7816164E-02  0.1300439E+00
        -11   -1    0    0    0    0  0.00000000000E+00  0.00000000000E+00  0.45593999997E+02  0.45594000000E+02  0.51100000000E-03 0. -1.
         11   -1    0    0    0    0 -0.00000000000E+00 -0.00000000000E+00 -0.45593999997E+02  0.45594000000E+02  0.51100000000E-03 0.  1.
    9900012    2    1    2    0    0 -0.29835650318E+01  0.33911929184E+02 -0.22231734826E+02  0.50528798893E+02  0.29999814714E+02 0.  0.
         12    1    1    2    0    0  0.29835650318E+01 -0.33911929184E+02  0.22231734826E+02  0.40659201107E+02  0.00000000000E+00 0. -1.
         11    1    3    3    0    0 -0.76034804308E+01  0.16930917776E+01  0.76529508706E+00  0.78272058399E+01  0.51100000000E-03 0. -1.
        -11    1    3    3    0    0 -0.40088398330E+01  0.18395083831E+02 -0.16910012698E+02  0.25306094832E+02  0.51100000000E-03 0.  1.
        -12    1    3    3    0    0  0.86287552319E+01  0.13823753576E+02 -0.60870172150E+01  0.17395498221E+02  0.00000000000E+00 0.  1.
</event>
<event>
 7    1  0.6046695E-013  0.5052886E+02  0.7816164E-02  0.1300439E+00
        -11   -1    0    0    0    0  0.00000000000E+00  0.00000000000E+00  0.45593999997E+02  0.45594000000E+02  0.51100000000E-03 0.  1.
         11   -1    0    0    0    0 -0.00000000000E+00 -0.00000000000E+00 -0.45593999997E+02  0.45594000000E+02  0.51100000000E-03 0. -1.
    9900012    2    1    2    0    0  0.33191841448E+02 -0.32000358859E+01  0.23264285447E+02  0.50528861473E+02  0.30000004933E+02 0.  0.
         12    1    1    2    0    0 -0.33191841448E+02  0.32000358859E+01 -0.23264285447E+02  0.40659138527E+02  0.00000000000E+00 0. -1.
         11    1    3    3    0    0  0.23789579653E+02  0.79684086356E+01  0.28178969243E+01  0.25246389437E+02  0.51100000000E-03 0. -1.
        -11    1    3    3    0    0  0.20485355363E+01 -0.42716378635E+01  0.55782667476E+01  0.73185003961E+01  0.51100000000E-03 0.  1.
         12    1    3    3    0    0  0.73537262590E+01 -0.68968066580E+01  0.14868121775E+02  0.17963971640E+02  0.00000000000E+00 0. -1.
</event>
<event>
 7    1  0.6046695E-013  0.5052886E+02  0.7816164E-02  0.1300439E+00
        -11   -1    0    0    0    0  0.00000000000E+00  0.00000000000E+00  0.45593999997E+02  0.45594000000E+02  0.51100000000E-03 0. -1.
         11   -1    0    0    0    0 -0.00000000000E+00 -0.00000000000E+00 -0.45593999997E+02  0.45594000000E+02  0.51100000000E-03 0.  1.
    9900012    2    1    2    0    0 -0.19090556281E+02  0.56045466630E+00 -0.35894322835E+02  0.50528857605E+02  0.29999993175E+02 0.  0.
         12    1    1    2    0    0  0.19090556281E+02 -0.56045466630E+00  0.35894322835E+02  0.40659142395E+02  0.00000000000E+00 0. -1.
         11    1    3    3    0    0  0.14320377783E+00 -0.90695075459E+00  0.36597697799E+01  0.37731925602E+01  0.51100000000E-03 0. -1.
        -11    1    3    3    0    0 -0.17590726526E+02  0.67338464912E+01 -0.25863158720E+02  0.31995020355E+02  0.51100000000E-03 0.  1.
        -12    1    3    3    0    0 -0.16430335328E+01 -0.52664410704E+01 -0.13690933895E+02  0.14760644689E+02  0.00000000000E+00 0.  1.
</event>
<event>
 7    1  0.6046695E-013  0.5052887E+02  0.7816164E-02  0.1300439E+00
        -11   -1    0    0    0    0  0.00000000000E+00  0.00000000000E+00  0.45593999997E+02  0.45594000000E+02  0.51100000000E-03 0.  1.
         11   -1    0    0    0    0 -0.00000000000E+00 -0.00000000000E+00 -0.45593999997E+02  0.45594000000E+02  0.51100000000E-03 0. -1.
    9900012    2    1    2    0    0 -0.28700596553E+02  0.25628698215E+02  0.13138144324E+02  0.50528865098E+02  0.30000015953E+02 0.  0.
         12    1    1    2    0    0  0.28700596553E+02 -0.25628698215E+02 -0.13138144324E+02  0.40659134902E+02  0.00000000000E+00 0. -1.
         11    1    3    3    0    0  0.11850638086E+01 -0.17987436241E+01 -0.30469380632E+01  0.37314456552E+01  0.51100000000E-03 0. -1.
        -11    1    3    3    0    0 -0.32002942256E+02  0.26525219073E+02  0.14867277886E+02  0.44145345303E+02  0.51100000000E-03 0.  1.
        -12    1    3    3    0    0  0.21172818946E+01  0.90222276566E+00  0.13178045015E+01  0.26520741400E+01  0.00000000000E+00 0.  1.
</event>
<event>
 7    1  0.6046695E-013  0.5052884E+02  0.7816164E-02  0.1300439E+00
        -11   -1    0    0    0    0  0.00000000000E+00  0.00000000000E+00  0.45593999997E+02  0.45594000000E+02  0.51100000000E-03 0. -1.
         11   -1    0    0    0    0 -0.00000000000E+00 -0.00000000000E+00 -0.45593999997E+02  0.45594000000E+02  0.51100000000E-03 0.  1.
    9900012    2    1    2    0    0 -0.33852096118E+02  0.22408093041E+02  0.22538992643E+01  0.50528842271E+02  0.29999946567E+02 0.  0.
         12    1    1    2    0    0  0.33852096118E+02 -0.22408093041E+02 -0.22538992643E+01  0.40659157729E+02  0.00000000000E+00 0. -1.
         11    1    3    3    0    0 -0.10287739273E+02  0.31982433875E+01  0.60616766248E+01  0.12361644869E+02  0.51100000000E-03 0. -1.
        -11    1    3    3    0    0 -0.16483069666E+02  0.22946971540E+02 -0.76720972648E+01  0.29276546333E+02  0.51100000000E-03 0.  1.
        -12    1    3    3    0    0 -0.70812871789E+01 -0.37371218863E+01  0.38643199042E+01  0.88906510687E+01  0.00000000000E+00 0.  1.
</event>
<event>
 7    1  0.6046695E-013  0.5052886E+02  0.7816164E-02  0.1300439E+00
        -11   -1    0    0    0    0  0.00000000000E+00  0.00000000000E+00  0.45593999997E+02  0.45594000000E+02  0.51100000000E-03 0.  1.
         11   -1    0    0    0    0 -0.00000000000E+00 -0.00000000000E+00 -0.45593999997E+02  0.45594000000E+02  0.51100000000E-03 0. -1.
    9900012    2    1    2    0    0 -0.22794895188E+02  0.75702744965E+01  0.32806241470E+02  0.50528858568E+02  0.29999996105E+02 0.  0.
         12    1    1    2    0    0  0.22794895188E+02 -0.75702744965E+01 -0.32806241470E+02  0.40659141432E+02  0.00000000000E+00 0. -1.
         11    1    3    3    0    0 -0.23458227285E+02  0.15615933876E+02  0.26608634097E+02  0.38757776341E+02  0.51100000000E-03 0.  1.
        -11    1    3    3    0    0  0.21505613013E+01 -0.67314789595E+01  0.23594324275E+01  0.74501439271E+01  0.51100000000E-03 0. -1.
        -12    1    3    3    0    0 -0.14872292046E+01 -0.13141804198E+01  0.38381749454E+01  0.43209383002E+01  0.00000000000E+00 0.  1.
</event>
<event>
 7    1  0.6046695E-013  0.5052886E+02  0.7816164E-02  0.1300439E+00
        -11   -1    0    0    0    0  0.00000000000E+00  0.00000000000E+00  0.45593999997E+02  0.45594000000E+02  0.51100000000E-03 0.  1.
         11   -1    0    0    0    0 -0.00000000000E+00 -0.00000000000E+00 -0.45593999997E+02  0.45594000000E+02  0.51100000000E-03 0. -1.
    9900012    2    1    2    0    0  0.36432382361E+02 -0.94740934666E+00  0.18026367176E+02  0.50528856102E+02  0.29999988607E+02 0.  0.
         12    1    1    2    0    0 -0.36432382361E+02  0.94740934666E+00 -0.18026367176E+02  0.40659143898E+02  0.00000000000E+00 0. -1.
         11    1    3    3    0    0  0.83039907830E+01 -0.11155451723E+02  0.33250407118E+00  0.13910820439E+02  0.51100000000E-03 0. -1.
        -11    1    3    3    0    0  0.18360663454E+02  0.35943636281E+01  0.16161028207E+02  0.24722707079E+02  0.51100000000E-03 0.  1.
        -12    1    3    3    0    0  0.97677281245E+01  0.66136787481E+01  0.15328348976E+01  0.11895328584E+02  0.00000000000E+00 0.  1.
</event>
<event>
 7    1  0.6046695E-013  0.5052883E+02  0.7816164E-02  0.1300439E+00
        -11   -1    0    0    0    0  0.00000000000E+00  0.00000000000E+00  0.45593999997E+02  0.45594000000E+02  0.51100000000E-03 0.  1.
         11   -1    0    0    0    0 -0.00000000000E+00 -0.00000000000E+00 -0.45593999997E+02  0.45594000000E+02  0.51100000000E-03 0. -1.
    9900012    2    1    2    0    0 -0.52247784110E+01  0.34299617879E+02  0.21199195871E+02  0.50528831272E+02  0.29999913134E+02 0.  0.
         12    1    1    2    0    0  0.52247784110E+01 -0.34299617879E+02 -0.21199195871E+02  0.40659168728E+02  0.00000000000E+00 0. -1.
         11    1    3    3    0    0  0.20172102172E+01 -0.93219351960E+00  0.10293780902E+02  0.10530909142E+02  0.51100000000E-03 0. -1.
        -11    1    3    3    0    0 -0.10609216658E+02  0.27501851846E+02  0.55097494673E+01  0.29987742038E+02  0.51100000000E-03 0.  1.
        -12    1    3    3    0    0  0.33672280295E+01  0.77299595523E+01  0.53956655015E+01  0.10010180093E+02  0.00000000000E+00 0.  1.
</event>
<event>
 7    1  0.6046695E-013  0.5052886E+02  0.7816164E-02  0.1300439E+00
        -11   -1    0    0    0    0  0.00000000000E+00  0.00000000000E+00  0.45593999997E+02  0.45594000000E+02  0.51100000000E-03 0. -1.
         11   -1    0    0    0    0 -0.00000000000E+00 -0.00000000000E+00 -0.45593999997E+02  0.45594000000E+02  0.51100000000E-03 0.  1.
    9900012    2    1    2    0    0  0.15226833777E+02 -0.37348522903E+02  0.51378109462E+01  0.50528859193E+02  0.29999998002E+02 0.  0.
         12    1    1    2    0    0 -0.15226833777E+02  0.37348522903E+02 -0.51378109462E+01  0.40659140807E+02  0.00000000000E+00 0. -1.
         11    1    3    3    0    0  0.33485289664E+01  0.29993100017E+01  0.16818325830E+01  0.47996945553E+01  0.51100000000E-03 0. -1.
        -11    1    3    3    0    0  0.92129758980E+00 -0.28650896108E+02 -0.21586512525E+01  0.28746867874E+02  0.51100000000E-03 0.  1.
        -12    1    3    3    0    0  0.10957007221E+02 -0.11696936796E+02  0.56146296157E+01  0.16982296764E+02  0.00000000000E+00 0.  1.
</event>
<event>
 7    1  0.6046695E-013  0.5052886E+02  0.7816164E-02  0.1300439E+00
        -11   -1    0    0    0    0  0.00000000000E+00  0.00000000000E+00  0.45593999997E+02  0.45594000000E+02  0.51100000000E-03 0.  1.
         11   -1    0    0    0    0 -0.00000000000E+00 -0.00000000000E+00 -0.45593999997E+02  0.45594000000E+02  0.51100000000E-03 0. -1.
    9900012    2    1    2    0    0 -0.20631728678E+02 -0.32170460069E+02  0.13876558499E+02  0.50528860744E+02  0.30000002718E+02 0.  0.
         12    1    1    2    0    0  0.20631728678E+02  0.32170460069E+02 -0.13876558499E+02  0.40659139256E+02  0.00000000000E+00 0. -1.
         11    1    3    3    0    0 -0.46778489588E+01 -0.29473051227E+02  0.48108771082E+01  0.30227265147E+02  0.51100000000E-03 0. -1.
        -11    1    3    3    0    0  0.90327969530E+00 -0.47139877513E+00  0.11785205396E+01  0.15578966386E+01  0.51100000000E-03 0.  1.
         12    1    3    3    0    0 -0.16857159414E+02 -0.22260100669E+01  0.78871608508E+01  0.18743698958E+02  0.00000000000E+00 0. -1.
</event>
<event>
 7    1  0.6046695E-013  0.5052884E+02  0.7816164E-02  0.1300439E+00
        -11   -1    0    0    0    0  0.00000000000E+00  0.00000000000E+00  0.45593999997E+02  0.45594000000E+02  0.51100000000E-03 0.  1.
         11   -1    0    0    0    0 -0.00000000000E+00 -0.00000000000E+00 -0.45593999997E+02  0.45594000000E+02  0.51100000000E-03 0. -1.
    9900012    2    1    2    0    0  0.32103848263E+02  0.16286316652E+02  0.18901494671E+02  0.50528835176E+02  0.29999925002E+02 0.  0.
         12    1    1    2    0    0 -0.32103848263E+02 -0.16286316652E+02 -0.18901494671E+02  0.40659164824E+02  0.00000000000E+00 0. -1.
         11    1    3    3    0    0  0.98332657347E+01 -0.46312157277E+01  0.98797858498E+01  0.14688479936E+02  0.51100000000E-03 0. -1.
        -11    1    3    3    0    0  0.18790988780E+02  0.17733267837E+02  0.13659181661E+02  0.29225729955E+02  0.51100000000E-03 0.  1.
        -12    1    3    3    0    0  0.34795937476E+01  0.31842645425E+01 -0.46374728395E+01  0.66146252851E+01  0.00000000000E+00 0.  1.
</event>
<event>
 7    1  0.6046695E-013  0.5052886E+02  0.7816164E-02  0.1300439E+00
        -11   -1    0    0    0    0  0.00000000000E+00  0.00000000000E+00  0.45593999997E+02  0.45594000000E+02  0.51100000000E-03 0.  1.
         11   -1    0    0    0    0 -0.00000000000E+00 -0.00000000000E+00 -0.45593999997E+02  0.45594000000E+02  0.51100000000E-03 0. -1.
    9900012    2    1    2    0    0 -0.24606850731E+02  0.23423128622E+02  0.22338877389E+02  0.50528862031E+02  0.30000006629E+02 0.  0.
         12    1    1    2    0    0  0.24606850731E+02 -0.23423128622E+02 -0.22338877389E+02  0.40659137969E+02  0.00000000000E+00 0. -1.
         11    1    3    3    0    0 -0.13864870105E+02  0.35906742623E+01 -0.36701588238E+01  0.14785047540E+02  0.51100000000E-03 0. -1.
        -11    1    3    3    0    0 -0.87529770032E+01  0.14279378889E+02  0.24461031068E+02  0.29645527640E+02  0.51100000000E-03 0.  1.
        -12    1    3    3    0    0 -0.19890036229E+01  0.55530754704E+01  0.15480051453E+01  0.60982868514E+01  0.00000000000E+00 0.  1.
</event>
<event>
 7    1  0.6046695E-013  0.5052885E+02  0.7816164E-02  0.1300439E+00
        -11   -1    0    0    0    0  0.00000000000E+00  0.00000000000E+00  0.45593999997E+02  0.45594000000E+02  0.51100000000E-03 0. -1.
         11   -1    0    0    0    0 -0.00000000000E+00 -0.00000000000E+00 -0.45593999997E+02  0.45594000000E+02  0.51100000000E-03 0.  1.
    9900012    2    1    2    0    0 -0.26723517639E+02 -0.24358322274E+02 -0.18592796493E+02  0.50528851701E+02  0.29999975230E+02 0.  0.
         12    1    1    2    0    0  0.26723517639E+02  0.24358322274E+02  0.18592796493E+02  0.40659148299E+02  0.00000000000E+00 0. -1.
         11    1    3    3    0    0 -0.20149424570E+02 -0.49913413354E+01 -0.23074987818E+01  0.20886295739E+02  0.51100000000E-03 0. -1.
        -11    1    3    3    0    0 -0.10002091152E+01 -0.19138619968E+02 -0.13161640469E+02  0.23248999390E+02  0.51100000000E-03 0.  1.
        -12    1    3    3    0    0 -0.55738839541E+01 -0.22836097038E+00 -0.31236572416E+01  0.63935565712E+01  0.00000000000E+00 0.  1.
</event>
<event>
 7    1  0.6046695E-013  0.5052892E+02  0.7816164E-02  0.1300439E+00
        -11   -1    0    0    0    0  0.00000000000E+00  0.00000000000E+00  0.45593999997E+02  0.45594000000E+02  0.51100000000E-03 0. -1.
         11   -1    0    0    0    0 -0.00000000000E+00 -0.00000000000E+00 -0.45593999997E+02  0.45594000000E+02  0.51100000000E-03 0.  1.
    9900012    2    1    2    0    0  0.18302015013E+02  0.32403908247E+02 -0.16376328708E+02  0.50528915343E+02  0.30000168676E+02 0.  0.
         12    1    1    2    0    0 -0.18302015013E+02 -0.32403908247E+02  0.16376328708E+02  0.40659084657E+02  0.00000000000E+00 0. -1.
         11    1    3    3    0    0  0.13481427810E+01  0.40850582347E+00  0.65680018475E+01  0.67173666340E+01  0.51100000000E-03 0. -1.
        -11    1    3    3    0    0  0.86874797373E+00  0.10018976482E+02 -0.70070214196E+01  0.12256955667E+02  0.51100000000E-03 0.  1.
         12    1    3    3    0    0  0.16085124258E+02  0.21976425941E+02 -0.15937309136E+02  0.31554593042E+02  0.00000000000E+00 0. -1.
</event>
<event>
 7    1  0.6046695E-013  0.5052889E+02  0.7816164E-02  0.1300439E+00
        -11   -1    0    0    0    0  0.00000000000E+00  0.00000000000E+00  0.45593999997E+02  0.45594000000E+02  0.51100000000E-03 0.  1.
         11   -1    0    0    0    0 -0.00000000000E+00 -0.00000000000E+00 -0.45593999997E+02  0.45594000000E+02  0.51100000000E-03 0. -1.
    9900012    2    1    2    0    0  0.26135308530E+02  0.11447947122E+02  0.28966422585E+02  0.50528886844E+02  0.30000082050E+02 0.  0.
         12    1    1    2    0    0 -0.26135308530E+02 -0.11447947122E+02 -0.28966422585E+02  0.40659113156E+02  0.00000000000E+00 0. -1.
         11    1    3    3    0    0 -0.67725820544E+01  0.24192082169E+01  0.47446767649E+01  0.86158223023E+01  0.51100000000E-03 0. -1.
        -11    1    3    3    0    0  0.18066985724E+02  0.61692451757E+01  0.13428764035E+02  0.23341106721E+02  0.51100000000E-03 0.  1.
         12    1    3    3    0    0  0.14840904861E+02  0.28594937294E+01  0.10792981785E+02  0.18571957820E+02  0.00000000000E+00 0. -1.
</event>
<event>
 7    1  0.6046695E-013  0.5052886E+02  0.7816164E-02  0.1300439E+00
        -11   -1    0    0    0    0  0.00000000000E+00  0.00000000000E+00  0.45593999997E+02  0.45594000000E+02  0.51100000000E-03 0. -1.
         11   -1    0    0    0    0 -0.00000000000E+00 -0.00000000000E+00 -0.45593999997E+02  0.45594000000E+02  0.51100000000E-03 0.  1.
    9900012    2    1    2    0    0 -0.32792570426E+02  0.23834187598E+02 -0.31216801546E+01  0.50528855142E+02  0.29999985690E+02 0.  0.
         12    1    1    2    0    0  0.32792570426E+02 -0.23834187598E+02  0.31216801546E+01  0.40659144858E+02  0.00000000000E+00 0. -1.
         11    1    3    3    0    0  0.40063100995E+01  0.61636526072E+01  0.37758919507E+01  0.82642903120E+01  0.51100000000E-03 0. -1.
        -11    1    3    3    0    0 -0.13861145944E+02  0.56212354367E+01  0.14880309840E+01  0.15031430111E+02  0.51100000000E-03 0.  1.
         12    1    3    3    0    0 -0.22937734581E+02  0.12049299554E+02 -0.83856030893E+01  0.27233134719E+02  0.00000000000E+00 0. -1.
</event>
<event>
 7    1  0.6046695E-013  0.5052886E+02  0.7816164E-02  0.1300439E+00
        -11   -1    0    0    0    0  0.00000000000E+00  0.00000000000E+00  0.45593999997E+02  0.45594000000E+02  0.51100000000E-03 0.  1.
         11   -1    0    0    0    0 -0.00000000000E+00 -0.00000000000E+00 -0.45593999997E+02  0.45594000000E+02  0.51100000000E-03 0. -1.
    9900012    2    1    2    0    0 -0.28996216806E+02  0.21268233974E+02  0.18974922997E+02  0.50528855048E+02  0.29999985405E+02 0.  0.
         12    1    1    2    0    0  0.28996216806E+02 -0.21268233974E+02 -0.18974922997E+02  0.40659144952E+02  0.00000000000E+00 0. -1.
         11    1    3    3    0    0 -0.18605289175E+01  0.12086740936E+02  0.19952068804E+01  0.12390791946E+02  0.51100000000E-03 0. -1.
        -11    1    3    3    0    0 -0.27346896344E+02  0.28923905956E+01  0.11549423487E+02  0.29826294542E+02  0.51100000000E-03 0.  1.
         12    1    3    3    0    0  0.21120845498E+00  0.62891024425E+01  0.54302926298E+01  0.83117685596E+01  0.00000000000E+00 0. -1.
</event>
<event>
 7    1  0.6295069E-013  0.5052886E+02  0.7816164E-02  0.1300439E+00
        -11   -1    0    0    0    0  0.00000000000E+00  0.00000000000E+00  0.45593999997E+02  0.45594000000E+02  0.51100000000E-03 0.  1.
         11   -1    0    0    0    0 -0.00000000000E+00 -0.00000000000E+00 -0.45593999997E+02  0.45594000000E+02  0.51100000000E-03 0. -1.
    9900012    2    1    2    0    0 -0.13827369793E+02 -0.26704426730E+02  0.27364997480E+02  0.50528860198E+02  0.30000001057E+02 0.  0.
         12    1    1    2    0    0  0.13827369793E+02  0.26704426730E+02 -0.27364997480E+02  0.40659139802E+02  0.00000000000E+00 0. -1.
         11    1    3    3    0    0 -0.10809971779E+02 -0.91174332164E+01 -0.17285390232E-01  0.14141547913E+02  0.51100000000E-03 0. -1.
        -11    1    3    3    0    0 -0.55805648021E+01 -0.61204185099E+01  0.21915104050E+02  0.23428060356E+02  0.51100000000E-03 0.  1.
         12    1    3    3    0    0  0.25631667886E+01 -0.11466575004E+02  0.54671788198E+01  0.12959251929E+02  0.00000000000E+00 0. -1.
</event>
<event>
 7    1  0.6532861E-013  0.5052885E+02  0.7816164E-02  0.1300439E+00
        -11   -1    0    0    0    0  0.00000000000E+00  0.00000000000E+00  0.45593999997E+02  0.45594000000E+02  0.51100000000E-03 0. -1.
         11   -1    0    0    0    0 -0.00000000000E+00 -0.00000000000E+00 -0.45593999997E+02  0.45594000000E+02  0.51100000000E-03 0.  1.
    9900012    2    1    2    0    0 -0.34804844446E+02  0.44792560452E+00 -0.21014014873E+02  0.50528847828E+02  0.29999963458E+02 0.  0.
         12    1    1    2    0    0  0.34804844446E+02 -0.44792560452E+00  0.21014014873E+02  0.40659152172E+02  0.00000000000E+00 0. -1.
         11    1    3    3    0    0 -0.24489255390E+01 -0.84300991008E+01 -0.51355347534E+00  0.87936081660E+01  0.51100000000E-03 0. -1.
        -11    1    3    3    0    0 -0.25791839511E+02  0.29887075751E+01 -0.20225183049E+02  0.32912146511E+02  0.51100000000E-03 0.  1.
         12    1    3    3    0    0 -0.65640793959E+01  0.58893171302E+01 -0.27527834878E+00  0.88230931506E+01  0.00000000000E+00 0. -1.
</event>
<event>
 7    1  0.6046695E-013  0.5052886E+02  0.7816164E-02  0.1300439E+00
        -11   -1    0    0    0    0  0.00000000000E+00  0.00000000000E+00  0.45593999997E+02  0.45594000000E+02  0.51100000000E-03 0.  1.
         11   -1    0    0    0    0 -0.00000000000E+00 -0.00000000000E+00 -0.45593999997E+02  0.45594000000E+02  0.51100000000E-03 0. -1.
    9900012    2    1    2    0    0 -0.24267560195E+02  0.32467720364E+02 -0.31778430379E+01  0.50528855520E+02  0.29999986839E+02 0.  0.
         12    1    1    2    0    0  0.24267560195E+02 -0.32467720364E+02  0.31778430379E+01  0.40659144480E+02  0.00000000000E+00 0. -1.
         11    1    3    3    0    0 -0.18297529194E+01  0.10416018170E+02  0.10092318423E+02  0.14618355642E+02  0.51100000000E-03 0. -1.
        -11    1    3    3    0    0 -0.79298151650E+01  0.13892129526E+02 -0.10236906500E+02  0.18991247623E+02  0.51100000000E-03 0.  1.
         12    1    3    3    0    0 -0.14507992111E+02  0.81595726684E+01 -0.30332549608E+01  0.16919252255E+02  0.00000000000E+00 0. -1.
</event>
<event>
 7    1  0.6046695E-013  0.5052886E+02  0.7816164E-02  0.1300439E+00
        -11   -1    0    0    0    0  0.00000000000E+00  0.00000000000E+00  0.45593999997E+02  0.45594000000E+02  0.51100000000E-03 0. -1.
         11   -1    0    0    0    0 -0.00000000000E+00 -0.00000000000E+00 -0.45593999997E+02  0.45594000000E+02  0.51100000000E-03 0.  1.
    9900012    2    1    2    0    0  0.27424654906E+02 -0.29507811848E+02 -0.55084632407E+01  0.50528858051E+02  0.29999994531E+02 0.  0.
         12    1    1    2    0    0 -0.27424654906E+02  0.29507811848E+02  0.55084632407E+01  0.40659141949E+02  0.00000000000E+00 0. -1.
         11    1    3    3    0    0 -0.32272485822E+00 -0.34623366662E+01  0.74590530120E+01  0.82297872768E+01  0.51100000000E-03 0. -1.
        -11    1    3    3    0    0  0.26901382175E+01 -0.87347027149E+01 -0.63613724777E+01  0.11135480915E+02  0.51100000000E-03 0.  1.
         12    1    3    3    0    0  0.25057241546E+02 -0.17310772467E+02 -0.66061437751E+01  0.31163589859E+02  0.00000000000E+00 0. -1.
</event>
<event>
 7    1  0.6046695E-013  0.5052886E+02  0.7816164E-02  0.1300439E+00
        -11   -1    0    0    0    0  0.00000000000E+00  0.00000000000E+00  0.45593999997E+02  0.45594000000E+02  0.51100000000E-03 0. -1.
         11   -1    0    0    0    0 -0.00000000000E+00 -0.00000000000E+00 -0.45593999997E+02  0.45594000000E+02  0.51100000000E-03 0.  1.
    9900012    2    1    2    0    0 -0.13602274896E+02 -0.36605750277E+02 -0.11320893193E+02  0.50528862548E+02  0.30000008200E+02 0.  0.
         12    1    1    2    0    0  0.13602274896E+02  0.36605750277E+02  0.11320893193E+02  0.40659137452E+02  0.00000000000E+00 0. -1.
         11    1    3    3    0    0 -0.12564860840E+02 -0.98022779391E+01  0.58988090854E+01  0.16992831712E+02  0.51100000000E-03 0. -1.
        -11    1    3    3    0    0 -0.39138531530E+01 -0.23759686290E+02 -0.16726421099E+02  0.29319176355E+02  0.51100000000E-03 0.  1.
        -12    1    3    3    0    0  0.28764390971E+01 -0.30437860479E+01 -0.49328117898E+00  0.42168544801E+01  0.00000000000E+00 0.  1.
</event>
<event>
 7    1  0.6046695E-013  0.5052877E+02  0.7816164E-02  0.1300439E+00
        -11   -1    0    0    0    0  0.00000000000E+00  0.00000000000E+00  0.45593999997E+02  0.45594000000E+02  0.51100000000E-03 0.  1.
         11   -1    0    0    0    0 -0.00000000000E+00 -0.00000000000E+00 -0.45593999997E+02  0.45594000000E+02  0.51100000000E-03 0. -1.
    9900012    2    1    2    0    0  0.15513298195E+02 -0.13001843227E+01  0.37560883945E+02  0.50528771000E+02  0.29999729930E+02 0.  0.
         12    1    1    2    0    0 -0.15513298195E+02  0.13001843227E+01 -0.37560883945E+02  0.40659229000E+02  0.00000000000E+00 0. -1.
         11    1    3    3    0    0  0.11764038509E+02 -0.29751228855E+01  0.84632424673E-01  0.12134707295E+02  0.51100000000E-03 0. -1.
        -11    1    3    3    0    0  0.57523564942E+01  0.38705115615E+00  0.22356842217E+02  0.23088261260E+02  0.51100000000E-03 0.  1.
         12    1    3    3    0    0 -0.20030968079E+01  0.12878874067E+01  0.15119409304E+02  0.15305802445E+02  0.00000000000E+00 0. -1.
</event>
<event>
 7    1  0.6046695E-013  0.5052885E+02  0.7816164E-02  0.1300439E+00
        -11   -1    0    0    0    0  0.00000000000E+00  0.00000000000E+00  0.45593999997E+02  0.45594000000E+02  0.51100000000E-03 0. -1.
         11   -1    0    0    0    0 -0.00000000000E+00 -0.00000000000E+00 -0.45593999997E+02  0.45594000000E+02  0.51100000000E-03 0.  1.
    9900012    2    1    2    0    0 -0.48779008713E+01 -0.18125627545E+02 -0.36067079078E+02  0.50528849935E+02  0.29999969863E+02 0.  0.
         12    1    1    2    0    0  0.48779008713E+01  0.18125627545E+02  0.36067079078E+02  0.40659150065E+02  0.00000000000E+00 0. -1.
         11    1    3    3    0    0 -0.82911299307E+01  0.26513152769E+00 -0.87080836436E+01  0.12026797215E+02  0.51100000000E-03 0. -1.
        -11    1    3    3    0    0 -0.27158740386E+01 -0.19522025738E+02 -0.15387180477E+02  0.25005015177E+02  0.51100000000E-03 0.  1.
        -12    1    3    3    0    0  0.61291030981E+01  0.11312666656E+01 -0.11971814957E+02  0.13497037543E+02  0.00000000000E+00 0.  1.
</event>
<event>
 7    1  0.6046695E-013  0.5052887E+02  0.7816164E-02  0.1300439E+00
        -11   -1    0    0    0    0  0.00000000000E+00  0.00000000000E+00  0.45593999997E+02  0.45594000000E+02  0.51100000000E-03 0.  1.
         11   -1    0    0    0    0 -0.00000000000E+00 -0.00000000000E+00 -0.45593999997E+02  0.45594000000E+02  0.51100000000E-03 0. -1.
    9900012    2    1    2    0    0 -0.21224475929E+02  0.29194213956E+02  0.18718553384E+02  0.50528871286E+02  0.30000034762E+02 0.  0.
         12    1    1    2    0    0  0.21224475929E+02 -0.29194213956E+02 -0.18718553384E+02  0.40659128714E+02  0.00000000000E+00 0. -1.
         11    1    3    3    0    0 -0.30663508692E+01 -0.15611654992E+01 -0.30888785588E+01  0.46239503004E+01  0.51100000000E-03 0. -1.
        -11    1    3    3    0    0 -0.58474668374E+01  0.12631322229E+02  0.19380856645E+02  0.23861281906E+02  0.51100000000E-03 0.  1.
        -12    1    3    3    0    0 -0.12310658223E+02  0.18124057226E+02  0.24265752983E+01  0.22043639080E+02  0.00000000000E+00 0.  1.
</event>
<event>
 7    1  0.6046695E-013  0.5052885E+02  0.7816164E-02  0.1300439E+00
        -11   -1    0    0    0    0  0.00000000000E+00  0.00000000000E+00  0.45593999997E+02  0.45594000000E+02  0.51100000000E-03 0. -1.
         11   -1    0    0    0    0 -0.00000000000E+00 -0.00000000000E+00 -0.45593999997E+02  0.45594000000E+02  0.51100000000E-03 0.  1.
    9900012    2    1    2    0    0  0.31792423126E+01 -0.40297970951E+02 -0.43740499033E+01  0.50528851497E+02  0.29999974609E+02 0.  0.
         12    1    1    2    0    0 -0.31792423126E+01  0.40297970951E+02  0.43740499033E+01  0.40659148503E+02  0.00000000000E+00 0. -1.
         11    1    3    3    0    0 -0.50203948415E+01 -0.43681353375E+01  0.87381607843E+01  0.10983643514E+02  0.51100000000E-03 0. -1.
        -11    1    3    3    0    0  0.61803553643E+01 -0.18190524333E+02 -0.90422063313E+01  0.21233310235E+02  0.51100000000E-03 0.  1.
        -12    1    3    3    0    0  0.20192817899E+01 -0.17739311281E+02 -0.40700043563E+01  0.18311897748E+02  0.00000000000E+00 0.  1.
</event>
<event>
 7    1  0.6046695E-013  0.5052886E+02  0.7816164E-02  0.1300439E+00
        -11   -1    0    0    0    0  0.00000000000E+00  0.00000000000E+00  0.45593999997E+02  0.45594000000E+02  0.51100000000E-03 0. -1.
         11   -1    0    0    0    0 -0.00000000000E+00 -0.00000000000E+00 -0.45593999997E+02  0.45594000000E+02  0.51100000000E-03 0.  1.
    9900012    2    1    2    0    0  0.29763325742E+02  0.18082449153E+02 -0.20984163748E+02  0.50528860132E+02  0.30000000856E+02 0.  0.
         12    1    1    2    0    0 -0.29763325742E+02 -0.18082449153E+02  0.20984163748E+02  0.40659139868E+02  0.00000000000E+00 0. -1.
         11    1    3    3    0    0  0.63050667954E+01  0.83753491098E+00  0.31313956735E+01  0.70894972422E+01  0.51100000000E-03 0. -1.
        -11    1    3    3    0    0  0.23067060670E+02  0.21672064866E+02 -0.21761372485E+02  0.38409959857E+02  0.51100000000E-03 0.  1.
        -12    1    3    3    0    0  0.39119827742E+00 -0.44271506236E+01 -0.23541869362E+01  0.50294030329E+01  0.00000000000E+00 0.  1.
</event>
<event>
 7    1  0.6046695E-013  0.5052888E+02  0.7816164E-02  0.1300439E+00
        -11   -1    0    0    0    0  0.00000000000E+00  0.00000000000E+00  0.45593999997E+02  0.45594000000E+02  0.51100000000E-03 0.  1.
         11   -1    0    0    0    0 -0.00000000000E+00 -0.00000000000E+00 -0.45593999997E+02  0.45594000000E+02  0.51100000000E-03 0. -1.
    9900012    2    1    2    0    0  0.14189989868E+02  0.12733747592E+02  0.35911832977E+02  0.50528881859E+02  0.30000066900E+02 0.  0.
         12    1    1    2    0    0 -0.14189989868E+02 -0.12733747592E+02 -0.35911832977E+02  0.40659118141E+02  0.00000000000E+00 0. -1.
         11    1    3    3    0    0  0.16257569380E+02 -0.12901442741E+01  0.13003285617E+02  0.20858055314E+02  0.51100000000E-03 0. -1.
        -11    1    3    3    0    0  0.26953659065E+01  0.10712199823E+02  0.20701239371E+02  0.23463962457E+02  0.51100000000E-03 0.  1.
         12    1    3    3    0    0 -0.47629454189E+01  0.33116920425E+01  0.22073079898E+01  0.62068640883E+01  0.00000000000E+00 0. -1.
</event>
<event>
 7    1  0.6046695E-013  0.5052886E+02  0.7816164E-02  0.1300439E+00
        -11   -1    0    0    0    0  0.00000000000E+00  0.00000000000E+00  0.45593999997E+02  0.45594000000E+02  0.51100000000E-03 0.  1.
         11   -1    0    0    0    0 -0.00000000000E+00 -0.00000000000E+00 -0.45593999997E+02  0.45594000000E+02  0.51100000000E-03 0. -1.
    9900012    2    1    2    0    0  0.23590345540E+02  0.99917945275E+00  0.33100804778E+02  0.50528855404E+02  0.29999986487E+02 0.  0.
         12    1    1    2    0    0 -0.23590345540E+02 -0.99917945275E+00 -0.33100804778E+02  0.40659144596E+02  0.00000000000E+00 0. -1.
         11    1    3    3    0    0  0.73765087415E+01 -0.61294963178E+01  0.17113260772E+01  0.97422914926E+01  0.51100000000E-03 0. -1.
        -11    1    3    3    0    0  0.16254733063E+02  0.15085741969E+01  0.31141498154E+02  0.35160845420E+02  0.51100000000E-03 0.  1.
        -12    1    3    3    0    0 -0.40896264505E-01  0.56201015736E+01  0.24798054691E+00  0.56257184922E+01  0.00000000000E+00 0.  1.
</event>
<event>
 7    1  0.6046695E-013  0.5052886E+02  0.7816164E-02  0.1300439E+00
        -11   -1    0    0    0    0  0.00000000000E+00  0.00000000000E+00  0.45593999997E+02  0.45594000000E+02  0.51100000000E-03 0.  1.
         11   -1    0    0    0    0 -0.00000000000E+00 -0.00000000000E+00 -0.45593999997E+02  0.45594000000E+02  0.51100000000E-03 0. -1.
    9900012    2    1    2    0    0  0.20918896800E+02  0.17703612109E+02  0.30035774321E+02  0.50528857558E+02  0.29999993034E+02 0.  0.
         12    1    1    2    0    0 -0.20918896800E+02 -0.17703612109E+02 -0.30035774321E+02  0.40659142442E+02  0.00000000000E+00 0. -1.
         11    1    3    3    0    0  0.21867895107E+02  0.49298319199E+01  0.10077183125E+02  0.24577585300E+02  0.51100000000E-03 0. -1.
        -11    1    3    3    0    0  0.14955815514E+01  0.13258445251E+02  0.13289416365E+02  0.18831668068E+02  0.51100000000E-03 0.  1.
         12    1    3    3    0    0 -0.24445798587E+01 -0.48466506148E+00  0.66691748297E+01  0.71196041896E+01  0.00000000000E+00 0. -1.
</event>
<event>
 7    1  0.6046695E-013  0.5052886E+02  0.7816164E-02  0.1300439E+00
        -11   -1    0    0    0    0  0.00000000000E+00  0.00000000000E+00  0.45593999997E+02  0.45594000000E+02  0.51100000000E-03 0. -1.
         11   -1    0    0    0    0 -0.00000000000E+00 -0.00000000000E+00 -0.45593999997E+02  0.45594000000E+02  0.51100000000E-03 0.  1.
    9900012    2    1    2    0    0 -0.33168037808E+02 -0.17267896441E+02 -0.15964549371E+02  0.50528858148E+02  0.29999994826E+02 0.  0.
         12    1    1    2    0    0  0.33168037808E+02  0.17267896441E+02  0.15964549371E+02  0.40659141852E+02  0.00000000000E+00 0. -1.
         11    1    3    3    0    0 -0.75062799827E+01  0.37307399703E+01 -0.11967349607E+02  0.14610958790E+02  0.51100000000E-03 0. -1.
        -11    1    3    3    0    0 -0.19544419601E+02 -0.13038167096E+02  0.29937183293E+01  0.23684182242E+02  0.51100000000E-03 0.  1.
        -12    1    3    3    0    0 -0.61173382239E+01 -0.79604693155E+01 -0.69909180935E+01  0.12233717115E+02  0.00000000000E+00 0.  1.
</event>
<event>
 7    1  0.6046695E-013  0.5052885E+02  0.7816164E-02  0.1300439E+00
        -11   -1    0    0    0    0  0.00000000000E+00  0.00000000000E+00  0.45593999997E+02  0.45594000000E+02  0.51100000000E-03 0.  1.
         11   -1    0    0    0    0 -0.00000000000E+00 -0.00000000000E+00 -0.45593999997E+02  0.45594000000E+02  0.51100000000E-03 0. -1.
    9900012    2    1    2    0    0  0.21694320065E+02  0.29612069971E+02  0.17482808513E+02  0.50528845993E+02  0.29999957880E+02 0.  0.
         12    1    1    2    0    0 -0.21694320065E+02 -0.29612069971E+02 -0.17482808513E+02  0.40659154007E+02  0.00000000000E+00 0. -1.
         11    1    3    3    0    0  0.11316261558E+02  0.26222612938E+02  0.18934923505E+02  0.34266813877E+02  0.51100000000E-03 0.  1.
        -11    1    3    3    0    0  0.22029004711E+01 -0.13101889235E+01  0.44515475778E+01  0.51366955914E+01  0.51100000000E-03 0. -1.
         12    1    3    3    0    0  0.81751580363E+01  0.46996459570E+01 -0.59036625694E+01  0.11125336524E+02  0.00000000000E+00 0. -1.
</event>
<event>
 7    1  0.6046695E-013  0.5052886E+02  0.7816164E-02  0.1300439E+00
        -11   -1    0    0    0    0  0.00000000000E+00  0.00000000000E+00  0.45593999997E+02  0.45594000000E+02  0.51100000000E-03 0.  1.
         11   -1    0    0    0    0 -0.00000000000E+00 -0.00000000000E+00 -0.45593999997E+02  0.45594000000E+02  0.51100000000E-03 0. -1.
    9900012    2    1    2    0    0 -0.26982768158E+02 -0.21189753616E+02  0.21819490951E+02  0.50528860546E+02  0.30000002117E+02 0.  0.
         12    1    1    2    0    0  0.26982768158E+02  0.21189753616E+02 -0.21819490951E+02  0.40659139454E+02  0.00000000000E+00 0. -1.
         11    1    3    3    0    0 -0.10906955797E+02  0.39948963255E+00 -0.38173608093E+01  0.11562591428E+02  0.51100000000E-03 0. -1.
        -11    1    3    3    0    0 -0.16467122525E+02 -0.13729782637E+02  0.17887410168E+02  0.27921899976E+02  0.51100000000E-03 0.  1.
         12    1    3    3    0    0  0.39131016419E+00 -0.78594606109E+01  0.77494415925E+01  0.11044369142E+02  0.00000000000E+00 0. -1.
</event>
<event>
 7    1  0.6046695E-013  0.5052892E+02  0.7816164E-02  0.1300439E+00
        -11   -1    0    0    0    0  0.00000000000E+00  0.00000000000E+00  0.45593999997E+02  0.45594000000E+02  0.51100000000E-03 0. -1.
         11   -1    0    0    0    0 -0.00000000000E+00 -0.00000000000E+00 -0.45593999997E+02  0.45594000000E+02  0.51100000000E-03 0.  1.
    9900012    2    1    2    0    0  0.15829253638E+01  0.36077192584E+02  0.18683995714E+02  0.50528915243E+02  0.30000168373E+02 0.  0.
         12    1    1    2    0    0 -0.15829253638E+01 -0.36077192584E+02 -0.18683995714E+02  0.40659084757E+02  0.00000000000E+00 0. -1.
         11    1    3    3    0    0 -0.66073296864E+01  0.16598597353E+00  0.77750526170E+01  0.10204695017E+02  0.51100000000E-03 0. -1.
        -11    1    3    3    0    0  0.44782785289E+01  0.26804503765E+02  0.13221828606E+02  0.30221733117E+02  0.51100000000E-03 0.  1.
         12    1    3    3    0    0  0.37119765213E+01  0.91067028453E+01 -0.23128855093E+01  0.10102487109E+02  0.00000000000E+00 0. -1.
</event>
<event>
 7    1  0.6046695E-013  0.5052882E+02  0.7816164E-02  0.1300439E+00
        -11   -1    0    0    0    0  0.00000000000E+00  0.00000000000E+00  0.45593999997E+02  0.45594000000E+02  0.51100000000E-03 0.  1.
         11   -1    0    0    0    0 -0.00000000000E+00 -0.00000000000E+00 -0.45593999997E+02  0.45594000000E+02  0.51100000000E-03 0. -1.
    9900012    2    1    2    0    0 -0.31713849092E+02 -0.67160591322E+01  0.24541696401E+02  0.50528824692E+02  0.29999893133E+02 0.  0.
         12    1    1    2    0    0  0.31713849092E+02  0.67160591322E+01 -0.24541696401E+02  0.40659175308E+02  0.00000000000E+00 0. -1.
         11    1    3    3    0    0 -0.49936068042E+01 -0.99804133022E+01  0.16806576250E+02  0.20174383859E+02  0.51100000000E-03 0.  1.
        -11    1    3    3    0    0 -0.16215426638E+02  0.76822611204E+01  0.42867665547E+01  0.18448131741E+02  0.51100000000E-03 0. -1.
         12    1    3    3    0    0 -0.10504815650E+02 -0.44179069504E+01  0.34483535971E+01  0.11906309092E+02  0.00000000000E+00 0. -1.
</event>
<event>
 7    1  0.6046695E-013  0.5052886E+02  0.7816164E-02  0.1300439E+00
        -11   -1    0    0    0    0  0.00000000000E+00  0.00000000000E+00  0.45593999997E+02  0.45594000000E+02  0.51100000000E-03 0. -1.
         11   -1    0    0    0    0 -0.00000000000E+00 -0.00000000000E+00 -0.45593999997E+02  0.45594000000E+02  0.51100000000E-03 0.  1.
    9900012    2    1    2    0    0  0.30516587168E+02 -0.83691356943E+01 -0.25531576831E+02  0.50528856624E+02  0.29999990193E+02 0.  0.
         12    1    1    2    0    0 -0.30516587168E+02  0.83691356943E+01  0.25531576831E+02  0.40659143376E+02  0.00000000000E+00 0. -1.
         11    1    3    3    0    0  0.23138435884E+02  0.72718748801E+01 -0.86554772732E+01  0.25752372056E+02  0.51100000000E-03 0. -1.
        -11    1    3    3    0    0  0.71374299815E+00 -0.54385916579E+01 -0.80021234369E+01  0.97016332671E+01  0.51100000000E-03 0.  1.
         12    1    3    3    0    0  0.66644082859E+01 -0.10202418917E+02 -0.88739761208E+01  0.15074851301E+02  0.00000000000E+00 0. -1.
</event>
<event>
 7    1  0.6046695E-013  0.5052887E+02  0.7816164E-02  0.1300439E+00
        -11   -1    0    0    0    0  0.00000000000E+00  0.00000000000E+00  0.45593999997E+02  0.45594000000E+02  0.51100000000E-03 0.  1.
         11   -1    0    0    0    0 -0.00000000000E+00 -0.00000000000E+00 -0.45593999997E+02  0.45594000000E+02  0.51100000000E-03 0. -1.
    9900012    2    1    2    0    0 -0.10323247711E+02  0.11397756175E+02  0.37638900813E+02  0.50528866419E+02  0.30000019967E+02 0.  0.
         12    1    1    2    0    0  0.10323247711E+02 -0.11397756175E+02 -0.37638900813E+02  0.40659133581E+02  0.00000000000E+00 0. -1.
         11    1    3    3    0    0 -0.14030709746E+02 -0.20836287725E+01  0.81151885221E+01  0.16341927972E+02  0.51100000000E-03 0. -1.
        -11    1    3    3    0    0 -0.34332283175E+01  0.51858295413E+01  0.12227854194E+02  0.13718611561E+02  0.51100000000E-03 0.  1.
         12    1    3    3    0    0  0.71406903517E+01  0.82955554064E+01  0.17295858097E+02  0.20468326886E+02  0.00000000000E+00 0. -1.
</event>
<event>
 7    1  0.6046695E-013  0.5052881E+02  0.7816164E-02  0.1300439E+00
        -11   -1    0    0    0    0  0.00000000000E+00  0.00000000000E+00  0.45593999997E+02  0.45594000000E+02  0.51100000000E-03 0.  1.
         11   -1    0    0    0    0 -0.00000000000E+00 -0.00000000000E+00 -0.45593999997E+02  0.45594000000E+02  0.51100000000E-03 0. -1.
    9900012    2    1    2    0    0  0.34251349446E+02 -0.10568439786E+02  0.19191733244E+02  0.50528813051E+02  0.29999857750E+02 0.  0.
         12    1    1    2    0    0 -0.34251349446E+02  0.10568439786E+02 -0.19191733244E+02  0.40659186949E+02  0.00000000000E+00 0. -1.
         11    1    3    3    0    0  0.27791811284E+02 -0.99942771048E+01  0.19628499321E+01  0.29599377179E+02  0.51100000000E-03 0. -1.
        -11    1    3    3    0    0  0.27751809609E+01 -0.52434647574E+01  0.83836528653E+01  0.10270403481E+02  0.51100000000E-03 0.  1.
         12    1    3    3    0    0  0.36843572018E+01  0.46693020759E+01  0.88452304468E+01  0.10659032392E+02  0.00000000000E+00 0. -1.
</event>
<event>
 7    1  0.6046695E-013  0.5052885E+02  0.7816164E-02  0.1300439E+00
        -11   -1    0    0    0    0  0.00000000000E+00  0.00000000000E+00  0.45593999997E+02  0.45594000000E+02  0.51100000000E-03 0.  1.
         11   -1    0    0    0    0 -0.00000000000E+00 -0.00000000000E+00 -0.45593999997E+02  0.45594000000E+02  0.51100000000E-03 0. -1.
    9900012    2    1    2    0    0 -0.21283273088E+02  0.31897722821E+02 -0.13517552226E+02  0.50528847860E+02  0.29999963556E+02 0.  0.
         12    1    1    2    0    0  0.21283273088E+02 -0.31897722821E+02  0.13517552226E+02  0.40659152140E+02  0.00000000000E+00 0. -1.
         11    1    3    3    0    0 -0.91962346351E+00  0.30719319384E+01  0.77394679774E+01  0.83774601153E+01  0.51100000000E-03 0. -1.
        -11    1    3    3    0    0 -0.10645378614E+02  0.13742894461E+02 -0.15548115092E+02  0.23322416624E+02  0.51100000000E-03 0.  1.
         12    1    3    3    0    0 -0.97182710102E+01  0.15082896422E+02 -0.57089051111E+01  0.18828971121E+02  0.00000000000E+00 0. -1.
</event>
<event>
 7    1  0.6046695E-013  0.5052886E+02  0.7816164E-02  0.1300439E+00
        -11   -1    0    0    0    0  0.00000000000E+00  0.00000000000E+00  0.45593999997E+02  0.45594000000E+02  0.51100000000E-03 0. -1.
         11   -1    0    0    0    0 -0.00000000000E+00 -0.00000000000E+00 -0.45593999997E+02  0.45594000000E+02  0.51100000000E-03 0.  1.
    9900012    2    1    2    0    0  0.11013180030E+02  0.93552579225E+01 -0.38004661656E+02  0.50528864585E+02  0.30000014391E+02 0.  0.
         12    1    1    2    0    0 -0.11013180030E+02 -0.93552579225E+01  0.38004661656E+02  0.40659135415E+02  0.00000000000E+00 0. -1.
         11    1    3    3    0    0  0.17760935069E+02 -0.23416311214E+00 -0.17730624954E+02  0.25097424338E+02  0.51100000000E-03 0. -1.
        -11    1    3    3    0    0 -0.29517337585E+01 -0.17010040877E+01 -0.52485913403E+01  0.62573044042E+01  0.51100000000E-03 0.  1.
         12    1    3    3    0    0 -0.37960212797E+01  0.11290425122E+02 -0.15025445361E+02  0.19174135842E+02  0.00000000000E+00 0. -1.
</event>
<event>
 7    1  0.6046695E-013  0.5052890E+02  0.7816164E-02  0.1300439E+00
        -11   -1    0    0    0    0  0.00000000000E+00  0.00000000000E+00  0.45593999997E+02  0.45594000000E+02  0.51100000000E-03 0.  1.
         11   -1    0    0    0    0 -0.00000000000E+00 -0.00000000000E+00 -0.45593999997E+02  0.45594000000E+02  0.51100000000E-03 0. -1.
    9900012    2    1    2    0    0 -0.14458806482E+02  0.12901170168E+02  0.35744440705E+02  0.50528901167E+02  0.30000125586E+02 0.  0.
         12    1    1    2    0    0  0.14458806482E+02 -0.12901170168E+02 -0.35744440705E+02  0.40659098833E+02  0.00000000000E+00 0. -1.
         11    1    3    3    0    0 -0.10299875028E+02 -0.17870752249E+01 -0.75478414156E+00  0.10480971464E+02  0.51100000000E-03 0. -1.
        -11    1    3    3    0    0 -0.19350803113E+00  0.54373147076E+01  0.19947646664E+02  0.20676325696E+02  0.51100000000E-03 0.  1.
         12    1    3    3    0    0 -0.39654234227E+01  0.92509306854E+01  0.16551578183E+02  0.19371604007E+02  0.00000000000E+00 0. -1.
</event>
<event>
 7    1  0.6046695E-013  0.5052886E+02  0.7816164E-02  0.1300439E+00
        -11   -1    0    0    0    0  0.00000000000E+00  0.00000000000E+00  0.45593999997E+02  0.45594000000E+02  0.51100000000E-03 0. -1.
         11   -1    0    0    0    0 -0.00000000000E+00 -0.00000000000E+00 -0.45593999997E+02  0.45594000000E+02  0.51100000000E-03 0.  1.
    9900012    2    1    2    0    0 -0.39309085852E+02 -0.73683216211E+01 -0.73259402265E+01  0.50528858418E+02  0.29999995646E+02 0.  0.
         12    1    1    2    0    0  0.39309085852E+02  0.73683216211E+01  0.73259402265E+01  0.40659141582E+02  0.00000000000E+00 0. -1.
         11    1    3    3    0    0 -0.64220123410E+01  0.67513727004E+01  0.13928425340E+01  0.94214269849E+01  0.51100000000E-03 0. -1.
        -11    1    3    3    0    0 -0.33839132538E+02 -0.15784843404E+02 -0.60587871007E+01  0.37827993254E+02  0.51100000000E-03 0.  1.
        -12    1    3    3    0    0  0.95205902712E+00  0.16651490826E+01 -0.26599956597E+01  0.32794381788E+01  0.00000000000E+00 0.  1.
</event>
<event>
 7    1  0.6046695E-013  0.5052886E+02  0.7816164E-02  0.1300439E+00
        -11   -1    0    0    0    0  0.00000000000E+00  0.00000000000E+00  0.45593999997E+02  0.45594000000E+02  0.51100000000E-03 0.  1.
         11   -1    0    0    0    0 -0.00000000000E+00 -0.00000000000E+00 -0.45593999997E+02  0.45594000000E+02  0.51100000000E-03 0. -1.
    9900012    2    1    2    0    0  0.76776288658E+01  0.28836335075E+02  0.27616764001E+02  0.50528857616E+02  0.29999993209E+02 0.  0.
         12    1    1    2    0    0 -0.76776288658E+01 -0.28836335075E+02 -0.27616764001E+02  0.40659142384E+02  0.00000000000E+00 0. -1.
         11    1    3    3    0    0  0.13637457645E+01  0.19537052719E+02  0.17878225902E+02  0.26517676993E+02  0.51100000000E-03 0.  1.
        -11    1    3    3    0    0 -0.29775433035E+01 -0.85414572375E+00 -0.36657433117E+01  0.47992711249E+01  0.51100000000E-03 0. -1.
        -12    1    3    3    0    0  0.92914264048E+01  0.10153428079E+02  0.13404281411E+02  0.19211909497E+02  0.00000000000E+00 0.  1.
</event>
<event>
 7    1  0.6046695E-013  0.5052882E+02  0.7816164E-02  0.1300439E+00
        -11   -1    0    0    0    0  0.00000000000E+00  0.00000000000E+00  0.45593999997E+02  0.45594000000E+02  0.51100000000E-03 0.  1.
         11   -1    0    0    0    0 -0.00000000000E+00 -0.00000000000E+00 -0.45593999997E+02  0.45594000000E+02  0.51100000000E-03 0. -1.
    9900012    2    1    2    0    0 -0.35124387728E+02  0.20456062761E+02 -0.99771967996E+00  0.50528824387E+02  0.29999892207E+02 0.  0.
         12    1    1    2    0    0  0.35124387728E+02 -0.20456062761E+02  0.99771967996E+00  0.40659175613E+02  0.00000000000E+00 0. -1.
         11    1    3    3    0    0 -0.29117731168E+02  0.12849434442E+01 -0.37868300908E+01  0.29391043370E+02  0.51100000000E-03 0. -1.
        -11    1    3    3    0    0 -0.19238029365E+01  0.26426600491E+01  0.24913256753E+01  0.41099116481E+01  0.51100000000E-03 0.  1.
         12    1    3    3    0    0 -0.40828536239E+01  0.16528459268E+02  0.29778473553E+00  0.17027869369E+02  0.00000000000E+00 0. -1.
</event>
<event>
 7    1  0.6046695E-013  0.5052887E+02  0.7816164E-02  0.1300439E+00
        -11   -1    0    0    0    0  0.00000000000E+00  0.00000000000E+00  0.45593999997E+02  0.45594000000E+02  0.51100000000E-03 0.  1.
         11   -1    0    0    0    0 -0.00000000000E+00 -0.00000000000E+00 -0.45593999997E+02  0.45594000000E+02  0.51100000000E-03 0. -1.
    9900012    2    1    2    0    0 -0.35688608373E+02 -0.57432568471E+00  0.19471980195E+02  0.50528872730E+02  0.30000039151E+02 0.  0.
         12    1    1    2    0    0  0.35688608373E+02  0.57432568471E+00 -0.19471980195E+02  0.40659127270E+02  0.00000000000E+00 0. -1.
         11    1    3    3    0    0 -0.14179049106E+02 -0.11239082469E+02 -0.54374095757E+00  0.18101327653E+02  0.51100000000E-03 0. -1.
        -11    1    3    3    0    0 -0.16484948805E+02  0.11823316834E+02  0.14959729742E+02  0.25205909471E+02  0.51100000000E-03 0.  1.
        -12    1    3    3    0    0 -0.50246104622E+01 -0.11585600500E+01  0.50559914105E+01  0.72216356063E+01  0.00000000000E+00 0.  1.
</event>
<event>
 7    1  0.6046695E-013  0.5052887E+02  0.7816164E-02  0.1300439E+00
        -11   -1    0    0    0    0  0.00000000000E+00  0.00000000000E+00  0.45593999997E+02  0.45594000000E+02  0.51100000000E-03 0.  1.
         11   -1    0    0    0    0 -0.00000000000E+00 -0.00000000000E+00 -0.45593999997E+02  0.45594000000E+02  0.51100000000E-03 0. -1.
    9900012    2    1    2    0    0 -0.12302501845E+02  0.36471825143E+02  0.13100352403E+02  0.50528870472E+02  0.30000032285E+02 0.  0.
         12    1    1    2    0    0  0.12302501845E+02 -0.36471825143E+02 -0.13100352403E+02  0.40659129528E+02  0.00000000000E+00 0. -1.
         11    1    3    3    0    0  0.28520911584E+01  0.85487271430E+01 -0.37947305344E+01  0.97782994346E+01  0.51100000000E-03 0. -1.
        -11    1    3    3    0    0 -0.12236007526E+02  0.30627679744E+02  0.14000222192E+02  0.35829887920E+02  0.51100000000E-03 0.  1.
        -12    1    3    3    0    0 -0.29185854783E+01 -0.27045817438E+01  0.28948607456E+01  0.49206831172E+01  0.00000000000E+00 0.  1.
</event>
<event>
 7    1  0.6046695E-013  0.5052886E+02  0.7816164E-02  0.1300439E+00
        -11   -1    0    0    0    0  0.00000000000E+00  0.00000000000E+00  0.45593999997E+02  0.45594000000E+02  0.51100000000E-03 0.  1.
         11   -1    0    0    0    0 -0.00000000000E+00 -0.00000000000E+00 -0.45593999997E+02  0.45594000000E+02  0.51100000000E-03 0. -1.
    9900012    2    1    2    0    0 -0.12589720223E+01  0.11519686878E+02  0.38972780607E+02  0.50528858045E+02  0.29999994512E+02 0.  0.
         12    1    1    2    0    0  0.12589720223E+01 -0.11519686878E+02 -0.38972780607E+02  0.40659141955E+02  0.00000000000E+00 0. -1.
         11    1    3    3    0    0  0.53195805408E+00  0.34445064870E+01 -0.88169616329E+00  0.35951345866E+01  0.51100000000E-03 0. -1.
        -11    1    3    3    0    0 -0.10831091051E+02  0.85838560785E+01  0.32333040872E+02  0.35162773650E+02  0.51100000000E-03 0.  1.
        -12    1    3    3    0    0  0.90401609744E+01 -0.50867568739E+00  0.75214358984E+01  0.11770949808E+02  0.00000000000E+00 0.  1.
</event>
<event>
 7    1  0.6046695E-013  0.5052892E+02  0.7816164E-02  0.1300439E+00
        -11   -1    0    0    0    0  0.00000000000E+00  0.00000000000E+00  0.45593999997E+02  0.45594000000E+02  0.51100000000E-03 0.  1.
         11   -1    0    0    0    0 -0.00000000000E+00 -0.00000000000E+00 -0.45593999997E+02  0.45594000000E+02  0.51100000000E-03 0. -1.
    9900012    2    1    2    0    0 -0.96125652527E+01  0.25828522019E+02  0.29893925262E+02  0.50528920718E+02  0.30000185015E+02 0.  0.
         12    1    1    2    0    0  0.96125652527E+01 -0.25828522019E+02 -0.29893925262E+02  0.40659079282E+02  0.00000000000E+00 0. -1.
         11    1    3    3    0    0 -0.57636395972E+01 -0.58426926697E+01  0.33650687886E+01  0.88701909366E+01  0.51100000000E-03 0. -1.
        -11    1    3    3    0    0 -0.20966806778E+01  0.17403061743E+02  0.16954399887E+02  0.24386764929E+02  0.51100000000E-03 0.  1.
         12    1    3    3    0    0 -0.17522449777E+01  0.14268152946E+02  0.95744565868E+01  0.17271964853E+02  0.00000000000E+00 0. -1.
</event>
<event>
 7    1  0.6046695E-013  0.5052886E+02  0.7816164E-02  0.1300439E+00
        -11   -1    0    0    0    0  0.00000000000E+00  0.00000000000E+00  0.45593999997E+02  0.45594000000E+02  0.51100000000E-03 0.  1.
         11   -1    0    0    0    0 -0.00000000000E+00 -0.00000000000E+00 -0.45593999997E+02  0.45594000000E+02  0.51100000000E-03 0. -1.
    9900012    2    1    2    0    0  0.11589254394E+02 -0.12469990020E+01  0.38952537351E+02  0.50528856010E+02  0.29999988329E+02 0.  0.
         12    1    1    2    0    0 -0.11589254394E+02  0.12469990020E+01 -0.38952537351E+02  0.40659143990E+02  0.00000000000E+00 0. -1.
         11    1    3    3    0    0  0.29927443426E+01  0.89368853027E+01  0.26963122104E+02  0.28562814838E+02  0.51100000000E-03 0.  1.
        -11    1    3    3    0    0  0.11550492366E+02 -0.53987876417E+01  0.89093736857E+01  0.15554347355E+02  0.51100000000E-03 0. -1.
         12    1    3    3    0    0 -0.29539823147E+01 -0.47850966630E+01  0.30800415606E+01  0.64116938171E+01  0.00000000000E+00 0. -1.
</event>
<event>
 7    1  0.6046695E-013  0.5052886E+02  0.7816164E-02  0.1300439E+00
        -11   -1    0    0    0    0  0.00000000000E+00  0.00000000000E+00  0.45593999997E+02  0.45594000000E+02  0.51100000000E-03 0.  1.
         11   -1    0    0    0    0 -0.00000000000E+00 -0.00000000000E+00 -0.45593999997E+02  0.45594000000E+02  0.51100000000E-03 0. -1.
    9900012    2    1    2    0    0  0.32435703107E+02 -0.54188633930E+01  0.23910804849E+02  0.50528861974E+02  0.30000006457E+02 0.  0.
         12    1    1    2    0    0 -0.32435703107E+02  0.54188633930E+01 -0.23910804849E+02  0.40659138026E+02  0.00000000000E+00 0. -1.
         11    1    3    3    0    0  0.14604618090E+02  0.96668047887E+01  0.48994799074E+01  0.18186447922E+02  0.51100000000E-03 0. -1.
        -11    1    3    3    0    0  0.13596324760E+02 -0.45677373289E+01  0.13650607513E+02  0.19800589815E+02  0.51100000000E-03 0.  1.
         12    1    3    3    0    0  0.42347602563E+01 -0.10517930853E+02  0.53607174282E+01  0.12541824237E+02  0.00000000000E+00 0. -1.
</event>
<event>
 7    1  0.6046695E-013  0.5052885E+02  0.7816164E-02  0.1300439E+00
        -11   -1    0    0    0    0  0.00000000000E+00  0.00000000000E+00  0.45593999997E+02  0.45594000000E+02  0.51100000000E-03 0.  1.
         11   -1    0    0    0    0 -0.00000000000E+00 -0.00000000000E+00 -0.45593999997E+02  0.45594000000E+02  0.51100000000E-03 0. -1.
    9900012    2    1    2    0    0  0.39898411259E+01  0.29894668606E+02  0.27268228354E+02  0.50528851941E+02  0.29999975961E+02 0.  0.
         12    1    1    2    0    0 -0.39898411259E+01 -0.29894668606E+02 -0.27268228354E+02  0.40659148059E+02  0.00000000000E+00 0. -1.
         11    1    3    3    0    0  0.10318377779E+02  0.99661773648E+01 -0.25676811590E+00  0.14347806153E+02  0.51100000000E-03 0. -1.
        -11    1    3    3    0    0 -0.81789142906E+01  0.13094552260E+02  0.13666674432E+02  0.20618921605E+02  0.51100000000E-03 0.  1.
         12    1    3    3    0    0  0.18503776372E+01  0.68339389818E+01  0.13858322038E+02  0.15562124184E+02  0.00000000000E+00 0. -1.
</event>
<event>
 7    1  0.6046695E-013  0.5052887E+02  0.7816164E-02  0.1300439E+00
        -11   -1    0    0    0    0  0.00000000000E+00  0.00000000000E+00  0.45593999997E+02  0.45594000000E+02  0.51100000000E-03 0.  1.
         11   -1    0    0    0    0 -0.00000000000E+00 -0.00000000000E+00 -0.45593999997E+02  0.45594000000E+02  0.51100000000E-03 0. -1.
    9900012    2    1    2    0    0  0.40147446560E+02 -0.52414286550E+01  0.37249370457E+01  0.50528865779E+02  0.30000018020E+02 0.  0.
         12    1    1    2    0    0 -0.40147446560E+02  0.52414286550E+01 -0.37249370457E+01  0.40659134221E+02  0.00000000000E+00 0. -1.
         11    1    3    3    0    0  0.55825479354E+01 -0.12886445459E+02 -0.10595715176E+01  0.14083607850E+02  0.51100000000E-03 0. -1.
        -11    1    3    3    0    0  0.16097442386E+02  0.65779834877E+01  0.21473762714E+00  0.17390906551E+02  0.51100000000E-03 0.  1.
        -12    1    3    3    0    0  0.18467456238E+02  0.10670333162E+01  0.45697709362E+01  0.19054351378E+02  0.00000000000E+00 0.  1.
</event>
<event>
 7    1  0.6046695E-013  0.5052886E+02  0.7816164E-02  0.1300439E+00
        -11   -1    0    0    0    0  0.00000000000E+00  0.00000000000E+00  0.45593999997E+02  0.45594000000E+02  0.51100000000E-03 0. -1.
         11   -1    0    0    0    0 -0.00000000000E+00 -0.00000000000E+00 -0.45593999997E+02  0.45594000000E+02  0.51100000000E-03 0.  1.
    9900012    2    1    2    0    0 -0.30625148098E+02  0.26698417020E+02 -0.15686681394E+01  0.50528857275E+02  0.29999992174E+02 0.  0.
         12    1    1    2    0    0  0.30625148098E+02 -0.26698417020E+02  0.15686681394E+01  0.40659142725E+02  0.00000000000E+00 0. -1.
         11    1    3    3    0    0 -0.51353350072E+01  0.16984433891E+02 -0.10117175863E+01  0.17772625945E+02  0.51100000000E-03 0. -1.
        -11    1    3    3    0    0 -0.21760630710E+02  0.12788723360E+02 -0.55109925288E+01  0.25835005961E+02  0.51100000000E-03 0.  1.
         12    1    3    3    0    0 -0.37291823812E+01 -0.30747402317E+01  0.49540419757E+01  0.69212253699E+01  0.00000000000E+00 0. -1.
</event>
<event>
 7    1  0.6046695E-013  0.5052886E+02  0.7816164E-02  0.1300439E+00
        -11   -1    0    0    0    0  0.00000000000E+00  0.00000000000E+00  0.45593999997E+02  0.45594000000E+02  0.51100000000E-03 0.  1.
         11   -1    0    0    0    0 -0.00000000000E+00 -0.00000000000E+00 -0.45593999997E+02  0.45594000000E+02  0.51100000000E-03 0. -1.
    9900012    2    1    2    0    0  0.12714561229E+02 -0.31066694952E+02  0.22942669850E+02  0.50528859548E+02  0.29999999083E+02 0.  0.
         12    1    1    2    0    0 -0.12714561229E+02  0.31066694952E+02 -0.22942669850E+02  0.40659140452E+02  0.00000000000E+00 0. -1.
         11    1    3    3    0    0  0.60143447022E+01 -0.68265636057E+01 -0.30764029287E+01  0.96040912168E+01  0.51100000000E-03 0. -1.
        -11    1    3    3    0    0  0.76305078902E+00 -0.91853042679E+01  0.22568067152E+02  0.24377647882E+02  0.51100000000E-03 0.  1.
        -12    1    3    3    0    0  0.59371657378E+01 -0.15054827078E+02  0.34510056261E+01  0.16547120450E+02  0.00000000000E+00 0.  1.
</event>
<event>
 7    1  0.6046695E-013  0.5052888E+02  0.7816164E-02  0.1300439E+00
        -11   -1    0    0    0    0  0.00000000000E+00  0.00000000000E+00  0.45593999997E+02  0.45594000000E+02  0.51100000000E-03 0.  1.
         11   -1    0    0    0    0 -0.00000000000E+00 -0.00000000000E+00 -0.45593999997E+02  0.45594000000E+02  0.51100000000E-03 0. -1.
    9900012    2    1    2    0    0  0.38235577015E+02  0.99236581600E+01  0.96294379283E+01  0.50528875369E+02  0.30000047172E+02 0.  0.
         12    1    1    2    0    0 -0.38235577015E+02 -0.99236581600E+01 -0.96294379283E+01  0.40659124631E+02  0.00000000000E+00 0. -1.
         11    1    3    3    0    0  0.13324868796E+02  0.13403547619E+02 -0.85419396380E+00  0.18919219455E+02  0.51100000000E-03 0. -1.
        -11    1    3    3    0    0  0.25068359563E+02 -0.67472225764E+01  0.71232391496E+01  0.26920033431E+02  0.51100000000E-03 0.  1.
        -12    1    3    3    0    0 -0.15765134428E+00  0.32673331176E+01  0.33603927425E+01  0.46896224829E+01  0.00000000000E+00 0.  1.
</event>
<event>
 7    1  0.6046695E-013  0.5052885E+02  0.7816164E-02  0.1300439E+00
        -11   -1    0    0    0    0  0.00000000000E+00  0.00000000000E+00  0.45593999997E+02  0.45594000000E+02  0.51100000000E-03 0.  1.
         11   -1    0    0    0    0 -0.00000000000E+00 -0.00000000000E+00 -0.45593999997E+02  0.45594000000E+02  0.51100000000E-03 0. -1.
    9900012    2    1    2    0    0 -0.10460001706E+02 -0.28832608295E-01  0.39290631639E+02  0.50528853408E+02  0.29999980420E+02 0.  0.
         12    1    1    2    0    0  0.10460001706E+02  0.28832608295E-01 -0.39290631639E+02  0.40659146592E+02  0.00000000000E+00 0. -1.
         11    1    3    3    0    0 -0.12779473821E+01 -0.50532536892E+01 -0.33747135234E+01  0.62094455457E+01  0.51100000000E-03 0. -1.
        -11    1    3    3    0    0 -0.13698236585E+00  0.57575507495E+00  0.12509911483E+02  0.12523902892E+02  0.51100000000E-03 0.  1.
         12    1    3    3    0    0 -0.90450719579E+01  0.44486660059E+01  0.30155433679E+02  0.31795504970E+02  0.00000000000E+00 0. -1.
</event>
<event>
 7    1  0.6046695E-013  0.5052886E+02  0.7816164E-02  0.1300439E+00
        -11   -1    0    0    0    0  0.00000000000E+00  0.00000000000E+00  0.45593999997E+02  0.45594000000E+02  0.51100000000E-03 0.  1.
         11   -1    0    0    0    0 -0.00000000000E+00 -0.00000000000E+00 -0.45593999997E+02  0.45594000000E+02  0.51100000000E-03 0. -1.
    9900012    2    1    2    0    0  0.16983385720E+01  0.39047163869E+02  0.11207157770E+02  0.50528859018E+02  0.29999997472E+02 0.  0.
         12    1    1    2    0    0 -0.16983385720E+01 -0.39047163869E+02 -0.11207157770E+02  0.40659140982E+02  0.00000000000E+00 0. -1.
         11    1    3    3    0    0  0.22655624576E+01 -0.34782278952E+01  0.49266731923E+01  0.64422784437E+01  0.51100000000E-03 0. -1.
        -11    1    3    3    0    0 -0.17716839073E+01  0.43362305719E+01  0.33645617473E+01  0.57673248090E+01  0.51100000000E-03 0.  1.
         12    1    3    3    0    0  0.12044600216E+01  0.38189161192E+02  0.29159228306E+01  0.38319255766E+02  0.00000000000E+00 0. -1.
</event>
<event>
 7    1  0.6046695E-013  0.5052886E+02  0.7816164E-02  0.1300439E+00
        -11   -1    0    0    0    0  0.00000000000E+00  0.00000000000E+00  0.45593999997E+02  0.45594000000E+02  0.51100000000E-03 0.  1.
         11   -1    0    0    0    0 -0.00000000000E+00 -0.00000000000E+00 -0.45593999997E+02  0.45594000000E+02  0.51100000000E-03 0. -1.
    9900012    2    1    2    0    0 -0.84387374167E+01  0.36630393757E+02  0.15497340185E+02  0.50528860944E+02  0.30000003325E+02 0.  0.
         12    1    1    2    0    0  0.84387374167E+01 -0.36630393757E+02 -0.15497340185E+02  0.40659139056E+02  0.00000000000E+00 0. -1.
         11    1    3    3    0    0  0.24287528641E+01  0.69465710196E+01 -0.75421192308E+01  0.10537421514E+02  0.51100000000E-03 0. -1.
        -11    1    3    3    0    0 -0.67491801538E+01  0.11496456803E+02  0.13773356679E+02  0.19168341249E+02  0.51100000000E-03 0.  1.
         12    1    3    3    0    0 -0.41183101269E+01  0.18187365934E+02  0.92661027366E+01  0.20823098181E+02  0.00000000000E+00 0. -1.
</event>
<event>
 7    1  0.6046695E-013  0.5052886E+02  0.7816164E-02  0.1300439E+00
        -11   -1    0    0    0    0  0.00000000000E+00  0.00000000000E+00  0.45593999997E+02  0.45594000000E+02  0.51100000000E-03 0.  1.
         11   -1    0    0    0    0 -0.00000000000E+00 -0.00000000000E+00 -0.45593999997E+02  0.45594000000E+02  0.51100000000E-03 0. -1.
    9900012    2    1    2    0    0  0.90150591028E+01  0.27329418981E+02  0.28722766329E+02  0.50528859109E+02  0.29999997746E+02 0.  0.
         12    1    1    2    0    0 -0.90150591028E+01 -0.27329418981E+02 -0.28722766329E+02  0.40659140891E+02  0.00000000000E+00 0. -1.
         11    1    3    3    0    0  0.96793090295E+00  0.11041936847E+02 -0.86567681940E+00  0.11118032927E+02  0.51100000000E-03 0. -1.
        -11    1    3    3    0    0  0.30851652454E+00  0.12586758631E+02  0.27981498030E+02  0.30683642344E+02  0.51100000000E-03 0.  1.
        -12    1    3    3    0    0  0.77386116753E+01  0.37007235028E+01  0.16069451187E+01  0.87271838367E+01  0.00000000000E+00 0.  1.
</event>
<event>
 7    1  0.6046695E-013  0.5052888E+02  0.7816164E-02  0.1300439E+00
        -11   -1    0    0    0    0  0.00000000000E+00  0.00000000000E+00  0.45593999997E+02  0.45594000000E+02  0.51100000000E-03 0. -1.
         11   -1    0    0    0    0 -0.00000000000E+00 -0.00000000000E+00 -0.45593999997E+02  0.45594000000E+02  0.51100000000E-03 0.  1.
    9900012    2    1    2    0    0 -0.40399610470E+02  0.41740186613E+01 -0.19008707427E+01  0.50528877192E+02  0.30000052713E+02 0.  0.
         12    1    1    2    0    0  0.40399610470E+02 -0.41740186613E+01  0.19008707427E+01  0.40659122808E+02  0.00000000000E+00 0. -1.
         11    1    3    3    0    0 -0.55261877361E+01  0.84725053391E+01  0.81545168383E+01  0.12993007456E+02  0.51100000000E-03 0. -1.
        -11    1    3    3    0    0 -0.90706179547E+01  0.26343810481E+01 -0.27178342063E+01  0.98286670826E+01  0.51100000000E-03 0.  1.
         12    1    3    3    0    0 -0.25802804779E+02 -0.69328677259E+01 -0.73375533747E+01  0.27707202654E+02  0.00000000000E+00 0. -1.
</event>
<event>
 7    1  0.6046695E-013  0.5052885E+02  0.7816164E-02  0.1300439E+00
        -11   -1    0    0    0    0  0.00000000000E+00  0.00000000000E+00  0.45593999997E+02  0.45594000000E+02  0.51100000000E-03 0.  1.
         11   -1    0    0    0    0 -0.00000000000E+00 -0.00000000000E+00 -0.45593999997E+02  0.45594000000E+02  0.51100000000E-03 0. -1.
    9900012    2    1    2    0    0  0.53660262404E-01 -0.27343483806E+02  0.30091482812E+02  0.50528851904E+02  0.29999975848E+02 0.  0.
         12    1    1    2    0    0 -0.53660262404E-01  0.27343483806E+02 -0.30091482812E+02  0.40659148096E+02  0.00000000000E+00 0. -1.
         11    1    3    3    0    0 -0.21672015588E+01 -0.15135831992E+02  0.33694385897E+02  0.37001375839E+02  0.51100000000E-03 0.  1.
        -11    1    3    3    0    0  0.13013093367E+01 -0.33912495760E+01 -0.28767831872E+01  0.46335581839E+01  0.51100000000E-03 0. -1.
         12    1    3    3    0    0  0.91955248449E+00 -0.88164022375E+01 -0.72611989818E+00  0.88939178820E+01  0.00000000000E+00 0. -1.
</event>
<event>
 7    1  0.6046695E-013  0.5052884E+02  0.7816164E-02  0.1300439E+00
        -11   -1    0    0    0    0  0.00000000000E+00  0.00000000000E+00  0.45593999997E+02  0.45594000000E+02  0.51100000000E-03 0.  1.
         11   -1    0    0    0    0 -0.00000000000E+00 -0.00000000000E+00 -0.45593999997E+02  0.45594000000E+02  0.51100000000E-03 0. -1.
    9900012    2    1    2    0    0  0.10873256577E+01  0.33840871311E+02  0.22511780899E+02  0.50528842023E+02  0.29999945813E+02 0.  0.
         12    1    1    2    0    0 -0.10873256577E+01 -0.33840871311E+02 -0.22511780899E+02  0.40659157977E+02  0.00000000000E+00 0. -1.
         11    1    3    3    0    0  0.22636546838E+01  0.53313788604E+01  0.59140845568E+01  0.82779302659E+01  0.51100000000E-03 0.  1.
        -11    1    3    3    0    0 -0.11211252751E+02  0.17989268699E+02  0.17776819487E+02  0.27664440857E+02  0.51100000000E-03 0. -1.
        -12    1    3    3    0    0  0.10034923725E+02  0.10520223751E+02 -0.11791231451E+01  0.14586470900E+02  0.00000000000E+00 0.  1.
</event>
<event>
 7    1  0.6046695E-013  0.5052886E+02  0.7816164E-02  0.1300439E+00
        -11   -1    0    0    0    0  0.00000000000E+00  0.00000000000E+00  0.45593999997E+02  0.45594000000E+02  0.51100000000E-03 0. -1.
         11   -1    0    0    0    0 -0.00000000000E+00 -0.00000000000E+00 -0.45593999997E+02  0.45594000000E+02  0.51100000000E-03 0.  1.
    9900012    2    1    2    0    0 -0.25002447308E+02 -0.37029732281E+01 -0.31848571475E+02  0.50528857275E+02  0.29999992173E+02 0.  0.
         12    1    1    2    0    0  0.25002447308E+02  0.37029732281E+01  0.31848571475E+02  0.40659142725E+02  0.00000000000E+00 0. -1.
         11    1    3    3    0    0 -0.14711688077E+02 -0.16567371196E+02 -0.15287009359E+02  0.26918473393E+02  0.51100000000E-03 0. -1.
        -11    1    3    3    0    0 -0.38899110315E+01  0.53607262238E+01 -0.43976715273E+01  0.79503653126E+01  0.51100000000E-03 0.  1.
         12    1    3    3    0    0 -0.64008481991E+01  0.75036717445E+01 -0.12163890589E+02  0.15660018569E+02  0.00000000000E+00 0. -1.
</event>
<event>
 7    1  0.6046695E-013  0.5052886E+02  0.7816164E-02  0.1300439E+00
        -11   -1    0    0    0    0  0.00000000000E+00  0.00000000000E+00  0.45593999997E+02  0.45594000000E+02  0.51100000000E-03 0. -1.
         11   -1    0    0    0    0 -0.00000000000E+00 -0.00000000000E+00 -0.45593999997E+02  0.45594000000E+02  0.51100000000E-03 0.  1.
    9900012    2    1    2    0    0 -0.32841155634E+02  0.23949765496E+02 -0.10164426017E+01  0.50528856794E+02  0.29999990711E+02 0.  0.
         12    1    1    2    0    0  0.32841155634E+02 -0.23949765496E+02  0.10164426017E+01  0.40659143206E+02  0.00000000000E+00 0. -1.
         11    1    3    3    0    0 -0.18809385065E+02  0.10208418555E+02  0.95966635263E+01  0.23454226208E+02  0.51100000000E-03 0. -1.
        -11    1    3    3    0    0 -0.31715382497E+01  0.13562984244E+02 -0.72587690287E+01  0.15706779573E+02  0.51100000000E-03 0.  1.
         12    1    3    3    0    0 -0.10860232319E+02  0.17836269635E+00 -0.33543370993E+01  0.11367851013E+02  0.00000000000E+00 0. -1.
</event>
<event>
 7    1  0.6046695E-013  0.5052885E+02  0.7816164E-02  0.1300439E+00
        -11   -1    0    0    0    0  0.00000000000E+00  0.00000000000E+00  0.45593999997E+02  0.45594000000E+02  0.51100000000E-03 0.  1.
         11   -1    0    0    0    0 -0.00000000000E+00 -0.00000000000E+00 -0.45593999997E+02  0.45594000000E+02  0.51100000000E-03 0. -1.
    9900012    2    1    2    0    0  0.11581611469E+02  0.21469967063E+02  0.32528035081E+02  0.50528852491E+02  0.29999977633E+02 0.  0.
         12    1    1    2    0    0 -0.11581611469E+02 -0.21469967063E+02 -0.32528035081E+02  0.40659147509E+02  0.00000000000E+00 0. -1.
         11    1    3    3    0    0  0.15431093370E+02  0.69471450229E+01  0.19873925968E+02  0.26102766141E+02  0.51100000000E-03 0.  1.
        -11    1    3    3    0    0 -0.52341751271E+01  0.88155375716E+01  0.14943879796E+02  0.18122633240E+02  0.51100000000E-03 0. -1.
         12    1    3    3    0    0  0.13846932262E+01  0.57072844689E+01 -0.22897706831E+01  0.63034531109E+01  0.00000000000E+00 0. -1.
</event>
<event>
 7    1  0.6046695E-013  0.5052893E+02  0.7816164E-02  0.1300439E+00
        -11   -1    0    0    0    0  0.00000000000E+00  0.00000000000E+00  0.45593999997E+02  0.45594000000E+02  0.51100000000E-03 0.  1.
         11   -1    0    0    0    0 -0.00000000000E+00 -0.00000000000E+00 -0.45593999997E+02  0.45594000000E+02  0.51100000000E-03 0. -1.
    9900012    2    1    2    0    0  0.32407933261E+02  0.22598900694E+02  0.96008246777E+01  0.50528926162E+02  0.30000201563E+02 0.  0.
         12    1    1    2    0    0 -0.32407933261E+02 -0.22598900694E+02 -0.96008246777E+01  0.40659073838E+02  0.00000000000E+00 0. -1.
         11    1    3    3    0    0 -0.13947771834E+00  0.14078828211E+02  0.48346963092E+01  0.14886475287E+02  0.51100000000E-03 0. -1.
        -11    1    3    3    0    0  0.21236618202E+02  0.89968717225E+01  0.70013865193E+01  0.24103050987E+02  0.51100000000E-03 0.  1.
        -12    1    3    3    0    0  0.11310792778E+02 -0.47679923892E+00 -0.22352581508E+01  0.11539399888E+02  0.00000000000E+00 0.  1.
</event>
<event>
 7    1  0.6046695E-013  0.5052887E+02  0.7816164E-02  0.1300439E+00
        -11   -1    0    0    0    0  0.00000000000E+00  0.00000000000E+00  0.45593999997E+02  0.45594000000E+02  0.51100000000E-03 0.  1.
         11   -1    0    0    0    0 -0.00000000000E+00 -0.00000000000E+00 -0.45593999997E+02  0.45594000000E+02  0.51100000000E-03 0. -1.
    9900012    2    1    2    0    0  0.18627600969E+02  0.10324151244E+01  0.36126329672E+02  0.50528867023E+02  0.30000021804E+02 0.  0.
         12    1    1    2    0    0 -0.18627600969E+02 -0.10324151244E+01 -0.36126329672E+02  0.40659132977E+02  0.00000000000E+00 0. -1.
         11    1    3    3    0    0  0.93236213828E+01  0.10531673244E+02  0.14512786998E+02  0.20210567625E+02  0.51100000000E-03 0. -1.
        -11    1    3    3    0    0  0.11381022508E+02 -0.91191718499E+01  0.23386510472E+02  0.27561129166E+02  0.51100000000E-03 0.  1.
         12    1    3    3    0    0 -0.20770429223E+01 -0.38008627013E+00 -0.17729677985E+01  0.27571702320E+01  0.00000000000E+00 0. -1.
</event>
<event>
 7    1  0.6046695E-013  0.5052886E+02  0.7816164E-02  0.1300439E+00
        -11   -1    0    0    0    0  0.00000000000E+00  0.00000000000E+00  0.45593999997E+02  0.45594000000E+02  0.51100000000E-03 0. -1.
         11   -1    0    0    0    0 -0.00000000000E+00 -0.00000000000E+00 -0.45593999997E+02  0.45594000000E+02  0.51100000000E-03 0.  1.
    9900012    2    1    2    0    0  0.82771206471E+01 -0.33047972431E+02  0.22192034893E+02  0.50528860551E+02  0.30000002132E+02 0.  0.
         12    1    1    2    0    0 -0.82771206471E+01  0.33047972431E+02 -0.22192034893E+02  0.40659139449E+02  0.00000000000E+00 0. -1.
         11    1    3    3    0    0  0.13574338333E+01 -0.31605274550E+02  0.65713493393E+01  0.32309729779E+02  0.51100000000E-03 0. -1.
        -11    1    3    3    0    0  0.21124560433E+01 -0.33431261336E+01  0.89112440029E+01  0.97493196081E+01  0.51100000000E-03 0.  1.
         12    1    3    3    0    0  0.48072307705E+01  0.19004282530E+01  0.67094415512E+01  0.84698111641E+01  0.00000000000E+00 0. -1.
</event>
<event>
 7    1  0.6046695E-013  0.5052886E+02  0.7816164E-02  0.1300439E+00
        -11   -1    0    0    0    0  0.00000000000E+00  0.00000000000E+00  0.45593999997E+02  0.45594000000E+02  0.51100000000E-03 0.  1.
         11   -1    0    0    0    0 -0.00000000000E+00 -0.00000000000E+00 -0.45593999997E+02  0.45594000000E+02  0.51100000000E-03 0. -1.
    9900012    2    1    2    0    0  0.11068761559E+02  0.26552134540E+02  0.28733823974E+02  0.50528856241E+02  0.29999989029E+02 0.  0.
         12    1    1    2    0    0 -0.11068761559E+02 -0.26552134540E+02 -0.28733823974E+02  0.40659143759E+02  0.00000000000E+00 0. -1.
         11    1    3    3    0    0 -0.20927544718E+01  0.51958960261E+01 -0.28025093178E+01  0.62634667342E+01  0.51100000000E-03 0. -1.
        -11    1    3    3    0    0  0.14365795502E+02  0.12716260637E+02  0.29688899303E+02  0.35348410248E+02  0.51100000000E-03 0.  1.
        -12    1    3    3    0    0 -0.12042794707E+01  0.86399778767E+01  0.18474339896E+01  0.89169792587E+01  0.00000000000E+00 0.  1.
</event>
<event>
 7    1  0.6046695E-013  0.5052887E+02  0.7816164E-02  0.1300439E+00
        -11   -1    0    0    0    0  0.00000000000E+00  0.00000000000E+00  0.45593999997E+02  0.45594000000E+02  0.51100000000E-03 0.  1.
         11   -1    0    0    0    0 -0.00000000000E+00 -0.00000000000E+00 -0.45593999997E+02  0.45594000000E+02  0.51100000000E-03 0. -1.
    9900012    2    1    2    0    0  0.18635253825E+02 -0.31390026799E+02  0.17904143744E+02  0.50528870265E+02  0.30000031659E+02 0.  0.
         12    1    1    2    0    0 -0.18635253825E+02  0.31390026799E+02 -0.17904143744E+02  0.40659129735E+02  0.00000000000E+00 0. -1.
         11    1    3    3    0    0  0.10888094261E+00 -0.19670550001E+01  0.74673071771E+01  0.77228127759E+01  0.51100000000E-03 0. -1.
        -11    1    3    3    0    0  0.38607635532E+01 -0.19510139952E+02 -0.36035938524E+01  0.20212296878E+02  0.51100000000E-03 0.  1.
        -12    1    3    3    0    0  0.14665609329E+02 -0.99128318473E+01  0.14040430419E+02  0.22593760612E+02  0.00000000000E+00 0.  1.
</event>
<event>
 7    1  0.6046695E-013  0.5052886E+02  0.7816164E-02  0.1300439E+00
        -11   -1    0    0    0    0  0.00000000000E+00  0.00000000000E+00  0.45593999997E+02  0.45594000000E+02  0.51100000000E-03 0.  1.
         11   -1    0    0    0    0 -0.00000000000E+00 -0.00000000000E+00 -0.45593999997E+02  0.45594000000E+02  0.51100000000E-03 0. -1.
    9900012    2    1    2    0    0  0.23079614317E+02 -0.13718974394E+02  0.30533375752E+02  0.50528857237E+02  0.29999992057E+02 0.  0.
         12    1    1    2    0    0 -0.23079614317E+02  0.13718974394E+02 -0.30533375752E+02  0.40659142763E+02  0.00000000000E+00 0. -1.
         11    1    3    3    0    0  0.25260194666E+01 -0.69856906993E+01  0.81413846979E+01  0.11021016013E+02  0.51100000000E-03 0. -1.
        -11    1    3    3    0    0  0.18088887711E+02  0.34195656651E-01  0.25824355768E+02  0.31529452565E+02  0.51100000000E-03 0.  1.
        -12    1    3    3    0    0  0.24647071396E+01 -0.67674793514E+01 -0.34323647144E+01  0.79783886586E+01  0.00000000000E+00 0.  1.
</event>
<event>
 7    1  0.6046695E-013  0.5052885E+02  0.7816164E-02  0.1300439E+00
        -11   -1    0    0    0    0  0.00000000000E+00  0.00000000000E+00  0.45593999997E+02  0.45594000000E+02  0.51100000000E-03 0.  1.
         11   -1    0    0    0    0 -0.00000000000E+00 -0.00000000000E+00 -0.45593999997E+02  0.45594000000E+02  0.51100000000E-03 0. -1.
    9900012    2    1    2    0    0  0.97667200047E+01  0.43447161290E+01  0.39228828128E+02  0.50528851778E+02  0.29999975464E+02 0.  0.
         12    1    1    2    0    0 -0.97667200047E+01 -0.43447161290E+01 -0.39228828128E+02  0.40659148222E+02  0.00000000000E+00 0. -1.
         11    1    3    3    0    0  0.11580401665E+02 -0.45481290882E+00  0.17334910867E+02  0.20852138800E+02  0.51100000000E-03 0. -1.
        -11    1    3    3    0    0 -0.38838185339E+01  0.96216157881E+01  0.22111070652E+02  0.24424556954E+02  0.51100000000E-03 0.  1.
        -12    1    3    3    0    0  0.20701368736E+01 -0.48220867503E+01 -0.21715339101E+00  0.52521560238E+01  0.00000000000E+00 0.  1.
</event>
<event>
 7    1  0.6046695E-013  0.5052886E+02  0.7816164E-02  0.1300439E+00
        -11   -1    0    0    0    0  0.00000000000E+00  0.00000000000E+00  0.45593999997E+02  0.45594000000E+02  0.51100000000E-03 0. -1.
         11   -1    0    0    0    0 -0.00000000000E+00 -0.00000000000E+00 -0.45593999997E+02  0.45594000000E+02  0.51100000000E-03 0.  1.
    9900012    2    1    2    0    0  0.37919142669E+02  0.10102995686E+02 -0.10641135727E+02  0.50528859919E+02  0.30000000209E+02 0.  0.
         12    1    1    2    0    0 -0.37919142669E+02 -0.10102995686E+02  0.10641135727E+02  0.40659140081E+02  0.00000000000E+00 0. -1.
         11    1    3    3    0    0  0.10753264783E+01  0.10286697688E+02 -0.26725295529E+01  0.10682457154E+02  0.51100000000E-03 0. -1.
        -11    1    3    3    0    0  0.32643040517E+02 -0.44428401188E+01 -0.78342032973E+01  0.33862688376E+02  0.51100000000E-03 0.  1.
        -12    1    3    3    0    0  0.42007756742E+01  0.42591381163E+01 -0.13440287635E+00  0.59837143892E+01  0.00000000000E+00 0.  1.
</event>
<event>
 7    1  0.6046695E-013  0.5052886E+02  0.7816164E-02  0.1300439E+00
        -11   -1    0    0    0    0  0.00000000000E+00  0.00000000000E+00  0.45593999997E+02  0.45594000000E+02  0.51100000000E-03 0. -1.
         11   -1    0    0    0    0 -0.00000000000E+00 -0.00000000000E+00 -0.45593999997E+02  0.45594000000E+02  0.51100000000E-03 0.  1.
    9900012    2    1    2    0    0 -0.17631262789E+02  0.32563119549E+02 -0.16791288206E+02  0.50528861521E+02  0.30000005078E+02 0.  0.
         12    1    1    2    0    0  0.17631262789E+02 -0.32563119549E+02  0.16791288206E+02  0.40659138479E+02  0.00000000000E+00 0. -1.
         11    1    3    3    0    0  0.85881011629E+00  0.87471074398E+01  0.23079088200E+00  0.87921958618E+01  0.51100000000E-03 0. -1.
        -11    1    3    3    0    0 -0.85308278653E+01  0.83264145012E+01 -0.19801695320E+02  0.23113012359E+02  0.51100000000E-03 0.  1.
        -12    1    3    3    0    0 -0.99592450397E+01  0.15489597608E+02  0.27796162325E+01  0.18623653299E+02  0.00000000000E+00 0.  1.
</event>
<event>
 7    1  0.6046695E-013  0.5052887E+02  0.7816164E-02  0.1300439E+00
        -11   -1    0    0    0    0  0.00000000000E+00  0.00000000000E+00  0.45593999997E+02  0.45594000000E+02  0.51100000000E-03 0.  1.
         11   -1    0    0    0    0 -0.00000000000E+00 -0.00000000000E+00 -0.45593999997E+02  0.45594000000E+02  0.51100000000E-03 0. -1.
    9900012    2    1    2    0    0  0.23121780687E+02  0.32519333091E+02  0.78128762969E+01  0.50528870609E+02  0.30000032703E+02 0.  0.
         12    1    1    2    0    0 -0.23121780687E+02 -0.32519333091E+02 -0.78128762969E+01  0.40659129391E+02  0.00000000000E+00 0. -1.
         11    1    3    3    0    0  0.63846692845E+01  0.19143600749E+02  0.10795404184E+02  0.22886288543E+02  0.51100000000E-03 0. -1.
        -11    1    3    3    0    0  0.17371376065E+02  0.78063895938E+01 -0.74748865855E+01  0.20459187536E+02  0.51100000000E-03 0.  1.
        -12    1    3    3    0    0 -0.63426466315E+00  0.55693427477E+01  0.44923586980E+01  0.71833945301E+01  0.00000000000E+00 0.  1.
</event>
<event>
 7    1  0.6046695E-013  0.5052886E+02  0.7816164E-02  0.1300439E+00
        -11   -1    0    0    0    0  0.00000000000E+00  0.00000000000E+00  0.45593999997E+02  0.45594000000E+02  0.51100000000E-03 0.  1.
         11   -1    0    0    0    0 -0.00000000000E+00 -0.00000000000E+00 -0.45593999997E+02  0.45594000000E+02  0.51100000000E-03 0. -1.
    9900012    2    1    2    0    0  0.27532261227E+01 -0.40201297789E+02  0.54259540900E+01  0.50528861104E+02  0.30000003812E+02 0.  0.
         12    1    1    2    0    0 -0.27532261227E+01  0.40201297789E+02 -0.54259540900E+01  0.40659138896E+02  0.00000000000E+00 0. -1.
         11    1    3    3    0    0  0.87200788458E+01 -0.57905608054E+01 -0.18108579890E+01  0.10623068127E+02  0.51100000000E-03 0. -1.
        -11    1    3    3    0    0 -0.83595112603E+01 -0.12427785709E+02 -0.34136890010E+01  0.15361788926E+02  0.51100000000E-03 0.  1.
        -12    1    3    3    0    0  0.23926585372E+01 -0.21982951274E+02  0.10650501080E+02  0.24544004051E+02  0.00000000000E+00 0.  1.
</event>
<event>
 7    1  0.6046695E-013  0.5052886E+02  0.7816164E-02  0.1300439E+00
        -11   -1    0    0    0    0  0.00000000000E+00  0.00000000000E+00  0.45593999997E+02  0.45594000000E+02  0.51100000000E-03 0.  1.
         11   -1    0    0    0    0 -0.00000000000E+00 -0.00000000000E+00 -0.45593999997E+02  0.45594000000E+02  0.51100000000E-03 0. -1.
    9900012    2    1    2    0    0  0.28281607666E+02 -0.98809551251E+01  0.27489692066E+02  0.50528858639E+02  0.29999996318E+02 0.  0.
         12    1    1    2    0    0 -0.28281607666E+02  0.98809551251E+01 -0.27489692066E+02  0.40659141361E+02  0.00000000000E+00 0. -1.
         11    1    3    3    0    0 -0.34562968523E+00  0.52164914550E+01  0.63023651250E+01  0.81884705171E+01  0.51100000000E-03 0. -1.
        -11    1    3    3    0    0  0.24542592096E+02 -0.17415396090E+02  0.12748515239E+02  0.32682709325E+02  0.51100000000E-03 0.  1.
        -12    1    3    3    0    0  0.40846452547E+01  0.23179495096E+01  0.84388117029E+01  0.96576787968E+01  0.00000000000E+00 0.  1.
</event>
<event>
 7    1  0.6046695E-013  0.5052886E+02  0.7816164E-02  0.1300439E+00
        -11   -1    0    0    0    0  0.00000000000E+00  0.00000000000E+00  0.45593999997E+02  0.45594000000E+02  0.51100000000E-03 0. -1.
         11   -1    0    0    0    0 -0.00000000000E+00 -0.00000000000E+00 -0.45593999997E+02  0.45594000000E+02  0.51100000000E-03 0.  1.
    9900012    2    1    2    0    0  0.18276635546E+02 -0.22546135902E+02 -0.28474581668E+02  0.50528862624E+02  0.30000008431E+02 0.  0.
         12    1    1    2    0    0 -0.18276635546E+02  0.22546135902E+02  0.28474581668E+02  0.40659137376E+02  0.00000000000E+00 0. -1.
         11    1    3    3    0    0  0.99310727336E+01 -0.11941718724E+02 -0.74452238064E+00  0.15549442613E+02  0.51100000000E-03 0. -1.
        -11    1    3    3    0    0 -0.13844895326E+01 -0.36043215636E+01 -0.20755297842E+02  0.21111379253E+02  0.51100000000E-03 0.  1.
        -12    1    3    3    0    0  0.97300523446E+01 -0.70000956144E+01 -0.69747614458E+01  0.13868040758E+02  0.00000000000E+00 0.  1.
</event>
<event>
 7    1  0.6046695E-013  0.5052883E+02  0.7816164E-02  0.1300439E+00
        -11   -1    0    0    0    0  0.00000000000E+00  0.00000000000E+00  0.45593999997E+02  0.45594000000E+02  0.51100000000E-03 0.  1.
         11   -1    0    0    0    0 -0.00000000000E+00 -0.00000000000E+00 -0.45593999997E+02  0.45594000000E+02  0.51100000000E-03 0. -1.
    9900012    2    1    2    0    0 -0.69455694845E+00  0.22005009484E+02  0.34182825035E+02  0.50528826630E+02  0.29999899025E+02 0.  0.
         12    1    1    2    0    0  0.69455694845E+00 -0.22005009484E+02 -0.34182825035E+02  0.40659173370E+02  0.00000000000E+00 0. -1.
         11    1    3    3    0    0 -0.58505382220E+01  0.20154213949E+02  0.83426357835E+01  0.22583638092E+02  0.51100000000E-03 0. -1.
        -11    1    3    3    0    0  0.30824115130E+01 -0.34219028163E+01  0.15307520252E+02  0.15985332532E+02  0.51100000000E-03 0.  1.
        -12    1    3    3    0    0  0.20735697605E+01  0.52726983512E+01  0.10532669000E+02  0.11959856007E+02  0.00000000000E+00 0.  1.
</event>
<event>
 7    1  0.6226874E-013  0.5052890E+02  0.7816164E-02  0.1300439E+00
        -11   -1    0    0    0    0  0.00000000000E+00  0.00000000000E+00  0.45593999997E+02  0.45594000000E+02  0.51100000000E-03 0. -1.
         11   -1    0    0    0    0 -0.00000000000E+00 -0.00000000000E+00 -0.45593999997E+02  0.45594000000E+02  0.51100000000E-03 0.  1.
    9900012    2    1    2    0    0  0.91224142379E+01 -0.51376279343E+01 -0.39288020700E+02  0.50528902213E+02  0.30000128767E+02 0.  0.
         12    1    1    2    0    0 -0.91224142379E+01  0.51376279343E+01  0.39288020700E+02  0.40659097787E+02  0.00000000000E+00 0. -1.
         11    1    3    3    0    0  0.22662416857E+00 -0.11331493041E+02 -0.75281043654E+01  0.13606118059E+02  0.51100000000E-03 0. -1.
        -11    1    3    3    0    0  0.21063854629E+01  0.25912660518E+00 -0.26290757455E+02  0.26376275972E+02  0.51100000000E-03 0.  1.
         12    1    3    3    0    0  0.67894046065E+01  0.59347385011E+01 -0.54691588790E+01  0.10546508182E+02  0.00000000000E+00 0. -1.
</event>
<event>
 7    1  0.6046695E-013  0.5052886E+02  0.7816164E-02  0.1300439E+00
        -11   -1    0    0    0    0  0.00000000000E+00  0.00000000000E+00  0.45593999997E+02  0.45594000000E+02  0.51100000000E-03 0.  1.
         11   -1    0    0    0    0 -0.00000000000E+00 -0.00000000000E+00 -0.45593999997E+02  0.45594000000E+02  0.51100000000E-03 0. -1.
    9900012    2    1    2    0    0 -0.32343141837E+02  0.10314328723E+02  0.22376354066E+02  0.50528862992E+02  0.30000009552E+02 0.  0.
         12    1    1    2    0    0  0.32343141837E+02 -0.10314328723E+02 -0.22376354066E+02  0.40659137008E+02  0.00000000000E+00 0. -1.
         11    1    3    3    0    0  0.56064755056E-01  0.74392175288E+00 -0.61996272990E+00  0.97000870035E+00  0.51100000000E-03 0. -1.
        -11    1    3    3    0    0 -0.56553836520E+01 -0.81468801078E+01 -0.28429327266E+00  0.99214838944E+01  0.51100000000E-03 0.  1.
        -12    1    3    3    0    0 -0.26743822940E+02  0.17717287078E+02  0.23280610069E+02  0.39637370398E+02  0.00000000000E+00 0.  1.
</event>
<event>
 7    1  0.6046695E-013  0.5052884E+02  0.7816164E-02  0.1300439E+00
        -11   -1    0    0    0    0  0.00000000000E+00  0.00000000000E+00  0.45593999997E+02  0.45594000000E+02  0.51100000000E-03 0.  1.
         11   -1    0    0    0    0 -0.00000000000E+00 -0.00000000000E+00 -0.45593999997E+02  0.45594000000E+02  0.51100000000E-03 0. -1.
    9900012    2    1    2    0    0  0.17072809397E+02 -0.52337945952E+01  0.36527989589E+02  0.50528838056E+02  0.29999933755E+02 0.  0.
         12    1    1    2    0    0 -0.17072809397E+02  0.52337945952E+01 -0.36527989589E+02  0.40659161944E+02  0.00000000000E+00 0. -1.
         11    1    3    3    0    0  0.16184824303E+01 -0.10816728903E+02  0.30660873606E+02  0.32553191550E+02  0.51100000000E-03 0. -1.
        -11    1    3    3    0    0  0.51330505108E+01  0.39328072369E+01  0.14427312988E+01  0.66254550161E+01  0.51100000000E-03 0.  1.
         12    1    3    3    0    0  0.10321276456E+02  0.16501270712E+01  0.44243846847E+01  0.11350191490E+02  0.00000000000E+00 0. -1.
</event>
<event>
 7    1  0.6046695E-013  0.5052887E+02  0.7816164E-02  0.1300439E+00
        -11   -1    0    0    0    0  0.00000000000E+00  0.00000000000E+00  0.45593999997E+02  0.45594000000E+02  0.51100000000E-03 0. -1.
         11   -1    0    0    0    0 -0.00000000000E+00 -0.00000000000E+00 -0.45593999997E+02  0.45594000000E+02  0.51100000000E-03 0.  1.
    9900012    2    1    2    0    0  0.20813770439E+02 -0.14201636176E+02 -0.31910272579E+02  0.50528868110E+02  0.30000025108E+02 0.  0.
         12    1    1    2    0    0 -0.20813770439E+02  0.14201636176E+02  0.31910272579E+02  0.40659131890E+02  0.00000000000E+00 0. -1.
         11    1    3    3    0    0  0.41284578026E+01 -0.93869796837E+01  0.30229829638E+01  0.10691023228E+02  0.51100000000E-03 0. -1.
        -11    1    3    3    0    0  0.12388590835E+02 -0.12728244784E+01 -0.17092511837E+02  0.21148314972E+02  0.51100000000E-03 0.  1.
         12    1    3    3    0    0  0.42967218016E+01 -0.35418320139E+01 -0.17840743706E+02  0.18689529910E+02  0.00000000000E+00 0. -1.
</event>
<event>
 7    1  0.6046695E-013  0.5052886E+02  0.7816164E-02  0.1300439E+00
        -11   -1    0    0    0    0  0.00000000000E+00  0.00000000000E+00  0.45593999997E+02  0.45594000000E+02  0.51100000000E-03 0.  1.
         11   -1    0    0    0    0 -0.00000000000E+00 -0.00000000000E+00 -0.45593999997E+02  0.45594000000E+02  0.51100000000E-03 0. -1.
    9900012    2    1    2    0    0  0.14150349308E+02  0.14387457815E+01  0.38090195563E+02  0.50528863597E+02  0.30000011390E+02 0.  0.
         12    1    1    2    0    0 -0.14150349308E+02 -0.14387457815E+01 -0.38090195563E+02  0.40659136403E+02  0.00000000000E+00 0. -1.
         11    1    3    3    0    0  0.12087618711E+02  0.48105030359E+01  0.29416991141E+02  0.32165366990E+02  0.51100000000E-03 0. -1.
        -11    1    3    3    0    0 -0.66671817171E+01 -0.81402220104E+00  0.56511105504E+01  0.87777556873E+01  0.51100000000E-03 0.  1.
         12    1    3    3    0    0  0.87299123139E+01 -0.25577350534E+01  0.30220938721E+01  0.95857409199E+01  0.00000000000E+00 0. -1.
</event>
<event>
 7    1  0.6046695E-013  0.5052886E+02  0.7816164E-02  0.1300439E+00
        -11   -1    0    0    0    0  0.00000000000E+00  0.00000000000E+00  0.45593999997E+02  0.45594000000E+02  0.51100000000E-03 0. -1.
         11   -1    0    0    0    0 -0.00000000000E+00 -0.00000000000E+00 -0.45593999997E+02  0.45594000000E+02  0.51100000000E-03 0.  1.
    9900012    2    1    2    0    0 -0.35827097205E+02  0.80046718454E+01  0.17478848788E+02  0.50528858095E+02  0.29999994665E+02 0.  0.
         12    1    1    2    0    0  0.35827097205E+02 -0.80046718454E+01 -0.17478848788E+02  0.40659141905E+02  0.00000000000E+00 0. -1.
         11    1    3    3    0    0  0.42431943197E+01  0.52188368771E+01  0.17051236935E+01  0.69389050618E+01  0.51100000000E-03 0. -1.
        -11    1    3    3    0    0 -0.22137050892E+02  0.35029388910E+01  0.62278952932E+01  0.23261691321E+02  0.51100000000E-03 0.  1.
         12    1    3    3    0    0 -0.17933240633E+02 -0.71710392270E+00  0.95458298017E+01  0.20328261712E+02  0.00000000000E+00 0. -1.
</event>
<event>
 7    1  0.6046695E-013  0.5052885E+02  0.7816164E-02  0.1300439E+00
        -11   -1    0    0    0    0  0.00000000000E+00  0.00000000000E+00  0.45593999997E+02  0.45594000000E+02  0.51100000000E-03 0.  1.
         11   -1    0    0    0    0 -0.00000000000E+00 -0.00000000000E+00 -0.45593999997E+02  0.45594000000E+02  0.51100000000E-03 0. -1.
    9900012    2    1    2    0    0  0.17734430005E+02  0.16991669156E+02  0.32402769332E+02  0.50528852336E+02  0.29999977161E+02 0.  0.
         12    1    1    2    0    0 -0.17734430005E+02 -0.16991669156E+02 -0.32402769332E+02  0.40659147664E+02  0.00000000000E+00 0. -1.
         11    1    3    3    0    0 -0.86136784062E+00  0.34517115049E+01  0.10012686325E+02  0.10625918999E+02  0.51100000000E-03 0. -1.
        -11    1    3    3    0    0 -0.70601852490E+00  0.76736444384E+01 -0.22784767363E+01  0.80358408162E+01  0.51100000000E-03 0.  1.
        -12    1    3    3    0    0  0.19301816371E+02  0.58663132131E+01  0.24668559744E+02  0.31867092521E+02  0.00000000000E+00 0.  1.
</event>
<event>
 7    1  0.6046695E-013  0.5052888E+02  0.7816164E-02  0.1300439E+00
        -11   -1    0    0    0    0  0.00000000000E+00  0.00000000000E+00  0.45593999997E+02  0.45594000000E+02  0.51100000000E-03 0.  1.
         11   -1    0    0    0    0 -0.00000000000E+00 -0.00000000000E+00 -0.45593999997E+02  0.45594000000E+02  0.51100000000E-03 0. -1.
    9900012    2    1    2    0    0 -0.36788608974E+02 -0.16717818300E+02  0.45030206951E+01  0.50528875633E+02  0.30000047974E+02 0.  0.
         12    1    1    2    0    0  0.36788608974E+02  0.16717818300E+02 -0.45030206951E+01  0.40659124367E+02  0.00000000000E+00 0. -1.
         11    1    3    3    0    0 -0.77760980373E+01  0.46204185234E+01 -0.22125063004E+01  0.93118823235E+01  0.51100000000E-03 0. -1.
        -11    1    3    3    0    0 -0.22553982036E+02 -0.14109592645E+02  0.13055105360E+02  0.29634413888E+02  0.51100000000E-03 0.  1.
        -12    1    3    3    0    0 -0.64585289006E+01 -0.72286441782E+01 -0.63395783641E+01  0.11582579421E+02  0.00000000000E+00 0.  1.
</event>
<event>
 7    1  0.6046695E-013  0.5052886E+02  0.7816164E-02  0.1300439E+00
        -11   -1    0    0    0    0  0.00000000000E+00  0.00000000000E+00  0.45593999997E+02  0.45594000000E+02  0.51100000000E-03 0.  1.
         11   -1    0    0    0    0 -0.00000000000E+00 -0.00000000000E+00 -0.45593999997E+02  0.45594000000E+02  0.51100000000E-03 0. -1.
    9900012    2    1    2    0    0 -0.18799187126E+02  0.17726071889E+01  0.36008522922E+02  0.50528864546E+02  0.30000014274E+02 0.  0.
         12    1    1    2    0    0  0.18799187126E+02 -0.17726071889E+01 -0.36008522922E+02  0.40659135454E+02  0.00000000000E+00 0. -1.
         11    1    3    3    0    0 -0.10385100474E+02 -0.25610186862E+01  0.38864162514E+01  0.11380393671E+02  0.51100000000E-03 0. -1.
        -11    1    3    3    0    0  0.65659965765E+01  0.56145538145E+00  0.12923159319E+02  0.14506398252E+02  0.51100000000E-03 0.  1.
        -12    1    3    3    0    0 -0.14980083228E+02  0.37721704936E+01  0.19198947351E+02  0.24642072623E+02  0.00000000000E+00 0.  1.
</event>
<event>
 7    1  0.6046695E-013  0.5052886E+02  0.7816164E-02  0.1300439E+00
        -11   -1    0    0    0    0  0.00000000000E+00  0.00000000000E+00  0.45593999997E+02  0.45594000000E+02  0.51100000000E-03 0.  1.
         11   -1    0    0    0    0 -0.00000000000E+00 -0.00000000000E+00 -0.45593999997E+02  0.45594000000E+02  0.51100000000E-03 0. -1.
    9900012    2    1    2    0    0  0.87687292922E+01  0.62766518594E+00  0.39697366029E+02  0.50528862692E+02  0.30000008638E+02 0.  0.
         12    1    1    2    0    0 -0.87687292922E+01 -0.62766518594E+00 -0.39697366029E+02  0.40659137308E+02  0.00000000000E+00 0. -1.
         11    1    3    3    0    0 -0.86035370567E+01 -0.14892542385E+01  0.24824216688E+02  0.26315023513E+02  0.51100000000E-03 0. -1.
        -11    1    3    3    0    0  0.84150164336E+01  0.46808841905E+01  0.59874980033E+01  0.11339017196E+02  0.51100000000E-03 0.  1.
         12    1    3    3    0    0  0.89572499153E+01 -0.25639647660E+01  0.88856513379E+01  0.12874821982E+02  0.00000000000E+00 0. -1.
</event>
<event>
 7    1  0.6046695E-013  0.5052886E+02  0.7816164E-02  0.1300439E+00
        -11   -1    0    0    0    0  0.00000000000E+00  0.00000000000E+00  0.45593999997E+02  0.45594000000E+02  0.51100000000E-03 0. -1.
         11   -1    0    0    0    0 -0.00000000000E+00 -0.00000000000E+00 -0.45593999997E+02  0.45594000000E+02  0.51100000000E-03 0.  1.
    9900012    2    1    2    0    0  0.31611062745E+02  0.23222222488E+02 -0.10706777599E+02  0.50528855989E+02  0.29999988264E+02 0.  0.
         12    1    1    2    0    0 -0.31611062745E+02 -0.23222222488E+02  0.10706777599E+02  0.40659144011E+02  0.00000000000E+00 0. -1.
         11    1    3    3    0    0 -0.73794056887E+00  0.17674843100E+01 -0.52966898896E+01  0.56323601729E+01  0.51100000000E-03 0. -1.
        -11    1    3    3    0    0  0.21721118843E+02  0.21003275578E+02  0.42683661826E+01  0.30514972373E+02  0.51100000000E-03 0.  1.
        -12    1    3    3    0    0  0.10627884471E+02  0.45146260065E+00 -0.96784538917E+01  0.14381523443E+02  0.00000000000E+00 0.  1.
</event>
<event>
 7    1  0.6046695E-013  0.5052882E+02  0.7816164E-02  0.1300439E+00
        -11   -1    0    0    0    0  0.00000000000E+00  0.00000000000E+00  0.45593999997E+02  0.45594000000E+02  0.51100000000E-03 0.  1.
         11   -1    0    0    0    0 -0.00000000000E+00 -0.00000000000E+00 -0.45593999997E+02  0.45594000000E+02  0.51100000000E-03 0. -1.
    9900012    2    1    2    0    0 -0.13645236588E+02 -0.34736607540E+02  0.16135192858E+02  0.50528821043E+02  0.29999882041E+02 0.  0.
         12    1    1    2    0    0  0.13645236588E+02  0.34736607540E+02 -0.16135192858E+02  0.40659178957E+02  0.00000000000E+00 0. -1.
         11    1    3    3    0    0  0.50602215665E+01 -0.23926557113E+02  0.26905702178E+01  0.24603356396E+02  0.51100000000E-03 0. -1.
        -11    1    3    3    0    0 -0.68813182714E+01 -0.66183714063E+01  0.47660290241E+01  0.10671008113E+02  0.51100000000E-03 0.  1.
         12    1    3    3    0    0 -0.11824139884E+02 -0.41916790199E+01  0.86785936158E+01  0.15254456534E+02  0.00000000000E+00 0. -1.
</event>
<event>
 7    1  0.6046695E-013  0.5052886E+02  0.7816164E-02  0.1300439E+00
        -11   -1    0    0    0    0  0.00000000000E+00  0.00000000000E+00  0.45593999997E+02  0.45594000000E+02  0.51100000000E-03 0.  1.
         11   -1    0    0    0    0 -0.00000000000E+00 -0.00000000000E+00 -0.45593999997E+02  0.45594000000E+02  0.51100000000E-03 0. -1.
    9900012    2    1    2    0    0 -0.95463913600E+01  0.27537384957E+02  0.28350038260E+02  0.50528858006E+02  0.29999994396E+02 0.  0.
         12    1    1    2    0    0  0.95463913600E+01 -0.27537384957E+02 -0.28350038260E+02  0.40659141994E+02  0.00000000000E+00 0. -1.
         11    1    3    3    0    0  0.84272591519E+01  0.56372643812E+01  0.79797812230E+00  0.10170261347E+02  0.51100000000E-03 0. -1.
        -11    1    3    3    0    0 -0.99772894929E+01  0.17978932329E+02  0.18487414558E+02  0.27650909761E+02  0.51100000000E-03 0.  1.
         12    1    3    3    0    0 -0.79963610190E+01  0.39211882470E+01  0.90646455803E+01  0.12707686899E+02  0.00000000000E+00 0. -1.
</event>
<event>
 7    1  0.6046695E-013  0.5052886E+02  0.7816164E-02  0.1300439E+00
        -11   -1    0    0    0    0  0.00000000000E+00  0.00000000000E+00  0.45593999997E+02  0.45594000000E+02  0.51100000000E-03 0.  1.
         11   -1    0    0    0    0 -0.00000000000E+00 -0.00000000000E+00 -0.45593999997E+02  0.45594000000E+02  0.51100000000E-03 0. -1.
    9900012    2    1    2    0    0 -0.69923901406E+01  0.22540498654E+02  0.33108876756E+02  0.50528864255E+02  0.30000013390E+02 0.  0.
         12    1    1    2    0    0  0.69923901406E+01 -0.22540498654E+02 -0.33108876756E+02  0.40659135745E+02  0.00000000000E+00 0. -1.
         11    1    3    3    0    0 -0.10150438712E+02 -0.32323434497E+01  0.83611000546E+01  0.13542062051E+02  0.51100000000E-03 0. -1.
        -11    1    3    3    0    0 -0.26149486652E+01  0.15204552230E+02  0.13240199229E+02  0.20330254325E+02  0.51100000000E-03 0.  1.
         12    1    3    3    0    0  0.57729972364E+01  0.10568289874E+02  0.11507577473E+02  0.16656547879E+02  0.00000000000E+00 0. -1.
</event>
<event>
 7    1  0.6046695E-013  0.5052886E+02  0.7816164E-02  0.1300439E+00
        -11   -1    0    0    0    0  0.00000000000E+00  0.00000000000E+00  0.45593999997E+02  0.45594000000E+02  0.51100000000E-03 0.  1.
         11   -1    0    0    0    0 -0.00000000000E+00 -0.00000000000E+00 -0.45593999997E+02  0.45594000000E+02  0.51100000000E-03 0. -1.
    9900012    2    1    2    0    0 -0.27326997488E+02 -0.26337400260E+02  0.14585699087E+02  0.50528855124E+02  0.29999985636E+02 0.  0.
         12    1    1    2    0    0  0.27326997488E+02  0.26337400260E+02 -0.14585699087E+02  0.40659144876E+02  0.00000000000E+00 0. -1.
         11    1    3    3    0    0  0.27073974069E+01 -0.21589862237E+01 -0.39369966716E+01  0.52432018163E+01  0.51100000000E-03 0. -1.
        -11    1    3    3    0    0 -0.21440430667E+02 -0.78897460626E+01  0.90241554608E+01  0.24563703755E+02  0.51100000000E-03 0.  1.
         12    1    3    3    0    0 -0.85939642283E+01 -0.16288667973E+02  0.94985402978E+01  0.20721949553E+02  0.00000000000E+00 0. -1.
</event>
<event>
 7    1  0.6046695E-013  0.5052887E+02  0.7816164E-02  0.1300439E+00
        -11   -1    0    0    0    0  0.00000000000E+00  0.00000000000E+00  0.45593999997E+02  0.45594000000E+02  0.51100000000E-03 0. -1.
         11   -1    0    0    0    0 -0.00000000000E+00 -0.00000000000E+00 -0.45593999997E+02  0.45594000000E+02  0.51100000000E-03 0.  1.
    9900012    2    1    2    0    0 -0.25699386618E+02  0.31393091459E+02 -0.26796209839E+01  0.50528867785E+02  0.30000024118E+02 0.  0.
         12    1    1    2    0    0  0.25699386618E+02 -0.31393091459E+02  0.26796209839E+01  0.40659132215E+02  0.00000000000E+00 0. -1.
         11    1    3    3    0    0  0.17449630675E+00  0.10827932654E+02 -0.22197974139E+01  0.11054504754E+02  0.51100000000E-03 0. -1.
        -11    1    3    3    0    0 -0.16399010627E+02  0.51246171661E+01 -0.90569367673E+01  0.19422084196E+02  0.51100000000E-03 0.  1.
        -12    1    3    3    0    0 -0.94748722978E+01  0.15440541638E+02  0.85971131973E+01  0.20052278835E+02  0.00000000000E+00 0.  1.
</event>
<event>
 7    1  0.6046695E-013  0.5052883E+02  0.7816164E-02  0.1300439E+00
        -11   -1    0    0    0    0  0.00000000000E+00  0.00000000000E+00  0.45593999997E+02  0.45594000000E+02  0.51100000000E-03 0.  1.
         11   -1    0    0    0    0 -0.00000000000E+00 -0.00000000000E+00 -0.45593999997E+02  0.45594000000E+02  0.51100000000E-03 0. -1.
    9900012    2    1    2    0    0 -0.24033005532E+02  0.26529720750E+02  0.19280982340E+02  0.50528834761E+02  0.29999923739E+02 0.  0.
         12    1    1    2    0    0  0.24033005532E+02 -0.26529720750E+02 -0.19280982340E+02  0.40659165239E+02  0.00000000000E+00 0. -1.
         11    1    3    3    0    0  0.49651549324E+01  0.29700549492E+01 -0.11801815742E+01  0.59048131819E+01  0.51100000000E-03 0. -1.
        -11    1    3    3    0    0 -0.24586141588E+02  0.23705998379E+02  0.21126893251E+02  0.40159660556E+02  0.51100000000E-03 0.  1.
         12    1    3    3    0    0 -0.44120188764E+01 -0.14633257819E+00 -0.66572933674E+00  0.44643610225E+01  0.00000000000E+00 0. -1.
</event>
<event>
 7    1  0.6046695E-013  0.5052887E+02  0.7816164E-02  0.1300439E+00
        -11   -1    0    0    0    0  0.00000000000E+00  0.00000000000E+00  0.45593999997E+02  0.45594000000E+02  0.51100000000E-03 0.  1.
         11   -1    0    0    0    0 -0.00000000000E+00 -0.00000000000E+00 -0.45593999997E+02  0.45594000000E+02  0.51100000000E-03 0. -1.
    9900012    2    1    2    0    0  0.14137952706E+02  0.31025191978E+02  0.22152221069E+02  0.50528866435E+02  0.30000020015E+02 0.  0.
         12    1    1    2    0    0 -0.14137952706E+02 -0.31025191978E+02 -0.22152221069E+02  0.40659133565E+02  0.00000000000E+00 0. -1.
         11    1    3    3    0    0  0.17882027051E+02  0.16093395007E+02  0.17934737328E+02  0.30006983480E+02  0.51100000000E-03 0. -1.
        -11    1    3    3    0    0 -0.22620280149E+01  0.15460603318E+02  0.71580523500E+01  0.17186760585E+02  0.51100000000E-03 0.  1.
         12    1    3    3    0    0 -0.14820463298E+01 -0.52880634785E+00 -0.29405686085E+01  0.33351223693E+01  0.00000000000E+00 0. -1.
</event>
<event>
 7    1  0.6046695E-013  0.5052886E+02  0.7816164E-02  0.1300439E+00
        -11   -1    0    0    0    0  0.00000000000E+00  0.00000000000E+00  0.45593999997E+02  0.45594000000E+02  0.51100000000E-03 0. -1.
         11   -1    0    0    0    0 -0.00000000000E+00 -0.00000000000E+00 -0.45593999997E+02  0.45594000000E+02  0.51100000000E-03 0.  1.
    9900012    2    1    2    0    0 -0.21578382957E+02  0.13446771094E+02 -0.31728909848E+02  0.50528856083E+02  0.29999988551E+02 0.  0.
         12    1    1    2    0    0  0.21578382957E+02 -0.13446771094E+02  0.31728909848E+02  0.40659143917E+02  0.00000000000E+00 0. -1.
         11    1    3    3    0    0 -0.17347388549E+02  0.64996682846E+01 -0.46259476313E+01  0.19093898738E+02  0.51100000000E-03 0. -1.
        -11    1    3    3    0    0 -0.92223659773E+01  0.53471470905E+01 -0.17371735213E+02  0.20381884133E+02  0.51100000000E-03 0.  1.
         12    1    3    3    0    0  0.49913715689E+01  0.15999557191E+01 -0.97312270034E+01  0.11053073212E+02  0.00000000000E+00 0. -1.
</event>
<event>
 7    1  0.6046695E-013  0.5052887E+02  0.7816164E-02  0.1300439E+00
        -11   -1    0    0    0    0  0.00000000000E+00  0.00000000000E+00  0.45593999997E+02  0.45594000000E+02  0.51100000000E-03 0. -1.
         11   -1    0    0    0    0 -0.00000000000E+00 -0.00000000000E+00 -0.45593999997E+02  0.45594000000E+02  0.51100000000E-03 0.  1.
    9900012    2    1    2    0    0 -0.30588136159E+02  0.16468817746E+02 -0.21126019900E+02  0.50528871278E+02  0.30000034735E+02 0.  0.
         12    1    1    2    0    0  0.30588136159E+02 -0.16468817746E+02  0.21126019900E+02  0.40659128722E+02  0.00000000000E+00 0. -1.
         11    1    3    3    0    0  0.20875085725E+01 -0.31028486726E+01 -0.70781892969E+01  0.80053810596E+01  0.51100000000E-03 0. -1.
        -11    1    3    3    0    0 -0.19103207173E+02  0.18184411359E+02 -0.10794334982E+02  0.28497771996E+02  0.51100000000E-03 0.  1.
         12    1    3    3    0    0 -0.13572437558E+02  0.13872550591E+01 -0.32534956220E+01  0.14025718222E+02  0.00000000000E+00 0. -1.
</event>
<event>
 7    1  0.6046695E-013  0.5052886E+02  0.7816164E-02  0.1300439E+00
        -11   -1    0    0    0    0  0.00000000000E+00  0.00000000000E+00  0.45593999997E+02  0.45594000000E+02  0.51100000000E-03 0.  1.
         11   -1    0    0    0    0 -0.00000000000E+00 -0.00000000000E+00 -0.45593999997E+02  0.45594000000E+02  0.51100000000E-03 0. -1.
    9900012    2    1    2    0    0  0.12090417268E+02 -0.14378234824E+02  0.36059031977E+02  0.50528860640E+02  0.30000002403E+02 0.  0.
         12    1    1    2    0    0 -0.12090417268E+02  0.14378234824E+02 -0.36059031977E+02  0.40659139360E+02  0.00000000000E+00 0. -1.
         11    1    3    3    0    0 -0.10929509327E+01 -0.16562306176E+02  0.24269836490E+02  0.29402882361E+02  0.51100000000E-03 0. -1.
        -11    1    3    3    0    0  0.62898048859E+01 -0.26639222128E+00  0.12273426848E+02  0.13793825328E+02  0.51100000000E-03 0.  1.
         12    1    3    3    0    0  0.68935633144E+01  0.24504635732E+01 -0.48423136168E+00  0.73321529515E+01  0.00000000000E+00 0. -1.
</event>
<event>
 7    1  0.6046695E-013  0.5052888E+02  0.7816164E-02  0.1300439E+00
        -11   -1    0    0    0    0  0.00000000000E+00  0.00000000000E+00  0.45593999997E+02  0.45594000000E+02  0.51100000000E-03 0. -1.
         11   -1    0    0    0    0 -0.00000000000E+00 -0.00000000000E+00 -0.45593999997E+02  0.45594000000E+02  0.51100000000E-03 0.  1.
    9900012    2    1    2    0    0 -0.24441162671E+02  0.32191787107E+02 -0.44138916080E+01  0.50528880125E+02  0.30000061629E+02 0.  0.
         12    1    1    2    0    0  0.24441162671E+02 -0.32191787107E+02  0.44138916080E+01  0.40659119875E+02  0.00000000000E+00 0. -1.
         11    1    3    3    0    0 -0.60390183823E+01  0.38926093216E+01 -0.88985107725E+01  0.11437029535E+02  0.51100000000E-03 0. -1.
        -11    1    3    3    0    0 -0.14996551471E+02  0.30901490802E+02  0.27165478155E+01  0.34455454170E+02  0.51100000000E-03 0.  1.
         12    1    3    3    0    0 -0.34055928173E+01 -0.26023130160E+01  0.17680713491E+01  0.46363964203E+01  0.00000000000E+00 0. -1.
</event>
<event>
 7    1  0.6046695E-013  0.5052886E+02  0.7816164E-02  0.1300439E+00
        -11   -1    0    0    0    0  0.00000000000E+00  0.00000000000E+00  0.45593999997E+02  0.45594000000E+02  0.51100000000E-03 0.  1.
         11   -1    0    0    0    0 -0.00000000000E+00 -0.00000000000E+00 -0.45593999997E+02  0.45594000000E+02  0.51100000000E-03 0. -1.
    9900012    2    1    2    0    0 -0.28208950773E+02  0.10025779107E+02  0.27511904629E+02  0.50528855312E+02  0.29999986207E+02 0.  0.
         12    1    1    2    0    0  0.28208950773E+02 -0.10025779107E+02 -0.27511904629E+02  0.40659144688E+02  0.00000000000E+00 0. -1.
         11    1    3    3    0    0 -0.12476507669E+02  0.79971079624E+00  0.48617406252E+01  0.13414145636E+02  0.51100000000E-03 0.  1.
        -11    1    3    3    0    0 -0.59023346906E+00  0.92898389562E+01 -0.64471027664E+00  0.93308700013E+01  0.51100000000E-03 0. -1.
        -12    1    3    3    0    0 -0.15142209635E+02 -0.63770645301E-01  0.23294874280E+02  0.27783839675E+02  0.00000000000E+00 0.  1.
</event>
<event>
 7    1  0.6046695E-013  0.5052885E+02  0.7816164E-02  0.1300439E+00
        -11   -1    0    0    0    0  0.00000000000E+00  0.00000000000E+00  0.45593999997E+02  0.45594000000E+02  0.51100000000E-03 0.  1.
         11   -1    0    0    0    0 -0.00000000000E+00 -0.00000000000E+00 -0.45593999997E+02  0.45594000000E+02  0.51100000000E-03 0. -1.
    9900012    2    1    2    0    0  0.17566675491E+02 -0.75175652491E+01  0.35889612257E+02  0.50528854128E+02  0.29999982607E+02 0.  0.
         12    1    1    2    0    0 -0.17566675491E+02  0.75175652491E+01 -0.35889612257E+02  0.40659145872E+02  0.00000000000E+00 0. -1.
         11    1    3    3    0    0  0.23068255909E+01 -0.11771911842E+02  0.10351677827E+02  0.15844765281E+02  0.51100000000E-03 0. -1.
        -11    1    3    3    0    0  0.18976295139E+02  0.24809547175E+01  0.19073431709E+02  0.27019450604E+02  0.51100000000E-03 0.  1.
        -12    1    3    3    0    0 -0.37164452388E+01  0.17733918758E+01  0.64645027216E+01  0.76646382429E+01  0.00000000000E+00 0.  1.
</event>
<event>
 7    1  0.6046695E-013  0.5052886E+02  0.7816164E-02  0.1300439E+00
        -11   -1    0    0    0    0  0.00000000000E+00  0.00000000000E+00  0.45593999997E+02  0.45594000000E+02  0.51100000000E-03 0.  1.
         11   -1    0    0    0    0 -0.00000000000E+00 -0.00000000000E+00 -0.45593999997E+02  0.45594000000E+02  0.51100000000E-03 0. -1.
    9900012    2    1    2    0    0 -0.10737922963E+02 -0.24757181815E+02  0.30412896721E+02  0.50528864152E+02  0.30000013077E+02 0.  0.
         12    1    1    2    0    0  0.10737922963E+02  0.24757181815E+02 -0.30412896721E+02  0.40659135848E+02  0.00000000000E+00 0. -1.
         11    1    3    3    0    0  0.24700311725E+01 -0.49904823058E+01  0.14875288984E+01  0.57635674822E+01  0.51100000000E-03 0. -1.
        -11    1    3    3    0    0 -0.34690383932E+01  0.55755107406E+01  0.87523861311E+01  0.10941883322E+02  0.51100000000E-03 0.  1.
        -12    1    3    3    0    0 -0.97389157423E+01 -0.25342210250E+02  0.20172981691E+02  0.33823413347E+02  0.00000000000E+00 0.  1.
</event>
<event>
 7    1  0.6046695E-013  0.5052886E+02  0.7816164E-02  0.1300439E+00
        -11   -1    0    0    0    0  0.00000000000E+00  0.00000000000E+00  0.45593999997E+02  0.45594000000E+02  0.51100000000E-03 0.  1.
         11   -1    0    0    0    0 -0.00000000000E+00 -0.00000000000E+00 -0.45593999997E+02  0.45594000000E+02  0.51100000000E-03 0. -1.
    9900012    2    1    2    0    0 -0.14422929832E+02  0.19143927589E+02  0.32842881039E+02  0.50528859534E+02  0.29999999040E+02 0.  0.
         12    1    1    2    0    0  0.14422929832E+02 -0.19143927589E+02 -0.32842881039E+02  0.40659140466E+02  0.00000000000E+00 0. -1.
         11    1    3    3    0    0 -0.69627357201E+01  0.14611160883E+02  0.14492320858E+01  0.16250107229E+02  0.51100000000E-03 0. -1.
        -11    1    3    3    0    0 -0.11019528493E+01  0.45550133809E+01  0.24320286951E+02  0.24767696797E+02  0.51100000000E-03 0.  1.
        -12    1    3    3    0    0 -0.63582412624E+01 -0.22246674623E-01  0.70733620022E+01  0.95110555082E+01  0.00000000000E+00 0.  1.
</event>
<event>
 7    1  0.6046695E-013  0.5052887E+02  0.7816164E-02  0.1300439E+00
        -11   -1    0    0    0    0  0.00000000000E+00  0.00000000000E+00  0.45593999997E+02  0.45594000000E+02  0.51100000000E-03 0.  1.
         11   -1    0    0    0    0 -0.00000000000E+00 -0.00000000000E+00 -0.45593999997E+02  0.45594000000E+02  0.51100000000E-03 0. -1.
    9900012    2    1    2    0    0  0.28156517084E+02  0.28018681421E+02  0.86791984747E+01  0.50528874960E+02  0.30000045928E+02 0.  0.
         12    1    1    2    0    0 -0.28156517084E+02 -0.28018681421E+02 -0.86791984747E+01  0.40659125040E+02  0.00000000000E+00 0. -1.
         11    1    3    3    0    0  0.29825330729E+01 -0.44497185801E+01  0.19855172265E+01  0.57129482661E+01  0.51100000000E-03 0. -1.
        -11    1    3    3    0    0  0.25343654657E+02  0.34157964557E+02  0.69545323895E+01  0.43097945369E+02  0.51100000000E-03 0.  1.
        -12    1    3    3    0    0 -0.16967064538E+00 -0.16895645554E+01 -0.26085114127E+00  0.17179813249E+01  0.00000000000E+00 0.  1.
</event>
<event>
 7    1  0.6046695E-013  0.5052885E+02  0.7816164E-02  0.1300439E+00
        -11   -1    0    0    0    0  0.00000000000E+00  0.00000000000E+00  0.45593999997E+02  0.45594000000E+02  0.51100000000E-03 0.  1.
         11   -1    0    0    0    0 -0.00000000000E+00 -0.00000000000E+00 -0.45593999997E+02  0.45594000000E+02  0.51100000000E-03 0. -1.
    9900012    2    1    2    0    0  0.11793632005E+02 -0.51714566164E+01  0.38565953030E+02  0.50528850322E+02  0.29999971039E+02 0.  0.
         12    1    1    2    0    0 -0.11793632005E+02  0.51714566164E+01 -0.38565953030E+02  0.40659149678E+02  0.00000000000E+00 0. -1.
         11    1    3    3    0    0  0.12686890236E+02 -0.78508873578E+01  0.68560563921E+01  0.16419473977E+02  0.51100000000E-03 0. -1.
        -11    1    3    3    0    0  0.17655802535E+01 -0.35141514564E+01  0.21623392270E+02  0.21978117017E+02  0.51100000000E-03 0.  1.
         12    1    3    3    0    0 -0.26588384840E+01  0.61935821978E+01  0.10086504368E+02  0.12131259328E+02  0.00000000000E+00 0. -1.
</event>
<event>
 7    1  0.6046695E-013  0.5052887E+02  0.7816164E-02  0.1300439E+00
        -11   -1    0    0    0    0  0.00000000000E+00  0.00000000000E+00  0.45593999997E+02  0.45594000000E+02  0.51100000000E-03 0.  1.
         11   -1    0    0    0    0 -0.00000000000E+00 -0.00000000000E+00 -0.45593999997E+02  0.45594000000E+02  0.51100000000E-03 0. -1.
    9900012    2    1    2    0    0 -0.26064172724E+02 -0.26891079599E+02  0.15833315236E+02  0.50528866547E+02  0.30000020356E+02 0.  0.
         12    1    1    2    0    0  0.26064172724E+02  0.26891079599E+02 -0.15833315236E+02  0.40659133453E+02  0.00000000000E+00 0. -1.
         11    1    3    3    0    0 -0.10430853805E+02  0.28816036024E+01 -0.14703904261E+01  0.10921007220E+02  0.51100000000E-03 0. -1.
        -11    1    3    3    0    0 -0.42294017761E+01 -0.17253349664E+02  0.13340430855E+02  0.22215602843E+02  0.51100000000E-03 0.  1.
        -12    1    3    3    0    0 -0.11403917143E+02 -0.12519333537E+02  0.39632748070E+01  0.17392256484E+02  0.00000000000E+00 0.  1.
</event>
<event>
 7    1  0.6046695E-013  0.5052886E+02  0.7816164E-02  0.1300439E+00
        -11   -1    0    0    0    0  0.00000000000E+00  0.00000000000E+00  0.45593999997E+02  0.45594000000E+02  0.51100000000E-03 0. -1.
         11   -1    0    0    0    0 -0.00000000000E+00 -0.00000000000E+00 -0.45593999997E+02  0.45594000000E+02  0.51100000000E-03 0.  1.
    9900012    2    1    2    0    0  0.10875937847E+02  0.10762894037E+02 -0.37670146194E+02  0.50528858022E+02  0.29999994443E+02 0.  0.
         12    1    1    2    0    0 -0.10875937847E+02 -0.10762894037E+02  0.37670146194E+02  0.40659141978E+02  0.00000000000E+00 0. -1.
         11    1    3    3    0    0  0.66659349345E+01  0.19562636178E+01 -0.19993268381E+01  0.72290361709E+01  0.51100000000E-03 0. -1.
        -11    1    3    3    0    0 -0.11468806253E+01 -0.13890806105E+01 -0.30704627419E+02  0.30757422280E+02  0.51100000000E-03 0.  1.
        -12    1    3    3    0    0  0.53568835374E+01  0.10195711030E+02 -0.49661919371E+01  0.12542399571E+02  0.00000000000E+00 0.  1.
</event>
<event>
 7    1  0.6046695E-013  0.5052890E+02  0.7816164E-02  0.1300439E+00
        -11   -1    0    0    0    0  0.00000000000E+00  0.00000000000E+00  0.45593999997E+02  0.45594000000E+02  0.51100000000E-03 0. -1.
         11   -1    0    0    0    0 -0.00000000000E+00 -0.00000000000E+00 -0.45593999997E+02  0.45594000000E+02  0.51100000000E-03 0.  1.
    9900012    2    1    2    0    0  0.67151622403E+01  0.36656569463E+02  0.16259300748E+02  0.50528900778E+02  0.30000124406E+02 0.  0.
         12    1    1    2    0    0 -0.67151622403E+01 -0.36656569463E+02 -0.16259300748E+02  0.40659099222E+02  0.00000000000E+00 0. -1.
         11    1    3    3    0    0 -0.43984027992E+01 -0.34976048217E+01  0.41078955282E+01  0.69608902164E+01  0.51100000000E-03 0. -1.
        -11    1    3    3    0    0  0.56355814687E+01  0.26448050033E+02  0.69812685847E+01  0.27928430682E+02  0.51100000000E-03 0.  1.
         12    1    3    3    0    0  0.54779835708E+01  0.13706124252E+02  0.51701366348E+01  0.15639579880E+02  0.00000000000E+00 0. -1.
</event>
<event>
 7    1  0.6046695E-013  0.5052886E+02  0.7816164E-02  0.1300439E+00
        -11   -1    0    0    0    0  0.00000000000E+00  0.00000000000E+00  0.45593999997E+02  0.45594000000E+02  0.51100000000E-03 0.  1.
         11   -1    0    0    0    0 -0.00000000000E+00 -0.00000000000E+00 -0.45593999997E+02  0.45594000000E+02  0.51100000000E-03 0. -1.
    9900012    2    1    2    0    0 -0.21408247096E+02 -0.29658674422E+02  0.17754312640E+02  0.50528860443E+02  0.30000001802E+02 0.  0.
         12    1    1    2    0    0  0.21408247096E+02  0.29658674422E+02 -0.17754312640E+02  0.40659139557E+02  0.00000000000E+00 0. -1.
         11    1    3    3    0    0 -0.74422950506E+01 -0.49414646588E+01 -0.43159488246E+01  0.99213528872E+01  0.51100000000E-03 0. -1.
        -11    1    3    3    0    0 -0.14155054578E+02 -0.24502475721E+02  0.24942600707E+02  0.37720951961E+02  0.51100000000E-03 0.  1.
        -12    1    3    3    0    0  0.18910253275E+00 -0.21473404243E+00 -0.28723392421E+01  0.28865555943E+01  0.00000000000E+00 0.  1.
</event>
<event>
 7    1  0.6046695E-013  0.5052886E+02  0.7816164E-02  0.1300439E+00
        -11   -1    0    0    0    0  0.00000000000E+00  0.00000000000E+00  0.45593999997E+02  0.45594000000E+02  0.51100000000E-03 0.  1.
         11   -1    0    0    0    0 -0.00000000000E+00 -0.00000000000E+00 -0.45593999997E+02  0.45594000000E+02  0.51100000000E-03 0. -1.
    9900012    2    1    2    0    0  0.15525681483E+02  0.37065867616E+02  0.61838736518E+01  0.50528860548E+02  0.30000002123E+02 0.  0.
         12    1    1    2    0    0 -0.15525681483E+02 -0.37065867616E+02 -0.61838736518E+01  0.40659139452E+02  0.00000000000E+00 0. -1.
         11    1    3    3    0    0 -0.23221535498E+00 -0.16881866783E+01  0.47510356626E+01  0.50473991680E+01  0.51100000000E-03 0. -1.
        -11    1    3    3    0    0  0.12206006787E+02  0.25456515513E+02 -0.73266500695E+01  0.29166771938E+02  0.51100000000E-03 0.  1.
         12    1    3    3    0    0  0.35518900509E+01  0.13297538780E+02  0.87594880587E+01  0.16314689442E+02  0.00000000000E+00 0. -1.
</event>
<event>
 7    1  0.6046695E-013  0.5052886E+02  0.7816164E-02  0.1300439E+00
        -11   -1    0    0    0    0  0.00000000000E+00  0.00000000000E+00  0.45593999997E+02  0.45594000000E+02  0.51100000000E-03 0. -1.
         11   -1    0    0    0    0 -0.00000000000E+00 -0.00000000000E+00 -0.45593999997E+02  0.45594000000E+02  0.51100000000E-03 0.  1.
    9900012    2    1    2    0    0 -0.38318067972E+02 -0.65144113160E+01 -0.11935396094E+02  0.50528861202E+02  0.30000004110E+02 0.  0.
         12    1    1    2    0    0  0.38318067972E+02  0.65144113160E+01  0.11935396094E+02  0.40659138798E+02  0.00000000000E+00 0. -1.
         11    1    3    3    0    0 -0.77699399523E+00  0.33685988913E+01 -0.22608818931E+01  0.41307100303E+01  0.51100000000E-03 0. -1.
        -11    1    3    3    0    0 -0.39848098914E+02 -0.80557247531E+01 -0.51197764557E+01  0.40975331598E+02  0.51100000000E-03 0.  1.
         12    1    3    3    0    0  0.23070249380E+01 -0.18272854541E+01 -0.45547377454E+01  0.54228195733E+01  0.00000000000E+00 0. -1.
</event>
<event>
 7    1  0.6046695E-013  0.5052886E+02  0.7816164E-02  0.1300439E+00
        -11   -1    0    0    0    0  0.00000000000E+00  0.00000000000E+00  0.45593999997E+02  0.45594000000E+02  0.51100000000E-03 0.  1.
         11   -1    0    0    0    0 -0.00000000000E+00 -0.00000000000E+00 -0.45593999997E+02  0.45594000000E+02  0.51100000000E-03 0. -1.
    9900012    2    1    2    0    0  0.31915580323E+01  0.30204024307E+02  0.27031404335E+02  0.50528856535E+02  0.29999989923E+02 0.  0.
         12    1    1    2    0    0 -0.31915580323E+01 -0.30204024307E+02 -0.27031404335E+02  0.40659143465E+02  0.00000000000E+00 0. -1.
         11    1    3    3    0    0 -0.10289460236E+02  0.11198698797E+02  0.63376931813E+01  0.16475745865E+02  0.51100000000E-03 0. -1.
        -11    1    3    3    0    0  0.10401415244E+02  0.16751332185E+02  0.88559315816E+01  0.21615367068E+02  0.51100000000E-03 0.  1.
        -12    1    3    3    0    0  0.30796030237E+01  0.22539933244E+01  0.11837779572E+02  0.12437743601E+02  0.00000000000E+00 0.  1.
</event>
<event>
 7    1  0.6046695E-013  0.5052886E+02  0.7816164E-02  0.1300439E+00
        -11   -1    0    0    0    0  0.00000000000E+00  0.00000000000E+00  0.45593999997E+02  0.45594000000E+02  0.51100000000E-03 0. -1.
         11   -1    0    0    0    0 -0.00000000000E+00 -0.00000000000E+00 -0.45593999997E+02  0.45594000000E+02  0.51100000000E-03 0.  1.
    9900012    2    1    2    0    0  0.33302861584E+02 -0.19450762150E+02 -0.12874507170E+02  0.50528859911E+02  0.30000000186E+02 0.  0.
         12    1    1    2    0    0 -0.33302861584E+02  0.19450762150E+02  0.12874507170E+02  0.40659140089E+02  0.00000000000E+00 0. -1.
         11    1    3    3    0    0  0.21980766060E+02 -0.51568689938E+01 -0.12182338664E+01  0.22610428311E+02  0.51100000000E-03 0. -1.
        -11    1    3    3    0    0 -0.37199607787E+01 -0.69660110529E+01 -0.72099907301E+00  0.79298964752E+01  0.51100000000E-03 0.  1.
        -12    1    3    3    0    0  0.15042056303E+02 -0.73278821034E+01 -0.10935274231E+02  0.19988535125E+02  0.00000000000E+00 0.  1.
</event>
<event>
 7    1  0.6046695E-013  0.5052886E+02  0.7816164E-02  0.1300439E+00
        -11   -1    0    0    0    0  0.00000000000E+00  0.00000000000E+00  0.45593999997E+02  0.45594000000E+02  0.51100000000E-03 0. -1.
         11   -1    0    0    0    0 -0.00000000000E+00 -0.00000000000E+00 -0.45593999997E+02  0.45594000000E+02  0.51100000000E-03 0.  1.
    9900012    2    1    2    0    0 -0.64005873263E+01  0.40150882295E+02 -0.32347975544E+00  0.50528861958E+02  0.30000006407E+02 0.  0.
         12    1    1    2    0    0  0.64005873263E+01 -0.40150882295E+02  0.32347975544E+00  0.40659138042E+02  0.00000000000E+00 0. -1.
         11    1    3    3    0    0  0.33541001154E+01 -0.30795873002E+01  0.66758414896E+00  0.46021206395E+01  0.51100000000E-03 0. -1.
        -11    1    3    3    0    0 -0.29794791859E+01  0.34811517843E+02  0.92787090748E+00  0.34951108930E+02  0.51100000000E-03 0.  1.
         12    1    3    3    0    0 -0.67752082558E+01  0.84189517524E+01 -0.19189348119E+01  0.10975632389E+02  0.00000000000E+00 0. -1.
</event>
<event>
 7    1  0.6046695E-013  0.5052887E+02  0.7816164E-02  0.1300439E+00
        -11   -1    0    0    0    0  0.00000000000E+00  0.00000000000E+00  0.45593999997E+02  0.45594000000E+02  0.51100000000E-03 0.  1.
         11   -1    0    0    0    0 -0.00000000000E+00 -0.00000000000E+00 -0.45593999997E+02  0.45594000000E+02  0.51100000000E-03 0. -1.
    9900012    2    1    2    0    0  0.25600829898E+02  0.62628700648E+01  0.30960275176E+02  0.50528872219E+02  0.30000037597E+02 0.  0.
         12    1    1    2    0    0 -0.25600829898E+02 -0.62628700648E+01 -0.30960275176E+02  0.40659127781E+02  0.00000000000E+00 0. -1.
         11    1    3    3    0    0  0.91352004482E+01 -0.92930100961E+01  0.20059859213E+01  0.13184684435E+02  0.51100000000E-03 0. -1.
        -11    1    3    3    0    0  0.11831881966E+02  0.13555692941E+02  0.18905697176E+02  0.26099341523E+02  0.51100000000E-03 0.  1.
         12    1    3    3    0    0  0.46337474834E+01  0.20001872202E+01  0.10048592079E+02  0.11244846261E+02  0.00000000000E+00 0. -1.
</event>
<event>
 7    1  0.6046695E-013  0.5052886E+02  0.7816164E-02  0.1300439E+00
        -11   -1    0    0    0    0  0.00000000000E+00  0.00000000000E+00  0.45593999997E+02  0.45594000000E+02  0.51100000000E-03 0. -1.
         11   -1    0    0    0    0 -0.00000000000E+00 -0.00000000000E+00 -0.45593999997E+02  0.45594000000E+02  0.51100000000E-03 0.  1.
    9900012    2    1    2    0    0 -0.20804891847E+02  0.14461708575E+01 -0.34903167967E+02  0.50528855038E+02  0.29999985374E+02 0.  0.
         12    1    1    2    0    0  0.20804891847E+02 -0.14461708575E+01  0.34903167967E+02  0.40659144962E+02  0.00000000000E+00 0. -1.
         11    1    3    3    0    0  0.42297031914E+01  0.83197672596E+01 -0.82536359797E+01  0.12459190322E+02  0.51100000000E-03 0. -1.
        -11    1    3    3    0    0 -0.18735286833E+02 -0.70770564404E+01 -0.15747937691E+02  0.25477308381E+02  0.51100000000E-03 0.  1.
         12    1    3    3    0    0 -0.62993082051E+01  0.20346003829E+00 -0.10901594297E+02  0.12592356335E+02  0.00000000000E+00 0. -1.
</event>
<event>
 7    1  0.6046695E-013  0.5052886E+02  0.7816164E-02  0.1300439E+00
        -11   -1    0    0    0    0  0.00000000000E+00  0.00000000000E+00  0.45593999997E+02  0.45594000000E+02  0.51100000000E-03 0.  1.
         11   -1    0    0    0    0 -0.00000000000E+00 -0.00000000000E+00 -0.45593999997E+02  0.45594000000E+02  0.51100000000E-03 0. -1.
    9900012    2    1    2    0    0 -0.40200982881E+02 -0.62923550317E-01 -0.60862560252E+01  0.50528862081E+02  0.30000006781E+02 0.  0.
         12    1    1    2    0    0  0.40200982881E+02  0.62923550317E-01  0.60862560252E+01  0.40659137919E+02  0.00000000000E+00 0. -1.
         11    1    3    3    0    0 -0.90940179655E+01 -0.11727547006E+02 -0.63650033906E+01  0.16147748758E+02  0.51100000000E-03 0. -1.
        -11    1    3    3    0    0 -0.15167492534E+02  0.70366399179E+01  0.43794833058E+01  0.17284299389E+02  0.51100000000E-03 0.  1.
         12    1    3    3    0    0 -0.15939472381E+02  0.46279835375E+01 -0.41007359404E+01  0.17096813933E+02  0.00000000000E+00 0. -1.
</event>
<event>
 7    1  0.6046695E-013  0.5052885E+02  0.7816164E-02  0.1300439E+00
        -11   -1    0    0    0    0  0.00000000000E+00  0.00000000000E+00  0.45593999997E+02  0.45594000000E+02  0.51100000000E-03 0.  1.
         11   -1    0    0    0    0 -0.00000000000E+00 -0.00000000000E+00 -0.45593999997E+02  0.45594000000E+02  0.51100000000E-03 0. -1.
    9900012    2    1    2    0    0 -0.29294216563E+02  0.28093312162E+02  0.24043310079E+01  0.50528854413E+02  0.29999983474E+02 0.  0.
         12    1    1    2    0    0  0.29294216563E+02 -0.28093312162E+02 -0.24043310079E+01  0.40659145587E+02  0.00000000000E+00 0. -1.
         11    1    3    3    0    0 -0.13470868761E+02  0.90854186913E+01 -0.77555056682E+01  0.18004360761E+02  0.51100000000E-03 0. -1.
        -11    1    3    3    0    0 -0.14717490298E+02  0.61849096430E+01  0.11366726758E+02  0.19597451503E+02  0.51100000000E-03 0.  1.
        -12    1    3    3    0    0 -0.11058575037E+01  0.12822983828E+02 -0.12068900818E+01  0.12927042149E+02  0.00000000000E+00 0.  1.
</event>
<event>
 7    1  0.6046695E-013  0.5052887E+02  0.7816164E-02  0.1300439E+00
        -11   -1    0    0    0    0  0.00000000000E+00  0.00000000000E+00  0.45593999997E+02  0.45594000000E+02  0.51100000000E-03 0.  1.
         11   -1    0    0    0    0 -0.00000000000E+00 -0.00000000000E+00 -0.45593999997E+02  0.45594000000E+02  0.51100000000E-03 0. -1.
    9900012    2    1    2    0    0 -0.29339518729E+02 -0.25520693559E+02 -0.11876519056E+02  0.50528869859E+02  0.30000030422E+02 0.  0.
         12    1    1    2    0    0  0.29339518729E+02  0.25520693559E+02  0.11876519056E+02  0.40659130141E+02  0.00000000000E+00 0. -1.
         11    1    3    3    0    0 -0.21260916308E+02 -0.29639512997E+02 -0.98949730930E+01  0.37794679331E+02  0.51100000000E-03 0. -1.
        -11    1    3    3    0    0 -0.53850289540E+01  0.63114792462E+00  0.29074813033E+01  0.61522623747E+01  0.51100000000E-03 0.  1.
         12    1    3    3    0    0 -0.26935734669E+01  0.34876715131E+01 -0.48890272662E+01  0.65819281533E+01  0.00000000000E+00 0. -1.
</event>
<event>
 7    1  0.6046695E-013  0.5052885E+02  0.7816164E-02  0.1300439E+00
        -11   -1    0    0    0    0  0.00000000000E+00  0.00000000000E+00  0.45593999997E+02  0.45594000000E+02  0.51100000000E-03 0. -1.
         11   -1    0    0    0    0 -0.00000000000E+00 -0.00000000000E+00 -0.45593999997E+02  0.45594000000E+02  0.51100000000E-03 0.  1.
    9900012    2    1    2    0    0  0.81667775751E+01  0.18839115065E+02 -0.35093564470E+02  0.50528846300E+02  0.29999958814E+02 0.  0.
         12    1    1    2    0    0 -0.81667775751E+01 -0.18839115065E+02  0.35093564470E+02  0.40659153700E+02  0.00000000000E+00 0. -1.
         11    1    3    3    0    0 -0.91219616125E+00 -0.28002166747E+01 -0.21885750247E+02  0.22083011104E+02  0.51100000000E-03 0. -1.
        -11    1    3    3    0    0  0.97867939843E+01  0.18145514780E+02 -0.13832138425E+02  0.24826781845E+02  0.51100000000E-03 0.  1.
         12    1    3    3    0    0 -0.70782024795E+00  0.34938169594E+01  0.62432420203E+00  0.36190533511E+01  0.00000000000E+00 0. -1.
</event>
<event>
 7    1  0.6046695E-013  0.5052887E+02  0.7816164E-02  0.1300439E+00
        -11   -1    0    0    0    0  0.00000000000E+00  0.00000000000E+00  0.45593999997E+02  0.45594000000E+02  0.51100000000E-03 0.  1.
         11   -1    0    0    0    0 -0.00000000000E+00 -0.00000000000E+00 -0.45593999997E+02  0.45594000000E+02  0.51100000000E-03 0. -1.
    9900012    2    1    2    0    0  0.32421722563E+02 -0.12684553644E+02  0.21002359019E+02  0.50528867207E+02  0.30000022363E+02 0.  0.
         12    1    1    2    0    0 -0.32421722563E+02  0.12684553644E+02 -0.21002359019E+02  0.40659132793E+02  0.00000000000E+00 0. -1.
         11    1    3    3    0    0  0.14590356119E+02 -0.88187445040E+01 -0.15994369279E+01  0.17123286631E+02  0.51100000000E-03 0. -1.
        -11    1    3    3    0    0  0.74122338211E+00 -0.56679238142E+01  0.11789619530E+02  0.13102286113E+02  0.51100000000E-03 0.  1.
         12    1    3    3    0    0  0.17090143062E+02  0.18021146743E+01  0.10812176416E+02  0.20303294463E+02  0.00000000000E+00 0. -1.
</event>
<event>
 7    1  0.6046695E-013  0.5052885E+02  0.7816164E-02  0.1300439E+00
        -11   -1    0    0    0    0  0.00000000000E+00  0.00000000000E+00  0.45593999997E+02  0.45594000000E+02  0.51100000000E-03 0.  1.
         11   -1    0    0    0    0 -0.00000000000E+00 -0.00000000000E+00 -0.45593999997E+02  0.45594000000E+02  0.51100000000E-03 0. -1.
    9900012    2    1    2    0    0 -0.18688570669E+02 -0.24118494740E+02  0.26873810698E+02  0.50528853875E+02  0.29999981838E+02 0.  0.
         12    1    1    2    0    0  0.18688570669E+02  0.24118494740E+02 -0.26873810698E+02  0.40659146125E+02  0.00000000000E+00 0. -1.
         11    1    3    3    0    0 -0.16466289555E+02 -0.12718047436E+02  0.26104520753E+01  0.20969069664E+02  0.51100000000E-03 0.  1.
        -11    1    3    3    0    0  0.31762528257E+01 -0.76190481118E+01  0.20188187639E+02  0.21810579922E+02  0.51100000000E-03 0. -1.
         12    1    3    3    0    0 -0.53985339402E+01 -0.37813991928E+01  0.40751709841E+01  0.77492042887E+01  0.00000000000E+00 0. -1.
</event>
<event>
 7    1  0.6046695E-013  0.5052887E+02  0.7816164E-02  0.1300439E+00
        -11   -1    0    0    0    0  0.00000000000E+00  0.00000000000E+00  0.45593999997E+02  0.45594000000E+02  0.51100000000E-03 0.  1.
         11   -1    0    0    0    0 -0.00000000000E+00 -0.00000000000E+00 -0.45593999997E+02  0.45594000000E+02  0.51100000000E-03 0. -1.
    9900012    2    1    2    0    0 -0.31946850070E+02 -0.24212744161E+02  0.68049060675E+01  0.50528868728E+02  0.30000026985E+02 0.  0.
         12    1    1    2    0    0  0.31946850070E+02  0.24212744161E+02 -0.68049060675E+01  0.40659131272E+02  0.00000000000E+00 0. -1.
         11    1    3    3    0    0 -0.52377182975E+01 -0.13434306781E+02 -0.65014558873E+01  0.15817181182E+02  0.51100000000E-03 0. -1.
        -11    1    3    3    0    0 -0.57509136940E+01 -0.91404245590E+01  0.65512850500E+01  0.12630902798E+02  0.51100000000E-03 0.  1.
         12    1    3    3    0    0 -0.20958218079E+02 -0.16380128214E+01  0.67550769047E+01  0.22080784747E+02  0.00000000000E+00 0. -1.
</event>
<event>
 7    1  0.6046695E-013  0.5052886E+02  0.7816164E-02  0.1300439E+00
        -11   -1    0    0    0    0  0.00000000000E+00  0.00000000000E+00  0.45593999997E+02  0.45594000000E+02  0.51100000000E-03 0. -1.
         11   -1    0    0    0    0 -0.00000000000E+00 -0.00000000000E+00 -0.45593999997E+02  0.45594000000E+02  0.51100000000E-03 0.  1.
    9900012    2    1    2    0    0  0.21934013521E+02  0.10648727467E+02 -0.32537197980E+02  0.50528860828E+02  0.30000002974E+02 0.  0.
         12    1    1    2    0    0 -0.21934013521E+02 -0.10648727467E+02  0.32537197980E+02  0.40659139172E+02  0.00000000000E+00 0. -1.
         11    1    3    3    0    0  0.70162862908E+01  0.11342681714E+02 -0.15155736131E+02  0.20188636401E+02  0.51100000000E-03 0. -1.
        -11    1    3    3    0    0  0.59618903788E+00 -0.23440127927E+01  0.39276752566E+01  0.46126424665E+01  0.51100000000E-03 0.  1.
        -12    1    3    3    0    0  0.14321538192E+02  0.16500585448E+01 -0.21309137106E+02  0.25727581961E+02  0.00000000000E+00 0.  1.
</event>
<event>
 7    1  0.6046695E-013  0.5052886E+02  0.7816164E-02  0.1300439E+00
        -11   -1    0    0    0    0  0.00000000000E+00  0.00000000000E+00  0.45593999997E+02  0.45594000000E+02  0.51100000000E-03 0.  1.
         11   -1    0    0    0    0 -0.00000000000E+00 -0.00000000000E+00 -0.45593999997E+02  0.45594000000E+02  0.51100000000E-03 0. -1.
    9900012    2    1    2    0    0  0.94942960988E+01  0.10832223764E+01  0.39520254679E+02  0.50528861310E+02  0.30000004439E+02 0.  0.
         12    1    1    2    0    0 -0.94942960988E+01 -0.10832223764E+01 -0.39520254679E+02  0.40659138690E+02  0.00000000000E+00 0. -1.
         11    1    3    3    0    0  0.27697093977E+01  0.78020664188E+01 -0.84407748133E-01  0.82795323226E+01  0.51100000000E-03 0. -1.
        -11    1    3    3    0    0  0.62996406621E+01  0.14998156489E+00  0.28474236120E+02  0.29163163234E+02  0.51100000000E-03 0.  1.
         12    1    3    3    0    0  0.42494603902E+00 -0.68688256073E+01  0.11130426307E+02  0.13086165754E+02  0.00000000000E+00 0. -1.
</event>
<event>
 7    1  0.6046695E-013  0.5052886E+02  0.7816164E-02  0.1300439E+00
        -11   -1    0    0    0    0  0.00000000000E+00  0.00000000000E+00  0.45593999997E+02  0.45594000000E+02  0.51100000000E-03 0.  1.
         11   -1    0    0    0    0 -0.00000000000E+00 -0.00000000000E+00 -0.45593999997E+02  0.45594000000E+02  0.51100000000E-03 0. -1.
    9900012    2    1    2    0    0 -0.21690176692E+02 -0.20187380490E+02  0.27841900479E+02  0.50528861811E+02  0.30000005961E+02 0.  0.
         12    1    1    2    0    0  0.21690176692E+02  0.20187380490E+02 -0.27841900479E+02  0.40659138189E+02  0.00000000000E+00 0. -1.
         11    1    3    3    0    0 -0.55645841466E+01  0.54747419738E+00  0.21388245863E+00  0.55955402499E+01  0.51100000000E-03 0. -1.
        -11    1    3    3    0    0 -0.15160976993E+02 -0.15230501125E+02  0.31501742021E+02  0.38133753271E+02  0.51100000000E-03 0.  1.
        -12    1    3    3    0    0 -0.96461555249E+00 -0.55043535622E+01 -0.38737240007E+01  0.67995682903E+01  0.00000000000E+00 0.  1.
</event>
<event>
 7    1  0.6046695E-013  0.5052886E+02  0.7816164E-02  0.1300439E+00
        -11   -1    0    0    0    0  0.00000000000E+00  0.00000000000E+00  0.45593999997E+02  0.45594000000E+02  0.51100000000E-03 0.  1.
         11   -1    0    0    0    0 -0.00000000000E+00 -0.00000000000E+00 -0.45593999997E+02  0.45594000000E+02  0.51100000000E-03 0. -1.
    9900012    2    1    2    0    0 -0.19435164847E+02 -0.34388836493E+02  0.96357721229E+01  0.50528858195E+02  0.29999994968E+02 0.  0.
         12    1    1    2    0    0  0.19435164847E+02  0.34388836493E+02 -0.96357721229E+01  0.40659141805E+02  0.00000000000E+00 0. -1.
         11    1    3    3    0    0 -0.74355476664E+01 -0.21167305359E+02  0.12170116308E+02  0.25523595288E+02  0.51100000000E-03 0.  1.
        -11    1    3    3    0    0 -0.67482902468E+01 -0.14740390910E+01 -0.83901593898E+01  0.10867703867E+02  0.51100000000E-03 0. -1.
         12    1    3    3    0    0 -0.52513269340E+01 -0.11747492043E+02  0.58558152049E+01  0.14137559039E+02  0.00000000000E+00 0. -1.
</event>
<event>
 7    1  0.6046695E-013  0.5052885E+02  0.7816164E-02  0.1300439E+00
        -11   -1    0    0    0    0  0.00000000000E+00  0.00000000000E+00  0.45593999997E+02  0.45594000000E+02  0.51100000000E-03 0.  1.
         11   -1    0    0    0    0 -0.00000000000E+00 -0.00000000000E+00 -0.45593999997E+02  0.45594000000E+02  0.51100000000E-03 0. -1.
    9900012    2    1    2    0    0 -0.19546246307E+02  0.35639875466E+02  0.95398217358E+00  0.50528849124E+02  0.29999967398E+02 0.  0.
         12    1    1    2    0    0  0.19546246307E+02 -0.35639875466E+02 -0.95398217358E+00  0.40659150876E+02  0.00000000000E+00 0. -1.
         11    1    3    3    0    0 -0.49541915651E+01 -0.16109434069E+01 -0.34102108080E+01  0.62264508944E+01  0.51100000000E-03 0. -1.
        -11    1    3    3    0    0 -0.41942211370E+01  0.23090249000E+02 -0.55701025974E+01  0.24120056655E+02  0.51100000000E-03 0.  1.
         12    1    3    3    0    0 -0.10397833605E+02  0.14160569873E+02  0.99342955790E+01  0.20182341575E+02  0.00000000000E+00 0. -1.
</event>
<event>
 7    1  0.6046695E-013  0.5052886E+02  0.7816164E-02  0.1300439E+00
        -11   -1    0    0    0    0  0.00000000000E+00  0.00000000000E+00  0.45593999997E+02  0.45594000000E+02  0.51100000000E-03 0. -1.
         11   -1    0    0    0    0 -0.00000000000E+00 -0.00000000000E+00 -0.45593999997E+02  0.45594000000E+02  0.51100000000E-03 0.  1.
    9900012    2    1    2    0    0  0.38742171869E+02  0.87855646215E+01 -0.86616166601E+01  0.50528860436E+02  0.30000001783E+02 0.  0.
         12    1    1    2    0    0 -0.38742171869E+02 -0.87855646215E+01  0.86616166601E+01  0.40659139564E+02  0.00000000000E+00 0. -1.
         11    1    3    3    0    0  0.81434371445E+01  0.73213214783E+01  0.43657355449E+01  0.11788849131E+02  0.51100000000E-03 0. -1.
        -11    1    3    3    0    0  0.20671860359E+02  0.98910874553E+01 -0.11468010836E+02  0.25625664763E+02  0.51100000000E-03 0.  1.
         12    1    3    3    0    0  0.99268743662E+01 -0.84268443122E+01 -0.15593413687E+01  0.13114346543E+02  0.00000000000E+00 0. -1.
</event>
<event>
 7    1  0.6046695E-013  0.5052887E+02  0.7816164E-02  0.1300439E+00
        -11   -1    0    0    0    0  0.00000000000E+00  0.00000000000E+00  0.45593999997E+02  0.45594000000E+02  0.51100000000E-03 0. -1.
         11   -1    0    0    0    0 -0.00000000000E+00 -0.00000000000E+00 -0.45593999997E+02  0.45594000000E+02  0.51100000000E-03 0.  1.
    9900012    2    1    2    0    0 -0.39801889226E+02  0.82822246380E+01  0.61602362098E+00  0.50528866758E+02  0.30000020998E+02 0.  0.
         12    1    1    2    0    0  0.39801889226E+02 -0.82822246380E+01 -0.61602362098E+00  0.40659133242E+02  0.00000000000E+00 0. -1.
         11    1    3    3    0    0 -0.27283596148E+02  0.14607344303E+01  0.94080667870E+01  0.28897060140E+02  0.51100000000E-03 0. -1.
        -11    1    3    3    0    0 -0.85854196371E+01 -0.30598261308E+01 -0.44764806757E+01  0.10154351077E+02  0.51100000000E-03 0.  1.
         12    1    3    3    0    0 -0.39328734408E+01  0.98813163385E+01 -0.43155624903E+01  0.11477455541E+02  0.00000000000E+00 0. -1.
</event>
<event>
 7    1  0.6046695E-013  0.5052887E+02  0.7816164E-02  0.1300439E+00
        -11   -1    0    0    0    0  0.00000000000E+00  0.00000000000E+00  0.45593999997E+02  0.45594000000E+02  0.51100000000E-03 0. -1.
         11   -1    0    0    0    0 -0.00000000000E+00 -0.00000000000E+00 -0.45593999997E+02  0.45594000000E+02  0.51100000000E-03 0.  1.
    9900012    2    1    2    0    0  0.30682552559E+02  0.62728990529E+00 -0.26671194607E+02  0.50528866390E+02  0.30000019879E+02 0.  0.
         12    1    1    2    0    0 -0.30682552559E+02 -0.62728990529E+00  0.26671194607E+02  0.40659133610E+02  0.00000000000E+00 0. -1.
         11    1    3    3    0    0  0.12210016145E+02  0.43174452370E+01  0.81441038871E+00  0.12976443741E+02  0.51100000000E-03 0. -1.
        -11    1    3    3    0    0  0.13003710602E+02  0.32178134629E+01 -0.25057094878E+02  0.28413180338E+02  0.51100000000E-03 0.  1.
        -12    1    3    3    0    0  0.54688258124E+01 -0.69079687946E+01 -0.24285101171E+01  0.91392423112E+01  0.00000000000E+00 0.  1.
</event>
<event>
 7    1  0.6046695E-013  0.5052886E+02  0.7816164E-02  0.1300439E+00
        -11   -1    0    0    0    0  0.00000000000E+00  0.00000000000E+00  0.45593999997E+02  0.45594000000E+02  0.51100000000E-03 0. -1.
         11   -1    0    0    0    0 -0.00000000000E+00 -0.00000000000E+00 -0.45593999997E+02  0.45594000000E+02  0.51100000000E-03 0.  1.
    9900012    2    1    2    0    0  0.11558382837E+02 -0.38068873087E+02  0.83863423500E+01  0.50528855273E+02  0.29999986087E+02 0.  0.
         12    1    1    2    0    0 -0.11558382837E+02  0.38068873087E+02 -0.83863423500E+01  0.40659144727E+02  0.00000000000E+00 0. -1.
         11    1    3    3    0    0  0.39558383818E-01 -0.21551695886E+02  0.12549220580E+02  0.24939127849E+02  0.51100000000E-03 0. -1.
        -11    1    3    3    0    0  0.81414768513E+01 -0.72433389407E+01 -0.94225545408E+01  0.14406045213E+02  0.51100000000E-03 0.  1.
        -12    1    3    3    0    0  0.33773476019E+01 -0.92738382603E+01  0.52596763105E+01  0.11183682211E+02  0.00000000000E+00 0.  1.
</event>
<event>
 7    1  0.6046695E-013  0.5052886E+02  0.7816164E-02  0.1300439E+00
        -11   -1    0    0    0    0  0.00000000000E+00  0.00000000000E+00  0.45593999997E+02  0.45594000000E+02  0.51100000000E-03 0.  1.
         11   -1    0    0    0    0 -0.00000000000E+00 -0.00000000000E+00 -0.45593999997E+02  0.45594000000E+02  0.51100000000E-03 0. -1.
    9900012    2    1    2    0    0 -0.25176960145E+02  0.30734625360E+02  0.86411429646E+01  0.50528857487E+02  0.29999992816E+02 0.  0.
         12    1    1    2    0    0  0.25176960145E+02 -0.30734625360E+02 -0.86411429646E+01  0.40659142513E+02  0.00000000000E+00 0. -1.
         11    1    3    3    0    0 -0.15169912814E+02  0.44837549029E+01  0.10646873535E+02  0.19067937202E+02  0.51100000000E-03 0. -1.
        -11    1    3    3    0    0 -0.10250402337E+02  0.21130559421E+02  0.37171964365E+01  0.23777906533E+02  0.51100000000E-03 0.  1.
         12    1    3    3    0    0  0.24335500578E+00  0.51203110366E+01 -0.57229270069E+01  0.76830137509E+01  0.00000000000E+00 0. -1.
</event>
<event>
 7    1  0.6046695E-013  0.5052889E+02  0.7816164E-02  0.1300439E+00
        -11   -1    0    0    0    0  0.00000000000E+00  0.00000000000E+00  0.45593999997E+02  0.45594000000E+02  0.51100000000E-03 0.  1.
         11   -1    0    0    0    0 -0.00000000000E+00 -0.00000000000E+00 -0.45593999997E+02  0.45594000000E+02  0.51100000000E-03 0. -1.
    9900012    2    1    2    0    0 -0.17304758130E+01 -0.40310758274E+02 -0.50210615145E+01  0.50528894773E+02  0.30000106152E+02 0.  0.
         12    1    1    2    0    0  0.17304758130E+01  0.40310758274E+02  0.50210615145E+01  0.40659105227E+02  0.00000000000E+00 0. -1.
         11    1    3    3    0    0 -0.85713442988E+01 -0.49963296528E+00 -0.18831206298E+00  0.85879588893E+01  0.51100000000E-03 0. -1.
        -11    1    3    3    0    0  0.74271111216E+01 -0.34350117161E+02 -0.73418311880E+01  0.35902576705E+02  0.51100000000E-03 0.  1.
        -12    1    3    3    0    0 -0.58624263576E+00 -0.54610081474E+01  0.25090817365E+01  0.60383591790E+01  0.00000000000E+00 0.  1.
</event>
<event>
 7    1  0.6046695E-013  0.5052887E+02  0.7816164E-02  0.1300439E+00
        -11   -1    0    0    0    0  0.00000000000E+00  0.00000000000E+00  0.45593999997E+02  0.45594000000E+02  0.51100000000E-03 0. -1.
         11   -1    0    0    0    0 -0.00000000000E+00 -0.00000000000E+00 -0.45593999997E+02  0.45594000000E+02  0.51100000000E-03 0.  1.
    9900012    2    1    2    0    0  0.24321909061E+02  0.99379013980E+01 -0.31029782068E+02  0.50528874090E+02  0.30000043284E+02 0.  0.
         12    1    1    2    0    0 -0.24321909061E+02 -0.99379013980E+01  0.31029782068E+02  0.40659125910E+02  0.00000000000E+00 0. -1.
         11    1    3    3    0    0 -0.31795917899E+01 -0.21222204764E+01 -0.79579142379E+01  0.88284779538E+01  0.51100000000E-03 0. -1.
        -11    1    3    3    0    0  0.26929863663E+02  0.88443634557E+01 -0.25095656139E+02  0.37858054350E+02  0.51100000000E-03 0.  1.
        -12    1    3    3    0    0  0.57163718835E+00  0.32157584187E+01  0.20237883091E+01  0.38423417863E+01  0.00000000000E+00 0.  1.
</event>
<event>
 7    1  0.6046695E-013  0.5052887E+02  0.7816164E-02  0.1300439E+00
        -11   -1    0    0    0    0  0.00000000000E+00  0.00000000000E+00  0.45593999997E+02  0.45594000000E+02  0.51100000000E-03 0. -1.
         11   -1    0    0    0    0 -0.00000000000E+00 -0.00000000000E+00 -0.45593999997E+02  0.45594000000E+02  0.51100000000E-03 0.  1.
    9900012    2    1    2    0    0  0.32526258869E+02 -0.16434031242E+02  0.18031361319E+02  0.50528869538E+02  0.30000029449E+02 0.  0.
         12    1    1    2    0    0 -0.32526258869E+02  0.16434031242E+02 -0.18031361319E+02  0.40659130462E+02  0.00000000000E+00 0. -1.
         11    1    3    3    0    0  0.25426654166E+02  0.78241490553E-01  0.13899095365E+02  0.28977676167E+02  0.51100000000E-03 0. -1.
        -11    1    3    3    0    0  0.94175459061E+00 -0.11432024069E+02  0.65512874933E+01  0.13209748071E+02  0.51100000000E-03 0.  1.
        -12    1    3    3    0    0  0.61578501120E+01 -0.50802486638E+01 -0.24190215396E+01  0.83414453003E+01  0.00000000000E+00 0.  1.
</event>
<event>
 7    1  0.6046695E-013  0.5052886E+02  0.7816164E-02  0.1300439E+00
        -11   -1    0    0    0    0  0.00000000000E+00  0.00000000000E+00  0.45593999997E+02  0.45594000000E+02  0.51100000000E-03 0. -1.
         11   -1    0    0    0    0 -0.00000000000E+00 -0.00000000000E+00 -0.45593999997E+02  0.45594000000E+02  0.51100000000E-03 0.  1.
    9900012    2    1    2    0    0  0.36332465537E+02 -0.78715507540E+00 -0.18234521726E+02  0.50528862679E+02  0.30000008600E+02 0.  0.
         12    1    1    2    0    0 -0.36332465537E+02  0.78715507540E+00  0.18234521726E+02  0.40659137321E+02  0.00000000000E+00 0. -1.
         11    1    3    3    0    0 -0.20671043850E+01  0.31072225584E+01  0.34571765776E+01  0.50872215124E+01  0.51100000000E-03 0. -1.
        -11    1    3    3    0    0  0.27396037175E+02  0.18235286932E+01 -0.16199413843E+02  0.31879289812E+02  0.51100000000E-03 0.  1.
         12    1    3    3    0    0  0.11003532746E+02 -0.57179063271E+01 -0.54922844605E+01  0.13562351354E+02  0.00000000000E+00 0. -1.
</event>
<event>
 7    1  0.6046695E-013  0.5052887E+02  0.7816164E-02  0.1300439E+00
        -11   -1    0    0    0    0  0.00000000000E+00  0.00000000000E+00  0.45593999997E+02  0.45594000000E+02  0.51100000000E-03 0.  1.
         11   -1    0    0    0    0 -0.00000000000E+00 -0.00000000000E+00 -0.45593999997E+02  0.45594000000E+02  0.51100000000E-03 0. -1.
    9900012    2    1    2    0    0  0.14856555024E+02  0.11742602499E+02  0.35979982315E+02  0.50528867348E+02  0.30000022792E+02 0.  0.
         12    1    1    2    0    0 -0.14856555024E+02 -0.11742602499E+02 -0.35979982315E+02  0.40659132652E+02  0.00000000000E+00 0. -1.
         11    1    3    3    0    0  0.18035392817E+02  0.27486770559E+01  0.14947811809E+02  0.23585328019E+02  0.51100000000E-03 0. -1.
        -11    1    3    3    0    0 -0.52504734373E+01  0.68418867514E+01  0.22137777620E+02  0.23758368712E+02  0.51100000000E-03 0.  1.
         12    1    3    3    0    0  0.20716356442E+01  0.21520386917E+01 -0.11056071141E+01  0.31851706176E+01  0.00000000000E+00 0. -1.
</event>
<event>
 7    1  0.6046695E-013  0.5052887E+02  0.7816164E-02  0.1300439E+00
        -11   -1    0    0    0    0  0.00000000000E+00  0.00000000000E+00  0.45593999997E+02  0.45594000000E+02  0.51100000000E-03 0.  1.
         11   -1    0    0    0    0 -0.00000000000E+00 -0.00000000000E+00 -0.45593999997E+02  0.45594000000E+02  0.51100000000E-03 0. -1.
    9900012    2    1    2    0    0  0.30761590626E+02 -0.23419361239E+01  0.26484043680E+02  0.50528871968E+02  0.30000036833E+02 0.  0.
         12    1    1    2    0    0 -0.30761590626E+02  0.23419361239E+01 -0.26484043680E+02  0.40659128032E+02  0.00000000000E+00 0. -1.
         11    1    3    3    0    0  0.30862732111E+02  0.64882277765E+00  0.30342542767E+02  0.43285091038E+02  0.51100000000E-03 0.  1.
        -11    1    3    3    0    0 -0.16027808345E+01 -0.30059933347E+00 -0.38300530402E+01  0.41627602519E+01  0.51100000000E-03 0. -1.
        -12    1    3    3    0    0  0.15016393499E+01 -0.26901595681E+01 -0.28446046360E-01  0.30810206777E+01  0.00000000000E+00 0.  1.
</event>
<event>
 7    1  0.6153117E-013  0.5052886E+02  0.7816164E-02  0.1300439E+00
        -11   -1    0    0    0    0  0.00000000000E+00  0.00000000000E+00  0.45593999997E+02  0.45594000000E+02  0.51100000000E-03 0.  1.
         11   -1    0    0    0    0 -0.00000000000E+00 -0.00000000000E+00 -0.45593999997E+02  0.45594000000E+02  0.51100000000E-03 0. -1.
    9900012    2    1    2    0    0  0.93980870372E+01 -0.28979236867E+02  0.26926667611E+02  0.50528860339E+02  0.30000001485E+02 0.  0.
         12    1    1    2    0    0 -0.93980870372E+01  0.28979236867E+02 -0.26926667611E+02  0.40659139661E+02  0.00000000000E+00 0. -1.
         11    1    3    3    0    0  0.10396431487E+02 -0.86157559859E+01 -0.10540627581E+01  0.13543562583E+02  0.51100000000E-03 0. -1.
        -11    1    3    3    0    0  0.33022010432E+01 -0.97737028428E+01  0.21497827846E+02  0.23845049829E+02  0.51100000000E-03 0.  1.
         12    1    3    3    0    0 -0.43005454934E+01 -0.10589778039E+02  0.64829025237E+01  0.13140247927E+02  0.00000000000E+00 0. -1.
</event>
<event>
 7    1  0.6046695E-013  0.5052883E+02  0.7816164E-02  0.1300439E+00
        -11   -1    0    0    0    0  0.00000000000E+00  0.00000000000E+00  0.45593999997E+02  0.45594000000E+02  0.51100000000E-03 0.  1.
         11   -1    0    0    0    0 -0.00000000000E+00 -0.00000000000E+00 -0.45593999997E+02  0.45594000000E+02  0.51100000000E-03 0. -1.
    9900012    2    1    2    0    0 -0.70631967156E+01 -0.19205463953E+02  0.35134451051E+02  0.50528828290E+02  0.29999904069E+02 0.  0.
         12    1    1    2    0    0  0.70631967156E+01  0.19205463953E+02 -0.35134451051E+02  0.40659171710E+02  0.00000000000E+00 0. -1.
         11    1    3    3    0    0 -0.83501356715E+01  0.47153786848E+01  0.35472205565E+01  0.10224594653E+02  0.51100000000E-03 0. -1.
        -11    1    3    3    0    0 -0.25707405955E+01 -0.14775569477E+02  0.20830617467E+02  0.25667894049E+02  0.51100000000E-03 0.  1.
         12    1    3    3    0    0  0.38576795515E+01 -0.91452731607E+01  0.10756613028E+02  0.14636339588E+02  0.00000000000E+00 0. -1.
</event>
<event>
 7    1  0.6046695E-013  0.5052887E+02  0.7816164E-02  0.1300439E+00
        -11   -1    0    0    0    0  0.00000000000E+00  0.00000000000E+00  0.45593999997E+02  0.45594000000E+02  0.51100000000E-03 0. -1.
         11   -1    0    0    0    0 -0.00000000000E+00 -0.00000000000E+00 -0.45593999997E+02  0.45594000000E+02  0.51100000000E-03 0.  1.
    9900012    2    1    2    0    0  0.30004965599E+02  0.27295326386E+02  0.27986113854E+01  0.50528867830E+02  0.30000024256E+02 0.  0.
         12    1    1    2    0    0 -0.30004965599E+02 -0.27295326386E+02 -0.27986113854E+01  0.40659132170E+02  0.00000000000E+00 0. -1.
         11    1    3    3    0    0 -0.18915383699E+00  0.27124050665E+01  0.11809294658E+01  0.29643743156E+01  0.51100000000E-03 0. -1.
        -11    1    3    3    0    0  0.17071830601E+02  0.49789651607E+01  0.12346548260E+02  0.21648897162E+02  0.51100000000E-03 0.  1.
        -12    1    3    3    0    0  0.13122288836E+02  0.19603956159E+02 -0.10728866340E+02  0.25915596353E+02  0.00000000000E+00 0.  1.
</event>
<event>
 7    1  0.6046695E-013  0.5052885E+02  0.7816164E-02  0.1300439E+00
        -11   -1    0    0    0    0  0.00000000000E+00  0.00000000000E+00  0.45593999997E+02  0.45594000000E+02  0.51100000000E-03 0. -1.
         11   -1    0    0    0    0 -0.00000000000E+00 -0.00000000000E+00 -0.45593999997E+02  0.45594000000E+02  0.51100000000E-03 0.  1.
    9900012    2    1    2    0    0 -0.31159024730E+00 -0.25047924984E+02 -0.32026092579E+02  0.50528852931E+02  0.29999978969E+02 0.  0.
         12    1    1    2    0    0  0.31159024730E+00  0.25047924984E+02  0.32026092579E+02  0.40659147069E+02  0.00000000000E+00 0. -1.
         11    1    3    3    0    0  0.83240355699E+01 -0.10523598353E+02 -0.19883596493E+01  0.13564264256E+02  0.51100000000E-03 0. -1.
        -11    1    3    3    0    0 -0.18737586192E+01 -0.16751628279E+01 -0.17796862310E+02  0.17973465169E+02  0.51100000000E-03 0.  1.
         12    1    3    3    0    0 -0.67618671980E+01 -0.12849163804E+02 -0.12240870620E+02  0.18991123506E+02  0.00000000000E+00 0. -1.
</event>
<event>
 7    1  0.6046695E-013  0.5052886E+02  0.7816164E-02  0.1300439E+00
        -11   -1    0    0    0    0  0.00000000000E+00  0.00000000000E+00  0.45593999997E+02  0.45594000000E+02  0.51100000000E-03 0.  1.
         11   -1    0    0    0    0 -0.00000000000E+00 -0.00000000000E+00 -0.45593999997E+02  0.45594000000E+02  0.51100000000E-03 0. -1.
    9900012    2    1    2    0    0  0.20595908528E+02 -0.33314047542E+02  0.10915517141E+02  0.50528859254E+02  0.29999998189E+02 0.  0.
         12    1    1    2    0    0 -0.20595908528E+02  0.33314047542E+02 -0.10915517141E+02  0.40659140746E+02  0.00000000000E+00 0. -1.
         11    1    3    3    0    0 -0.34628867795E+01 -0.49890713652E+01 -0.52574048579E+01  0.80326038142E+01  0.51100000000E-03 0. -1.
        -11    1    3    3    0    0  0.20665839601E+02 -0.17326269894E+02  0.72304213967E+01  0.27920521999E+02  0.51100000000E-03 0.  1.
         12    1    3    3    0    0  0.33929557066E+01 -0.10998706282E+02  0.89425006022E+01  0.14575733441E+02  0.00000000000E+00 0. -1.
</event>
<event>
 7    1  0.6046695E-013  0.5052885E+02  0.7816164E-02  0.1300439E+00
        -11   -1    0    0    0    0  0.00000000000E+00  0.00000000000E+00  0.45593999997E+02  0.45594000000E+02  0.51100000000E-03 0.  1.
         11   -1    0    0    0    0 -0.00000000000E+00 -0.00000000000E+00 -0.45593999997E+02  0.45594000000E+02  0.51100000000E-03 0. -1.
    9900012    2    1    2    0    0 -0.71525775140E+01  0.24267143089E+01  0.39951449448E+02  0.50528848257E+02  0.29999964762E+02 0.  0.
         12    1    1    2    0    0  0.71525775140E+01 -0.24267143089E+01 -0.39951449448E+02  0.40659151743E+02  0.00000000000E+00 0. -1.
         11    1    3    3    0    0 -0.34311146716E+01  0.16055828882E+02  0.24052114788E+02  0.29121579885E+02  0.51100000000E-03 0. -1.
        -11    1    3    3    0    0 -0.22495290520E+01 -0.39674289756E+01  0.51570504973E+01  0.68844784643E+01  0.51100000000E-03 0.  1.
         12    1    3    3    0    0 -0.14719337904E+01 -0.96616855973E+01  0.10742284163E+02  0.14522789907E+02  0.00000000000E+00 0. -1.
</event>
<event>
 7    1  0.6046695E-013  0.5052886E+02  0.7816164E-02  0.1300439E+00
        -11   -1    0    0    0    0  0.00000000000E+00  0.00000000000E+00  0.45593999997E+02  0.45594000000E+02  0.51100000000E-03 0. -1.
         11   -1    0    0    0    0 -0.00000000000E+00 -0.00000000000E+00 -0.45593999997E+02  0.45594000000E+02  0.51100000000E-03 0.  1.
    9900012    2    1    2    0    0 -0.82723311053E+01 -0.12692773777E+02 -0.37730988526E+02  0.50528862488E+02  0.30000008018E+02 0.  0.
         12    1    1    2    0    0  0.82723311053E+01  0.12692773777E+02  0.37730988526E+02  0.40659137512E+02  0.00000000000E+00 0. -1.
         11    1    3    3    0    0 -0.46021964664E+01 -0.96325077690E+01 -0.13403680300E+02  0.17135462179E+02  0.51100000000E-03 0.  1.
        -11    1    3    3    0    0 -0.81876930358E+01  0.13543674797E+01 -0.40915386138E-01  0.82990543346E+01  0.51100000000E-03 0. -1.
        -12    1    3    3    0    0  0.45175583970E+01 -0.44146334875E+01 -0.24286392840E+02  0.25094345974E+02  0.00000000000E+00 0.  1.
</event>
<event>
 7    1  0.6046695E-013  0.5052887E+02  0.7816164E-02  0.1300439E+00
        -11   -1    0    0    0    0  0.00000000000E+00  0.00000000000E+00  0.45593999997E+02  0.45594000000E+02  0.51100000000E-03 0. -1.
         11   -1    0    0    0    0 -0.00000000000E+00 -0.00000000000E+00 -0.45593999997E+02  0.45594000000E+02  0.51100000000E-03 0.  1.
    9900012    2    1    2    0    0 -0.53230810670E+01 -0.84442440775E+01 -0.39414775869E+02  0.50528868100E+02  0.30000025076E+02 0.  0.
         12    1    1    2    0    0  0.53230810670E+01  0.84442440775E+01  0.39414775869E+02  0.40659131900E+02  0.00000000000E+00 0. -1.
         11    1    3    3    0    0 -0.23854635889E+01 -0.55683325258E+01  0.27665854840E+01  0.66596365632E+01  0.51100000000E-03 0. -1.
        -11    1    3    3    0    0  0.21076044139E+01  0.33060158430E+01 -0.17342662462E+02  0.17780317170E+02  0.51100000000E-03 0.  1.
        -12    1    3    3    0    0 -0.50452218920E+01 -0.61819273947E+01 -0.24838698890E+02  0.26088914367E+02  0.00000000000E+00 0.  1.
</event>
<event>
 7    1  0.6046695E-013  0.5052886E+02  0.7816164E-02  0.1300439E+00
        -11   -1    0    0    0    0  0.00000000000E+00  0.00000000000E+00  0.45593999997E+02  0.45594000000E+02  0.51100000000E-03 0. -1.
         11   -1    0    0    0    0 -0.00000000000E+00 -0.00000000000E+00 -0.45593999997E+02  0.45594000000E+02  0.51100000000E-03 0.  1.
    9900012    2    1    2    0    0 -0.16317996882E+02 -0.35436836444E+02  0.11450721795E+02  0.50528862909E+02  0.30000009298E+02 0.  0.
         12    1    1    2    0    0  0.16317996882E+02  0.35436836444E+02 -0.11450721795E+02  0.40659137091E+02  0.00000000000E+00 0. -1.
         11    1    3    3    0    0 -0.88836967843E+00  0.12470000228E+01  0.43326299198E+01  0.45952031539E+01  0.51100000000E-03 0. -1.
        -11    1    3    3    0    0 -0.18878001294E+02 -0.30871138244E+02  0.11392623059E+02  0.37936762773E+02  0.51100000000E-03 0.  1.
        -12    1    3    3    0    0  0.34483740902E+01 -0.58126982227E+01 -0.42745311838E+01  0.79968969817E+01  0.00000000000E+00 0.  1.
</event>
<event>
 7    1  0.6046695E-013  0.5052887E+02  0.7816164E-02  0.1300439E+00
        -11   -1    0    0    0    0  0.00000000000E+00  0.00000000000E+00  0.45593999997E+02  0.45594000000E+02  0.51100000000E-03 0. -1.
         11   -1    0    0    0    0 -0.00000000000E+00 -0.00000000000E+00 -0.45593999997E+02  0.45594000000E+02  0.51100000000E-03 0.  1.
    9900012    2    1    2    0    0 -0.34798389104E+02 -0.70658375628E+01 -0.19806850065E+02  0.50528865059E+02  0.30000015833E+02 0.  0.
         12    1    1    2    0    0  0.34798389104E+02  0.70658375628E+01  0.19806850065E+02  0.40659134941E+02  0.00000000000E+00 0. -1.
         11    1    3    3    0    0 -0.11847219661E+02 -0.39007975394E+01  0.19317486714E+01  0.12621588185E+02  0.51100000000E-03 0. -1.
        -11    1    3    3    0    0 -0.11649787072E+02  0.38717165804E+01 -0.21303006803E+02  0.24587106930E+02  0.51100000000E-03 0.  1.
        -12    1    3    3    0    0 -0.11301382371E+02 -0.70367566038E+01 -0.43559193344E+00  0.13320169943E+02  0.00000000000E+00 0.  1.
</event>
<event>
 7    1  0.6046695E-013  0.5052883E+02  0.7816164E-02  0.1300439E+00
        -11   -1    0    0    0    0  0.00000000000E+00  0.00000000000E+00  0.45593999997E+02  0.45594000000E+02  0.51100000000E-03 0.  1.
         11   -1    0    0    0    0 -0.00000000000E+00 -0.00000000000E+00 -0.45593999997E+02  0.45594000000E+02  0.51100000000E-03 0. -1.
    9900012    2    1    2    0    0 -0.30578020467E+02 -0.14606110948E+02  0.22468071716E+02  0.50528830563E+02  0.29999910978E+02 0.  0.
         12    1    1    2    0    0  0.30578020467E+02  0.14606110948E+02 -0.22468071716E+02  0.40659169437E+02  0.00000000000E+00 0. -1.
         11    1    3    3    0    0 -0.37426267089E+01 -0.80915287005E+01 -0.50932141269E+01  0.10267469104E+02  0.51100000000E-03 0. -1.
        -11    1    3    3    0    0 -0.10688104253E+02 -0.30363647380E+01  0.47165281680E+01  0.12070655391E+02  0.51100000000E-03 0.  1.
         12    1    3    3    0    0 -0.16147289505E+02 -0.34782175097E+01  0.22844757675E+02  0.28190706068E+02  0.00000000000E+00 0. -1.
</event>
<event>
 7    1  0.6046695E-013  0.5052881E+02  0.7816164E-02  0.1300439E+00
        -11   -1    0    0    0    0  0.00000000000E+00  0.00000000000E+00  0.45593999997E+02  0.45594000000E+02  0.51100000000E-03 0.  1.
         11   -1    0    0    0    0 -0.00000000000E+00 -0.00000000000E+00 -0.45593999997E+02  0.45594000000E+02  0.51100000000E-03 0. -1.
    9900012    2    1    2    0    0 -0.13581951450E+02  0.64183727839E+01  0.37782339383E+02  0.50528805669E+02  0.29999835311E+02 0.  0.
         12    1    1    2    0    0  0.13581951450E+02 -0.64183727839E+01 -0.37782339383E+02  0.40659194331E+02  0.00000000000E+00 0. -1.
         11    1    3    3    0    0 -0.26831246811E+01 -0.81224582455E+01  0.71335213990E+01  0.11138250034E+02  0.51100000000E-03 0. -1.
        -11    1    3    3    0    0 -0.11246835744E+02  0.33060351350E+01  0.22937548606E+02  0.25759509290E+02  0.51100000000E-03 0.  1.
         12    1    3    3    0    0  0.34800897548E+00  0.11234795894E+02  0.77112693780E+01  0.13631046345E+02  0.00000000000E+00 0. -1.
</event>
<event>
 7    1  0.6046695E-013  0.5052884E+02  0.7816164E-02  0.1300439E+00
        -11   -1    0    0    0    0  0.00000000000E+00  0.00000000000E+00  0.45593999997E+02  0.45594000000E+02  0.51100000000E-03 0.  1.
         11   -1    0    0    0    0 -0.00000000000E+00 -0.00000000000E+00 -0.45593999997E+02  0.45594000000E+02  0.51100000000E-03 0. -1.
    9900012    2    1    2    0    0  0.32008549891E+02  0.15916084416E+02  0.19372606693E+02  0.50528844827E+02  0.29999954337E+02 0.  0.
         12    1    1    2    0    0 -0.32008549891E+02 -0.15916084416E+02 -0.19372606693E+02  0.40659155173E+02  0.00000000000E+00 0. -1.
         11    1    3    3    0    0  0.25753170767E+00  0.54829388304E+00  0.13853235545E+02  0.13866473383E+02  0.51100000000E-03 0. -1.
        -11    1    3    3    0    0  0.21864076030E+02  0.63066309500E+01  0.46310807289E+01  0.23221936258E+02  0.51100000000E-03 0.  1.
         12    1    3    3    0    0  0.98869421535E+01  0.90611595829E+01  0.88829041928E+00  0.13440435187E+02  0.00000000000E+00 0. -1.
</event>
<event>
 7    1  0.6046695E-013  0.5052886E+02  0.7816164E-02  0.1300439E+00
        -11   -1    0    0    0    0  0.00000000000E+00  0.00000000000E+00  0.45593999997E+02  0.45594000000E+02  0.51100000000E-03 0.  1.
         11   -1    0    0    0    0 -0.00000000000E+00 -0.00000000000E+00 -0.45593999997E+02  0.45594000000E+02  0.51100000000E-03 0. -1.
    9900012    2    1    2    0    0 -0.10609453777E+02  0.17596666906E+02  0.35085073379E+02  0.50528861179E+02  0.30000004040E+02 0.  0.
         12    1    1    2    0    0  0.10609453777E+02 -0.17596666906E+02 -0.35085073379E+02  0.40659138821E+02  0.00000000000E+00 0. -1.
         11    1    3    3    0    0 -0.77027360361E+00  0.13511691208E+02  0.53545313611E+00  0.13544217624E+02  0.51100000000E-03 0. -1.
        -11    1    3    3    0    0 -0.25675078844E+01  0.34243706320E+01  0.51721763739E+01  0.67134059661E+01  0.51100000000E-03 0.  1.
         12    1    3    3    0    0 -0.72716722888E+01  0.66060506652E+00  0.29377443869E+02  0.30271237589E+02  0.00000000000E+00 0. -1.
</event>
<event>
 7    1  0.6046695E-013  0.5052886E+02  0.7816164E-02  0.1300439E+00
        -11   -1    0    0    0    0  0.00000000000E+00  0.00000000000E+00  0.45593999997E+02  0.45594000000E+02  0.51100000000E-03 0.  1.
         11   -1    0    0    0    0 -0.00000000000E+00 -0.00000000000E+00 -0.45593999997E+02  0.45594000000E+02  0.51100000000E-03 0. -1.
    9900012    2    1    2    0    0 -0.35280156545E+02 -0.17542251302E+02  0.10037207762E+02  0.50528861221E+02  0.30000004167E+02 0.  0.
         12    1    1    2    0    0  0.35280156545E+02  0.17542251302E+02 -0.10037207762E+02  0.40659138779E+02  0.00000000000E+00 0. -1.
         11    1    3    3    0    0 -0.91596396036E+01 -0.10921361611E+02 -0.58795289684E+01  0.15418949324E+02  0.51100000000E-03 0. -1.
        -11    1    3    3    0    0 -0.21079385248E+02 -0.10552131068E+02  0.16372368490E+02  0.28700912926E+02  0.51100000000E-03 0.  1.
        -12    1    3    3    0    0 -0.50411316932E+01  0.39312413768E+01 -0.45563175992E+00  0.64089989711E+01  0.00000000000E+00 0.  1.
</event>
<event>
 7    1  0.6046695E-013  0.5052887E+02  0.7816164E-02  0.1300439E+00
        -11   -1    0    0    0    0  0.00000000000E+00  0.00000000000E+00  0.45593999997E+02  0.45594000000E+02  0.51100000000E-03 0.  1.
         11   -1    0    0    0    0 -0.00000000000E+00 -0.00000000000E+00 -0.45593999997E+02  0.45594000000E+02  0.51100000000E-03 0. -1.
    9900012    2    1    2    0    0 -0.74316508249E+00  0.39155789928E+02  0.10928718824E+02  0.50528867270E+02  0.30000022553E+02 0.  0.
         12    1    1    2    0    0  0.74316508249E+00 -0.39155789928E+02 -0.10928718824E+02  0.40659132730E+02  0.00000000000E+00 0. -1.
         11    1    3    3    0    0 -0.66787928164E+01 -0.68362601337E-02 -0.38577970267E+01  0.77129059620E+01  0.51100000000E-03 0. -1.
        -11    1    3    3    0    0  0.60110816273E+01  0.18422941837E+02  0.59452567973E+01  0.20270272985E+02  0.51100000000E-03 0.  1.
         12    1    3    3    0    0 -0.75453893339E-01  0.20739684351E+02  0.88412590535E+01  0.22545688322E+02  0.00000000000E+00 0. -1.
</event>
<event>
 7    1  0.7031538E-013  0.5052886E+02  0.7816164E-02  0.1300439E+00
        -11   -1    0    0    0    0  0.00000000000E+00  0.00000000000E+00  0.45593999997E+02  0.45594000000E+02  0.51100000000E-03 0.  1.
         11   -1    0    0    0    0 -0.00000000000E+00 -0.00000000000E+00 -0.45593999997E+02  0.45594000000E+02  0.51100000000E-03 0. -1.
    9900012    2    1    2    0    0  0.40083024182E+02  0.90548306494E+00  0.67599518713E+01  0.50528859866E+02  0.30000000048E+02 0.  0.
         12    1    1    2    0    0 -0.40083024182E+02 -0.90548306494E+00 -0.67599518713E+01  0.40659140134E+02  0.00000000000E+00 0. -1.
         11    1    3    3    0    0  0.10495709832E+02  0.26248630070E+01 -0.10093000546E+02  0.14795894396E+02  0.51100000000E-03 0. -1.
        -11    1    3    3    0    0  0.24093636131E+02  0.82902808858E+00  0.88149001794E+01  0.25668912229E+02  0.51100000000E-03 0.  1.
         12    1    3    3    0    0  0.54936782184E+01 -0.25484080306E+01  0.80380522377E+01  0.10064053241E+02  0.00000000000E+00 0. -1.
</event>
<event>
 7    1  0.6046695E-013  0.5052886E+02  0.7816164E-02  0.1300439E+00
        -11   -1    0    0    0    0  0.00000000000E+00  0.00000000000E+00  0.45593999997E+02  0.45594000000E+02  0.51100000000E-03 0. -1.
         11   -1    0    0    0    0 -0.00000000000E+00 -0.00000000000E+00 -0.45593999997E+02  0.45594000000E+02  0.51100000000E-03 0.  1.
    9900012    2    1    2    0    0 -0.31636173300E+02  0.14542163440E+02 -0.20996276213E+02  0.50528860887E+02  0.30000003152E+02 0.  0.
         12    1    1    2    0    0  0.31636173300E+02 -0.14542163440E+02  0.20996276213E+02  0.40659139113E+02  0.00000000000E+00 0. -1.
         11    1    3    3    0    0 -0.25844913453E+01  0.10949433762E+02 -0.26312916183E+01  0.11553934008E+02  0.51100000000E-03 0. -1.
        -11    1    3    3    0    0 -0.17653107948E+02 -0.44646515473E+01 -0.34243426915E+01  0.18528126100E+02  0.51100000000E-03 0.  1.
         12    1    3    3    0    0 -0.11398574007E+02  0.80573812250E+01 -0.14940641903E+02  0.20446800779E+02  0.00000000000E+00 0. -1.
</event>
<event>
 7    1  0.6046695E-013  0.5052886E+02  0.7816164E-02  0.1300439E+00
        -11   -1    0    0    0    0  0.00000000000E+00  0.00000000000E+00  0.45593999997E+02  0.45594000000E+02  0.51100000000E-03 0.  1.
         11   -1    0    0    0    0 -0.00000000000E+00 -0.00000000000E+00 -0.45593999997E+02  0.45594000000E+02  0.51100000000E-03 0. -1.
    9900012    2    1    2    0    0  0.22156922116E+02 -0.15608756242E+02  0.30308473678E+02  0.50528855324E+02  0.29999986243E+02 0.  0.
         12    1    1    2    0    0 -0.22156922116E+02  0.15608756242E+02 -0.30308473678E+02  0.40659144676E+02  0.00000000000E+00 0. -1.
         11    1    3    3    0    0 -0.65977675393E+01 -0.57838815250E+01  0.87894826482E+01  0.12419292552E+02  0.51100000000E-03 0. -1.
        -11    1    3    3    0    0  0.18977888919E+02 -0.75433107479E+01  0.18679012297E+02  0.27676114350E+02  0.51100000000E-03 0.  1.
         12    1    3    3    0    0  0.97768007364E+01 -0.22815639694E+01  0.28399787332E+01  0.10433448423E+02  0.00000000000E+00 0. -1.
</event>
<event>
 7    1  0.6046695E-013  0.5052886E+02  0.7816164E-02  0.1300439E+00
        -11   -1    0    0    0    0  0.00000000000E+00  0.00000000000E+00  0.45593999997E+02  0.45594000000E+02  0.51100000000E-03 0. -1.
         11   -1    0    0    0    0 -0.00000000000E+00 -0.00000000000E+00 -0.45593999997E+02  0.45594000000E+02  0.51100000000E-03 0.  1.
    9900012    2    1    2    0    0  0.38330960025E+02  0.89621007663E+01  0.10177605904E+02  0.50528863161E+02  0.30000010063E+02 0.  0.
         12    1    1    2    0    0 -0.38330960025E+02 -0.89621007663E+01 -0.10177605904E+02  0.40659136839E+02  0.00000000000E+00 0. -1.
         11    1    3    3    0    0 -0.69073884474E+00  0.26006068070E+00  0.74375873665E+01  0.74741191993E+01  0.51100000000E-03 0. -1.
        -11    1    3    3    0    0  0.30655317779E+02 -0.85024564055E-01  0.18660435031E+00  0.30656003633E+02  0.51100000000E-03 0.  1.
        -12    1    3    3    0    0  0.83663810907E+01  0.87870646497E+01  0.25534141874E+01  0.12398740328E+02  0.00000000000E+00 0.  1.
</event>
<event>
 7    1  0.6046695E-013  0.5052885E+02  0.7816164E-02  0.1300439E+00
        -11   -1    0    0    0    0  0.00000000000E+00  0.00000000000E+00  0.45593999997E+02  0.45594000000E+02  0.51100000000E-03 0.  1.
         11   -1    0    0    0    0 -0.00000000000E+00 -0.00000000000E+00 -0.45593999997E+02  0.45594000000E+02  0.51100000000E-03 0. -1.
    9900012    2    1    2    0    0  0.22899254787E+02  0.25558454314E+02  0.21807250498E+02  0.50528848127E+02  0.29999964368E+02 0.  0.
         12    1    1    2    0    0 -0.22899254787E+02 -0.25558454314E+02 -0.21807250498E+02  0.40659151873E+02  0.00000000000E+00 0. -1.
         11    1    3    3    0    0  0.18098295022E+02  0.23651090047E+02  0.77871972141E+01  0.30782507758E+02  0.51100000000E-03 0. -1.
        -11    1    3    3    0    0 -0.42145665918E+01  0.23260178192E+01  0.58140012099E+01  0.75482144101E+01  0.51100000000E-03 0.  1.
         12    1    3    3    0    0  0.90155263562E+01 -0.41865355252E+00  0.82060520743E+01  0.12198125959E+02  0.00000000000E+00 0. -1.
</event>
<event>
 7    1  0.6046695E-013  0.5052887E+02  0.7816164E-02  0.1300439E+00
        -11   -1    0    0    0    0  0.00000000000E+00  0.00000000000E+00  0.45593999997E+02  0.45594000000E+02  0.51100000000E-03 0. -1.
         11   -1    0    0    0    0 -0.00000000000E+00 -0.00000000000E+00 -0.45593999997E+02  0.45594000000E+02  0.51100000000E-03 0.  1.
    9900012    2    1    2    0    0 -0.40399255028E+02  0.17891518654E+01  0.42266135242E+01  0.50528866547E+02  0.30000020357E+02 0.  0.
         12    1    1    2    0    0  0.40399255028E+02 -0.17891518654E+01 -0.42266135242E+01  0.40659133453E+02  0.00000000000E+00 0. -1.
         11    1    3    3    0    0 -0.19289466412E+02 -0.78139408235E+01  0.52831996843E+01  0.21472153707E+02  0.51100000000E-03 0. -1.
        -11    1    3    3    0    0 -0.24668564144E+01  0.51857311305E+01 -0.69463657471E+01  0.90127235218E+01  0.51100000000E-03 0.  1.
         12    1    3    3    0    0 -0.18642932201E+02  0.44173615583E+01  0.58897795871E+01  0.20043989318E+02  0.00000000000E+00 0. -1.
</event>
<event>
 7    1  0.6046695E-013  0.5052885E+02  0.7816164E-02  0.1300439E+00
        -11   -1    0    0    0    0  0.00000000000E+00  0.00000000000E+00  0.45593999997E+02  0.45594000000E+02  0.51100000000E-03 0. -1.
         11   -1    0    0    0    0 -0.00000000000E+00 -0.00000000000E+00 -0.45593999997E+02  0.45594000000E+02  0.51100000000E-03 0.  1.
    9900012    2    1    2    0    0  0.35127798665E+02 -0.18504322055E+02 -0.87632129345E+01  0.50528854968E+02  0.29999985162E+02 0.  0.
         12    1    1    2    0    0 -0.35127798665E+02  0.18504322055E+02  0.87632129345E+01  0.40659145032E+02  0.00000000000E+00 0. -1.
         11    1    3    3    0    0  0.16954962318E+01  0.32415171218E+01 -0.99061674397E+01  0.10560032875E+02  0.51100000000E-03 0. -1.
        -11    1    3    3    0    0  0.18645361144E+02 -0.11257989912E+02  0.15496143548E+01  0.21835593282E+02  0.51100000000E-03 0.  1.
         12    1    3    3    0    0  0.14786941289E+02 -0.10487849265E+02 -0.40665984965E+00  0.18133228811E+02  0.00000000000E+00 0. -1.
</event>
<event>
 7    1  0.6046695E-013  0.5052886E+02  0.7816164E-02  0.1300439E+00
        -11   -1    0    0    0    0  0.00000000000E+00  0.00000000000E+00  0.45593999997E+02  0.45594000000E+02  0.51100000000E-03 0. -1.
         11   -1    0    0    0    0 -0.00000000000E+00 -0.00000000000E+00 -0.45593999997E+02  0.45594000000E+02  0.51100000000E-03 0.  1.
    9900012    2    1    2    0    0 -0.18063881387E+02 -0.22418582572E+02  0.28710088161E+02  0.50528858131E+02  0.29999994775E+02 0.  0.
         12    1    1    2    0    0  0.18063881387E+02  0.22418582572E+02 -0.28710088161E+02  0.40659141869E+02  0.00000000000E+00 0. -1.
         11    1    3    3    0    0  0.56614915060E+01 -0.59152166094E+00  0.32137177975E+01  0.65368468156E+01  0.51100000000E-03 0. -1.
        -11    1    3    3    0    0 -0.23298580309E+02 -0.23994948498E+02  0.22669285704E+02  0.40403934369E+02  0.51100000000E-03 0.  1.
        -12    1    3    3    0    0 -0.42679258341E+00  0.21678875874E+01  0.28270846597E+01  0.35880769465E+01  0.00000000000E+00 0.  1.
</event>
<event>
 7    1  0.6046695E-013  0.5052886E+02  0.7816164E-02  0.1300439E+00
        -11   -1    0    0    0    0  0.00000000000E+00  0.00000000000E+00  0.45593999997E+02  0.45594000000E+02  0.51100000000E-03 0.  1.
         11   -1    0    0    0    0 -0.00000000000E+00 -0.00000000000E+00 -0.45593999997E+02  0.45594000000E+02  0.51100000000E-03 0. -1.
    9900012    2    1    2    0    0 -0.16258996417E+02 -0.59545805479E+01  0.36787957384E+02  0.50528858316E+02  0.29999995339E+02 0.  0.
         12    1    1    2    0    0  0.16258996417E+02  0.59545805479E+01 -0.36787957384E+02  0.40659141684E+02  0.00000000000E+00 0. -1.
         11    1    3    3    0    0  0.30971159300E+01  0.37681032721E+01 -0.10422914720E+00  0.48786876646E+01  0.51100000000E-03 0. -1.
        -11    1    3    3    0    0 -0.16633654321E+02 -0.81797155447E+01  0.15885808946E+02  0.24411987395E+02  0.51100000000E-03 0.  1.
         12    1    3    3    0    0 -0.27224580259E+01 -0.15429682753E+01  0.21006377585E+02  0.21238183256E+02  0.00000000000E+00 0. -1.
</event>
<event>
 7    1  0.6046695E-013  0.5052887E+02  0.7816164E-02  0.1300439E+00
        -11   -1    0    0    0    0  0.00000000000E+00  0.00000000000E+00  0.45593999997E+02  0.45594000000E+02  0.51100000000E-03 0. -1.
         11   -1    0    0    0    0 -0.00000000000E+00 -0.00000000000E+00 -0.45593999997E+02  0.45594000000E+02  0.51100000000E-03 0.  1.
    9900012    2    1    2    0    0  0.19927191182E+02 -0.21499597142E+02 -0.28175151896E+02  0.50528870521E+02  0.30000032434E+02 0.  0.
         12    1    1    2    0    0 -0.19927191182E+02  0.21499597142E+02  0.28175151896E+02  0.40659129479E+02  0.00000000000E+00 0. -1.
         11    1    3    3    0    0 -0.42766835708E+01 -0.76282334530E+01 -0.41173042575E+01  0.96660313774E+01  0.51100000000E-03 0. -1.
        -11    1    3    3    0    0  0.26393435422E+02 -0.15064168917E+02 -0.23173792249E+02  0.38217368643E+02  0.51100000000E-03 0.  1.
        -12    1    3    3    0    0 -0.21895606690E+01  0.11928052284E+01 -0.88405538965E+00  0.26454705003E+01  0.00000000000E+00 0.  1.
</event>
<event>
 7    1  0.6046695E-013  0.5052885E+02  0.7816164E-02  0.1300439E+00
        -11   -1    0    0    0    0  0.00000000000E+00  0.00000000000E+00  0.45593999997E+02  0.45594000000E+02  0.51100000000E-03 0. -1.
         11   -1    0    0    0    0 -0.00000000000E+00 -0.00000000000E+00 -0.45593999997E+02  0.45594000000E+02  0.51100000000E-03 0.  1.
    9900012    2    1    2    0    0  0.95905334667E+01 -0.36505922727E+02 -0.15116395967E+02  0.50528854002E+02  0.29999982223E+02 0.  0.
         12    1    1    2    0    0 -0.95905334667E+01  0.36505922727E+02  0.15116395967E+02  0.40659145998E+02  0.00000000000E+00 0. -1.
         11    1    3    3    0    0 -0.77418567985E+01 -0.83992053620E+01 -0.13896577746E+01  0.11507134587E+02  0.51100000000E-03 0. -1.
        -11    1    3    3    0    0  0.19674797616E+02 -0.20069787350E+02 -0.96961996823E+01  0.29730629224E+02  0.51100000000E-03 0.  1.
        -12    1    3    3    0    0 -0.23424073511E+01 -0.80369300144E+01 -0.40305385097E+01  0.92910901907E+01  0.00000000000E+00 0.  1.
</event>
<event>
 7    1  0.6046695E-013  0.5052885E+02  0.7816164E-02  0.1300439E+00
        -11   -1    0    0    0    0  0.00000000000E+00  0.00000000000E+00  0.45593999997E+02  0.45594000000E+02  0.51100000000E-03 0.  1.
         11   -1    0    0    0    0 -0.00000000000E+00 -0.00000000000E+00 -0.45593999997E+02  0.45594000000E+02  0.51100000000E-03 0. -1.
    9900012    2    1    2    0    0  0.21814234119E+02 -0.56090395095E+01  0.33850316880E+02  0.50528854814E+02  0.29999984691E+02 0.  0.
         12    1    1    2    0    0 -0.21814234119E+02  0.56090395095E+01 -0.33850316880E+02  0.40659145186E+02  0.00000000000E+00 0. -1.
         11    1    3    3    0    0  0.12327674601E+02  0.10135313570E+02  0.14699134454E+02  0.21697020445E+02  0.51100000000E-03 0. -1.
        -11    1    3    3    0    0  0.75909691904E+01 -0.14883315198E+02  0.20427526057E+02  0.26389765168E+02  0.51100000000E-03 0.  1.
        -12    1    3    3    0    0  0.18955903274E+01 -0.86103788102E+00 -0.12763436304E+01  0.24420692014E+01  0.00000000000E+00 0.  1.
</event>
<event>
 7    1  0.6046695E-013  0.5052886E+02  0.7816164E-02  0.1300439E+00
        -11   -1    0    0    0    0  0.00000000000E+00  0.00000000000E+00  0.45593999997E+02  0.45594000000E+02  0.51100000000E-03 0.  1.
         11   -1    0    0    0    0 -0.00000000000E+00 -0.00000000000E+00 -0.45593999997E+02  0.45594000000E+02  0.51100000000E-03 0. -1.
    9900012    2    1    2    0    0 -0.30953149989E+02  0.95286416384E+01  0.24581967824E+02  0.50528860218E+02  0.30000001119E+02 0.  0.
         12    1    1    2    0    0  0.30953149989E+02 -0.95286416384E+01 -0.24581967824E+02  0.40659139782E+02  0.00000000000E+00 0. -1.
         11    1    3    3    0    0 -0.24215694286E+02  0.15181644402E+02  0.15891071067E+02  0.32701809070E+02  0.51100000000E-03 0.  1.
        -11    1    3    3    0    0  0.15087242562E+01  0.28410609729E+01  0.39011594046E+01  0.50563743230E+01  0.51100000000E-03 0. -1.
         12    1    3    3    0    0 -0.82461799589E+01 -0.84940637367E+01  0.47897373521E+01  0.12770676825E+02  0.00000000000E+00 0. -1.
</event>
<event>
 7    1  0.6046695E-013  0.5052879E+02  0.7816164E-02  0.1300439E+00
        -11   -1    0    0    0    0  0.00000000000E+00  0.00000000000E+00  0.45593999997E+02  0.45594000000E+02  0.51100000000E-03 0.  1.
         11   -1    0    0    0    0 -0.00000000000E+00 -0.00000000000E+00 -0.45593999997E+02  0.45594000000E+02  0.51100000000E-03 0. -1.
    9900012    2    1    2    0    0 -0.29002657716E+02 -0.77442785839E+01  0.27423410565E+02  0.50528788837E+02  0.29999784149E+02 0.  0.
         12    1    1    2    0    0  0.29002657716E+02  0.77442785839E+01 -0.27423410565E+02  0.40659211163E+02  0.00000000000E+00 0. -1.
         11    1    3    3    0    0  0.87134631921E+00  0.47300950695E+01  0.81929507697E+00  0.48789638714E+01  0.51100000000E-03 0. -1.
        -11    1    3    3    0    0 -0.12764987906E+02 -0.14832331474E+02  0.11445977232E+02  0.22670539655E+02  0.51100000000E-03 0.  1.
        -12    1    3    3    0    0 -0.17109016129E+02  0.23579578210E+01  0.15158138255E+02  0.22979285310E+02  0.00000000000E+00 0.  1.
</event>
<event>
 7    1  0.6046695E-013  0.5052883E+02  0.7816164E-02  0.1300439E+00
        -11   -1    0    0    0    0  0.00000000000E+00  0.00000000000E+00  0.45593999997E+02  0.45594000000E+02  0.51100000000E-03 0. -1.
         11   -1    0    0    0    0 -0.00000000000E+00 -0.00000000000E+00 -0.45593999997E+02  0.45594000000E+02  0.51100000000E-03 0.  1.
    9900012    2    1    2    0    0  0.93274219653E+01  0.94896171418E+01 -0.38420231659E+02  0.50528833325E+02  0.29999919374E+02 0.  0.
         12    1    1    2    0    0 -0.93274219653E+01 -0.94896171418E+01  0.38420231659E+02  0.40659166675E+02  0.00000000000E+00 0. -1.
         11    1    3    3    0    0 -0.51674624109E+01  0.29602531992E+01 -0.21189796932E+02  0.22010753305E+02  0.51100000000E-03 0. -1.
        -11    1    3    3    0    0  0.16718136293E+02  0.62828145707E+01 -0.90197417106E+01  0.20008137865E+02  0.51100000000E-03 0.  1.
        -12    1    3    3    0    0 -0.22232519163E+01  0.24654937199E+00 -0.82106930166E+01  0.85099421555E+01  0.00000000000E+00 0.  1.
</event>
<event>
 7    1  0.6046695E-013  0.5052886E+02  0.7816164E-02  0.1300439E+00
        -11   -1    0    0    0    0  0.00000000000E+00  0.00000000000E+00  0.45593999997E+02  0.45594000000E+02  0.51100000000E-03 0.  1.
         11   -1    0    0    0    0 -0.00000000000E+00 -0.00000000000E+00 -0.45593999997E+02  0.45594000000E+02  0.51100000000E-03 0. -1.
    9900012    2    1    2    0    0  0.20518689765E+01  0.26128523512E+02  0.31084659761E+02  0.50528856137E+02  0.29999988714E+02 0.  0.
         12    1    1    2    0    0 -0.20518689765E+01 -0.26128523512E+02 -0.31084659761E+02  0.40659143863E+02  0.00000000000E+00 0. -1.
         11    1    3    3    0    0 -0.21511065317E+01  0.39908368174E+01 -0.38267922493E+01  0.59328220093E+01  0.51100000000E-03 0. -1.
        -11    1    3    3    0    0 -0.52225758217E+00  0.80122552426E+01  0.26061682496E+02  0.27270502046E+02  0.51100000000E-03 0.  1.
         12    1    3    3    0    0  0.47252330903E+01  0.14125431452E+02  0.88497695144E+01  0.17325532082E+02  0.00000000000E+00 0. -1.
</event>
<event>
 7    1  0.6046695E-013  0.5052883E+02  0.7816164E-02  0.1300439E+00
        -11   -1    0    0    0    0  0.00000000000E+00  0.00000000000E+00  0.45593999997E+02  0.45594000000E+02  0.51100000000E-03 0.  1.
         11   -1    0    0    0    0 -0.00000000000E+00 -0.00000000000E+00 -0.45593999997E+02  0.45594000000E+02  0.51100000000E-03 0. -1.
    9900012    2    1    2    0    0  0.15999536958E+02 -0.33990274252E+02 -0.15551340791E+02  0.50528829731E+02  0.29999908450E+02 0.  0.
         12    1    1    2    0    0 -0.15999536958E+02  0.33990274252E+02  0.15551340791E+02  0.40659170269E+02  0.00000000000E+00 0. -1.
         11    1    3    3    0    0  0.69665724550E+01 -0.65544681977E+01 -0.13678821724E+02  0.16691445388E+02  0.51100000000E-03 0. -1.
        -11    1    3    3    0    0  0.19140971471E+01  0.17970715559E+01  0.22644213296E+01  0.34671080578E+01  0.51100000000E-03 0.  1.
        -12    1    3    3    0    0  0.71188673554E+01 -0.29232877610E+02 -0.41369403967E+01  0.30370276285E+02  0.00000000000E+00 0.  1.
</event>
<event>
 7    1  0.6046695E-013  0.5052888E+02  0.7816164E-02  0.1300439E+00
        -11   -1    0    0    0    0  0.00000000000E+00  0.00000000000E+00  0.45593999997E+02  0.45594000000E+02  0.51100000000E-03 0.  1.
         11   -1    0    0    0    0 -0.00000000000E+00 -0.00000000000E+00 -0.45593999997E+02  0.45594000000E+02  0.51100000000E-03 0. -1.
    9900012    2    1    2    0    0 -0.29020758805E+02  0.16105377122E+02  0.23485668390E+02  0.50528877609E+02  0.30000053982E+02 0.  0.
         12    1    1    2    0    0  0.29020758805E+02 -0.16105377122E+02 -0.23485668390E+02  0.40659122391E+02  0.00000000000E+00 0. -1.
         11    1    3    3    0    0 -0.88248082427E+00  0.12707675340E+01  0.12986602655E+02  0.13078435354E+02  0.51100000000E-03 0. -1.
        -11    1    3    3    0    0 -0.25846322692E+02  0.16146934460E+02  0.13604147666E+02  0.33374072618E+02  0.51100000000E-03 0.  1.
        -12    1    3    3    0    0 -0.22919552885E+01 -0.13123248714E+01 -0.31050819319E+01  0.40763696368E+01  0.00000000000E+00 0.  1.
</event>
<event>
 7    1  0.6046695E-013  0.5052886E+02  0.7816164E-02  0.1300439E+00
        -11   -1    0    0    0    0  0.00000000000E+00  0.00000000000E+00  0.45593999997E+02  0.45594000000E+02  0.51100000000E-03 0.  1.
         11   -1    0    0    0    0 -0.00000000000E+00 -0.00000000000E+00 -0.45593999997E+02  0.45594000000E+02  0.51100000000E-03 0. -1.
    9900012    2    1    2    0    0 -0.48442527292E+00  0.34248465528E+02  0.21908298587E+02  0.50528860734E+02  0.30000002688E+02 0.  0.
         12    1    1    2    0    0  0.48442527292E+00 -0.34248465528E+02 -0.21908298587E+02  0.40659139266E+02  0.00000000000E+00 0. -1.
         11    1    3    3    0    0  0.22771273682E+00  0.30139892021E+02  0.47803325517E+01  0.30517478987E+02  0.51100000000E-03 0. -1.
        -11    1    3    3    0    0 -0.15240919690E+01  0.63091315378E+01  0.16264767157E+02  0.17512014391E+02  0.51100000000E-03 0.  1.
        -12    1    3    3    0    0  0.81195395925E+00 -0.22005580311E+01  0.86319887805E+00  0.24993673566E+01  0.00000000000E+00 0.  1.
</event>
<event>
 7    1  0.6046695E-013  0.5052886E+02  0.7816164E-02  0.1300439E+00
        -11   -1    0    0    0    0  0.00000000000E+00  0.00000000000E+00  0.45593999997E+02  0.45594000000E+02  0.51100000000E-03 0. -1.
         11   -1    0    0    0    0 -0.00000000000E+00 -0.00000000000E+00 -0.45593999997E+02  0.45594000000E+02  0.51100000000E-03 0.  1.
    9900012    2    1    2    0    0 -0.27494552899E+02 -0.18570743715E+01 -0.29895929977E+02  0.50528858426E+02  0.29999995671E+02 0.  0.
         12    1    1    2    0    0  0.27494552899E+02  0.18570743715E+01  0.29895929977E+02  0.40659141574E+02  0.00000000000E+00 0. -1.
         11    1    3    3    0    0 -0.29645249842E+01  0.64932108888E+01 -0.15166078846E+02  0.16761865763E+02  0.51100000000E-03 0. -1.
        -11    1    3    3    0    0 -0.12938918766E+02 -0.17553374227E+01  0.10583272157E+01  0.13100262786E+02  0.51100000000E-03 0.  1.
        -12    1    3    3    0    0 -0.11591109149E+02 -0.65949478376E+01 -0.15788178347E+02  0.20666729877E+02  0.00000000000E+00 0.  1.
</event>
<event>
 7    1  0.6046695E-013  0.5052886E+02  0.7816164E-02  0.1300439E+00
        -11   -1    0    0    0    0  0.00000000000E+00  0.00000000000E+00  0.45593999997E+02  0.45594000000E+02  0.51100000000E-03 0.  1.
         11   -1    0    0    0    0 -0.00000000000E+00 -0.00000000000E+00 -0.45593999997E+02  0.45594000000E+02  0.51100000000E-03 0. -1.
    9900012    2    1    2    0    0  0.38136023391E+02 -0.46296346822E+01  0.13318250662E+02  0.50528860829E+02  0.30000002977E+02 0.  0.
         12    1    1    2    0    0 -0.38136023391E+02  0.46296346822E+01 -0.13318250662E+02  0.40659139171E+02  0.00000000000E+00 0. -1.
         11    1    3    3    0    0 -0.19227491675E+01  0.20094060191E+00 -0.31736035786E+01  0.37160599325E+01  0.51100000000E-03 0. -1.
        -11    1    3    3    0    0  0.32352493119E+02  0.12013533276E+01  0.17790280760E+02  0.36940778965E+02  0.51100000000E-03 0.  1.
        -12    1    3    3    0    0  0.77062794403E+01 -0.60319286117E+01 -0.12984265195E+01  0.98720219315E+01  0.00000000000E+00 0.  1.
</event>
<event>
 7    1  0.6046695E-013  0.5052885E+02  0.7816164E-02  0.1300439E+00
        -11   -1    0    0    0    0  0.00000000000E+00  0.00000000000E+00  0.45593999997E+02  0.45594000000E+02  0.51100000000E-03 0. -1.
         11   -1    0    0    0    0 -0.00000000000E+00 -0.00000000000E+00 -0.45593999997E+02  0.45594000000E+02  0.51100000000E-03 0.  1.
    9900012    2    1    2    0    0 -0.24168372651E+02  0.24069434034E+02 -0.22129577740E+02  0.50528854629E+02  0.29999984132E+02 0.  0.
         12    1    1    2    0    0  0.24168372651E+02 -0.24069434034E+02  0.22129577740E+02  0.40659145371E+02  0.00000000000E+00 0. -1.
         11    1    3    3    0    0 -0.28216069733E+01  0.74982494137E+01 -0.13761003550E+01  0.81288906149E+01  0.51100000000E-03 0. -1.
        -11    1    3    3    0    0  0.22221636768E+01 -0.44018552381E+01 -0.54014181045E+01  0.73136624714E+01  0.51100000000E-03 0.  1.
        -12    1    3    3    0    0 -0.23568929355E+02  0.20973039858E+02 -0.15352059280E+02  0.35086301543E+02  0.00000000000E+00 0.  1.
</event>
<event>
 7    1  0.6046695E-013  0.5052886E+02  0.7816164E-02  0.1300439E+00
        -11   -1    0    0    0    0  0.00000000000E+00  0.00000000000E+00  0.45593999997E+02  0.45594000000E+02  0.51100000000E-03 0.  1.
         11   -1    0    0    0    0 -0.00000000000E+00 -0.00000000000E+00 -0.45593999997E+02  0.45594000000E+02  0.51100000000E-03 0. -1.
    9900012    2    1    2    0    0  0.28174300961E+02  0.21377132445E+02  0.20059724537E+02  0.50528861117E+02  0.30000003851E+02 0.  0.
         12    1    1    2    0    0 -0.28174300961E+02 -0.21377132445E+02 -0.20059724537E+02  0.40659138883E+02  0.00000000000E+00 0. -1.
         11    1    3    3    0    0  0.22899401095E+02  0.16851150734E+02  0.22573506774E+02  0.36302989683E+02  0.51100000000E-03 0.  1.
        -11    1    3    3    0    0  0.37783357902E+01  0.58477883283E+01 -0.66532056110E+01  0.96300360768E+01  0.51100000000E-03 0. -1.
         12    1    3    3    0    0  0.14965640762E+01 -0.13218066168E+01  0.41394233736E+01  0.45958353574E+01  0.00000000000E+00 0. -1.
</event>
<event>
 7    1  0.6046695E-013  0.5052886E+02  0.7816164E-02  0.1300439E+00
        -11   -1    0    0    0    0  0.00000000000E+00  0.00000000000E+00  0.45593999997E+02  0.45594000000E+02  0.51100000000E-03 0.  1.
         11   -1    0    0    0    0 -0.00000000000E+00 -0.00000000000E+00 -0.45593999997E+02  0.45594000000E+02  0.51100000000E-03 0. -1.
    9900012    2    1    2    0    0  0.33101423329E+02  0.55004821394E+01 -0.22960972083E+02  0.50528858726E+02  0.29999996583E+02 0.  0.
         12    1    1    2    0    0 -0.33101423329E+02 -0.55004821394E+01  0.22960972083E+02  0.40659141274E+02  0.00000000000E+00 0. -1.
         11    1    3    3    0    0 -0.38216729131E+01 -0.11094574357E+01 -0.67123077685E+01  0.78032785095E+01  0.51100000000E-03 0. -1.
        -11    1    3    3    0    0  0.31797073540E+02  0.14138447960E+01 -0.15458681842E+02  0.35383946747E+02  0.51100000000E-03 0.  1.
        -12    1    3    3    0    0  0.51260227016E+01  0.51960947791E+01 -0.78998247206E+00  0.73416334692E+01  0.00000000000E+00 0.  1.
</event>
<event>
 7    1  0.6046695E-013  0.5052886E+02  0.7816164E-02  0.1300439E+00
        -11   -1    0    0    0    0  0.00000000000E+00  0.00000000000E+00  0.45593999997E+02  0.45594000000E+02  0.51100000000E-03 0. -1.
         11   -1    0    0    0    0 -0.00000000000E+00 -0.00000000000E+00 -0.45593999997E+02  0.45594000000E+02  0.51100000000E-03 0.  1.
    9900012    2    1    2    0    0 -0.33772035599E+02 -0.34528007668E+01 -0.22376176203E+02  0.50528862244E+02  0.30000007277E+02 0.  0.
         12    1    1    2    0    0  0.33772035599E+02  0.34528007668E+01  0.22376176203E+02  0.40659137756E+02  0.00000000000E+00 0. -1.
         11    1    3    3    0    0 -0.16598415461E+02 -0.55598858931E+01  0.47247400006E+01  0.18131268441E+02  0.51100000000E-03 0. -1.
        -11    1    3    3    0    0 -0.10957365445E+02 -0.55344334826E+00 -0.16026614751E+02  0.19422217631E+02  0.51100000000E-03 0.  1.
         12    1    3    3    0    0 -0.62162546921E+01  0.26605284745E+01 -0.11074301452E+02  0.12975376172E+02  0.00000000000E+00 0. -1.
</event>
<event>
 7    1  0.6046695E-013  0.5052888E+02  0.7816164E-02  0.1300439E+00
        -11   -1    0    0    0    0  0.00000000000E+00  0.00000000000E+00  0.45593999997E+02  0.45594000000E+02  0.51100000000E-03 0.  1.
         11   -1    0    0    0    0 -0.00000000000E+00 -0.00000000000E+00 -0.45593999997E+02  0.45594000000E+02  0.51100000000E-03 0. -1.
    9900012    2    1    2    0    0  0.17888676133E+02 -0.25090445851E+02  0.26526004792E+02  0.50528878797E+02  0.30000057590E+02 0.  0.
         12    1    1    2    0    0 -0.17888676133E+02  0.25090445851E+02 -0.26526004792E+02  0.40659121203E+02  0.00000000000E+00 0. -1.
         11    1    3    3    0    0  0.13771164389E+02 -0.99990632606E+01  0.22283353205E+02  0.28038795713E+02  0.51100000000E-03 0. -1.
        -11    1    3    3    0    0  0.13436364923E+01 -0.17332909898E+02  0.61562997551E+01  0.18442753360E+02  0.51100000000E-03 0.  1.
         12    1    3    3    0    0  0.27738752518E+01  0.22415273080E+01 -0.19136481674E+01  0.40473297239E+01  0.00000000000E+00 0. -1.
</event>
<event>
 7    1  0.6046695E-013  0.5052887E+02  0.7816164E-02  0.1300439E+00
        -11   -1    0    0    0    0  0.00000000000E+00  0.00000000000E+00  0.45593999997E+02  0.45594000000E+02  0.51100000000E-03 0.  1.
         11   -1    0    0    0    0 -0.00000000000E+00 -0.00000000000E+00 -0.45593999997E+02  0.45594000000E+02  0.51100000000E-03 0. -1.
    9900012    2    1    2    0    0 -0.15550947149E+02  0.15990912438E+02  0.33994461477E+02  0.50528872502E+02  0.30000038456E+02 0.  0.
         12    1    1    2    0    0  0.15550947149E+02 -0.15990912438E+02 -0.33994461477E+02  0.40659127498E+02  0.00000000000E+00 0. -1.
         11    1    3    3    0    0  0.45917555750E+01  0.11731483132E+02  0.11111760476E+02  0.16798307559E+02  0.51100000000E-03 0. -1.
        -11    1    3    3    0    0 -0.11266618367E+02 -0.29452739082E+01  0.53866972072E+01  0.12830737894E+02  0.51100000000E-03 0.  1.
         12    1    3    3    0    0 -0.88760843569E+01  0.72047032145E+01  0.17496003794E+02  0.20899827049E+02  0.00000000000E+00 0. -1.
</event>
<event>
 7    1  0.6046695E-013  0.5052887E+02  0.7816164E-02  0.1300439E+00
        -11   -1    0    0    0    0  0.00000000000E+00  0.00000000000E+00  0.45593999997E+02  0.45594000000E+02  0.51100000000E-03 0.  1.
         11   -1    0    0    0    0 -0.00000000000E+00 -0.00000000000E+00 -0.45593999997E+02  0.45594000000E+02  0.51100000000E-03 0. -1.
    9900012    2    1    2    0    0  0.15102696882E+02 -0.48140105756E+01  0.37441938218E+02  0.50528869556E+02  0.30000029502E+02 0.  0.
         12    1    1    2    0    0 -0.15102696882E+02  0.48140105756E+01 -0.37441938218E+02  0.40659130444E+02  0.00000000000E+00 0. -1.
         11    1    3    3    0    0 -0.28695013303E+01  0.83232964969E+01  0.59788103510E+01  0.10642249571E+02  0.51100000000E-03 0. -1.
        -11    1    3    3    0    0  0.10803867193E+02 -0.92509702553E+01  0.27178699578E+02  0.30675490346E+02  0.51100000000E-03 0.  1.
         12    1    3    3    0    0  0.71683310186E+01 -0.38863368172E+01  0.42844282898E+01  0.92111296386E+01  0.00000000000E+00 0. -1.
</event>
<event>
 7    1  0.6046695E-013  0.5052886E+02  0.7816164E-02  0.1300439E+00
        -11   -1    0    0    0    0  0.00000000000E+00  0.00000000000E+00  0.45593999997E+02  0.45594000000E+02  0.51100000000E-03 0.  1.
         11   -1    0    0    0    0 -0.00000000000E+00 -0.00000000000E+00 -0.45593999997E+02  0.45594000000E+02  0.51100000000E-03 0. -1.
    9900012    2    1    2    0    0 -0.32466592470E+02  0.19702019279E+02 -0.14522966537E+02  0.50528858994E+02  0.29999997400E+02 0.  0.
         12    1    1    2    0    0  0.32466592470E+02 -0.19702019279E+02  0.14522966537E+02  0.40659141006E+02  0.00000000000E+00 0. -1.
         11    1    3    3    0    0 -0.77711207710E+00  0.11671048805E+02 -0.13047018450E+02  0.17522613220E+02  0.51100000000E-03 0. -1.
        -11    1    3    3    0    0 -0.20917015298E+02  0.73760076684E+01 -0.84788328713E+00  0.22195628498E+02  0.51100000000E-03 0.  1.
         12    1    3    3    0    0 -0.10772465095E+02  0.65496280592E+00 -0.62806480036E+00  0.10810617276E+02  0.00000000000E+00 0. -1.
</event>
<event>
 7    1  0.6046695E-013  0.5052885E+02  0.7816164E-02  0.1300439E+00
        -11   -1    0    0    0    0  0.00000000000E+00  0.00000000000E+00  0.45593999997E+02  0.45594000000E+02  0.51100000000E-03 0.  1.
         11   -1    0    0    0    0 -0.00000000000E+00 -0.00000000000E+00 -0.45593999997E+02  0.45594000000E+02  0.51100000000E-03 0. -1.
    9900012    2    1    2    0    0  0.26558826376E+02 -0.89990035605E+01  0.29441689255E+02  0.50528851094E+02  0.29999973385E+02 0.  0.
         12    1    1    2    0    0 -0.26558826376E+02  0.89990035605E+01 -0.29441689255E+02  0.40659148906E+02  0.00000000000E+00 0. -1.
         11    1    3    3    0    0 -0.46575231321E+01  0.16289819423E+01  0.64690805770E+01  0.81360375901E+01  0.51100000000E-03 0. -1.
        -11    1    3    3    0    0  0.26708441417E+02 -0.76444600293E+01  0.12203574940E+02  0.30343135198E+02  0.51100000000E-03 0.  1.
         12    1    3    3    0    0  0.45079080908E+01 -0.29835254735E+01  0.10769033738E+02  0.12049678306E+02  0.00000000000E+00 0. -1.
</event>
<event>
 7    1  0.6046695E-013  0.5052886E+02  0.7816164E-02  0.1300439E+00
        -11   -1    0    0    0    0  0.00000000000E+00  0.00000000000E+00  0.45593999997E+02  0.45594000000E+02  0.51100000000E-03 0.  1.
         11   -1    0    0    0    0 -0.00000000000E+00 -0.00000000000E+00 -0.45593999997E+02  0.45594000000E+02  0.51100000000E-03 0. -1.
    9900012    2    1    2    0    0 -0.32206669507E+02  0.22316490989E+02  0.10856808071E+02  0.50528860654E+02  0.30000002445E+02 0.  0.
         12    1    1    2    0    0  0.32206669507E+02 -0.22316490989E+02 -0.10856808071E+02  0.40659139346E+02  0.00000000000E+00 0. -1.
         11    1    3    3    0    0 -0.11251750506E+02  0.16969024678E+02 -0.51674004023E+01  0.21005992363E+02  0.51100000000E-03 0. -1.
        -11    1    3    3    0    0 -0.17399337966E+02  0.41516556291E+01  0.17919837834E+02  0.25319830062E+02  0.51100000000E-03 0.  1.
        -12    1    3    3    0    0 -0.35555810357E+01  0.11958106818E+01 -0.18956293602E+01  0.42030382295E+01  0.00000000000E+00 0.  1.
</event>
<event>
 7    1  0.6046695E-013  0.5052885E+02  0.7816164E-02  0.1300439E+00
        -11   -1    0    0    0    0  0.00000000000E+00  0.00000000000E+00  0.45593999997E+02  0.45594000000E+02  0.51100000000E-03 0.  1.
         11   -1    0    0    0    0 -0.00000000000E+00 -0.00000000000E+00 -0.45593999997E+02  0.45594000000E+02  0.51100000000E-03 0. -1.
    9900012    2    1    2    0    0 -0.21781117368E+02  0.25365929763E+01  0.34239083764E+02  0.50528853001E+02  0.29999979180E+02 0.  0.
         12    1    1    2    0    0  0.21781117368E+02 -0.25365929763E+01 -0.34239083764E+02  0.40659146999E+02  0.00000000000E+00 0. -1.
         11    1    3    3    0    0  0.51332500080E+00 -0.12247891254E+00 -0.26724030461E+00  0.59154144571E+00  0.51100000000E-03 0. -1.
        -11    1    3    3    0    0  0.23015342005E+01  0.34861111229E+01 -0.29540352099E+01  0.51162832917E+01  0.51100000000E-03 0.  1.
        -12    1    3    3    0    0 -0.24595976569E+02 -0.82703923408E+00  0.37460359278E+02  0.44821028263E+02  0.00000000000E+00 0.  1.
</event>
<event>
 7    1  0.6046695E-013  0.5052886E+02  0.7816164E-02  0.1300439E+00
        -11   -1    0    0    0    0  0.00000000000E+00  0.00000000000E+00  0.45593999997E+02  0.45594000000E+02  0.51100000000E-03 0.  1.
         11   -1    0    0    0    0 -0.00000000000E+00 -0.00000000000E+00 -0.45593999997E+02  0.45594000000E+02  0.51100000000E-03 0. -1.
    9900012    2    1    2    0    0 -0.11087988090E+02 -0.33153862339E+02  0.20761582708E+02  0.50528863457E+02  0.30000010965E+02 0.  0.
         12    1    1    2    0    0  0.11087988090E+02  0.33153862339E+02 -0.20761582708E+02  0.40659136543E+02  0.00000000000E+00 0. -1.
         11    1    3    3    0    0  0.37859423659E+01 -0.20694139420E+02  0.14997238559E+02  0.25835981316E+02  0.51100000000E-03 0. -1.
        -11    1    3    3    0    0 -0.94171623411E+01 -0.15210296029E+02  0.46102393198E+01  0.18474045542E+02  0.51100000000E-03 0.  1.
         12    1    3    3    0    0 -0.54567681144E+01  0.27505731097E+01  0.11541048290E+01  0.62188365988E+01  0.00000000000E+00 0. -1.
</event>
<event>
 7    1  0.6046695E-013  0.5052890E+02  0.7816164E-02  0.1300439E+00
        -11   -1    0    0    0    0  0.00000000000E+00  0.00000000000E+00  0.45593999997E+02  0.45594000000E+02  0.51100000000E-03 0.  1.
         11   -1    0    0    0    0 -0.00000000000E+00 -0.00000000000E+00 -0.45593999997E+02  0.45594000000E+02  0.51100000000E-03 0. -1.
    9900012    2    1    2    0    0 -0.36149755860E+02  0.13259284384E+02  0.13059424104E+02  0.50528904720E+02  0.30000136386E+02 0.  0.
         12    1    1    2    0    0  0.36149755860E+02 -0.13259284384E+02 -0.13059424104E+02  0.40659095280E+02  0.00000000000E+00 0. -1.
         11    1    3    3    0    0 -0.64325446426E+01  0.59399426281E+01  0.25753817667E+01  0.91265075746E+01  0.51100000000E-03 0. -1.
        -11    1    3    3    0    0 -0.57496259155E+01 -0.68010518678E+00 -0.81570633344E+01  0.10002920760E+02  0.51100000000E-03 0.  1.
        -12    1    3    3    0    0 -0.23967585301E+02  0.79994469425E+01  0.18641105672E+02  0.31399476385E+02  0.00000000000E+00 0.  1.
</event>
<event>
 7    1  0.6046695E-013  0.5052886E+02  0.7816164E-02  0.1300439E+00
        -11   -1    0    0    0    0  0.00000000000E+00  0.00000000000E+00  0.45593999997E+02  0.45594000000E+02  0.51100000000E-03 0.  1.
         11   -1    0    0    0    0 -0.00000000000E+00 -0.00000000000E+00 -0.45593999997E+02  0.45594000000E+02  0.51100000000E-03 0. -1.
    9900012    2    1    2    0    0  0.12268512588E+02  0.23827458313E+02  0.30576154173E+02  0.50528863575E+02  0.30000011324E+02 0.  0.
         12    1    1    2    0    0 -0.12268512588E+02 -0.23827458313E+02 -0.30576154173E+02  0.40659136425E+02  0.00000000000E+00 0. -1.
         11    1    3    3    0    0 -0.15652136380E+01  0.97260303820E+01  0.31588944584E-01  0.98512211855E+01  0.51100000000E-03 0. -1.
        -11    1    3    3    0    0  0.69588342731E+01  0.93959158009E+01  0.30149449473E+02  0.32337252697E+02  0.51100000000E-03 0.  1.
        -12    1    3    3    0    0  0.68748919528E+01  0.47055121299E+01  0.39511575542E+00  0.83403896928E+01  0.00000000000E+00 0.  1.
</event>
<event>
 7    1  0.6046695E-013  0.5052886E+02  0.7816164E-02  0.1300439E+00
        -11   -1    0    0    0    0  0.00000000000E+00  0.00000000000E+00  0.45593999997E+02  0.45594000000E+02  0.51100000000E-03 0.  1.
         11   -1    0    0    0    0 -0.00000000000E+00 -0.00000000000E+00 -0.45593999997E+02  0.45594000000E+02  0.51100000000E-03 0. -1.
    9900012    2    1    2    0    0  0.22201005137E+02  0.66609965816E+00  0.34056389730E+02  0.50528855896E+02  0.29999987981E+02 0.  0.
         12    1    1    2    0    0 -0.22201005137E+02 -0.66609965816E+00 -0.34056389730E+02  0.40659144104E+02  0.00000000000E+00 0. -1.
         11    1    3    3    0    0 -0.46017506030E+01  0.22938809590E+01  0.75742748526E+01  0.91546511823E+01  0.51100000000E-03 0. -1.
        -11    1    3    3    0    0  0.18261825354E+02 -0.58623246710E+01  0.25329468342E+02  0.31771734019E+02  0.51100000000E-03 0.  1.
        -12    1    3    3    0    0  0.85409303855E+01  0.42345433702E+01  0.11526465354E+01  0.96024706946E+01  0.00000000000E+00 0.  1.
</event>
<event>
 7    1  0.6046695E-013  0.5052887E+02  0.7816164E-02  0.1300439E+00
        -11   -1    0    0    0    0  0.00000000000E+00  0.00000000000E+00  0.45593999997E+02  0.45594000000E+02  0.51100000000E-03 0.  1.
         11   -1    0    0    0    0 -0.00000000000E+00 -0.00000000000E+00 -0.45593999997E+02  0.45594000000E+02  0.51100000000E-03 0. -1.
    9900012    2    1    2    0    0  0.14086826122E+02 -0.26926793897E+02  0.27012483420E+02  0.50528866213E+02  0.30000019342E+02 0.  0.
         12    1    1    2    0    0 -0.14086826122E+02  0.26926793897E+02 -0.27012483420E+02  0.40659133787E+02  0.00000000000E+00 0. -1.
         11    1    3    3    0    0  0.45829201123E+01  0.14283403401E+01 -0.11491665641E+01  0.49359798354E+01  0.51100000000E-03 0. -1.
        -11    1    3    3    0    0  0.89280986807E+01 -0.26915250452E+02  0.31212441955E+02  0.42170584369E+02  0.51100000000E-03 0.  1.
        -12    1    3    3    0    0  0.57580732920E+00 -0.14398837849E+01 -0.30507919706E+01  0.34223020092E+01  0.00000000000E+00 0.  1.
</event>
<event>
 7    1  0.6046695E-013  0.5052886E+02  0.7816164E-02  0.1300439E+00
        -11   -1    0    0    0    0  0.00000000000E+00  0.00000000000E+00  0.45593999997E+02  0.45594000000E+02  0.51100000000E-03 0. -1.
         11   -1    0    0    0    0 -0.00000000000E+00 -0.00000000000E+00 -0.45593999997E+02  0.45594000000E+02  0.51100000000E-03 0.  1.
    9900012    2    1    2    0    0  0.38632864440E+02  0.95597675659E+01 -0.83233597653E+01  0.50528859718E+02  0.29999999597E+02 0.  0.
         12    1    1    2    0    0 -0.38632864440E+02 -0.95597675659E+01  0.83233597653E+01  0.40659140282E+02  0.00000000000E+00 0. -1.
         11    1    3    3    0    0  0.20835174465E+02  0.20095999399E+02 -0.31295656541E+01  0.29116110116E+02  0.51100000000E-03 0. -1.
        -11    1    3    3    0    0  0.59867649307E+01 -0.35564272084E+01 -0.27010847320E+01  0.74689616290E+01  0.51100000000E-03 0.  1.
         12    1    3    3    0    0  0.11810925044E+02 -0.69798046243E+01 -0.24927093793E+01  0.13943787973E+02  0.00000000000E+00 0. -1.
</event>
<event>
 7    1  0.6046695E-013  0.5052886E+02  0.7816164E-02  0.1300439E+00
        -11   -1    0    0    0    0  0.00000000000E+00  0.00000000000E+00  0.45593999997E+02  0.45594000000E+02  0.51100000000E-03 0.  1.
         11   -1    0    0    0    0 -0.00000000000E+00 -0.00000000000E+00 -0.45593999997E+02  0.45594000000E+02  0.51100000000E-03 0. -1.
    9900012    2    1    2    0    0  0.27875382703E+02  0.27206201744E+02  0.11659811427E+02  0.50528861092E+02  0.30000003776E+02 0.  0.
         12    1    1    2    0    0 -0.27875382703E+02 -0.27206201744E+02 -0.11659811427E+02  0.40659138908E+02  0.00000000000E+00 0. -1.
         11    1    3    3    0    0  0.10256643381E+02 -0.15661435286E+01  0.12204259852E+02  0.16018598497E+02  0.51100000000E-03 0.  1.
        -11    1    3    3    0    0  0.14222929094E+02  0.16576566191E+02 -0.84648723508E-01  0.21842193671E+02  0.51100000000E-03 0. -1.
         12    1    3    3    0    0  0.33958102284E+01  0.12195779081E+02 -0.45979970132E+00  0.12668068924E+02  0.00000000000E+00 0. -1.
</event>
<event>
 7    1  0.6046695E-013  0.5052887E+02  0.7816164E-02  0.1300439E+00
        -11   -1    0    0    0    0  0.00000000000E+00  0.00000000000E+00  0.45593999997E+02  0.45594000000E+02  0.51100000000E-03 0.  1.
         11   -1    0    0    0    0 -0.00000000000E+00 -0.00000000000E+00 -0.45593999997E+02  0.45594000000E+02  0.51100000000E-03 0. -1.
    9900012    2    1    2    0    0  0.39322732373E+02 -0.17453170977E+01  0.10190276021E+02  0.50528866482E+02  0.30000020158E+02 0.  0.
         12    1    1    2    0    0 -0.39322732373E+02  0.17453170977E+01 -0.10190276021E+02  0.40659133518E+02  0.00000000000E+00 0. -1.
         11    1    3    3    0    0  0.13279547479E+02 -0.98703010576E+01 -0.30867437821E+01  0.16831435223E+02  0.51100000000E-03 0. -1.
        -11    1    3    3    0    0  0.16522189217E+02  0.14608402484E+01  0.14474624090E+02  0.22014348356E+02  0.51100000000E-03 0.  1.
         12    1    3    3    0    0  0.95209956767E+01  0.66641437116E+01 -0.11976042861E+01  0.11683082903E+02  0.00000000000E+00 0. -1.
</event>
<event>
 7    1  0.6046695E-013  0.5052886E+02  0.7816164E-02  0.1300439E+00
        -11   -1    0    0    0    0  0.00000000000E+00  0.00000000000E+00  0.45593999997E+02  0.45594000000E+02  0.51100000000E-03 0.  1.
         11   -1    0    0    0    0 -0.00000000000E+00 -0.00000000000E+00 -0.45593999997E+02  0.45594000000E+02  0.51100000000E-03 0. -1.
    9900012    2    1    2    0    0 -0.74274514778E+01 -0.68318108255E+01  0.39386861846E+02  0.50528861290E+02  0.30000004377E+02 0.  0.
         12    1    1    2    0    0  0.74274514778E+01  0.68318108255E+01 -0.39386861846E+02  0.40659138710E+02  0.00000000000E+00 0. -1.
         11    1    3    3    0    0  0.26347680583E+01 -0.14174722349E+02  0.17908474990E+02  0.22990829326E+02  0.51100000000E-03 0. -1.
        -11    1    3    3    0    0 -0.94157002815E+01  0.60115499647E+01  0.74401607746E+01  0.13422001989E+02  0.51100000000E-03 0.  1.
        -12    1    3    3    0    0 -0.64651925464E+00  0.13313615588E+01  0.14038226081E+02  0.14116029975E+02  0.00000000000E+00 0.  1.
</event>
<event>
 7    1  0.6046695E-013  0.5052889E+02  0.7816164E-02  0.1300439E+00
        -11   -1    0    0    0    0  0.00000000000E+00  0.00000000000E+00  0.45593999997E+02  0.45594000000E+02  0.51100000000E-03 0. -1.
         11   -1    0    0    0    0 -0.00000000000E+00 -0.00000000000E+00 -0.45593999997E+02  0.45594000000E+02  0.51100000000E-03 0.  1.
    9900012    2    1    2    0    0  0.19198898463E+02 -0.45922477536E+01 -0.35545422965E+02  0.50528886195E+02  0.30000080079E+02 0.  0.
         12    1    1    2    0    0 -0.19198898463E+02  0.45922477536E+01  0.35545422965E+02  0.40659113805E+02  0.00000000000E+00 0. -1.
         11    1    3    3    0    0  0.96451519123E+01  0.11622411932E+02 -0.10728733859E+02  0.18526066636E+02  0.51100000000E-03 0. -1.
        -11    1    3    3    0    0  0.30368878496E+01 -0.10685743569E+02 -0.17622251943E+02  0.20831504200E+02  0.51100000000E-03 0.  1.
         12    1    3    3    0    0  0.65168587014E+01 -0.55289161167E+01 -0.71944371626E+01  0.11171315359E+02  0.00000000000E+00 0. -1.
</event>
<event>
 7    1  0.6046695E-013  0.5052886E+02  0.7816164E-02  0.1300439E+00
        -11   -1    0    0    0    0  0.00000000000E+00  0.00000000000E+00  0.45593999997E+02  0.45594000000E+02  0.51100000000E-03 0. -1.
         11   -1    0    0    0    0 -0.00000000000E+00 -0.00000000000E+00 -0.45593999997E+02  0.45594000000E+02  0.51100000000E-03 0.  1.
    9900012    2    1    2    0    0 -0.37784993810E+02  0.76777262566E+01 -0.12903967590E+02  0.50528860594E+02  0.30000002261E+02 0.  0.
         12    1    1    2    0    0  0.37784993810E+02 -0.76777262566E+01  0.12903967590E+02  0.40659139406E+02  0.00000000000E+00 0. -1.
         11    1    3    3    0    0 -0.40081836626E+02  0.99400221932E+01 -0.45500709207E+01  0.41545888054E+02  0.51100000000E-03 0. -1.
        -11    1    3    3    0    0  0.13785254573E+01 -0.16815835437E+01 -0.62059720002E+01  0.65758759401E+01  0.51100000000E-03 0.  1.
         12    1    3    3    0    0  0.91831735925E+00 -0.58071239284E+00 -0.21479246696E+01  0.24070966000E+01  0.00000000000E+00 0. -1.
</event>
<event>
 7    1  0.6046695E-013  0.5052887E+02  0.7816164E-02  0.1300439E+00
        -11   -1    0    0    0    0  0.00000000000E+00  0.00000000000E+00  0.45593999997E+02  0.45594000000E+02  0.51100000000E-03 0.  1.
         11   -1    0    0    0    0 -0.00000000000E+00 -0.00000000000E+00 -0.45593999997E+02  0.45594000000E+02  0.51100000000E-03 0. -1.
    9900012    2    1    2    0    0 -0.31389783426E+02  0.18874511613E+02  0.17652181575E+02  0.50528865645E+02  0.30000017614E+02 0.  0.
         12    1    1    2    0    0  0.31389783426E+02 -0.18874511613E+02 -0.17652181575E+02  0.40659134355E+02  0.00000000000E+00 0. -1.
         11    1    3    3    0    0  0.54365536695E+01  0.43947146900E+01  0.49329906980E+01  0.85559353957E+01  0.51100000000E-03 0. -1.
        -11    1    3    3    0    0 -0.15639861216E+02  0.37681902896E+01  0.32421185239E+01  0.16410845490E+02  0.51100000000E-03 0.  1.
         12    1    3    3    0    0 -0.21186475879E+02  0.10711606634E+02  0.94770723527E+01  0.25562084759E+02  0.00000000000E+00 0. -1.
</event>
<event>
 7    1  0.6046695E-013  0.5052885E+02  0.7816164E-02  0.1300439E+00
        -11   -1    0    0    0    0  0.00000000000E+00  0.00000000000E+00  0.45593999997E+02  0.45594000000E+02  0.51100000000E-03 0.  1.
         11   -1    0    0    0    0 -0.00000000000E+00 -0.00000000000E+00 -0.45593999997E+02  0.45594000000E+02  0.51100000000E-03 0. -1.
    9900012    2    1    2    0    0  0.77813859447E+01 -0.52545024767E-01  0.39907560996E+02  0.50528854007E+02  0.29999982241E+02 0.  0.
         12    1    1    2    0    0 -0.77813859447E+01  0.52545024767E-01 -0.39907560996E+02  0.40659145993E+02  0.00000000000E+00 0. -1.
         11    1    3    3    0    0  0.65213608498E+01 -0.55895928801E+01  0.12545462791E+02  0.15203957800E+02  0.51100000000E-03 0. -1.
        -11    1    3    3    0    0  0.25631003509E+01  0.12976975446E+02  0.10639350066E+02  0.16975486598E+02  0.51100000000E-03 0.  1.
        -12    1    3    3    0    0 -0.13030752560E+01 -0.74399275910E+01  0.16722748140E+02  0.18349409610E+02  0.00000000000E+00 0.  1.
</event>
<event>
 7    1  0.6046695E-013  0.5052886E+02  0.7816164E-02  0.1300439E+00
        -11   -1    0    0    0    0  0.00000000000E+00  0.00000000000E+00  0.45593999997E+02  0.45594000000E+02  0.51100000000E-03 0.  1.
         11   -1    0    0    0    0 -0.00000000000E+00 -0.00000000000E+00 -0.45593999997E+02  0.45594000000E+02  0.51100000000E-03 0. -1.
    9900012    2    1    2    0    0  0.33616719858E+02 -0.22610570314E+02 -0.34415491367E+01  0.50528855833E+02  0.29999987790E+02 0.  0.
         12    1    1    2    0    0 -0.33616719858E+02  0.22610570314E+02  0.34415491367E+01  0.40659144167E+02  0.00000000000E+00 0. -1.
         11    1    3    3    0    0  0.15907709416E+02 -0.10244804779E+01  0.46136469320E+01  0.16594894317E+02  0.51100000000E-03 0.  1.
        -11    1    3    3    0    0  0.48443487516E+01 -0.14261336472E+02 -0.11237662343E+02  0.18791979353E+02  0.51100000000E-03 0. -1.
         12    1    3    3    0    0  0.12864661690E+02 -0.73247533631E+01  0.31824662739E+01  0.15141982163E+02  0.00000000000E+00 0. -1.
</event>
<event>
 7    1  0.6046695E-013  0.5052887E+02  0.7816164E-02  0.1300439E+00
        -11   -1    0    0    0    0  0.00000000000E+00  0.00000000000E+00  0.45593999997E+02  0.45594000000E+02  0.51100000000E-03 0.  1.
         11   -1    0    0    0    0 -0.00000000000E+00 -0.00000000000E+00 -0.45593999997E+02  0.45594000000E+02  0.51100000000E-03 0. -1.
    9900012    2    1    2    0    0  0.31939119568E+02  0.20258474485E+02 -0.14921524063E+02  0.50528867845E+02  0.30000024303E+02 0.  0.
         12    1    1    2    0    0 -0.31939119568E+02 -0.20258474485E+02  0.14921524063E+02  0.40659132155E+02  0.00000000000E+00 0. -1.
         11    1    3    3    0    0  0.98607672239E+01 -0.62760674916E+01 -0.80977505282E+01  0.14219610307E+02  0.51100000000E-03 0. -1.
        -11    1    3    3    0    0  0.79842668248E+01  0.13493142616E+02  0.67969048042E+00  0.15693163919E+02  0.51100000000E-03 0.  1.
        -12    1    3    3    0    0  0.14094085519E+02  0.13041399361E+02 -0.75034640147E+01  0.20616093619E+02  0.00000000000E+00 0.  1.
</event>
<event>
 7    1  0.6046695E-013  0.5052887E+02  0.7816164E-02  0.1300439E+00
        -11   -1    0    0    0    0  0.00000000000E+00  0.00000000000E+00  0.45593999997E+02  0.45594000000E+02  0.51100000000E-03 0.  1.
         11   -1    0    0    0    0 -0.00000000000E+00 -0.00000000000E+00 -0.45593999997E+02  0.45594000000E+02  0.51100000000E-03 0. -1.
    9900012    2    1    2    0    0 -0.28856415152E+02  0.21983245723E+02  0.18363257056E+02  0.50528868213E+02  0.30000025421E+02 0.  0.
         12    1    1    2    0    0  0.28856415152E+02 -0.21983245723E+02 -0.18363257056E+02  0.40659131787E+02  0.00000000000E+00 0. -1.
         11    1    3    3    0    0 -0.35326058874E+00 -0.73063982002E+00  0.89569415928E+01  0.89936327781E+01  0.51100000000E-03 0. -1.
        -11    1    3    3    0    0 -0.19679747293E+02  0.92285335281E+01 -0.19455512406E+01  0.21823002875E+02  0.51100000000E-03 0.  1.
        -12    1    3    3    0    0 -0.88234072699E+01  0.13485352015E+02  0.11351866704E+02  0.19712232560E+02  0.00000000000E+00 0.  1.
</event>
<event>
 7    1  0.6046695E-013  0.5052886E+02  0.7816164E-02  0.1300439E+00
        -11   -1    0    0    0    0  0.00000000000E+00  0.00000000000E+00  0.45593999997E+02  0.45594000000E+02  0.51100000000E-03 0.  1.
         11   -1    0    0    0    0 -0.00000000000E+00 -0.00000000000E+00 -0.45593999997E+02  0.45594000000E+02  0.51100000000E-03 0. -1.
    9900012    2    1    2    0    0  0.16161909594E+02 -0.24971044199E+02  0.27720117700E+02  0.50528864551E+02  0.30000014290E+02 0.  0.
         12    1    1    2    0    0 -0.16161909594E+02  0.24971044199E+02 -0.27720117700E+02  0.40659135449E+02  0.00000000000E+00 0. -1.
         11    1    3    3    0    0  0.15162466639E+02 -0.73940421190E+01  0.16174223525E+02  0.23370446301E+02  0.51100000000E-03 0. -1.
        -11    1    3    3    0    0 -0.80274343690E+01 -0.72756198791E+01  0.59718250335E+01  0.12370814107E+02  0.51100000000E-03 0.  1.
        -12    1    3    3    0    0  0.90268773246E+01 -0.10301382201E+02  0.55740691416E+01  0.14787604143E+02  0.00000000000E+00 0.  1.
</event>
<event>
 7    1  0.6046695E-013  0.5052885E+02  0.7816164E-02  0.1300439E+00
        -11   -1    0    0    0    0  0.00000000000E+00  0.00000000000E+00  0.45593999997E+02  0.45594000000E+02  0.51100000000E-03 0.  1.
         11   -1    0    0    0    0 -0.00000000000E+00 -0.00000000000E+00 -0.45593999997E+02  0.45594000000E+02  0.51100000000E-03 0. -1.
    9900012    2    1    2    0    0 -0.25104225135E+02 -0.15928245416E+02  0.27735092825E+02  0.50528849792E+02  0.29999969427E+02 0.  0.
         12    1    1    2    0    0  0.25104225135E+02  0.15928245416E+02 -0.27735092825E+02  0.40659150208E+02  0.00000000000E+00 0. -1.
         11    1    3    3    0    0 -0.17501863514E+02 -0.16531270145E+02  0.15639977944E+02  0.28709006068E+02  0.51100000000E-03 0. -1.
        -11    1    3    3    0    0 -0.97605434383E+01  0.50106347540E+01  0.28227754813E+01  0.11328845066E+02  0.51100000000E-03 0.  1.
        -12    1    3    3    0    0  0.21581818174E+01 -0.44076100251E+01  0.92723394001E+01  0.10490998658E+02  0.00000000000E+00 0.  1.
</event>
<event>
 7    1  0.6046695E-013  0.5052885E+02  0.7816164E-02  0.1300439E+00
        -11   -1    0    0    0    0  0.00000000000E+00  0.00000000000E+00  0.45593999997E+02  0.45594000000E+02  0.51100000000E-03 0.  1.
         11   -1    0    0    0    0 -0.00000000000E+00 -0.00000000000E+00 -0.45593999997E+02  0.45594000000E+02  0.51100000000E-03 0. -1.
    9900012    2    1    2    0    0 -0.23107421688E+02 -0.30276657806E+02  0.14231562822E+02  0.50528851887E+02  0.29999975795E+02 0.  0.
         12    1    1    2    0    0  0.23107421688E+02  0.30276657806E+02 -0.14231562822E+02  0.40659148113E+02  0.00000000000E+00 0. -1.
         11    1    3    3    0    0  0.60314959351E+01 -0.10969263469E+02  0.17651471192E+01  0.12641970925E+02  0.51100000000E-03 0. -1.
        -11    1    3    3    0    0 -0.25847379030E+01 -0.20828761627E+00  0.27162111900E+01  0.37552705959E+01  0.51100000000E-03 0.  1.
         12    1    3    3    0    0 -0.26554179720E+02 -0.19099106721E+02  0.97502045126E+01  0.34131610366E+02  0.00000000000E+00 0. -1.
</event>
<event>
 7    1  0.6046695E-013  0.5052887E+02  0.7816164E-02  0.1300439E+00
        -11   -1    0    0    0    0  0.00000000000E+00  0.00000000000E+00  0.45593999997E+02  0.45594000000E+02  0.51100000000E-03 0. -1.
         11   -1    0    0    0    0 -0.00000000000E+00 -0.00000000000E+00 -0.45593999997E+02  0.45594000000E+02  0.51100000000E-03 0.  1.
    9900012    2    1    2    0    0 -0.35649252366E+02 -0.19090727586E+02 -0.42236838608E+01  0.50528873356E+02  0.30000041054E+02 0.  0.
         12    1    1    2    0    0  0.35649252366E+02  0.19090727586E+02  0.42236838608E+01  0.40659126644E+02  0.00000000000E+00 0. -1.
         11    1    3    3    0    0 -0.23263832535E+01  0.51804313523E+01 -0.39309648005E+01  0.69066209221E+01  0.51100000000E-03 0. -1.
        -11    1    3    3    0    0 -0.34184838871E+02 -0.24135220051E+02 -0.17951651571E+01  0.41884778544E+02  0.51100000000E-03 0.  1.
        -12    1    3    3    0    0  0.86196975786E+00 -0.13593888802E+00  0.15024460968E+01  0.17374738900E+01  0.00000000000E+00 0.  1.
</event>
<event>
 7    1  0.6934918E-013  0.5052886E+02  0.7816164E-02  0.1300439E+00
        -11   -1    0    0    0    0  0.00000000000E+00  0.00000000000E+00  0.45593999997E+02  0.45594000000E+02  0.51100000000E-03 0. -1.
         11   -1    0    0    0    0 -0.00000000000E+00 -0.00000000000E+00 -0.45593999997E+02  0.45594000000E+02  0.51100000000E-03 0.  1.
    9900012    2    1    2    0    0 -0.24428111883E+02  0.45339703406E+01 -0.32185029534E+02  0.50528860027E+02  0.30000000537E+02 0.  0.
         12    1    1    2    0    0  0.24428111883E+02 -0.45339703406E+01  0.32185029534E+02  0.40659139973E+02  0.00000000000E+00 0. -1.
         11    1    3    3    0    0 -0.64553384611E+01 -0.11248387615E+02 -0.13214822155E+02  0.18515645909E+02  0.51100000000E-03 0. -1.
        -11    1    3    3    0    0 -0.12222740384E+02  0.79624064237E+01 -0.16447274841E+02  0.21984270480E+02  0.51100000000E-03 0.  1.
         12    1    3    3    0    0 -0.57500330379E+01  0.78199515318E+01 -0.25229325381E+01  0.10028943638E+02  0.00000000000E+00 0. -1.
</event>
<event>
 7    1  0.6046695E-013  0.5052887E+02  0.7816164E-02  0.1300439E+00
        -11   -1    0    0    0    0  0.00000000000E+00  0.00000000000E+00  0.45593999997E+02  0.45594000000E+02  0.51100000000E-03 0.  1.
         11   -1    0    0    0    0 -0.00000000000E+00 -0.00000000000E+00 -0.45593999997E+02  0.45594000000E+02  0.51100000000E-03 0. -1.
    9900012    2    1    2    0    0  0.27539229519E+02 -0.28860085213E+02  0.78645756494E+01  0.50528865342E+02  0.30000016692E+02 0.  0.
         12    1    1    2    0    0 -0.27539229519E+02  0.28860085213E+02 -0.78645756494E+01  0.40659134658E+02  0.00000000000E+00 0. -1.
         11    1    3    3    0    0  0.15594752964E+02 -0.48268323737E+01 -0.19857583904E+01  0.16444995209E+02  0.51100000000E-03 0. -1.
        -11    1    3    3    0    0 -0.15507305073E+01 -0.17266019902E+02  0.33953830437E+01  0.17664904037E+02  0.51100000000E-03 0.  1.
         12    1    3    3    0    0  0.13495207062E+02 -0.67672329375E+01  0.64549509961E+01  0.16418966096E+02  0.00000000000E+00 0. -1.
</event>
<event>
 7    1  0.6046695E-013  0.5052886E+02  0.7816164E-02  0.1300439E+00
        -11   -1    0    0    0    0  0.00000000000E+00  0.00000000000E+00  0.45593999997E+02  0.45594000000E+02  0.51100000000E-03 0. -1.
         11   -1    0    0    0    0 -0.00000000000E+00 -0.00000000000E+00 -0.45593999997E+02  0.45594000000E+02  0.51100000000E-03 0.  1.
    9900012    2    1    2    0    0 -0.19018182357E+01 -0.29285697640E+02 -0.28140661567E+02  0.50528857949E+02  0.29999994222E+02 0.  0.
         12    1    1    2    0    0  0.19018182357E+01  0.29285697640E+02  0.28140661567E+02  0.40659142051E+02  0.00000000000E+00 0. -1.
         11    1    3    3    0    0  0.21136420542E+01 -0.10697375160E+02 -0.20192329950E+02  0.22948453262E+02  0.51100000000E-03 0.  1.
        -11    1    3    3    0    0 -0.31024155493E+01  0.15739624444E+01  0.30224999348E+01  0.46084537683E+01  0.51100000000E-03 0. -1.
         12    1    3    3    0    0 -0.91304474057E+00 -0.20162284925E+02 -0.10970831552E+02  0.22971950919E+02  0.00000000000E+00 0. -1.
</event>
<event>
 7    1  0.6046695E-013  0.5052894E+02  0.7816164E-02  0.1300439E+00
        -11   -1    0    0    0    0  0.00000000000E+00  0.00000000000E+00  0.45593999997E+02  0.45594000000E+02  0.51100000000E-03 0.  1.
         11   -1    0    0    0    0 -0.00000000000E+00 -0.00000000000E+00 -0.45593999997E+02  0.45594000000E+02  0.51100000000E-03 0. -1.
    9900012    2    1    2    0    0  0.11887404760E+02  0.28440454712E+02  0.26513948662E+02  0.50528937913E+02  0.30000237279E+02 0.  0.
         12    1    1    2    0    0 -0.11887404760E+02 -0.28440454712E+02 -0.26513948662E+02  0.40659062087E+02  0.00000000000E+00 0. -1.
         11    1    3    3    0    0  0.11816560886E+02  0.22052400553E+02  0.24176358466E+02  0.34791317743E+02  0.51100000000E-03 0.  1.
        -11    1    3    3    0    0 -0.34826688662E+01 -0.25597881360E+01  0.40913890402E+01  0.59515512492E+01  0.51100000000E-03 0. -1.
         12    1    3    3    0    0  0.35535127402E+01  0.89478422950E+01 -0.17537988446E+01  0.97860689206E+01  0.00000000000E+00 0. -1.
</event>
<event>
 7    1  0.6046695E-013  0.5052885E+02  0.7816164E-02  0.1300439E+00
        -11   -1    0    0    0    0  0.00000000000E+00  0.00000000000E+00  0.45593999997E+02  0.45594000000E+02  0.51100000000E-03 0.  1.
         11   -1    0    0    0    0 -0.00000000000E+00 -0.00000000000E+00 -0.45593999997E+02  0.45594000000E+02  0.51100000000E-03 0. -1.
    9900012    2    1    2    0    0 -0.24039730154E+02  0.88347105033E+01  0.31578567101E+02  0.50528848070E+02  0.29999964193E+02 0.  0.
         12    1    1    2    0    0  0.24039730154E+02 -0.88347105033E+01 -0.31578567101E+02  0.40659151930E+02  0.00000000000E+00 0. -1.
         11    1    3    3    0    0 -0.47921151235E+00 -0.36855391376E+01  0.77435776423E+00  0.37963762480E+01  0.51100000000E-03 0. -1.
        -11    1    3    3    0    0 -0.21891590835E+02  0.18230083797E+02  0.21506720926E+02  0.35694772023E+02  0.51100000000E-03 0.  1.
        -12    1    3    3    0    0 -0.16689278064E+01 -0.57098341559E+01  0.92974884110E+01  0.11037699799E+02  0.00000000000E+00 0.  1.
</event>
<event>
 7    1  0.6046695E-013  0.5052889E+02  0.7816164E-02  0.1300439E+00
        -11   -1    0    0    0    0  0.00000000000E+00  0.00000000000E+00  0.45593999997E+02  0.45594000000E+02  0.51100000000E-03 0.  1.
         11   -1    0    0    0    0 -0.00000000000E+00 -0.00000000000E+00 -0.45593999997E+02  0.45594000000E+02  0.51100000000E-03 0. -1.
    9900012    2    1    2    0    0  0.31320420002E+02  0.46485080445E+01  0.25506579561E+02  0.50528893553E+02  0.30000102444E+02 0.  0.
         12    1    1    2    0    0 -0.31320420002E+02 -0.46485080445E+01 -0.25506579561E+02  0.40659106447E+02  0.00000000000E+00 0. -1.
         11    1    3    3    0    0  0.17535717939E+02  0.72783698077E+01  0.67399679375E+01  0.20147040446E+02  0.51100000000E-03 0. -1.
        -11    1    3    3    0    0  0.50404168579E+00 -0.67848173910E+01  0.14183936802E+02  0.15731238619E+02  0.51100000000E-03 0.  1.
        -12    1    3    3    0    0  0.13280660378E+02  0.41549556278E+01  0.45826748221E+01  0.14650614488E+02  0.00000000000E+00 0.  1.
</event>
<event>
 7    1  0.6046695E-013  0.5052887E+02  0.7816164E-02  0.1300439E+00
        -11   -1    0    0    0    0  0.00000000000E+00  0.00000000000E+00  0.45593999997E+02  0.45594000000E+02  0.51100000000E-03 0. -1.
         11   -1    0    0    0    0 -0.00000000000E+00 -0.00000000000E+00 -0.45593999997E+02  0.45594000000E+02  0.51100000000E-03 0.  1.
    9900012    2    1    2    0    0 -0.18752887077E+02 -0.34401851271E+02  0.10863107606E+02  0.50528865092E+02  0.30000015933E+02 0.  0.
         12    1    1    2    0    0  0.18752887077E+02  0.34401851271E+02 -0.10863107606E+02  0.40659134908E+02  0.00000000000E+00 0. -1.
         11    1    3    3    0    0 -0.17122238529E+01 -0.27940384535E+02  0.50863581447E+01  0.28451148271E+02  0.51100000000E-03 0.  1.
        -11    1    3    3    0    0 -0.18337449066E+02 -0.65385436102E+01  0.39971373675E+01  0.19874398059E+02  0.51100000000E-03 0. -1.
         12    1    3    3    0    0  0.12967858419E+01  0.77076874050E-01  0.17796120937E+01  0.22033187623E+01  0.00000000000E+00 0. -1.
</event>
<event>
 7    1  0.6046695E-013  0.5052886E+02  0.7816164E-02  0.1300439E+00
        -11   -1    0    0    0    0  0.00000000000E+00  0.00000000000E+00  0.45593999997E+02  0.45594000000E+02  0.51100000000E-03 0. -1.
         11   -1    0    0    0    0 -0.00000000000E+00 -0.00000000000E+00 -0.45593999997E+02  0.45594000000E+02  0.51100000000E-03 0.  1.
    9900012    2    1    2    0    0  0.37147598159E+02  0.13628412822E+02 -0.93535090153E+01  0.50528858151E+02  0.29999994836E+02 0.  0.
         12    1    1    2    0    0 -0.37147598159E+02 -0.13628412822E+02  0.93535090153E+01  0.40659141849E+02  0.00000000000E+00 0. -1.
         11    1    3    3    0    0  0.16038960403E+02 -0.25758859447E+01  0.22004259124E+01  0.16392843367E+02  0.51100000000E-03 0. -1.
        -11    1    3    3    0    0  0.14715671314E+01  0.11928109374E+02 -0.46279584019E+01  0.12878792734E+02  0.51100000000E-03 0.  1.
        -12    1    3    3    0    0  0.19637070624E+02  0.42761893921E+01 -0.69259765258E+01  0.21257222049E+02  0.00000000000E+00 0.  1.
</event>
<event>
 7    1  0.6046695E-013  0.5052880E+02  0.7816164E-02  0.1300439E+00
        -11   -1    0    0    0    0  0.00000000000E+00  0.00000000000E+00  0.45593999997E+02  0.45594000000E+02  0.51100000000E-03 0.  1.
         11   -1    0    0    0    0 -0.00000000000E+00 -0.00000000000E+00 -0.45593999997E+02  0.45594000000E+02  0.51100000000E-03 0. -1.
    9900012    2    1    2    0    0 -0.17011869964E+02  0.31216176036E+02  0.19731121615E+02  0.50528800227E+02  0.29999818770E+02 0.  0.
         12    1    1    2    0    0  0.17011869964E+02 -0.31216176036E+02 -0.19731121615E+02  0.40659199773E+02  0.00000000000E+00 0. -1.
         11    1    3    3    0    0 -0.41735456238E+01  0.13394486516E+02 -0.32835552625E+01  0.14408764260E+02  0.51100000000E-03 0. -1.
        -11    1    3    3    0    0 -0.14080535760E+02  0.10144719889E+02  0.22375803951E+02  0.28317016644E+02  0.51100000000E-03 0.  1.
         12    1    3    3    0    0  0.12422114198E+01  0.76769696314E+01  0.63887292648E+00  0.78030193226E+01  0.00000000000E+00 0. -1.
</event>
<event>
 7    1  0.6046695E-013  0.5052886E+02  0.7816164E-02  0.1300439E+00
        -11   -1    0    0    0    0  0.00000000000E+00  0.00000000000E+00  0.45593999997E+02  0.45594000000E+02  0.51100000000E-03 0.  1.
         11   -1    0    0    0    0 -0.00000000000E+00 -0.00000000000E+00 -0.45593999997E+02  0.45594000000E+02  0.51100000000E-03 0. -1.
    9900012    2    1    2    0    0  0.13265857435E+02 -0.17616433447E+02  0.34159101960E+02  0.50528856531E+02  0.29999989912E+02 0.  0.
         12    1    1    2    0    0 -0.13265857435E+02  0.17616433447E+02 -0.34159101960E+02  0.40659143469E+02  0.00000000000E+00 0. -1.
         11    1    3    3    0    0  0.61620433343E+00 -0.36554357043E+01  0.12550160502E+01  0.39136918014E+01  0.51100000000E-03 0.  1.
        -11    1    3    3    0    0  0.64408192921E+00 -0.19556413246E+01 -0.48227936355E+01  0.52439215511E+01  0.51100000000E-03 0. -1.
        -12    1    3    3    0    0  0.12005571173E+02 -0.12005356418E+02  0.37726879546E+02  0.41371243179E+02  0.00000000000E+00 0.  1.
</event>
<event>
 7    1  0.6046695E-013  0.5052892E+02  0.7816164E-02  0.1300439E+00
        -11   -1    0    0    0    0  0.00000000000E+00  0.00000000000E+00  0.45593999997E+02  0.45594000000E+02  0.51100000000E-03 0.  1.
         11   -1    0    0    0    0 -0.00000000000E+00 -0.00000000000E+00 -0.45593999997E+02  0.45594000000E+02  0.51100000000E-03 0. -1.
    9900012    2    1    2    0    0 -0.17981690611E+02 -0.29801043395E+02  0.21017071291E+02  0.50528921428E+02  0.30000187172E+02 0.  0.
         12    1    1    2    0    0  0.17981690611E+02  0.29801043395E+02 -0.21017071291E+02  0.40659078572E+02  0.00000000000E+00 0. -1.
         11    1    3    3    0    0 -0.60857315660E+01 -0.22015985835E+01 -0.62919828568E+01  0.90261959621E+01  0.51100000000E-03 0. -1.
        -11    1    3    3    0    0 -0.94511977844E+01 -0.22045974187E+02  0.16521502957E+02  0.29125764842E+02  0.51100000000E-03 0.  1.
         12    1    3    3    0    0 -0.24447612607E+01 -0.55534706247E+01  0.10787551190E+02  0.12376960624E+02  0.00000000000E+00 0. -1.
</event>
<event>
 7    1  0.6046695E-013  0.5052888E+02  0.7816164E-02  0.1300439E+00
        -11   -1    0    0    0    0  0.00000000000E+00  0.00000000000E+00  0.45593999997E+02  0.45594000000E+02  0.51100000000E-03 0. -1.
         11   -1    0    0    0    0 -0.00000000000E+00 -0.00000000000E+00 -0.45593999997E+02  0.45594000000E+02  0.51100000000E-03 0.  1.
    9900012    2    1    2    0    0 -0.14694186824E+01  0.39910650292E+02  0.76252889257E+01  0.50528877664E+02  0.30000054146E+02 0.  0.
         12    1    1    2    0    0  0.14694186824E+01 -0.39910650292E+02 -0.76252889257E+01  0.40659122336E+02  0.00000000000E+00 0. -1.
         11    1    3    3    0    0 -0.41711790682E+01  0.14176830413E+02  0.12450888605E+02  0.19323712964E+02  0.51100000000E-03 0. -1.
        -11    1    3    3    0    0  0.32291722557E+01  0.13021603183E+02 -0.10729625347E+02  0.17178898780E+02  0.51100000000E-03 0.  1.
        -12    1    3    3    0    0 -0.52741186996E+00  0.12712216695E+02  0.59040256681E+01  0.14026265920E+02  0.00000000000E+00 0.  1.
</event>
<event>
 7    1  0.6046695E-013  0.5052887E+02  0.7816164E-02  0.1300439E+00
        -11   -1    0    0    0    0  0.00000000000E+00  0.00000000000E+00  0.45593999997E+02  0.45594000000E+02  0.51100000000E-03 0.  1.
         11   -1    0    0    0    0 -0.00000000000E+00 -0.00000000000E+00 -0.45593999997E+02  0.45594000000E+02  0.51100000000E-03 0. -1.
    9900012    2    1    2    0    0  0.28667725081E+02  0.28159327346E+02 -0.61950666552E+01  0.50528867830E+02  0.30000024258E+02 0.  0.
         12    1    1    2    0    0 -0.28667725081E+02 -0.28159327346E+02  0.61950666552E+01  0.40659132170E+02  0.00000000000E+00 0. -1.
         11    1    3    3    0    0 -0.25311679706E+01  0.15126030905E+02 -0.64469432376E+01  0.16636306670E+02  0.51100000000E-03 0. -1.
        -11    1    3    3    0    0  0.79465372025E+01  0.38612010100E+01  0.95700797048E+00  0.88866299162E+01  0.51100000000E-03 0.  1.
         12    1    3    3    0    0  0.23252355849E+02  0.91720954311E+01 -0.70513138801E+00  0.25005931245E+02  0.00000000000E+00 0. -1.
</event>
<event>
 7    1  0.6046695E-013  0.5052888E+02  0.7816164E-02  0.1300439E+00
        -11   -1    0    0    0    0  0.00000000000E+00  0.00000000000E+00  0.45593999997E+02  0.45594000000E+02  0.51100000000E-03 0.  1.
         11   -1    0    0    0    0 -0.00000000000E+00 -0.00000000000E+00 -0.45593999997E+02  0.45594000000E+02  0.51100000000E-03 0. -1.
    9900012    2    1    2    0    0  0.21313472729E+02 -0.29429500160E+02  0.18242931500E+02  0.50528878648E+02  0.30000057137E+02 0.  0.
         12    1    1    2    0    0 -0.21313472729E+02  0.29429500160E+02 -0.18242931500E+02  0.40659121352E+02  0.00000000000E+00 0. -1.
         11    1    3    3    0    0  0.10949097879E+02 -0.20757155688E+02  0.72193416988E+00  0.23479000102E+02  0.51100000000E-03 0. -1.
        -11    1    3    3    0    0 -0.26289977408E+01 -0.70267335933E+01  0.67657863511E+01  0.10102597652E+02  0.51100000000E-03 0.  1.
         12    1    3    3    0    0  0.12993372591E+02 -0.16456108787E+01  0.10755210979E+02  0.16947280893E+02  0.00000000000E+00 0. -1.
</event>
<event>
 7    1  0.6046695E-013  0.5052886E+02  0.7816164E-02  0.1300439E+00
        -11   -1    0    0    0    0  0.00000000000E+00  0.00000000000E+00  0.45593999997E+02  0.45594000000E+02  0.51100000000E-03 0.  1.
         11   -1    0    0    0    0 -0.00000000000E+00 -0.00000000000E+00 -0.45593999997E+02  0.45594000000E+02  0.51100000000E-03 0. -1.
    9900012    2    1    2    0    0  0.23983009263E+02  0.32822746092E+02  0.80501051636E+00  0.50528862820E+02  0.30000009026E+02 0.  0.
         12    1    1    2    0    0 -0.23983009263E+02 -0.32822746092E+02 -0.80501051636E+00  0.40659137180E+02  0.00000000000E+00 0. -1.
         11    1    3    3    0    0  0.63899649530E+01  0.34923805358E+01 -0.11458140161E+01  0.73716527270E+01  0.51100000000E-03 0. -1.
        -11    1    3    3    0    0 -0.36043035546E+01  0.19206839254E+02 -0.42453433566E+00  0.19546710923E+02  0.51100000000E-03 0.  1.
        -12    1    3    3    0    0  0.21197347864E+02  0.10123526302E+02  0.23753588681E+01  0.23610499169E+02  0.00000000000E+00 0.  1.
</event>
<event>
 7    1  0.6046695E-013  0.5052886E+02  0.7816164E-02  0.1300439E+00
        -11   -1    0    0    0    0  0.00000000000E+00  0.00000000000E+00  0.45593999997E+02  0.45594000000E+02  0.51100000000E-03 0.  1.
         11   -1    0    0    0    0 -0.00000000000E+00 -0.00000000000E+00 -0.45593999997E+02  0.45594000000E+02  0.51100000000E-03 0. -1.
    9900012    2    1    2    0    0  0.40631721123E+02 -0.12155475688E+01 -0.86693002165E+00  0.50528857302E+02  0.29999992255E+02 0.  0.
         12    1    1    2    0    0 -0.40631721123E+02  0.12155475688E+01  0.86693002165E+00  0.40659142698E+02  0.00000000000E+00 0. -1.
         11    1    3    3    0    0  0.71226004834E+01 -0.10653659009E+02 -0.37584506533E+01  0.13355067933E+02  0.51100000000E-03 0. -1.
        -11    1    3    3    0    0  0.31031448455E+02  0.62914042811E+01  0.58446205331E+01  0.32197704118E+02  0.51100000000E-03 0.  1.
        -12    1    3    3    0    0  0.24776721847E+01  0.31467071589E+01 -0.29530999014E+01  0.49760852511E+01  0.00000000000E+00 0.  1.
</event>
<event>
 7    1  0.6046695E-013  0.5052887E+02  0.7816164E-02  0.1300439E+00
        -11   -1    0    0    0    0  0.00000000000E+00  0.00000000000E+00  0.45593999997E+02  0.45594000000E+02  0.51100000000E-03 0.  1.
         11   -1    0    0    0    0 -0.00000000000E+00 -0.00000000000E+00 -0.45593999997E+02  0.45594000000E+02  0.51100000000E-03 0. -1.
    9900012    2    1    2    0    0 -0.73694579074E+01 -0.38240468649E+02  0.11684300431E+02  0.50528865369E+02  0.30000016776E+02 0.  0.
         12    1    1    2    0    0  0.73694579074E+01  0.38240468649E+02 -0.11684300431E+02  0.40659134631E+02  0.00000000000E+00 0. -1.
         11    1    3    3    0    0 -0.32333901374E+01  0.93935948621E-01  0.11352850931E+02  0.11804696534E+02  0.51100000000E-03 0.  1.
        -11    1    3    3    0    0 -0.21575431587E+01 -0.31340232172E+02  0.95428745542E+00  0.31428900870E+02  0.51100000000E-03 0. -1.
        -12    1    3    3    0    0 -0.19785246113E+01 -0.69941724255E+01 -0.62283795524E+00  0.72952679645E+01  0.00000000000E+00 0.  1.
</event>
<event>
 7    1  0.6046695E-013  0.5052886E+02  0.7816164E-02  0.1300439E+00
        -11   -1    0    0    0    0  0.00000000000E+00  0.00000000000E+00  0.45593999997E+02  0.45594000000E+02  0.51100000000E-03 0. -1.
         11   -1    0    0    0    0 -0.00000000000E+00 -0.00000000000E+00 -0.45593999997E+02  0.45594000000E+02  0.51100000000E-03 0.  1.
    9900012    2    1    2    0    0  0.34601577609E+02  0.26684442936E+01 -0.21184331819E+02  0.50528859790E+02  0.29999999818E+02 0.  0.
         12    1    1    2    0    0 -0.34601577609E+02 -0.26684442936E+01  0.21184331819E+02  0.40659140210E+02  0.00000000000E+00 0. -1.
         11    1    3    3    0    0  0.28390325128E+01 -0.94104820337E+01 -0.70543496728E+00  0.98546900748E+01  0.51100000000E-03 0. -1.
        -11    1    3    3    0    0  0.15650643356E+02  0.69959239293E+01 -0.15368774162E+02  0.23023570717E+02  0.51100000000E-03 0.  1.
         12    1    3    3    0    0  0.16111901740E+02  0.50830023981E+01 -0.51101226901E+01  0.17650598998E+02  0.00000000000E+00 0. -1.
</event>
<event>
 7    1  0.6046695E-013  0.5052887E+02  0.7816164E-02  0.1300439E+00
        -11   -1    0    0    0    0  0.00000000000E+00  0.00000000000E+00  0.45593999997E+02  0.45594000000E+02  0.51100000000E-03 0. -1.
         11   -1    0    0    0    0 -0.00000000000E+00 -0.00000000000E+00 -0.45593999997E+02  0.45594000000E+02  0.51100000000E-03 0.  1.
    9900012    2    1    2    0    0  0.14399559249E+02  0.19195793291E+02 -0.32822843002E+02  0.50528870528E+02  0.30000032458E+02 0.  0.
         12    1    1    2    0    0 -0.14399559249E+02 -0.19195793291E+02  0.32822843002E+02  0.40659129472E+02  0.00000000000E+00 0. -1.
         11    1    3    3    0    0 -0.78091738072E+01  0.66110141545E+01 -0.12292122012E+02  0.15993278824E+02  0.51100000000E-03 0. -1.
        -11    1    3    3    0    0  0.15974402173E+02  0.13925460120E+02 -0.17458650828E+02  0.27457320578E+02  0.51100000000E-03 0.  1.
         12    1    3    3    0    0  0.62343308832E+01 -0.13406809839E+01 -0.30720701623E+01  0.70782711267E+01  0.00000000000E+00 0. -1.
</event>
<event>
 7    1  0.6046695E-013  0.5052886E+02  0.7816164E-02  0.1300439E+00
        -11   -1    0    0    0    0  0.00000000000E+00  0.00000000000E+00  0.45593999997E+02  0.45594000000E+02  0.51100000000E-03 0.  1.
         11   -1    0    0    0    0 -0.00000000000E+00 -0.00000000000E+00 -0.45593999997E+02  0.45594000000E+02  0.51100000000E-03 0. -1.
    9900012    2    1    2    0    0 -0.38188349978E+01 -0.91052246150E+01  0.39442075873E+02  0.50528856315E+02  0.29999989255E+02 0.  0.
         12    1    1    2    0    0  0.38188349978E+01  0.91052246150E+01 -0.39442075873E+02  0.40659143685E+02  0.00000000000E+00 0. -1.
         11    1    3    3    0    0 -0.66879094870E+01  0.79356705874E+01  0.15821975386E+02  0.18921889608E+02  0.51100000000E-03 0.  1.
        -11    1    3    3    0    0 -0.23075851962E+01 -0.11007517383E+02  0.19835806216E+02  0.22802403314E+02  0.51100000000E-03 0. -1.
         12    1    3    3    0    0  0.51766596854E+01 -0.60333778191E+01  0.37842942713E+01  0.88045633928E+01  0.00000000000E+00 0. -1.
</event>
<event>
 7    1  0.6046695E-013  0.5052891E+02  0.7816164E-02  0.1300439E+00
        -11   -1    0    0    0    0  0.00000000000E+00  0.00000000000E+00  0.45593999997E+02  0.45594000000E+02  0.51100000000E-03 0.  1.
         11   -1    0    0    0    0 -0.00000000000E+00 -0.00000000000E+00 -0.45593999997E+02  0.45594000000E+02  0.51100000000E-03 0. -1.
    9900012    2    1    2    0    0 -0.39048373337E+02 -0.84507612384E+01  0.75478805637E+01  0.50528913355E+02  0.30000162635E+02 0.  0.
         12    1    1    2    0    0  0.39048373337E+02  0.84507612384E+01 -0.75478805637E+01  0.40659086645E+02  0.00000000000E+00 0. -1.
         11    1    3    3    0    0 -0.16569243002E+01  0.10849516910E+01 -0.66377914496E+01  0.69269613755E+01  0.51100000000E-03 0. -1.
        -11    1    3    3    0    0 -0.18685025879E+02  0.54593928449E+00  0.12060020724E+02  0.22245726375E+02  0.51100000000E-03 0.  1.
         12    1    3    3    0    0 -0.18706423157E+02 -0.10081652214E+02  0.21256512896E+01  0.21356225605E+02  0.00000000000E+00 0. -1.
</event>
<event>
 7    1  0.6046695E-013  0.5052886E+02  0.7816164E-02  0.1300439E+00
        -11   -1    0    0    0    0  0.00000000000E+00  0.00000000000E+00  0.45593999997E+02  0.45594000000E+02  0.51100000000E-03 0. -1.
         11   -1    0    0    0    0 -0.00000000000E+00 -0.00000000000E+00 -0.45593999997E+02  0.45594000000E+02  0.51100000000E-03 0.  1.
    9900012    2    1    2    0    0 -0.28787883962E+02 -0.26210414852E+02 -0.11723359294E+02  0.50528864952E+02  0.30000015507E+02 0.  0.
         12    1    1    2    0    0  0.28787883962E+02  0.26210414852E+02  0.11723359294E+02  0.40659135048E+02  0.00000000000E+00 0. -1.
         11    1    3    3    0    0 -0.11455005652E+01 -0.10136896279E+02 -0.39323886821E+01  0.10933092825E+02  0.51100000000E-03 0. -1.
        -11    1    3    3    0    0 -0.11055417031E+02 -0.12644423712E+02  0.59152093341E+01  0.17807116511E+02  0.51100000000E-03 0.  1.
        -12    1    3    3    0    0 -0.16586966366E+02 -0.34290948618E+01 -0.13706179946E+02  0.21788655615E+02  0.00000000000E+00 0.  1.
</event>
<event>
 7    1  0.6046695E-013  0.5052884E+02  0.7816164E-02  0.1300439E+00
        -11   -1    0    0    0    0  0.00000000000E+00  0.00000000000E+00  0.45593999997E+02  0.45594000000E+02  0.51100000000E-03 0.  1.
         11   -1    0    0    0    0 -0.00000000000E+00 -0.00000000000E+00 -0.45593999997E+02  0.45594000000E+02  0.51100000000E-03 0. -1.
    9900012    2    1    2    0    0 -0.11749646463E+02 -0.50069181418E+01  0.38601088581E+02  0.50528837921E+02  0.29999933345E+02 0.  0.
         12    1    1    2    0    0  0.11749646463E+02  0.50069181418E+01 -0.38601088581E+02  0.40659162079E+02  0.00000000000E+00 0. -1.
         11    1    3    3    0    0 -0.23520114229E+01 -0.91560341101E+01  0.75098146573E+01  0.12073203171E+02  0.51100000000E-03 0. -1.
        -11    1    3    3    0    0 -0.14979702388E+02  0.67487735732E+01  0.23651438468E+02  0.28798054973E+02  0.51100000000E-03 0.  1.
        -12    1    3    3    0    0  0.55820673475E+01 -0.25996576049E+01  0.74398354562E+01  0.96575797770E+01  0.00000000000E+00 0.  1.
</event>
<event>
 7    1  0.6046695E-013  0.5052887E+02  0.7816164E-02  0.1300439E+00
        -11   -1    0    0    0    0  0.00000000000E+00  0.00000000000E+00  0.45593999997E+02  0.45594000000E+02  0.51100000000E-03 0. -1.
         11   -1    0    0    0    0 -0.00000000000E+00 -0.00000000000E+00 -0.45593999997E+02  0.45594000000E+02  0.51100000000E-03 0.  1.
    9900012    2    1    2    0    0  0.36054773266E+02  0.10910050389E+02 -0.15303222824E+02  0.50528874289E+02  0.30000043889E+02 0.  0.
         12    1    1    2    0    0 -0.36054773266E+02 -0.10910050389E+02  0.15303222824E+02  0.40659125711E+02  0.00000000000E+00 0. -1.
         11    1    3    3    0    0 -0.23367481340E+01  0.31334664807E+01  0.28025342920E+01  0.48096988208E+01  0.51100000000E-03 0. -1.
        -11    1    3    3    0    0  0.35848106623E+02  0.39225614061E+01 -0.19365470167E+02  0.40932806787E+02  0.51100000000E-03 0.  1.
        -12    1    3    3    0    0  0.25434147773E+01  0.38540225025E+01  0.12597130508E+01  0.47863686809E+01  0.00000000000E+00 0.  1.
</event>
<event>
 7    1  0.6046695E-013  0.5052886E+02  0.7816164E-02  0.1300439E+00
        -11   -1    0    0    0    0  0.00000000000E+00  0.00000000000E+00  0.45593999997E+02  0.45594000000E+02  0.51100000000E-03 0. -1.
         11   -1    0    0    0    0 -0.00000000000E+00 -0.00000000000E+00 -0.45593999997E+02  0.45594000000E+02  0.51100000000E-03 0.  1.
    9900012    2    1    2    0    0 -0.22132176793E+02  0.22037876265E+02 -0.26031983893E+02  0.50528862955E+02  0.30000009439E+02 0.  0.
         12    1    1    2    0    0  0.22132176793E+02 -0.22037876265E+02  0.26031983893E+02  0.40659137045E+02  0.00000000000E+00 0. -1.
         11    1    3    3    0    0 -0.24551272416E+02  0.10083960928E+02 -0.77093311815E+01  0.27638470160E+02  0.51100000000E-03 0. -1.
        -11    1    3    3    0    0  0.24679979621E+01  0.50943032596E+01 -0.37676144941E+01  0.67998425628E+01  0.51100000000E-03 0.  1.
         12    1    3    3    0    0 -0.48902338299E-01  0.68596120773E+01 -0.14555038217E+02  0.16090550233E+02  0.00000000000E+00 0. -1.
</event>
<event>
 7    1  0.6046695E-013  0.5052886E+02  0.7816164E-02  0.1300439E+00
        -11   -1    0    0    0    0  0.00000000000E+00  0.00000000000E+00  0.45593999997E+02  0.45594000000E+02  0.51100000000E-03 0. -1.
         11   -1    0    0    0    0 -0.00000000000E+00 -0.00000000000E+00 -0.45593999997E+02  0.45594000000E+02  0.51100000000E-03 0.  1.
    9900012    2    1    2    0    0 -0.27512511952E+02 -0.85129391275E+01 -0.28701175070E+02  0.50528857156E+02  0.29999991810E+02 0.  0.
         12    1    1    2    0    0  0.27512511952E+02  0.85129391275E+01  0.28701175070E+02  0.40659142844E+02  0.00000000000E+00 0. -1.
         11    1    3    3    0    0 -0.59370262160E+01  0.77807595603E+01 -0.13188909336E+02  0.16423636301E+02  0.51100000000E-03 0. -1.
        -11    1    3    3    0    0 -0.19308979950E+02 -0.10341843259E+02 -0.60945464718E+01  0.22736180982E+02  0.51100000000E-03 0.  1.
        -12    1    3    3    0    0 -0.22665057860E+01 -0.59518554286E+01 -0.94177192619E+01  0.11369039872E+02  0.00000000000E+00 0.  1.
</event>
<event>
 7    1  0.6046695E-013  0.5052887E+02  0.7816164E-02  0.1300439E+00
        -11   -1    0    0    0    0  0.00000000000E+00  0.00000000000E+00  0.45593999997E+02  0.45594000000E+02  0.51100000000E-03 0.  1.
         11   -1    0    0    0    0 -0.00000000000E+00 -0.00000000000E+00 -0.45593999997E+02  0.45594000000E+02  0.51100000000E-03 0. -1.
    9900012    2    1    2    0    0 -0.24902627105E+02  0.19286159648E+01  0.32082781349E+02  0.50528865044E+02  0.30000015787E+02 0.  0.
         12    1    1    2    0    0  0.24902627105E+02 -0.19286159648E+01 -0.32082781349E+02  0.40659134956E+02  0.00000000000E+00 0. -1.
         11    1    3    3    0    0 -0.17511070854E+02 -0.45963690831E+01  0.71043136781E+01  0.19448277155E+02  0.51100000000E-03 0. -1.
        -11    1    3    3    0    0 -0.21288633655E+01  0.17155484956E+01  0.23675961794E+02  0.23833303023E+02  0.51100000000E-03 0.  1.
        -12    1    3    3    0    0 -0.52626928864E+01  0.48094365523E+01  0.13025058775E+01  0.72472848659E+01  0.00000000000E+00 0.  1.
</event>
<event>
 7    1  0.6046695E-013  0.5052884E+02  0.7816164E-02  0.1300439E+00
        -11   -1    0    0    0    0  0.00000000000E+00  0.00000000000E+00  0.45593999997E+02  0.45594000000E+02  0.51100000000E-03 0.  1.
         11   -1    0    0    0    0 -0.00000000000E+00 -0.00000000000E+00 -0.45593999997E+02  0.45594000000E+02  0.51100000000E-03 0. -1.
    9900012    2    1    2    0    0  0.83864261773E+00 -0.16236056739E+01  0.40618068828E+02  0.50528844424E+02  0.29999953111E+02 0.  0.
         12    1    1    2    0    0 -0.83864261773E+00  0.16236056739E+01 -0.40618068828E+02  0.40659155576E+02  0.00000000000E+00 0. -1.
         11    1    3    3    0    0  0.31669846933E+01  0.62767232418E+01  0.51862203679E+00  0.70495401113E+01  0.51100000000E-03 0. -1.
        -11    1    3    3    0    0  0.52240244058E+01 -0.53176087515E+01  0.28068017947E+02  0.29041023149E+02  0.51100000000E-03 0.  1.
        -12    1    3    3    0    0 -0.75523664814E+01 -0.25827201642E+01  0.12031428845E+02  0.14438281164E+02  0.00000000000E+00 0.  1.
</event>
<event>
 7    1  0.6046695E-013  0.5052886E+02  0.7816164E-02  0.1300439E+00
        -11   -1    0    0    0    0  0.00000000000E+00  0.00000000000E+00  0.45593999997E+02  0.45594000000E+02  0.51100000000E-03 0.  1.
         11   -1    0    0    0    0 -0.00000000000E+00 -0.00000000000E+00 -0.45593999997E+02  0.45594000000E+02  0.51100000000E-03 0. -1.
    9900012    2    1    2    0    0 -0.12344341278E+02 -0.38717974261E+02  0.13044134674E+01  0.50528858507E+02  0.29999995918E+02 0.  0.
         12    1    1    2    0    0  0.12344341278E+02  0.38717974261E+02 -0.13044134674E+01  0.40659141493E+02  0.00000000000E+00 0. -1.
         11    1    3    3    0    0 -0.64154222903E+01 -0.82368931017E+01 -0.92713922565E+01  0.13962906781E+02  0.51100000000E-03 0. -1.
        -11    1    3    3    0    0 -0.14923117394E+01 -0.30506719055E+02  0.96732867419E+01  0.32038404743E+02  0.51100000000E-03 0.  1.
        -12    1    3    3    0    0 -0.44366072480E+01  0.25637895500E-01  0.90251898193E+00  0.45275469835E+01  0.00000000000E+00 0.  1.
</event>
<event>
 7    1  0.6046695E-013  0.5052886E+02  0.7816164E-02  0.1300439E+00
        -11   -1    0    0    0    0  0.00000000000E+00  0.00000000000E+00  0.45593999997E+02  0.45594000000E+02  0.51100000000E-03 0.  1.
         11   -1    0    0    0    0 -0.00000000000E+00 -0.00000000000E+00 -0.45593999997E+02  0.45594000000E+02  0.51100000000E-03 0. -1.
    9900012    2    1    2    0    0  0.23334137789E+02 -0.93100691427E+01  0.31968833829E+02  0.50528859451E+02  0.29999998786E+02 0.  0.
         12    1    1    2    0    0 -0.23334137789E+02  0.93100691427E+01 -0.31968833829E+02  0.40659140549E+02  0.00000000000E+00 0. -1.
         11    1    3    3    0    0 -0.31033643153E+01 -0.53806960964E+00  0.14361019075E+00  0.31529372221E+01  0.51100000000E-03 0. -1.
        -11    1    3    3    0    0  0.16394832682E+02  0.57668695978E+01  0.14582110111E+02  0.22686675807E+02  0.51100000000E-03 0.  1.
        -12    1    3    3    0    0  0.10042669422E+02 -0.14538869131E+02  0.17243113527E+02  0.24689246421E+02  0.00000000000E+00 0.  1.
</event>
<event>
 7    1  0.6046695E-013  0.5052886E+02  0.7816164E-02  0.1300439E+00
        -11   -1    0    0    0    0  0.00000000000E+00  0.00000000000E+00  0.45593999997E+02  0.45594000000E+02  0.51100000000E-03 0.  1.
         11   -1    0    0    0    0 -0.00000000000E+00 -0.00000000000E+00 -0.45593999997E+02  0.45594000000E+02  0.51100000000E-03 0. -1.
    9900012    2    1    2    0    0  0.10051228174E+02  0.21759827522E+02  0.32842780388E+02  0.50528861971E+02  0.30000006448E+02 0.  0.
         12    1    1    2    0    0 -0.10051228174E+02 -0.21759827522E+02 -0.32842780388E+02  0.40659138029E+02  0.00000000000E+00 0. -1.
         11    1    3    3    0    0  0.57387416293E+01  0.36501014854E+01  0.25551483913E+01  0.72653410040E+01  0.51100000000E-03 0. -1.
        -11    1    3    3    0    0  0.14401049989E+02  0.13352473655E+02  0.20966495905E+02  0.28727560709E+02  0.51100000000E-03 0.  1.
        -12    1    3    3    0    0 -0.10088563444E+02  0.47572523821E+01  0.93211360922E+01  0.14535960259E+02  0.00000000000E+00 0.  1.
</event>
<event>
 7    1  0.6046695E-013  0.5052889E+02  0.7816164E-02  0.1300439E+00
        -11   -1    0    0    0    0  0.00000000000E+00  0.00000000000E+00  0.45593999997E+02  0.45594000000E+02  0.51100000000E-03 0.  1.
         11   -1    0    0    0    0 -0.00000000000E+00 -0.00000000000E+00 -0.45593999997E+02  0.45594000000E+02  0.51100000000E-03 0. -1.
    9900012    2    1    2    0    0  0.22604208202E+02 -0.15940142411E+02  0.29801422794E+02  0.50528890700E+02  0.30000093772E+02 0.  0.
         12    1    1    2    0    0 -0.22604208202E+02  0.15940142411E+02 -0.29801422794E+02  0.40659109300E+02  0.00000000000E+00 0. -1.
         11    1    3    3    0    0 -0.31621375695E+01  0.38946529102E+01  0.43761428281E+01  0.66571812062E+01  0.51100000000E-03 0. -1.
        -11    1    3    3    0    0  0.18971282367E+02 -0.17119438028E+02  0.11252547628E+02  0.27921399345E+02  0.51100000000E-03 0.  1.
        -12    1    3    3    0    0  0.67950634042E+01 -0.27153572937E+01  0.14172732338E+02  0.15950310148E+02  0.00000000000E+00 0.  1.
</event>
<event>
 7    1  0.6046695E-013  0.5052886E+02  0.7816164E-02  0.1300439E+00
        -11   -1    0    0    0    0  0.00000000000E+00  0.00000000000E+00  0.45593999997E+02  0.45594000000E+02  0.51100000000E-03 0.  1.
         11   -1    0    0    0    0 -0.00000000000E+00 -0.00000000000E+00 -0.45593999997E+02  0.45594000000E+02  0.51100000000E-03 0. -1.
    9900012    2    1    2    0    0 -0.29125772147E+02  0.14653886376E+01  0.28332098630E+02  0.50528858595E+02  0.29999996184E+02 0.  0.
         12    1    1    2    0    0  0.29125772147E+02 -0.14653886376E+01 -0.28332098630E+02  0.40659141405E+02  0.00000000000E+00 0. -1.
         11    1    3    3    0    0 -0.81167312974E+01  0.56778736221E+01  0.10124077245E+02  0.14163915989E+02  0.51100000000E-03 0.  1.
        -11    1    3    3    0    0 -0.16059932277E+02 -0.11985195528E+02  0.18317743669E+02  0.27149697420E+02  0.51100000000E-03 0. -1.
        -12    1    3    3    0    0 -0.49491085723E+01  0.77727105436E+01 -0.10972228369E+00  0.92152451858E+01  0.00000000000E+00 0.  1.
</event>
<event>
 7    1  0.6046695E-013  0.5052887E+02  0.7816164E-02  0.1300439E+00
        -11   -1    0    0    0    0  0.00000000000E+00  0.00000000000E+00  0.45593999997E+02  0.45594000000E+02  0.51100000000E-03 0.  1.
         11   -1    0    0    0    0 -0.00000000000E+00 -0.00000000000E+00 -0.45593999997E+02  0.45594000000E+02  0.51100000000E-03 0. -1.
    9900012    2    1    2    0    0 -0.93001812608E+01  0.45319977039E+01  0.39320893918E+02  0.50528867284E+02  0.30000022598E+02 0.  0.
         12    1    1    2    0    0  0.93001812608E+01 -0.45319977039E+01 -0.39320893918E+02  0.40659132716E+02  0.00000000000E+00 0. -1.
         11    1    3    3    0    0  0.80398456202E+01  0.29888357143E+01  0.45534250038E+01  0.97111243453E+01  0.51100000000E-03 0. -1.
        -11    1    3    3    0    0 -0.12069716334E+02 -0.48230377300E+01  0.19081993790E+02  0.23088140519E+02  0.51100000000E-03 0.  1.
         12    1    3    3    0    0 -0.52703105466E+01  0.63661997196E+01  0.15685475124E+02  0.17729602420E+02  0.00000000000E+00 0. -1.
</event>
<event>
 7    1  0.6046695E-013  0.5052875E+02  0.7816164E-02  0.1300439E+00
        -11   -1    0    0    0    0  0.00000000000E+00  0.00000000000E+00  0.45593999997E+02  0.45594000000E+02  0.51100000000E-03 0.  1.
         11   -1    0    0    0    0 -0.00000000000E+00 -0.00000000000E+00 -0.45593999997E+02  0.45594000000E+02  0.51100000000E-03 0. -1.
    9900012    2    1    2    0    0 -0.19009854693E+02 -0.19499001846E+02  0.30192525342E+02  0.50528754619E+02  0.29999680138E+02 0.  0.
         12    1    1    2    0    0  0.19009854693E+02  0.19499001846E+02 -0.30192525342E+02  0.40659245381E+02  0.00000000000E+00 0. -1.
         11    1    3    3    0    0 -0.10584116483E+02  0.24292359826E+01  0.38172883256E+01  0.11510708041E+02  0.51100000000E-03 0. -1.
        -11    1    3    3    0    0  0.75067492092E+00 -0.11659524503E+02  0.21388320558E+02  0.24371464482E+02  0.51100000000E-03 0.  1.
        -12    1    3    3    0    0 -0.91764131313E+01 -0.10268713326E+02  0.49869164582E+01  0.14646582096E+02  0.00000000000E+00 0.  1.
</event>
<event>
 7    1  0.6046695E-013  0.5052887E+02  0.7816164E-02  0.1300439E+00
        -11   -1    0    0    0    0  0.00000000000E+00  0.00000000000E+00  0.45593999997E+02  0.45594000000E+02  0.51100000000E-03 0.  1.
         11   -1    0    0    0    0 -0.00000000000E+00 -0.00000000000E+00 -0.45593999997E+02  0.45594000000E+02  0.51100000000E-03 0. -1.
    9900012    2    1    2    0    0  0.37730869228E+02  0.10592296012E+02  0.10832810522E+02  0.50528868045E+02  0.30000024910E+02 0.  0.
         12    1    1    2    0    0 -0.37730869228E+02 -0.10592296012E+02 -0.10832810522E+02  0.40659131955E+02  0.00000000000E+00 0. -1.
         11    1    3    3    0    0  0.92269551535E+01 -0.56326953956E+01  0.89863311112E+01  0.14057670715E+02  0.51100000000E-03 0. -1.
        -11    1    3    3    0    0  0.17458899739E+02  0.14520102241E+02  0.75422485374E+01  0.23927642225E+02  0.51100000000E-03 0.  1.
         12    1    3    3    0    0  0.11045014335E+02  0.17048891662E+01 -0.56957691262E+01  0.12543555105E+02  0.00000000000E+00 0. -1.
</event>
<event>
 7    1  0.6046695E-013  0.5052885E+02  0.7816164E-02  0.1300439E+00
        -11   -1    0    0    0    0  0.00000000000E+00  0.00000000000E+00  0.45593999997E+02  0.45594000000E+02  0.51100000000E-03 0.  1.
         11   -1    0    0    0    0 -0.00000000000E+00 -0.00000000000E+00 -0.45593999997E+02  0.45594000000E+02  0.51100000000E-03 0. -1.
    9900012    2    1    2    0    0 -0.10792535997E+02  0.39199649017E+02  0.27371780178E+00  0.50528852964E+02  0.29999979069E+02 0.  0.
         12    1    1    2    0    0  0.10792535997E+02 -0.39199649017E+02 -0.27371780178E+00  0.40659147036E+02  0.00000000000E+00 0. -1.
         11    1    3    3    0    0 -0.92546537630E+01  0.58425184933E+01 -0.38055203706E+01  0.11587304439E+02  0.51100000000E-03 0. -1.
        -11    1    3    3    0    0 -0.24445692407E+01  0.27667225455E+02  0.11054797694E+02  0.29894143833E+02  0.51100000000E-03 0.  1.
         12    1    3    3    0    0  0.90668700717E+00  0.56899050684E+01 -0.69755595220E+01  0.90474046920E+01  0.00000000000E+00 0. -1.
</event>
<event>
 7    1  0.6046695E-013  0.5052886E+02  0.7816164E-02  0.1300439E+00
        -11   -1    0    0    0    0  0.00000000000E+00  0.00000000000E+00  0.45593999997E+02  0.45594000000E+02  0.51100000000E-03 0.  1.
         11   -1    0    0    0    0 -0.00000000000E+00 -0.00000000000E+00 -0.45593999997E+02  0.45594000000E+02  0.51100000000E-03 0. -1.
    9900012    2    1    2    0    0 -0.10586452124E+02 -0.12320187449E+02  0.37273391757E+02  0.50528859325E+02  0.29999998404E+02 0.  0.
         12    1    1    2    0    0  0.10586452124E+02  0.12320187449E+02 -0.37273391757E+02  0.40659140675E+02  0.00000000000E+00 0. -1.
         11    1    3    3    0    0  0.38174469581E+01  0.35682351359E+01  0.23034093027E+01  0.57105952352E+01  0.51100000000E-03 0. -1.
        -11    1    3    3    0    0 -0.16406663697E+02 -0.12495722060E+02  0.35280763840E+02  0.40866293946E+02  0.51100000000E-03 0.  1.
        -12    1    3    3    0    0  0.20027646149E+01 -0.33927005245E+01 -0.31078138527E+00  0.39519701442E+01  0.00000000000E+00 0.  1.
</event>
<event>
 7    1  0.6046695E-013  0.5052886E+02  0.7816164E-02  0.1300439E+00
        -11   -1    0    0    0    0  0.00000000000E+00  0.00000000000E+00  0.45593999997E+02  0.45594000000E+02  0.51100000000E-03 0.  1.
         11   -1    0    0    0    0 -0.00000000000E+00 -0.00000000000E+00 -0.45593999997E+02  0.45594000000E+02  0.51100000000E-03 0. -1.
    9900012    2    1    2    0    0  0.29326277614E+02 -0.27433027881E+02 -0.63690190796E+01  0.50528856116E+02  0.29999988649E+02 0.  0.
         12    1    1    2    0    0 -0.29326277614E+02  0.27433027881E+02  0.63690190796E+01  0.40659143884E+02  0.00000000000E+00 0. -1.
         11    1    3    3    0    0  0.42535712479E+01  0.42990137839E+01 -0.46247851968E+01  0.76133452734E+01  0.51100000000E-03 0. -1.
        -11    1    3    3    0    0  0.43912101037E+01 -0.16712368132E+02  0.20967255764E+00  0.17280912522E+02  0.51100000000E-03 0.  1.
         12    1    3    3    0    0  0.20681496262E+02 -0.15019673533E+02 -0.19539064405E+01  0.25634598320E+02  0.00000000000E+00 0. -1.
</event>
<event>
 7    1  0.6046695E-013  0.5052885E+02  0.7816164E-02  0.1300439E+00
        -11   -1    0    0    0    0  0.00000000000E+00  0.00000000000E+00  0.45593999997E+02  0.45594000000E+02  0.51100000000E-03 0.  1.
         11   -1    0    0    0    0 -0.00000000000E+00 -0.00000000000E+00 -0.45593999997E+02  0.45594000000E+02  0.51100000000E-03 0. -1.
    9900012    2    1    2    0    0 -0.28403224346E+02 -0.17343962274E+02  0.23358308989E+02  0.50528846302E+02  0.29999958818E+02 0.  0.
         12    1    1    2    0    0  0.28403224346E+02  0.17343962274E+02 -0.23358308989E+02  0.40659153698E+02  0.00000000000E+00 0. -1.
         11    1    3    3    0    0 -0.19056224922E+02 -0.89663532519E+01  0.42523509749E+01  0.21485290037E+02  0.51100000000E-03 0. -1.
        -11    1    3    3    0    0  0.53445732448E+01 -0.19436805316E+01  0.35735689582E+01  0.67166027528E+01  0.51100000000E-03 0.  1.
        -12    1    3    3    0    0 -0.14691572669E+02 -0.64339284908E+01  0.15532389056E+02  0.22326953511E+02  0.00000000000E+00 0.  1.
</event>
<event>
 7    1  0.6046695E-013  0.5052887E+02  0.7816164E-02  0.1300439E+00
        -11   -1    0    0    0    0  0.00000000000E+00  0.00000000000E+00  0.45593999997E+02  0.45594000000E+02  0.51100000000E-03 0.  1.
         11   -1    0    0    0    0 -0.00000000000E+00 -0.00000000000E+00 -0.45593999997E+02  0.45594000000E+02  0.51100000000E-03 0. -1.
    9900012    2    1    2    0    0  0.22331230668E+02 -0.29025766619E+02  0.17663115306E+02  0.50528872694E+02  0.30000039042E+02 0.  0.
         12    1    1    2    0    0 -0.22331230668E+02  0.29025766619E+02 -0.17663115306E+02  0.40659127306E+02  0.00000000000E+00 0. -1.
         11    1    3    3    0    0  0.53721881757E+01  0.39049967448E+01  0.16088830824E+01  0.68335869355E+01  0.51100000000E-03 0. -1.
        -11    1    3    3    0    0  0.14123223202E+02 -0.24804237883E+02  0.39093358229E+01  0.28809695545E+02  0.51100000000E-03 0.  1.
        -12    1    3    3    0    0  0.28358192902E+01 -0.81265254805E+01  0.12144896400E+02  0.14885590214E+02  0.00000000000E+00 0.  1.
</event>
<event>
 7    1  0.6046695E-013  0.5052886E+02  0.7816164E-02  0.1300439E+00
        -11   -1    0    0    0    0  0.00000000000E+00  0.00000000000E+00  0.45593999997E+02  0.45594000000E+02  0.51100000000E-03 0.  1.
         11   -1    0    0    0    0 -0.00000000000E+00 -0.00000000000E+00 -0.45593999997E+02  0.45594000000E+02  0.51100000000E-03 0. -1.
    9900012    2    1    2    0    0 -0.26005434670E+02 -0.26464195693E+02  0.16629181781E+02  0.50528856222E+02  0.29999988971E+02 0.  0.
         12    1    1    2    0    0  0.26005434670E+02  0.26464195693E+02 -0.16629181781E+02  0.40659143778E+02  0.00000000000E+00 0. -1.
         11    1    3    3    0    0 -0.49444968039E+01 -0.11023351286E+01  0.14480665285E+02  0.15341214382E+02  0.51100000000E-03 0. -1.
        -11    1    3    3    0    0 -0.18307402010E+02 -0.13498515001E+02 -0.38117469275E+00  0.22748981735E+02  0.51100000000E-03 0.  1.
         12    1    3    3    0    0 -0.27535358567E+01 -0.11863345563E+02  0.25296911895E+01  0.12438660104E+02  0.00000000000E+00 0. -1.
</event>
<event>
 7    1  0.6046695E-013  0.5052887E+02  0.7816164E-02  0.1300439E+00
        -11   -1    0    0    0    0  0.00000000000E+00  0.00000000000E+00  0.45593999997E+02  0.45594000000E+02  0.51100000000E-03 0. -1.
         11   -1    0    0    0    0 -0.00000000000E+00 -0.00000000000E+00 -0.45593999997E+02  0.45594000000E+02  0.51100000000E-03 0.  1.
    9900012    2    1    2    0    0  0.33172250325E+02 -0.19134064301E+01 -0.23432994101E+02  0.50528873985E+02  0.30000042964E+02 0.  0.
         12    1    1    2    0    0 -0.33172250325E+02  0.19134064301E+01  0.23432994101E+02  0.40659126015E+02  0.00000000000E+00 0. -1.
         11    1    3    3    0    0  0.29103308339E+01 -0.10453202623E+02 -0.11272569844E+02  0.15646414982E+02  0.51100000000E-03 0. -1.
        -11    1    3    3    0    0  0.66815682268E+01  0.59265306716E+01 -0.25803068779E+01  0.92965102923E+01  0.51100000000E-03 0.  1.
         12    1    3    3    0    0  0.23580351264E+02  0.26132655212E+01 -0.95801173787E+01  0.25585948710E+02  0.00000000000E+00 0. -1.
</event>
<event>
 7    1  0.6046695E-013  0.5052886E+02  0.7816164E-02  0.1300439E+00
        -11   -1    0    0    0    0  0.00000000000E+00  0.00000000000E+00  0.45593999997E+02  0.45594000000E+02  0.51100000000E-03 0.  1.
         11   -1    0    0    0    0 -0.00000000000E+00 -0.00000000000E+00 -0.45593999997E+02  0.45594000000E+02  0.51100000000E-03 0. -1.
    9900012    2    1    2    0    0 -0.37597688618E+02  0.48679186512E+01  0.14692942367E+02  0.50528863551E+02  0.30000011249E+02 0.  0.
         12    1    1    2    0    0  0.37597688618E+02 -0.48679186512E+01 -0.14692942367E+02  0.40659136449E+02  0.00000000000E+00 0. -1.
         11    1    3    3    0    0 -0.10906930751E+02 -0.96242447344E+01  0.13737822074E+01  0.14610766679E+02  0.51100000000E-03 0. -1.
        -11    1    3    3    0    0 -0.25080302719E+02  0.11604578335E+02  0.65738481695E+01  0.28406043421E+02  0.51100000000E-03 0.  1.
         12    1    3    3    0    0 -0.16104551470E+01  0.28875850504E+01  0.67453119905E+01  0.75120534511E+01  0.00000000000E+00 0. -1.
</event>
<event>
 7    1  0.6046695E-013  0.5052887E+02  0.7816164E-02  0.1300439E+00
        -11   -1    0    0    0    0  0.00000000000E+00  0.00000000000E+00  0.45593999997E+02  0.45594000000E+02  0.51100000000E-03 0.  1.
         11   -1    0    0    0    0 -0.00000000000E+00 -0.00000000000E+00 -0.45593999997E+02  0.45594000000E+02  0.51100000000E-03 0. -1.
    9900012    2    1    2    0    0  0.30082379407E+02  0.13839917693E+02  0.23593904261E+02  0.50528865838E+02  0.30000018202E+02 0.  0.
         12    1    1    2    0    0 -0.30082379407E+02 -0.13839917693E+02 -0.23593904261E+02  0.40659134162E+02  0.00000000000E+00 0. -1.
         11    1    3    3    0    0  0.13798333455E+01 -0.32260026763E+01 -0.18860463461E+01  0.39834914848E+01  0.51100000000E-03 0. -1.
        -11    1    3    3    0    0  0.20026302692E+02  0.40868051598E+01  0.22946054044E+02  0.30729076986E+02  0.51100000000E-03 0.  1.
        -12    1    3    3    0    0  0.86762433691E+01  0.12979115210E+02  0.25338965624E+01  0.15816297368E+02  0.00000000000E+00 0.  1.
</event>
<event>
 7    1  0.6046695E-013  0.5052886E+02  0.7816164E-02  0.1300439E+00
        -11   -1    0    0    0    0  0.00000000000E+00  0.00000000000E+00  0.45593999997E+02  0.45594000000E+02  0.51100000000E-03 0. -1.
         11   -1    0    0    0    0 -0.00000000000E+00 -0.00000000000E+00 -0.45593999997E+02  0.45594000000E+02  0.51100000000E-03 0.  1.
    9900012    2    1    2    0    0  0.33216270556E+02 -0.23290147181E+02  0.27228573350E+01  0.50528861575E+02  0.30000005244E+02 0.  0.
         12    1    1    2    0    0 -0.33216270556E+02  0.23290147181E+02 -0.27228573350E+01  0.40659138425E+02  0.00000000000E+00 0. -1.
         11    1    3    3    0    0  0.11677326953E+02 -0.21659148349E+02  0.10155474063E+02  0.26619773209E+02  0.51100000000E-03 0. -1.
        -11    1    3    3    0    0  0.14458670894E+02 -0.23171359426E+01 -0.81519438670E+01  0.16759369680E+02  0.51100000000E-03 0.  1.
         12    1    3    3    0    0  0.70802727087E+01  0.68613711055E+00  0.71932713918E+00  0.71497186866E+01  0.00000000000E+00 0. -1.
</event>
<event>
 7    1  0.6046695E-013  0.5052885E+02  0.7816164E-02  0.1300439E+00
        -11   -1    0    0    0    0  0.00000000000E+00  0.00000000000E+00  0.45593999997E+02  0.45594000000E+02  0.51100000000E-03 0.  1.
         11   -1    0    0    0    0 -0.00000000000E+00 -0.00000000000E+00 -0.45593999997E+02  0.45594000000E+02  0.51100000000E-03 0. -1.
    9900012    2    1    2    0    0  0.36980002075E+02 -0.88810943504E+01 -0.14379562809E+02  0.50528853220E+02  0.29999979847E+02 0.  0.
         12    1    1    2    0    0 -0.36980002075E+02  0.88810943504E+01  0.14379562809E+02  0.40659146780E+02  0.00000000000E+00 0. -1.
         11    1    3    3    0    0  0.11164098405E+02  0.65028906281E+01 -0.13153250683E+02  0.18437263449E+02  0.51100000000E-03 0. -1.
        -11    1    3    3    0    0  0.13896229785E+02 -0.11687311546E+02 -0.53814728900E+01  0.18938286727E+02  0.51100000000E-03 0.  1.
         12    1    3    3    0    0  0.11919673885E+02 -0.36966734322E+01  0.41551607634E+01  0.13153303043E+02  0.00000000000E+00 0. -1.
</event>
<event>
 7    1  0.6046695E-013  0.5052886E+02  0.7816164E-02  0.1300439E+00
        -11   -1    0    0    0    0  0.00000000000E+00  0.00000000000E+00  0.45593999997E+02  0.45594000000E+02  0.51100000000E-03 0.  1.
         11   -1    0    0    0    0 -0.00000000000E+00 -0.00000000000E+00 -0.45593999997E+02  0.45594000000E+02  0.51100000000E-03 0. -1.
    9900012    2    1    2    0    0  0.12391501298E+02  0.12814029307E+02  0.36543357985E+02  0.50528860015E+02  0.30000000502E+02 0.  0.
         12    1    1    2    0    0 -0.12391501298E+02 -0.12814029307E+02 -0.36543357985E+02  0.40659139985E+02  0.00000000000E+00 0. -1.
         11    1    3    3    0    0  0.10766914072E+01 -0.63048226778E+00 -0.16268787010E+01  0.20502455573E+01  0.51100000000E-03 0. -1.
        -11    1    3    3    0    0  0.94527202350E+01  0.19440352013E+02  0.35694404062E+02  0.41729745839E+02  0.51100000000E-03 0.  1.
        -12    1    3    3    0    0  0.18620896554E+01 -0.59958404382E+01  0.24758326241E+01  0.67488686184E+01  0.00000000000E+00 0.  1.
</event>
<event>
 7    1  0.6046695E-013  0.5052887E+02  0.7816164E-02  0.1300439E+00
        -11   -1    0    0    0    0  0.00000000000E+00  0.00000000000E+00  0.45593999997E+02  0.45594000000E+02  0.51100000000E-03 0.  1.
         11   -1    0    0    0    0 -0.00000000000E+00 -0.00000000000E+00 -0.45593999997E+02  0.45594000000E+02  0.51100000000E-03 0. -1.
    9900012    2    1    2    0    0 -0.73361572229E+01 -0.38695778268E+02  0.10098641527E+02  0.50528867948E+02  0.30000024614E+02 0.  0.
         12    1    1    2    0    0  0.73361572229E+01  0.38695778268E+02 -0.10098641527E+02  0.40659132052E+02  0.00000000000E+00 0. -1.
         11    1    3    3    0    0  0.19648770783E+01  0.14431337094E+01  0.16012236012E+01  0.29167266102E+01  0.51100000000E-03 0. -1.
        -11    1    3    3    0    0 -0.14722203132E+02 -0.28660194291E+02 -0.20531313162E+00  0.32220989364E+02  0.51100000000E-03 0.  1.
        -12    1    3    3    0    0  0.54211688306E+01 -0.11478717686E+02  0.87027310573E+01  0.15391151973E+02  0.00000000000E+00 0.  1.
</event>
<event>
 7    1  0.6046695E-013  0.5052875E+02  0.7816164E-02  0.1300439E+00
        -11   -1    0    0    0    0  0.00000000000E+00  0.00000000000E+00  0.45593999997E+02  0.45594000000E+02  0.51100000000E-03 0. -1.
         11   -1    0    0    0    0 -0.00000000000E+00 -0.00000000000E+00 -0.45593999997E+02  0.45594000000E+02  0.51100000000E-03 0.  1.
    9900012    2    1    2    0    0 -0.22034634373E+02  0.31598493305E+02 -0.13007102767E+02  0.50528749964E+02  0.29999665987E+02 0.  0.
         12    1    1    2    0    0  0.22034634373E+02 -0.31598493305E+02  0.13007102767E+02  0.40659250036E+02  0.00000000000E+00 0. -1.
         11    1    3    3    0    0 -0.11012238487E+02  0.46443531858E+01 -0.14725356189E+02  0.18965113450E+02  0.51100000000E-03 0. -1.
        -11    1    3    3    0    0 -0.13352843791E+02  0.19740675040E+02  0.20488393751E+00  0.23833477842E+02  0.51100000000E-03 0.  1.
        -12    1    3    3    0    0  0.23304479055E+01  0.72134650800E+01  0.15133694843E+01  0.77301586722E+01  0.00000000000E+00 0.  1.
</event>
<event>
 7    1  0.6046695E-013  0.5052887E+02  0.7816164E-02  0.1300439E+00
        -11   -1    0    0    0    0  0.00000000000E+00  0.00000000000E+00  0.45593999997E+02  0.45594000000E+02  0.51100000000E-03 0.  1.
         11   -1    0    0    0    0 -0.00000000000E+00 -0.00000000000E+00 -0.45593999997E+02  0.45594000000E+02  0.51100000000E-03 0. -1.
    9900012    2    1    2    0    0 -0.18808425637E+02 -0.27892991425E+02  0.22833944032E+02  0.50528870083E+02  0.30000031103E+02 0.  0.
         12    1    1    2    0    0  0.18808425637E+02  0.27892991425E+02 -0.22833944032E+02  0.40659129917E+02  0.00000000000E+00 0. -1.
         11    1    3    3    0    0 -0.21852099330E+01 -0.21558803443E+02  0.18654656185E+01  0.21749416327E+02  0.51100000000E-03 0. -1.
        -11    1    3    3    0    0 -0.90454550771E+01  0.10591901145E+01  0.10313993179E+02  0.13759382137E+02  0.51100000000E-03 0.  1.
         12    1    3    3    0    0 -0.75777606267E+01 -0.73933780969E+01  0.10654485235E+02  0.15020071618E+02  0.00000000000E+00 0. -1.
</event>
<event>
 7    1  0.6046695E-013  0.5052886E+02  0.7816164E-02  0.1300439E+00
        -11   -1    0    0    0    0  0.00000000000E+00  0.00000000000E+00  0.45593999997E+02  0.45594000000E+02  0.51100000000E-03 0.  1.
         11   -1    0    0    0    0 -0.00000000000E+00 -0.00000000000E+00 -0.45593999997E+02  0.45594000000E+02  0.51100000000E-03 0. -1.
    9900012    2    1    2    0    0 -0.26513635269E+02  0.28390859169E+02  0.12006317278E+02  0.50528863338E+02  0.30000010602E+02 0.  0.
         12    1    1    2    0    0  0.26513635269E+02 -0.28390859169E+02 -0.12006317278E+02  0.40659136662E+02  0.00000000000E+00 0. -1.
         11    1    3    3    0    0 -0.15552310696E+02  0.49541656074E+01 -0.13351420816E+01  0.16376835149E+02  0.51100000000E-03 0. -1.
        -11    1    3    3    0    0  0.30549003063E+01  0.12062755228E+02  0.14297800125E+01  0.12525444132E+02  0.51100000000E-03 0.  1.
        -12    1    3    3    0    0 -0.14016224879E+02  0.11373938334E+02  0.11911679347E+02  0.21626584056E+02  0.00000000000E+00 0.  1.
</event>
<event>
 7    1  0.6046695E-013  0.5052886E+02  0.7816164E-02  0.1300439E+00
        -11   -1    0    0    0    0  0.00000000000E+00  0.00000000000E+00  0.45593999997E+02  0.45594000000E+02  0.51100000000E-03 0. -1.
         11   -1    0    0    0    0 -0.00000000000E+00 -0.00000000000E+00 -0.45593999997E+02  0.45594000000E+02  0.51100000000E-03 0.  1.
    9900012    2    1    2    0    0  0.49968848322E+01 -0.35448178176E+02 -0.19277539489E+02  0.50528859296E+02  0.29999998316E+02 0.  0.
         12    1    1    2    0    0 -0.49968848322E+01  0.35448178176E+02  0.19277539489E+02  0.40659140704E+02  0.00000000000E+00 0. -1.
         11    1    3    3    0    0  0.91140014861E+00  0.41192075350E+00 -0.86873394571E+01  0.87447238974E+01  0.51100000000E-03 0. -1.
        -11    1    3    3    0    0  0.80352927543E+01 -0.26645393095E+02 -0.14053015457E+02  0.31177398007E+02  0.51100000000E-03 0.  1.
        -12    1    3    3    0    0 -0.39498080708E+01 -0.92147058349E+01  0.34628154249E+01  0.10606737391E+02  0.00000000000E+00 0.  1.
</event>
<event>
 7    1  0.6046695E-013  0.5052885E+02  0.7816164E-02  0.1300439E+00
        -11   -1    0    0    0    0  0.00000000000E+00  0.00000000000E+00  0.45593999997E+02  0.45594000000E+02  0.51100000000E-03 0.  1.
         11   -1    0    0    0    0 -0.00000000000E+00 -0.00000000000E+00 -0.45593999997E+02  0.45594000000E+02  0.51100000000E-03 0. -1.
    9900012    2    1    2    0    0  0.75196189620E+01 -0.33035409100E+02  0.22478517557E+02  0.50528847582E+02  0.29999962711E+02 0.  0.
         12    1    1    2    0    0 -0.75196189620E+01  0.33035409100E+02 -0.22478517557E+02  0.40659152418E+02  0.00000000000E+00 0. -1.
         11    1    3    3    0    0 -0.56382584421E+01 -0.59540640434E+00 -0.19547544211E+01  0.59971269917E+01  0.51100000000E-03 0. -1.
        -11    1    3    3    0    0  0.97184893820E+01 -0.87401659245E+01  0.64007115845E+01  0.14553647148E+02  0.51100000000E-03 0.  1.
         12    1    3    3    0    0  0.34393880221E+01 -0.23699836772E+02  0.18032560394E+02  0.29978073443E+02  0.00000000000E+00 0. -1.
</event>
<event>
 7    1  0.6046695E-013  0.5052884E+02  0.7816164E-02  0.1300439E+00
        -11   -1    0    0    0    0  0.00000000000E+00  0.00000000000E+00  0.45593999997E+02  0.45594000000E+02  0.51100000000E-03 0.  1.
         11   -1    0    0    0    0 -0.00000000000E+00 -0.00000000000E+00 -0.45593999997E+02  0.45594000000E+02  0.51100000000E-03 0. -1.
    9900012    2    1    2    0    0 -0.12071011465E+02 -0.26333940949E+02  0.28530368109E+02  0.50528835373E+02  0.29999925599E+02 0.  0.
         12    1    1    2    0    0  0.12071011465E+02  0.26333940949E+02 -0.28530368109E+02  0.40659164627E+02  0.00000000000E+00 0. -1.
         11    1    3    3    0    0 -0.32923819948E+01 -0.40817910316E+01 -0.52585484672E+01  0.74265152978E+01  0.51100000000E-03 0. -1.
        -11    1    3    3    0    0 -0.87928200707E+01 -0.15280667655E+02  0.15301522664E+02  0.23344144552E+02  0.51100000000E-03 0.  1.
         12    1    3    3    0    0  0.14190600144E-01 -0.69714822628E+01  0.18487393912E+02  0.19758175523E+02  0.00000000000E+00 0. -1.
</event>
<event>
 7    1  0.6046695E-013  0.5052884E+02  0.7816164E-02  0.1300439E+00
        -11   -1    0    0    0    0  0.00000000000E+00  0.00000000000E+00  0.45593999997E+02  0.45594000000E+02  0.51100000000E-03 0. -1.
         11   -1    0    0    0    0 -0.00000000000E+00 -0.00000000000E+00 -0.45593999997E+02  0.45594000000E+02  0.51100000000E-03 0.  1.
    9900012    2    1    2    0    0 -0.17154742294E+02  0.34134708803E+02 -0.13917748275E+02  0.50528840573E+02  0.29999941406E+02 0.  0.
         12    1    1    2    0    0  0.17154742294E+02 -0.34134708803E+02  0.13917748275E+02  0.40659159427E+02  0.00000000000E+00 0. -1.
         11    1    3    3    0    0  0.40499580827E+01 -0.19455009042E+01 -0.63059387458E+01  0.77428675546E+01  0.51100000000E-03 0. -1.
        -11    1    3    3    0    0 -0.75009136534E+01  0.14708505529E+02 -0.94695151230E+00  0.16537852278E+02  0.51100000000E-03 0.  1.
         12    1    3    3    0    0 -0.13703786724E+02  0.21371704178E+02 -0.66648580171E+01  0.26248120741E+02  0.00000000000E+00 0. -1.
</event>
<event>
 7    1  0.6046695E-013  0.5052885E+02  0.7816164E-02  0.1300439E+00
        -11   -1    0    0    0    0  0.00000000000E+00  0.00000000000E+00  0.45593999997E+02  0.45594000000E+02  0.51100000000E-03 0.  1.
         11   -1    0    0    0    0 -0.00000000000E+00 -0.00000000000E+00 -0.45593999997E+02  0.45594000000E+02  0.51100000000E-03 0. -1.
    9900012    2    1    2    0    0  0.32087986428E+02 -0.96221391982E+00  0.24951994780E+02  0.50528846391E+02  0.29999959091E+02 0.  0.
         12    1    1    2    0    0 -0.32087986428E+02  0.96221391982E+00 -0.24951994780E+02  0.40659153609E+02  0.00000000000E+00 0. -1.
         11    1    3    3    0    0  0.19900348822E+02  0.10555792140E+02  0.12215415103E+02  0.25625475553E+02  0.51100000000E-03 0.  1.
        -11    1    3    3    0    0  0.26916473217E+01 -0.10784089365E+02  0.35434902316E+01  0.11666099263E+02  0.51100000000E-03 0. -1.
         12    1    3    3    0    0  0.94959902848E+01 -0.73391669550E+00  0.91930894457E+01  0.13237271575E+02  0.00000000000E+00 0. -1.
</event>
<event>
 7    1  0.6046695E-013  0.5052886E+02  0.7816164E-02  0.1300439E+00
        -11   -1    0    0    0    0  0.00000000000E+00  0.00000000000E+00  0.45593999997E+02  0.45594000000E+02  0.51100000000E-03 0.  1.
         11   -1    0    0    0    0 -0.00000000000E+00 -0.00000000000E+00 -0.45593999997E+02  0.45594000000E+02  0.51100000000E-03 0. -1.
    9900012    2    1    2    0    0 -0.27804046736E+02  0.26136888721E+02  0.14034379651E+02  0.50528858603E+02  0.29999996211E+02 0.  0.
         12    1    1    2    0    0  0.27804046736E+02 -0.26136888721E+02 -0.14034379651E+02  0.40659141397E+02  0.00000000000E+00 0. -1.
         11    1    3    3    0    0 -0.90202342420E+01  0.19762614454E+02 -0.28802270942E+01  0.21913951360E+02  0.51100000000E-03 0. -1.
        -11    1    3    3    0    0 -0.17962953047E+02  0.69152281861E+01  0.10113841362E+02  0.21743455346E+02  0.51100000000E-03 0.  1.
         12    1    3    3    0    0 -0.82085944728E+00 -0.54095391938E+00  0.68007653835E+01  0.68714518973E+01  0.00000000000E+00 0. -1.
</event>
<event>
 7    1  0.6046695E-013  0.5052886E+02  0.7816164E-02  0.1300439E+00
        -11   -1    0    0    0    0  0.00000000000E+00  0.00000000000E+00  0.45593999997E+02  0.45594000000E+02  0.51100000000E-03 0. -1.
         11   -1    0    0    0    0 -0.00000000000E+00 -0.00000000000E+00 -0.45593999997E+02  0.45594000000E+02  0.51100000000E-03 0.  1.
    9900012    2    1    2    0    0  0.18300250715E+02  0.19316215283E+02  0.30743298144E+02  0.50528859209E+02  0.29999998051E+02 0.  0.
         12    1    1    2    0    0 -0.18300250715E+02 -0.19316215283E+02 -0.30743298144E+02  0.40659140791E+02  0.00000000000E+00 0. -1.
         11    1    3    3    0    0 -0.17042075442E+01 -0.27021849654E+01  0.67190500563E+00  0.32645954633E+01  0.51100000000E-03 0. -1.
        -11    1    3    3    0    0  0.22700708988E+02  0.18283253616E+02  0.17791511346E+02  0.34148754407E+02  0.51100000000E-03 0.  1.
        -12    1    3    3    0    0 -0.26962507290E+01  0.37351466330E+01  0.12279881792E+02  0.13115509338E+02  0.00000000000E+00 0.  1.
</event>
<event>
 7    1  0.6046695E-013  0.5052886E+02  0.7816164E-02  0.1300439E+00
        -11   -1    0    0    0    0  0.00000000000E+00  0.00000000000E+00  0.45593999997E+02  0.45594000000E+02  0.51100000000E-03 0.  1.
         11   -1    0    0    0    0 -0.00000000000E+00 -0.00000000000E+00 -0.45593999997E+02  0.45594000000E+02  0.51100000000E-03 0. -1.
    9900012    2    1    2    0    0  0.27146100374E+02 -0.11506984147E+02  0.27997223940E+02  0.50528855911E+02  0.29999988027E+02 0.  0.
         12    1    1    2    0    0 -0.27146100374E+02  0.11506984147E+02 -0.27997223940E+02  0.40659144089E+02  0.00000000000E+00 0. -1.
         11    1    3    3    0    0  0.88675972405E+01  0.81906575353E+01  0.17674826351E+02  0.21403752906E+02  0.51100000000E-03 0. -1.
        -11    1    3    3    0    0  0.99180252629E+01 -0.10516543066E+02  0.79008070474E+01  0.16473847621E+02  0.51100000000E-03 0.  1.
         12    1    3    3    0    0  0.83604778710E+01 -0.91810986164E+01  0.24215905421E+01  0.12651255384E+02  0.00000000000E+00 0. -1.
</event>
<event>
 7    1  0.6046695E-013  0.5052885E+02  0.7816164E-02  0.1300439E+00
        -11   -1    0    0    0    0  0.00000000000E+00  0.00000000000E+00  0.45593999997E+02  0.45594000000E+02  0.51100000000E-03 0.  1.
         11   -1    0    0    0    0 -0.00000000000E+00 -0.00000000000E+00 -0.45593999997E+02  0.45594000000E+02  0.51100000000E-03 0. -1.
    9900012    2    1    2    0    0 -0.64883021255E+01 -0.32125123214E+02  0.24063353192E+02  0.50528848842E+02  0.29999966541E+02 0.  0.
         12    1    1    2    0    0  0.64883021255E+01  0.32125123214E+02 -0.24063353192E+02  0.40659151158E+02  0.00000000000E+00 0. -1.
         11    1    3    3    0    0 -0.40884586256E+01 -0.21719938329E+02 -0.65875067543E+00  0.22111200050E+02  0.51100000000E-03 0. -1.
        -11    1    3    3    0    0 -0.42112623487E+01 -0.11216162752E+02  0.20322661402E+02  0.23591261183E+02  0.51100000000E-03 0.  1.
         12    1    3    3    0    0  0.18114188488E+01  0.81097786730E+00  0.43994424656E+01  0.48263876093E+01  0.00000000000E+00 0. -1.
</event>
<event>
 7    1  0.6046695E-013  0.5052885E+02  0.7816164E-02  0.1300439E+00
        -11   -1    0    0    0    0  0.00000000000E+00  0.00000000000E+00  0.45593999997E+02  0.45594000000E+02  0.51100000000E-03 0.  1.
         11   -1    0    0    0    0 -0.00000000000E+00 -0.00000000000E+00 -0.45593999997E+02  0.45594000000E+02  0.51100000000E-03 0. -1.
    9900012    2    1    2    0    0 -0.95409001094E+01 -0.31800360827E+01  0.39395744342E+02  0.50528854945E+02  0.29999985090E+02 0.  0.
         12    1    1    2    0    0  0.95409001094E+01  0.31800360827E+01 -0.39395744342E+02  0.40659145055E+02  0.00000000000E+00 0. -1.
         11    1    3    3    0    0 -0.16367520243E+02 -0.47440227535E-01  0.10628156536E+02  0.19515524106E+02  0.51100000000E-03 0. -1.
        -11    1    3    3    0    0  0.77108507207E+01 -0.46676848240E+01  0.18327977060E+02  0.20424476586E+02  0.51100000000E-03 0.  1.
         12    1    3    3    0    0 -0.88423058674E+00  0.15350889689E+01  0.10439610746E+02  0.10588854253E+02  0.00000000000E+00 0. -1.
</event>
<event>
 7    1  0.6046695E-013  0.5052886E+02  0.7816164E-02  0.1300439E+00
        -11   -1    0    0    0    0  0.00000000000E+00  0.00000000000E+00  0.45593999997E+02  0.45594000000E+02  0.51100000000E-03 0.  1.
         11   -1    0    0    0    0 -0.00000000000E+00 -0.00000000000E+00 -0.45593999997E+02  0.45594000000E+02  0.51100000000E-03 0. -1.
    9900012    2    1    2    0    0  0.38204118428E+02  0.13723016020E+02  0.23000333548E+01  0.50528856047E+02  0.29999988441E+02 0.  0.
         12    1    1    2    0    0 -0.38204118428E+02 -0.13723016020E+02 -0.23000333548E+01  0.40659143953E+02  0.00000000000E+00 0. -1.
         11    1    3    3    0    0  0.11287401834E+02  0.49174523380E+01 -0.61843840114E+01  0.13778003611E+02  0.51100000000E-03 0. -1.
        -11    1    3    3    0    0  0.20977874122E+02 -0.12435349611E+01  0.12446420393E+02  0.24423983351E+02  0.51100000000E-03 0.  1.
        -12    1    3    3    0    0  0.59388424724E+01  0.10049098643E+02 -0.39620030270E+01  0.12326869085E+02  0.00000000000E+00 0.  1.
</event>
<event>
 7    1  0.6046695E-013  0.5052887E+02  0.7816164E-02  0.1300439E+00
        -11   -1    0    0    0    0  0.00000000000E+00  0.00000000000E+00  0.45593999997E+02  0.45594000000E+02  0.51100000000E-03 0.  1.
         11   -1    0    0    0    0 -0.00000000000E+00 -0.00000000000E+00 -0.45593999997E+02  0.45594000000E+02  0.51100000000E-03 0. -1.
    9900012    2    1    2    0    0 -0.13196186324E+01 -0.36730249429E+02  0.17387135095E+02  0.50528867160E+02  0.30000022220E+02 0.  0.
         12    1    1    2    0    0  0.13196186324E+01  0.36730249429E+02 -0.17387135095E+02  0.40659132840E+02  0.00000000000E+00 0. -1.
         11    1    3    3    0    0 -0.15480496196E+01 -0.24339632310E+00 -0.47364994709E+01  0.49890005907E+01  0.51100000000E-03 0. -1.
        -11    1    3    3    0    0 -0.27128970684E+01 -0.36751138574E+02  0.20542782132E+02  0.42190187188E+02  0.51100000000E-03 0.  1.
        -12    1    3    3    0    0  0.29413280556E+01  0.26428546785E+00  0.15808524340E+01  0.33496793813E+01  0.00000000000E+00 0.  1.
</event>
<event>
 7    1  0.6046695E-013  0.5052890E+02  0.7816164E-02  0.1300439E+00
        -11   -1    0    0    0    0  0.00000000000E+00  0.00000000000E+00  0.45593999997E+02  0.45594000000E+02  0.51100000000E-03 0.  1.
         11   -1    0    0    0    0 -0.00000000000E+00 -0.00000000000E+00 -0.45593999997E+02  0.45594000000E+02  0.51100000000E-03 0. -1.
    9900012    2    1    2    0    0  0.17014403075E+02 -0.13975257642E+02  0.34181347407E+02  0.50528902017E+02  0.30000128172E+02 0.  0.
         12    1    1    2    0    0 -0.17014403075E+02  0.13975257642E+02 -0.34181347407E+02  0.40659097983E+02  0.00000000000E+00 0. -1.
         11    1    3    3    0    0  0.99390988374E+01 -0.38658782362E+01 -0.40206425660E+00  0.10672036177E+02  0.51100000000E-03 0. -1.
        -11    1    3    3    0    0  0.14487150388E+01  0.35586031772E+01  0.13990431598E+02  0.14508432321E+02  0.51100000000E-03 0.  1.
        -12    1    3    3    0    0  0.56265891989E+01 -0.13667982583E+02  0.20592980066E+02  0.25348433520E+02  0.00000000000E+00 0.  1.
</event>
<event>
 7    1  0.6046695E-013  0.5052885E+02  0.7816164E-02  0.1300439E+00
        -11   -1    0    0    0    0  0.00000000000E+00  0.00000000000E+00  0.45593999997E+02  0.45594000000E+02  0.51100000000E-03 0.  1.
         11   -1    0    0    0    0 -0.00000000000E+00 -0.00000000000E+00 -0.45593999997E+02  0.45594000000E+02  0.51100000000E-03 0. -1.
    9900012    2    1    2    0    0 -0.38143403935E+02  0.74399013308E+01  0.11953862642E+02  0.50528853088E+02  0.29999979447E+02 0.  0.
         12    1    1    2    0    0  0.38143403935E+02 -0.74399013308E+01 -0.11953862642E+02  0.40659146912E+02  0.00000000000E+00 0. -1.
         11    1    3    3    0    0  0.41239554789E+01  0.34379490755E+01  0.47173102673E+01  0.71469937076E+01  0.51100000000E-03 0. -1.
        -11    1    3    3    0    0 -0.21711961804E+02  0.46552170956E+00  0.15975513644E+01  0.21775632401E+02  0.51100000000E-03 0.  1.
         12    1    3    3    0    0 -0.20555397609E+02  0.35364305458E+01  0.56390010102E+01  0.21606226979E+02  0.00000000000E+00 0. -1.
</event>
<event>
 7    1  0.6046695E-013  0.5052883E+02  0.7816164E-02  0.1300439E+00
        -11   -1    0    0    0    0  0.00000000000E+00  0.00000000000E+00  0.45593999997E+02  0.45594000000E+02  0.51100000000E-03 0. -1.
         11   -1    0    0    0    0 -0.00000000000E+00 -0.00000000000E+00 -0.45593999997E+02  0.45594000000E+02  0.51100000000E-03 0.  1.
    9900012    2    1    2    0    0  0.38665676692E+02  0.12424334021E+02  0.19414130032E+01  0.50528834805E+02  0.29999923872E+02 0.  0.
         12    1    1    2    0    0 -0.38665676692E+02 -0.12424334021E+02 -0.19414130032E+01  0.40659165195E+02  0.00000000000E+00 0. -1.
         11    1    3    3    0    0 -0.21408263629E+01 -0.20980393987E+01  0.16928708986E+01  0.34424873239E+01  0.51100000000E-03 0. -1.
        -11    1    3    3    0    0  0.28689042028E+02  0.13773581139E+02  0.78297546496E+01  0.32773125088E+02  0.51100000000E-03 0.  1.
        -12    1    3    3    0    0  0.12117461027E+02  0.74879228077E+00 -0.75812125451E+01  0.14313222393E+02  0.00000000000E+00 0.  1.
</event>
<event>
 7    1  0.6046695E-013  0.5052886E+02  0.7816164E-02  0.1300439E+00
        -11   -1    0    0    0    0  0.00000000000E+00  0.00000000000E+00  0.45593999997E+02  0.45594000000E+02  0.51100000000E-03 0. -1.
         11   -1    0    0    0    0 -0.00000000000E+00 -0.00000000000E+00 -0.45593999997E+02  0.45594000000E+02  0.51100000000E-03 0.  1.
    9900012    2    1    2    0    0 -0.27826383149E+02  0.26867205832E+02  0.12530402050E+02  0.50528864201E+02  0.30000013227E+02 0.  0.
         12    1    1    2    0    0  0.27826383149E+02 -0.26867205832E+02 -0.12530402050E+02  0.40659135799E+02  0.00000000000E+00 0. -1.
         11    1    3    3    0    0 -0.63149564261E+01  0.77774233722E+01  0.10215642090E+02  0.14308260990E+02  0.51100000000E-03 0. -1.
        -11    1    3    3    0    0 -0.21479640312E+02  0.21396791554E+02 -0.29608775995E+01  0.30462508649E+02  0.51100000000E-03 0.  1.
        -12    1    3    3    0    0 -0.31786410514E-01 -0.23070090947E+01  0.52756375597E+01  0.57580945633E+01  0.00000000000E+00 0.  1.
</event>
<event>
 7    1  0.6046695E-013  0.5052888E+02  0.7816164E-02  0.1300439E+00
        -11   -1    0    0    0    0  0.00000000000E+00  0.00000000000E+00  0.45593999997E+02  0.45594000000E+02  0.51100000000E-03 0.  1.
         11   -1    0    0    0    0 -0.00000000000E+00 -0.00000000000E+00 -0.45593999997E+02  0.45594000000E+02  0.51100000000E-03 0. -1.
    9900012    2    1    2    0    0 -0.41278611159E+01  0.88514357078E+01  0.39468681001E+02  0.50528881325E+02  0.30000065274E+02 0.  0.
         12    1    1    2    0    0  0.41278611159E+01 -0.88514357078E+01 -0.39468681001E+02  0.40659118675E+02  0.00000000000E+00 0. -1.
         11    1    3    3    0    0  0.51552766443E+01  0.40402339840E+01  0.13809929639E+01  0.66938411807E+01  0.51100000000E-03 0. -1.
        -11    1    3    3    0    0 -0.12061539137E+02  0.65875779879E+01  0.38136172633E+02  0.40536953184E+02  0.51100000000E-03 0.  1.
        -12    1    3    3    0    0  0.27784013765E+01 -0.17763762642E+01 -0.48484595477E-01  0.32980869602E+01  0.00000000000E+00 0.  1.
</event>
<event>
 7    1  0.6046695E-013  0.5052885E+02  0.7816164E-02  0.1300439E+00
        -11   -1    0    0    0    0  0.00000000000E+00  0.00000000000E+00  0.45593999997E+02  0.45594000000E+02  0.51100000000E-03 0.  1.
         11   -1    0    0    0    0 -0.00000000000E+00 -0.00000000000E+00 -0.45593999997E+02  0.45594000000E+02  0.51100000000E-03 0. -1.
    9900012    2    1    2    0    0 -0.31136875330E+02  0.25003721055E+02 -0.76468990331E+01  0.50528854205E+02  0.29999982842E+02 0.  0.
         12    1    1    2    0    0  0.31136875330E+02 -0.25003721055E+02  0.76468990331E+01  0.40659145795E+02  0.00000000000E+00 0. -1.
         11    1    3    3    0    0 -0.13478908941E+02  0.68439487055E+01 -0.23650559680E+01  0.15300787892E+02  0.51100000000E-03 0. -1.
        -11    1    3    3    0    0  0.55583909830E+01  0.69559345075E+01  0.49700169756E-01  0.89041117222E+01  0.51100000000E-03 0.  1.
        -12    1    3    3    0    0 -0.23216357373E+02  0.11203837842E+02 -0.53315432348E+01  0.26323954591E+02  0.00000000000E+00 0.  1.
</event>
<event>
 7    1  0.6046695E-013  0.5052888E+02  0.7816164E-02  0.1300439E+00
        -11   -1    0    0    0    0  0.00000000000E+00  0.00000000000E+00  0.45593999997E+02  0.45594000000E+02  0.51100000000E-03 0.  1.
         11   -1    0    0    0    0 -0.00000000000E+00 -0.00000000000E+00 -0.45593999997E+02  0.45594000000E+02  0.51100000000E-03 0. -1.
    9900012    2    1    2    0    0  0.22103934739E+02  0.33979843470E+02 -0.31543632953E+01  0.50528884159E+02  0.30000073889E+02 0.  0.
         12    1    1    2    0    0 -0.22103934739E+02 -0.33979843470E+02  0.31543632953E+01  0.40659115841E+02  0.00000000000E+00 0. -1.
         11    1    3    3    0    0  0.33849308774E+01 -0.91115075504E+00 -0.28552788147E+01  0.45211248727E+01  0.51100000000E-03 0. -1.
        -11    1    3    3    0    0  0.23657215895E+02  0.30056302797E+02 -0.34646740434E+01  0.38406368850E+02  0.51100000000E-03 0.  1.
        -12    1    3    3    0    0 -0.49382120333E+01  0.48346914280E+01  0.31655895628E+01  0.76013904366E+01  0.00000000000E+00 0.  1.
</event>
<event>
 7    1  0.6046695E-013  0.5052889E+02  0.7816164E-02  0.1300439E+00
        -11   -1    0    0    0    0  0.00000000000E+00  0.00000000000E+00  0.45593999997E+02  0.45594000000E+02  0.51100000000E-03 0.  1.
         11   -1    0    0    0    0 -0.00000000000E+00 -0.00000000000E+00 -0.45593999997E+02  0.45594000000E+02  0.51100000000E-03 0. -1.
    9900012    2    1    2    0    0  0.21701768037E+02  0.26207608259E+02  0.22256636933E+02  0.50528888424E+02  0.30000086853E+02 0.  0.
         12    1    1    2    0    0 -0.21701768037E+02 -0.26207608259E+02 -0.22256636933E+02  0.40659111576E+02  0.00000000000E+00 0. -1.
         11    1    3    3    0    0  0.13562878875E+01 -0.24345463670E+01  0.17197660887E+01  0.32747715199E+01  0.51100000000E-03 0. -1.
        -11    1    3    3    0    0  0.33890260523E-01  0.16280545802E+02  0.71198346231E+00  0.16296141902E+02  0.51100000000E-03 0.  1.
        -12    1    3    3    0    0  0.20311589889E+02  0.12361608824E+02  0.19824887382E+02  0.30957975002E+02  0.00000000000E+00 0.  1.
</event>
<event>
 7    1  0.6046695E-013  0.5052883E+02  0.7816164E-02  0.1300439E+00
        -11   -1    0    0    0    0  0.00000000000E+00  0.00000000000E+00  0.45593999997E+02  0.45594000000E+02  0.51100000000E-03 0. -1.
         11   -1    0    0    0    0 -0.00000000000E+00 -0.00000000000E+00 -0.45593999997E+02  0.45594000000E+02  0.51100000000E-03 0.  1.
    9900012    2    1    2    0    0 -0.19584513368E+00 -0.36012685572E+02 -0.18873699051E+02  0.50528826456E+02  0.29999898496E+02 0.  0.
         12    1    1    2    0    0  0.19584513368E+00  0.36012685572E+02  0.18873699051E+02  0.40659173544E+02  0.00000000000E+00 0. -1.
         11    1    3    3    0    0 -0.48666676947E+00 -0.60831673769E+01  0.57674970236E+01  0.83967727168E+01  0.51100000000E-03 0. -1.
        -11    1    3    3    0    0  0.12266057773E+01 -0.28340343722E+02 -0.14563333538E+02  0.31886836281E+02  0.51100000000E-03 0.  1.
        -12    1    3    3    0    0 -0.93578414146E+00 -0.15891744725E+01 -0.10077862536E+02  0.10245217458E+02  0.00000000000E+00 0.  1.
</event>
<event>
 7    1  0.6046695E-013  0.5052883E+02  0.7816164E-02  0.1300439E+00
        -11   -1    0    0    0    0  0.00000000000E+00  0.00000000000E+00  0.45593999997E+02  0.45594000000E+02  0.51100000000E-03 0.  1.
         11   -1    0    0    0    0 -0.00000000000E+00 -0.00000000000E+00 -0.45593999997E+02  0.45594000000E+02  0.51100000000E-03 0. -1.
    9900012    2    1    2    0    0 -0.17553845917E+01 -0.40570015550E+02 -0.20397278956E+01  0.50528830964E+02  0.29999912198E+02 0.  0.
         12    1    1    2    0    0  0.17553845917E+01  0.40570015550E+02  0.20397278956E+01  0.40659169036E+02  0.00000000000E+00 0. -1.
         11    1    3    3    0    0  0.63937757270E+01 -0.13234440474E+02  0.12106185529E+01  0.14747758482E+02  0.51100000000E-03 0.  1.
        -11    1    3    3    0    0 -0.11843844298E+02 -0.48448728834E+01 -0.20279726889E+01  0.12956161256E+02  0.51100000000E-03 0. -1.
         12    1    3    3    0    0  0.36946839793E+01 -0.22490702193E+02 -0.12223737596E+01  0.22824911225E+02  0.00000000000E+00 0. -1.
</event>
<event>
 7    1  0.6046695E-013  0.5052886E+02  0.7816164E-02  0.1300439E+00
        -11   -1    0    0    0    0  0.00000000000E+00  0.00000000000E+00  0.45593999997E+02  0.45594000000E+02  0.51100000000E-03 0. -1.
         11   -1    0    0    0    0 -0.00000000000E+00 -0.00000000000E+00 -0.45593999997E+02  0.45594000000E+02  0.51100000000E-03 0.  1.
    9900012    2    1    2    0    0 -0.28412035989E+02 -0.10396846535E+02 -0.27162973830E+02  0.50528863829E+02  0.30000012093E+02 0.  0.
         12    1    1    2    0    0  0.28412035989E+02  0.10396846535E+02  0.27162973830E+02  0.40659136171E+02  0.00000000000E+00 0. -1.
         11    1    3    3    0    0 -0.73398641398E+01  0.66615822557E+01  0.94435996682E+00  0.99570125916E+01  0.51100000000E-03 0. -1.
        -11    1    3    3    0    0 -0.11083591892E+02 -0.21395421215E+01 -0.11511034960E+02  0.16122269562E+02  0.51100000000E-03 0.  1.
         12    1    3    3    0    0 -0.99885799577E+01 -0.14918886669E+02 -0.16596298837E+02  0.24449581675E+02  0.00000000000E+00 0. -1.
</event>
<event>
 7    1  0.6046695E-013  0.5052888E+02  0.7816164E-02  0.1300439E+00
        -11   -1    0    0    0    0  0.00000000000E+00  0.00000000000E+00  0.45593999997E+02  0.45594000000E+02  0.51100000000E-03 0. -1.
         11   -1    0    0    0    0 -0.00000000000E+00 -0.00000000000E+00 -0.45593999997E+02  0.45594000000E+02  0.51100000000E-03 0.  1.
    9900012    2    1    2    0    0 -0.38970590869E+02  0.11534130697E+02  0.11921279511E+01  0.50528876883E+02  0.30000051773E+02 0.  0.
         12    1    1    2    0    0  0.38970590869E+02 -0.11534130697E+02 -0.11921279511E+01  0.40659123117E+02  0.00000000000E+00 0. -1.
         11    1    3    3    0    0  0.39397343401E+00 -0.20963904947E+01  0.56599482683E+01  0.60485603935E+01  0.51100000000E-03 0. -1.
        -11    1    3    3    0    0 -0.19158149198E+02  0.14150025292E+02 -0.46477326989E+01  0.24266423633E+02  0.51100000000E-03 0.  1.
        -12    1    3    3    0    0 -0.20206415105E+02 -0.51950410049E+00  0.17991238161E+00  0.20213892856E+02  0.00000000000E+00 0.  1.
</event>
<event>
 7    1  0.6046695E-013  0.5052886E+02  0.7816164E-02  0.1300439E+00
        -11   -1    0    0    0    0  0.00000000000E+00  0.00000000000E+00  0.45593999997E+02  0.45594000000E+02  0.51100000000E-03 0.  1.
         11   -1    0    0    0    0 -0.00000000000E+00 -0.00000000000E+00 -0.45593999997E+02  0.45594000000E+02  0.51100000000E-03 0. -1.
    9900012    2    1    2    0    0 -0.11223836633E+02  0.29098959945E+02  0.26085273246E+02  0.50528862541E+02  0.30000008179E+02 0.  0.
         12    1    1    2    0    0  0.11223836633E+02 -0.29098959945E+02 -0.26085273246E+02  0.40659137459E+02  0.00000000000E+00 0. -1.
         11    1    3    3    0    0 -0.11036731272E+01 -0.15517108641E+01  0.43760689161E+01  0.47724082387E+01  0.51100000000E-03 0. -1.
        -11    1    3    3    0    0 -0.13749987252E+02  0.18470317579E+02  0.31187348139E+01  0.23236636762E+02  0.51100000000E-03 0.  1.
        -12    1    3    3    0    0  0.36298237466E+01  0.12180353230E+02  0.18590469516E+02  0.22519817540E+02  0.00000000000E+00 0.  1.
</event>
<event>
 7    1  0.6046695E-013  0.5052885E+02  0.7816164E-02  0.1300439E+00
        -11   -1    0    0    0    0  0.00000000000E+00  0.00000000000E+00  0.45593999997E+02  0.45594000000E+02  0.51100000000E-03 0. -1.
         11   -1    0    0    0    0 -0.00000000000E+00 -0.00000000000E+00 -0.45593999997E+02  0.45594000000E+02  0.51100000000E-03 0.  1.
    9900012    2    1    2    0    0  0.37047945067E+02 -0.13462428639E+02  0.99688978114E+01  0.50528854139E+02  0.29999982642E+02 0.  0.
         12    1    1    2    0    0 -0.37047945067E+02  0.13462428639E+02 -0.99688978114E+01  0.40659145861E+02  0.00000000000E+00 0. -1.
         11    1    3    3    0    0  0.45563564603E+01  0.44862470275E+01 -0.21166233416E+01  0.67354948754E+01  0.51100000000E-03 0. -1.
        -11    1    3    3    0    0  0.21066002635E+02 -0.19084690557E+02  0.14723584347E+02  0.32012276035E+02  0.51100000000E-03 0.  1.
        -12    1    3    3    0    0  0.11425585972E+02  0.11360148910E+01 -0.26380631938E+01  0.11781083229E+02  0.00000000000E+00 0.  1.
</event>
<event>
 7    1  0.6046695E-013  0.5052886E+02  0.7816164E-02  0.1300439E+00
        -11   -1    0    0    0    0  0.00000000000E+00  0.00000000000E+00  0.45593999997E+02  0.45594000000E+02  0.51100000000E-03 0.  1.
         11   -1    0    0    0    0 -0.00000000000E+00 -0.00000000000E+00 -0.45593999997E+02  0.45594000000E+02  0.51100000000E-03 0. -1.
    9900012    2    1    2    0    0  0.24109523530E+02 -0.22376053351E+02  0.23899972765E+02  0.50528860971E+02  0.30000003407E+02 0.  0.
         12    1    1    2    0    0 -0.24109523530E+02  0.22376053351E+02 -0.23899972765E+02  0.40659139029E+02  0.00000000000E+00 0. -1.
         11    1    3    3    0    0  0.14370459919E+02  0.10450423217E+01  0.37574851265E+01  0.14890296386E+02  0.51100000000E-03 0. -1.
        -11    1    3    3    0    0 -0.25273804999E+01 -0.49358282336E+01  0.95761869462E+01  0.11065866854E+02  0.51100000000E-03 0.  1.
         12    1    3    3    0    0  0.12266444111E+02 -0.18485267439E+02  0.10566300692E+02  0.24572697730E+02  0.00000000000E+00 0. -1.
</event>
<event>
 7    1  0.6046695E-013  0.5052884E+02  0.7816164E-02  0.1300439E+00
        -11   -1    0    0    0    0  0.00000000000E+00  0.00000000000E+00  0.45593999997E+02  0.45594000000E+02  0.51100000000E-03 0. -1.
         11   -1    0    0    0    0 -0.00000000000E+00 -0.00000000000E+00 -0.45593999997E+02  0.45594000000E+02  0.51100000000E-03 0.  1.
    9900012    2    1    2    0    0  0.18226274443E+02  0.18626732331E+02 -0.31209213124E+02  0.50528840869E+02  0.29999942306E+02 0.  0.
         12    1    1    2    0    0 -0.18226274443E+02 -0.18626732331E+02  0.31209213124E+02  0.40659159131E+02  0.00000000000E+00 0. -1.
         11    1    3    3    0    0  0.33151424871E+01 -0.14660772408E+01 -0.31369397053E+00  0.36384002466E+01  0.51100000000E-03 0. -1.
        -11    1    3    3    0    0 -0.63790787735E+01  0.73379140722E+01 -0.13266333143E+02  0.16447894219E+02  0.51100000000E-03 0.  1.
        -12    1    3    3    0    0  0.21290210730E+02  0.12754895500E+02 -0.17629186011E+02  0.30442546403E+02  0.00000000000E+00 0.  1.
</event>
<event>
 7    1  0.6046695E-013  0.5052886E+02  0.7816164E-02  0.1300439E+00
        -11   -1    0    0    0    0  0.00000000000E+00  0.00000000000E+00  0.45593999997E+02  0.45594000000E+02  0.51100000000E-03 0. -1.
         11   -1    0    0    0    0 -0.00000000000E+00 -0.00000000000E+00 -0.45593999997E+02  0.45594000000E+02  0.51100000000E-03 0.  1.
    9900012    2    1    2    0    0  0.31590965958E+02 -0.85298652474E+01 -0.24133335259E+02  0.50528860781E+02  0.30000002829E+02 0.  0.
         12    1    1    2    0    0 -0.31590965958E+02  0.85298652474E+01  0.24133335259E+02  0.40659139219E+02  0.00000000000E+00 0. -1.
         11    1    3    3    0    0 -0.18792062750E+01  0.41853624131E+00  0.41884321653E+01  0.46097237525E+01  0.51100000000E-03 0. -1.
        -11    1    3    3    0    0  0.10716008183E+02 -0.74678136384E+01 -0.76223629062E+01  0.15122879635E+02  0.51100000000E-03 0.  1.
         12    1    3    3    0    0  0.22754164051E+02 -0.14805878504E+01 -0.20699404519E+02  0.30796257394E+02  0.00000000000E+00 0. -1.
</event>
<event>
 7    1  0.6046695E-013  0.5052886E+02  0.7816164E-02  0.1300439E+00
        -11   -1    0    0    0    0  0.00000000000E+00  0.00000000000E+00  0.45593999997E+02  0.45594000000E+02  0.51100000000E-03 0.  1.
         11   -1    0    0    0    0 -0.00000000000E+00 -0.00000000000E+00 -0.45593999997E+02  0.45594000000E+02  0.51100000000E-03 0. -1.
    9900012    2    1    2    0    0 -0.32434541406E+02 -0.21715471341E+01  0.24422336881E+02  0.50528860413E+02  0.30000001712E+02 0.  0.
         12    1    1    2    0    0  0.32434541406E+02  0.21715471341E+01 -0.24422336881E+02  0.40659139587E+02  0.00000000000E+00 0. -1.
         11    1    3    3    0    0 -0.23907209916E+02  0.96501164817E+01  0.14937565955E+02  0.29796145909E+02  0.51100000000E-03 0.  1.
        -11    1    3    3    0    0 -0.10663736200E+02 -0.89234254141E+01  0.99557920691E+01  0.17101479084E+02  0.51100000000E-03 0. -1.
         12    1    3    3    0    0  0.21364047106E+01 -0.28982382017E+01 -0.47102114327E+00  0.36312354205E+01  0.00000000000E+00 0. -1.
</event>
<event>
 7    1  0.6046695E-013  0.5052887E+02  0.7816164E-02  0.1300439E+00
        -11   -1    0    0    0    0  0.00000000000E+00  0.00000000000E+00  0.45593999997E+02  0.45594000000E+02  0.51100000000E-03 0.  1.
         11   -1    0    0    0    0 -0.00000000000E+00 -0.00000000000E+00 -0.45593999997E+02  0.45594000000E+02  0.51100000000E-03 0. -1.
    9900012    2    1    2    0    0 -0.13990381267E+02 -0.14930035122E+00  0.38176058179E+02  0.50528874620E+02  0.30000044895E+02 0.  0.
         12    1    1    2    0    0  0.13990381267E+02  0.14930035122E+00 -0.38176058179E+02  0.40659125380E+02  0.00000000000E+00 0. -1.
         11    1    3    3    0    0 -0.13240775332E+02 -0.10131360793E+01  0.60387374183E+01  0.14588040512E+02  0.51100000000E-03 0. -1.
        -11    1    3    3    0    0 -0.26508220924E+01 -0.31465823475E+01  0.31115678351E+02  0.31386514265E+02  0.51100000000E-03 0.  1.
         12    1    3    3    0    0  0.19012161569E+01  0.40104180756E+01  0.10216424095E+01  0.45543198427E+01  0.00000000000E+00 0. -1.
</event>
<event>
 7    1  0.6046695E-013  0.5052886E+02  0.7816164E-02  0.1300439E+00
        -11   -1    0    0    0    0  0.00000000000E+00  0.00000000000E+00  0.45593999997E+02  0.45594000000E+02  0.51100000000E-03 0.  1.
         11   -1    0    0    0    0 -0.00000000000E+00 -0.00000000000E+00 -0.45593999997E+02  0.45594000000E+02  0.51100000000E-03 0. -1.
    9900012    2    1    2    0    0 -0.11625520783E+02 -0.17610927880E+02  0.34754399912E+02  0.50528858008E+02  0.29999994402E+02 0.  0.
         12    1    1    2    0    0  0.11625520783E+02  0.17610927880E+02 -0.34754399912E+02  0.40659141992E+02  0.00000000000E+00 0. -1.
         11    1    3    3    0    0 -0.68944719326E+01 -0.57248691607E+01  0.17077502265E+01  0.91227343069E+01  0.51100000000E-03 0. -1.
        -11    1    3    3    0    0 -0.90964655798E+01 -0.12506452839E+02  0.33574944765E+02  0.36965307585E+02  0.51100000000E-03 0.  1.
        -12    1    3    3    0    0  0.43654167293E+01  0.62039411919E+00 -0.52829507958E+00  0.44408161159E+01  0.00000000000E+00 0.  1.
</event>
<event>
 7    1  0.6046695E-013  0.5052886E+02  0.7816164E-02  0.1300439E+00
        -11   -1    0    0    0    0  0.00000000000E+00  0.00000000000E+00  0.45593999997E+02  0.45594000000E+02  0.51100000000E-03 0. -1.
         11   -1    0    0    0    0 -0.00000000000E+00 -0.00000000000E+00 -0.45593999997E+02  0.45594000000E+02  0.51100000000E-03 0.  1.
    9900012    2    1    2    0    0 -0.39609455116E+02 -0.61071815948E+01 -0.68526398658E+01  0.50528864805E+02  0.30000015062E+02 0.  0.
         12    1    1    2    0    0  0.39609455116E+02  0.61071815948E+01  0.68526398658E+01  0.40659135195E+02  0.00000000000E+00 0. -1.
         11    1    3    3    0    0 -0.62419940671E+01  0.10462629759E+01  0.60312645759E+01  0.87426145285E+01  0.51100000000E-03 0. -1.
        -11    1    3    3    0    0 -0.19044557452E+02 -0.10133422815E+02 -0.15962489347E+02  0.26836216069E+02  0.51100000000E-03 0.  1.
        -12    1    3    3    0    0 -0.14322903597E+02  0.29799782445E+01  0.30785849052E+01  0.14950034207E+02  0.00000000000E+00 0.  1.
</event>
<event>
 7    1  0.6046695E-013  0.5052886E+02  0.7816164E-02  0.1300439E+00
        -11   -1    0    0    0    0  0.00000000000E+00  0.00000000000E+00  0.45593999997E+02  0.45594000000E+02  0.51100000000E-03 0.  1.
         11   -1    0    0    0    0 -0.00000000000E+00 -0.00000000000E+00 -0.45593999997E+02  0.45594000000E+02  0.51100000000E-03 0. -1.
    9900012    2    1    2    0    0  0.25219933854E+02  0.20044548155E+02  0.24805976831E+02  0.50528862516E+02  0.30000008105E+02 0.  0.
         12    1    1    2    0    0 -0.25219933854E+02 -0.20044548155E+02 -0.24805976831E+02  0.40659137484E+02  0.00000000000E+00 0. -1.
         11    1    3    3    0    0  0.54021445978E+01 -0.65170126927E+01  0.24459040178E+01  0.88111898980E+01  0.51100000000E-03 0. -1.
        -11    1    3    3    0    0  0.12921552224E+02  0.22571780716E+02  0.11987151319E+02  0.28638149270E+02  0.51100000000E-03 0.  1.
         12    1    3    3    0    0  0.68962370324E+01  0.39897801312E+01  0.10372921495E+02  0.13079523349E+02  0.00000000000E+00 0. -1.
</event>
<event>
 7    1  0.6046695E-013  0.5052886E+02  0.7816164E-02  0.1300439E+00
        -11   -1    0    0    0    0  0.00000000000E+00  0.00000000000E+00  0.45593999997E+02  0.45594000000E+02  0.51100000000E-03 0. -1.
         11   -1    0    0    0    0 -0.00000000000E+00 -0.00000000000E+00 -0.45593999997E+02  0.45594000000E+02  0.51100000000E-03 0.  1.
    9900012    2    1    2    0    0 -0.39244816588E+02 -0.59559306809E+01 -0.88054877431E+01  0.50528863835E+02  0.30000012112E+02 0.  0.
         12    1    1    2    0    0  0.39244816588E+02  0.59559306809E+01  0.88054877431E+01  0.40659136165E+02  0.00000000000E+00 0. -1.
         11    1    3    3    0    0 -0.12150481943E+02  0.92573952915E+00 -0.17168773431E+02  0.21053692942E+02  0.51100000000E-03 0. -1.
        -11    1    3    3    0    0 -0.10487188364E+02 -0.84204717459E+00  0.41403378425E+01  0.11306306247E+02  0.51100000000E-03 0.  1.
         12    1    3    3    0    0 -0.16607146281E+02 -0.60396230355E+01  0.42229478454E+01  0.18168864645E+02  0.00000000000E+00 0. -1.
</event>
<event>
 7    1  0.6046695E-013  0.5052886E+02  0.7816164E-02  0.1300439E+00
        -11   -1    0    0    0    0  0.00000000000E+00  0.00000000000E+00  0.45593999997E+02  0.45594000000E+02  0.51100000000E-03 0. -1.
         11   -1    0    0    0    0 -0.00000000000E+00 -0.00000000000E+00 -0.45593999997E+02  0.45594000000E+02  0.51100000000E-03 0.  1.
    9900012    2    1    2    0    0  0.39482917049E+01 -0.33806320411E+02  0.22242066863E+02  0.50528857788E+02  0.29999993731E+02 0.  0.
         12    1    1    2    0    0 -0.39482917049E+01  0.33806320411E+02 -0.22242066863E+02  0.40659142212E+02  0.00000000000E+00 0. -1.
         11    1    3    3    0    0 -0.43833280982E+01 -0.20982644725E+01  0.57457820970E+01  0.75253100388E+01  0.51100000000E-03 0. -1.
        -11    1    3    3    0    0  0.64297332870E+01 -0.29617602603E+02  0.44527239835E+01  0.30632835410E+02  0.51100000000E-03 0.  1.
        -12    1    3    3    0    0  0.19018865160E+01 -0.20904533356E+01  0.12043560782E+02  0.12370712339E+02  0.00000000000E+00 0.  1.
</event>
<event>
 7    1  0.6046695E-013  0.5052889E+02  0.7816164E-02  0.1300439E+00
        -11   -1    0    0    0    0  0.00000000000E+00  0.00000000000E+00  0.45593999997E+02  0.45594000000E+02  0.51100000000E-03 0.  1.
         11   -1    0    0    0    0 -0.00000000000E+00 -0.00000000000E+00 -0.45593999997E+02  0.45594000000E+02  0.51100000000E-03 0. -1.
    9900012    2    1    2    0    0  0.33276078170E+02  0.16778707502E+02  0.16258555433E+02  0.50528892428E+02  0.30000099024E+02 0.  0.
         12    1    1    2    0    0 -0.33276078170E+02 -0.16778707502E+02 -0.16258555433E+02  0.40659107572E+02  0.00000000000E+00 0. -1.
         11    1    3    3    0    0  0.21696863616E+02  0.12004579693E+02  0.13842054224E+02  0.28398350124E+02  0.51100000000E-03 0.  1.
        -11    1    3    3    0    0 -0.27843871692E+01  0.54345373511E+01  0.45220559448E+01  0.75984207805E+01  0.51100000000E-03 0. -1.
        -12    1    3    3    0    0  0.14363601724E+02 -0.66040954266E+00 -0.21055547355E+01  0.14532121524E+02  0.00000000000E+00 0.  1.
</event>
<event>
 7    1  0.6046695E-013  0.5052886E+02  0.7816164E-02  0.1300439E+00
        -11   -1    0    0    0    0  0.00000000000E+00  0.00000000000E+00  0.45593999997E+02  0.45594000000E+02  0.51100000000E-03 0.  1.
         11   -1    0    0    0    0 -0.00000000000E+00 -0.00000000000E+00 -0.45593999997E+02  0.45594000000E+02  0.51100000000E-03 0. -1.
    9900012    2    1    2    0    0 -0.23325495641E+02  0.15094490693E+02  0.29685743383E+02  0.50528858883E+02  0.29999997061E+02 0.  0.
         12    1    1    2    0    0  0.23325495641E+02 -0.15094490693E+02 -0.29685743383E+02  0.40659141117E+02  0.00000000000E+00 0. -1.
         11    1    3    3    0    0 -0.72689472952E+01 -0.68926882436E+01  0.15967085672E+02  0.18849259167E+02  0.51100000000E-03 0. -1.
        -11    1    3    3    0    0 -0.93646198063E+01  0.69868006039E+01  0.84878161522E+01  0.14441416485E+02  0.51100000000E-03 0.  1.
         12    1    3    3    0    0 -0.66919285393E+01  0.15000378333E+02  0.52308415585E+01  0.17238183232E+02  0.00000000000E+00 0. -1.
</event>
<event>
 7    1  0.6046695E-013  0.5052886E+02  0.7816164E-02  0.1300439E+00
        -11   -1    0    0    0    0  0.00000000000E+00  0.00000000000E+00  0.45593999997E+02  0.45594000000E+02  0.51100000000E-03 0.  1.
         11   -1    0    0    0    0 -0.00000000000E+00 -0.00000000000E+00 -0.45593999997E+02  0.45594000000E+02  0.51100000000E-03 0. -1.
    9900012    2    1    2    0    0  0.28344336617E+02 -0.28844921782E+02  0.42112946729E+01  0.50528856702E+02  0.29999990431E+02 0.  0.
         12    1    1    2    0    0 -0.28344336617E+02  0.28844921782E+02 -0.42112946729E+01  0.40659143298E+02  0.00000000000E+00 0. -1.
         11    1    3    3    0    0  0.10660763017E+02  0.95130387065E+00 -0.26016513601E+01  0.11014782668E+02  0.51100000000E-03 0. -1.
        -11    1    3    3    0    0  0.16322893121E+02 -0.31850112584E+02  0.43880571284E+01  0.36057198409E+02  0.51100000000E-03 0.  1.
        -12    1    3    3    0    0  0.13606804792E+01  0.20538869309E+01  0.24248889046E+01  0.34568756256E+01  0.00000000000E+00 0.  1.
</event>
<event>
 7    1  0.6046695E-013  0.5052886E+02  0.7816164E-02  0.1300439E+00
        -11   -1    0    0    0    0  0.00000000000E+00  0.00000000000E+00  0.45593999997E+02  0.45594000000E+02  0.51100000000E-03 0.  1.
         11   -1    0    0    0    0 -0.00000000000E+00 -0.00000000000E+00 -0.45593999997E+02  0.45594000000E+02  0.51100000000E-03 0. -1.
    9900012    2    1    2    0    0 -0.32605631127E+02 -0.19780226556E+02  0.14098978578E+02  0.50528859075E+02  0.29999997645E+02 0.  0.
         12    1    1    2    0    0  0.32605631127E+02  0.19780226556E+02 -0.14098978578E+02  0.40659140925E+02  0.00000000000E+00 0. -1.
         11    1    3    3    0    0  0.14225782731E+01  0.19986811996E+01  0.46425557724E+01  0.52508837201E+01  0.51100000000E-03 0. -1.
        -11    1    3    3    0    0 -0.28666691518E+02 -0.24971223539E+02  0.86154704214E+01  0.38981630783E+02  0.51100000000E-03 0.  1.
        -12    1    3    3    0    0 -0.53615178819E+01  0.31923157836E+01  0.84095238384E+00  0.62963445722E+01  0.00000000000E+00 0.  1.
</event>
<event>
 7    1  0.6046695E-013  0.5052887E+02  0.7816164E-02  0.1300439E+00
        -11   -1    0    0    0    0  0.00000000000E+00  0.00000000000E+00  0.45593999997E+02  0.45594000000E+02  0.51100000000E-03 0. -1.
         11   -1    0    0    0    0 -0.00000000000E+00 -0.00000000000E+00 -0.45593999997E+02  0.45594000000E+02  0.51100000000E-03 0.  1.
    9900012    2    1    2    0    0  0.26516950320E+02  0.17438596035E+02 -0.25414797677E+02  0.50528865395E+02  0.30000016853E+02 0.  0.
         12    1    1    2    0    0 -0.26516950320E+02 -0.17438596035E+02  0.25414797677E+02  0.40659134605E+02  0.00000000000E+00 0. -1.
         11    1    3    3    0    0 -0.42794550384E+01 -0.16237236777E+01 -0.44462668877E+01  0.63811835505E+01  0.51100000000E-03 0. -1.
        -11    1    3    3    0    0  0.31228639779E+02  0.20231479399E+02 -0.18904161542E+02  0.41736171662E+02  0.51100000000E-03 0.  1.
        -12    1    3    3    0    0 -0.43223442122E+00 -0.11691596872E+01 -0.20643692471E+01  0.24115101819E+01  0.00000000000E+00 0.  1.
</event>
<event>
 7    1  0.6046695E-013  0.5052883E+02  0.7816164E-02  0.1300439E+00
        -11   -1    0    0    0    0  0.00000000000E+00  0.00000000000E+00  0.45593999997E+02  0.45594000000E+02  0.51100000000E-03 0. -1.
         11   -1    0    0    0    0 -0.00000000000E+00 -0.00000000000E+00 -0.45593999997E+02  0.45594000000E+02  0.51100000000E-03 0.  1.
    9900012    2    1    2    0    0 -0.35159147975E+02  0.14554564686E+02 -0.14323647328E+02  0.50528832371E+02  0.29999916475E+02 0.  0.
         12    1    1    2    0    0  0.35159147975E+02 -0.14554564686E+02  0.14323647328E+02  0.40659167629E+02  0.00000000000E+00 0. -1.
         11    1    3    3    0    0  0.62489504514E+00 -0.70378423121E+00  0.12786365164E+01  0.15876768134E+01  0.51100000000E-03 0. -1.
        -11    1    3    3    0    0 -0.33812379353E+02  0.37694268211E+01 -0.77713221965E+01  0.34898123518E+02  0.51100000000E-03 0.  1.
        -12    1    3    3    0    0 -0.19716636663E+01  0.11488922096E+02 -0.78309616484E+01  0.14043032040E+02  0.00000000000E+00 0.  1.
</event>
<event>
 7    1  0.6046695E-013  0.5052885E+02  0.7816164E-02  0.1300439E+00
        -11   -1    0    0    0    0  0.00000000000E+00  0.00000000000E+00  0.45593999997E+02  0.45594000000E+02  0.51100000000E-03 0. -1.
         11   -1    0    0    0    0 -0.00000000000E+00 -0.00000000000E+00 -0.45593999997E+02  0.45594000000E+02  0.51100000000E-03 0.  1.
    9900012    2    1    2    0    0  0.31882154870E+02  0.18337088095E+02 -0.17333368219E+02  0.50528852779E+02  0.29999978506E+02 0.  0.
         12    1    1    2    0    0 -0.31882154870E+02 -0.18337088095E+02  0.17333368219E+02  0.40659147221E+02  0.00000000000E+00 0. -1.
         11    1    3    3    0    0  0.49713158481E+01  0.59591202083E+01  0.32986747577E+01  0.84324581432E+01  0.51100000000E-03 0. -1.
        -11    1    3    3    0    0  0.30657161903E+01 -0.38354160294E+01 -0.10398001840E+02  0.11499020584E+02  0.51100000000E-03 0.  1.
        -12    1    3    3    0    0  0.23845122831E+02  0.16213383916E+02 -0.10234041137E+02  0.30597374051E+02  0.00000000000E+00 0.  1.
</event>
<event>
 7    1  0.6046695E-013  0.5052888E+02  0.7816164E-02  0.1300439E+00
        -11   -1    0    0    0    0  0.00000000000E+00  0.00000000000E+00  0.45593999997E+02  0.45594000000E+02  0.51100000000E-03 0.  1.
         11   -1    0    0    0    0 -0.00000000000E+00 -0.00000000000E+00 -0.45593999997E+02  0.45594000000E+02  0.51100000000E-03 0. -1.
    9900012    2    1    2    0    0  0.24402627820E+02  0.14321491870E+02  0.29198814004E+02  0.50528879091E+02  0.30000058484E+02 0.  0.
         12    1    1    2    0    0 -0.24402627820E+02 -0.14321491870E+02 -0.29198814004E+02  0.40659120909E+02  0.00000000000E+00 0. -1.
         11    1    3    3    0    0  0.10258888877E+02 -0.22893549998E+01 -0.24638055902E+01  0.10796123636E+02  0.51100000000E-03 0. -1.
        -11    1    3    3    0    0  0.12092139800E+02  0.17859262765E+02  0.29091524435E+02  0.36214498556E+02  0.51100000000E-03 0.  1.
         12    1    3    3    0    0  0.20515991424E+01 -0.12484158953E+01  0.25710951594E+01  0.35182568990E+01  0.00000000000E+00 0. -1.
</event>
<event>
 7    1  0.6046695E-013  0.5052883E+02  0.7816164E-02  0.1300439E+00
        -11   -1    0    0    0    0  0.00000000000E+00  0.00000000000E+00  0.45593999997E+02  0.45594000000E+02  0.51100000000E-03 0.  1.
         11   -1    0    0    0    0 -0.00000000000E+00 -0.00000000000E+00 -0.45593999997E+02  0.45594000000E+02  0.51100000000E-03 0. -1.
    9900012    2    1    2    0    0 -0.12516165298E+02  0.31455287315E+02  0.22518404063E+02  0.50528831103E+02  0.29999912620E+02 0.  0.
         12    1    1    2    0    0  0.12516165298E+02 -0.31455287315E+02 -0.22518404063E+02  0.40659168897E+02  0.00000000000E+00 0. -1.
         11    1    3    3    0    0  0.52884397998E+01  0.36644559573E+01 -0.36842522982E+01  0.74141451454E+01  0.51100000000E-03 0. -1.
        -11    1    3    3    0    0 -0.15139297398E+02  0.26890788067E+02  0.25894916882E+02  0.40284730720E+02  0.51100000000E-03 0.  1.
         12    1    3    3    0    0 -0.26653076999E+01  0.90004329097E+00  0.30773947905E+00  0.28299552378E+01  0.00000000000E+00 0. -1.
</event>
<event>
 7    1  0.6046695E-013  0.5052885E+02  0.7816164E-02  0.1300439E+00
        -11   -1    0    0    0    0  0.00000000000E+00  0.00000000000E+00  0.45593999997E+02  0.45594000000E+02  0.51100000000E-03 0. -1.
         11   -1    0    0    0    0 -0.00000000000E+00 -0.00000000000E+00 -0.45593999997E+02  0.45594000000E+02  0.51100000000E-03 0.  1.
    9900012    2    1    2    0    0 -0.40766391514E+01 -0.24537601919E+02 -0.32162922630E+02  0.50528849900E+02  0.29999969757E+02 0.  0.
         12    1    1    2    0    0  0.40766391514E+01  0.24537601919E+02  0.32162922630E+02  0.40659150100E+02  0.00000000000E+00 0. -1.
         11    1    3    3    0    0 -0.94310667068E+01 -0.54877163585E+01 -0.18104595149E+02  0.21138505525E+02  0.51100000000E-03 0. -1.
        -11    1    3    3    0    0  0.10037065508E+02 -0.96096589257E+01 -0.32000252984E+01  0.14259326451E+02  0.51100000000E-03 0.  1.
         12    1    3    3    0    0 -0.46826379525E+01 -0.94402266351E+01 -0.10858302183E+02  0.15131017924E+02  0.00000000000E+00 0. -1.
</event>
<event>
 7    1  0.6046695E-013  0.5052886E+02  0.7816164E-02  0.1300439E+00
        -11   -1    0    0    0    0  0.00000000000E+00  0.00000000000E+00  0.45593999997E+02  0.45594000000E+02  0.51100000000E-03 0.  1.
         11   -1    0    0    0    0 -0.00000000000E+00 -0.00000000000E+00 -0.45593999997E+02  0.45594000000E+02  0.51100000000E-03 0. -1.
    9900012    2    1    2    0    0 -0.25635838292E+02 -0.22686128311E+01  0.31477340593E+02  0.50528858594E+02  0.29999996182E+02 0.  0.
         12    1    1    2    0    0  0.25635838292E+02  0.22686128311E+01 -0.31477340593E+02  0.40659141406E+02  0.00000000000E+00 0. -1.
         11    1    3    3    0    0  0.38380506426E+01 -0.74375691316E+01  0.61587796241E+01  0.10391276824E+02  0.51100000000E-03 0. -1.
        -11    1    3    3    0    0 -0.14306395816E+02  0.49146458771E+01  0.17293939015E+02  0.22976227546E+02  0.51100000000E-03 0.  1.
         12    1    3    3    0    0 -0.15167493118E+02  0.25431042347E+00  0.80246219541E+01  0.17161354223E+02  0.00000000000E+00 0. -1.
</event>
<event>
 7    1  0.6046695E-013  0.5052887E+02  0.7816164E-02  0.1300439E+00
        -11   -1    0    0    0    0  0.00000000000E+00  0.00000000000E+00  0.45593999997E+02  0.45594000000E+02  0.51100000000E-03 0.  1.
         11   -1    0    0    0    0 -0.00000000000E+00 -0.00000000000E+00 -0.45593999997E+02  0.45594000000E+02  0.51100000000E-03 0. -1.
    9900012    2    1    2    0    0  0.29980632554E+02  0.60366493095E+01  0.26793381606E+02  0.50528871122E+02  0.30000034263E+02 0.  0.
         12    1    1    2    0    0 -0.29980632554E+02 -0.60366493095E+01 -0.26793381606E+02  0.40659128878E+02  0.00000000000E+00 0. -1.
         11    1    3    3    0    0  0.76303201612E+01  0.65452345017E+01 -0.51102017976E+01  0.11277235615E+02  0.51100000000E-03 0. -1.
        -11    1    3    3    0    0  0.16788306382E+02 -0.46083076173E+00  0.20026051986E+02  0.26136226862E+02  0.51100000000E-03 0.  1.
         12    1    3    3    0    0  0.55620060103E+01 -0.47754430410E-01  0.11877531418E+02  0.13115408645E+02  0.00000000000E+00 0. -1.
</event>
<event>
 7    1  0.6046695E-013  0.5052886E+02  0.7816164E-02  0.1300439E+00
        -11   -1    0    0    0    0  0.00000000000E+00  0.00000000000E+00  0.45593999997E+02  0.45594000000E+02  0.51100000000E-03 0.  1.
         11   -1    0    0    0    0 -0.00000000000E+00 -0.00000000000E+00 -0.45593999997E+02  0.45594000000E+02  0.51100000000E-03 0. -1.
    9900012    2    1    2    0    0  0.11803946624E+02 -0.38907985182E+02  0.28902387607E-01  0.50528864468E+02  0.30000014037E+02 0.  0.
         12    1    1    2    0    0 -0.11803946624E+02  0.38907985182E+02 -0.28902387607E-01  0.40659135532E+02  0.00000000000E+00 0. -1.
         11    1    3    3    0    0 -0.17446848768E+00 -0.47107778550E+01 -0.12426196178E+00  0.47156450829E+01  0.51100000000E-03 0. -1.
        -11    1    3    3    0    0  0.18657930038E+02 -0.32333846922E+02 -0.42911444400E+01  0.37576720598E+02  0.51100000000E-03 0.  1.
        -12    1    3    3    0    0 -0.66795149261E+01 -0.18633604054E+01  0.44443087894E+01  0.82364987867E+01  0.00000000000E+00 0.  1.
</event>
<event>
 7    1  0.6046695E-013  0.5052886E+02  0.7816164E-02  0.1300439E+00
        -11   -1    0    0    0    0  0.00000000000E+00  0.00000000000E+00  0.45593999997E+02  0.45594000000E+02  0.51100000000E-03 0.  1.
         11   -1    0    0    0    0 -0.00000000000E+00 -0.00000000000E+00 -0.45593999997E+02  0.45594000000E+02  0.51100000000E-03 0. -1.
    9900012    2    1    2    0    0  0.24346630241E+02 -0.10675722027E+02  0.30764208328E+02  0.50528856392E+02  0.29999989490E+02 0.  0.
         12    1    1    2    0    0 -0.24346630241E+02  0.10675722027E+02 -0.30764208328E+02  0.40659143608E+02  0.00000000000E+00 0. -1.
         11    1    3    3    0    0 -0.22806718913E+01 -0.10370088599E+02  0.99696458103E+01  0.14564821992E+02  0.51100000000E-03 0. -1.
        -11    1    3    3    0    0  0.26271354956E+02  0.18538126660E+01  0.21110019265E+02  0.33752831382E+02  0.51100000000E-03 0.  1.
        -12    1    3    3    0    0  0.35594717557E+00 -0.21594460948E+01 -0.31545674770E+00  0.22112030182E+01  0.00000000000E+00 0.  1.
</event>
<event>
 7    1  0.6046695E-013  0.5052887E+02  0.7816164E-02  0.1300439E+00
        -11   -1    0    0    0    0  0.00000000000E+00  0.00000000000E+00  0.45593999997E+02  0.45594000000E+02  0.51100000000E-03 0.  1.
         11   -1    0    0    0    0 -0.00000000000E+00 -0.00000000000E+00 -0.45593999997E+02  0.45594000000E+02  0.51100000000E-03 0. -1.
    9900012    2    1    2    0    0  0.23923935333E+02 -0.41532478671E+01  0.32612274203E+02  0.50528873370E+02  0.30000041095E+02 0.  0.
         12    1    1    2    0    0 -0.23923935333E+02  0.41532478671E+01 -0.32612274203E+02  0.40659126630E+02  0.00000000000E+00 0. -1.
         11    1    3    3    0    0  0.91616652248E+01 -0.22314972668E+01  0.43400211898E+01  0.10380340743E+02  0.51100000000E-03 0. -1.
        -11    1    3    3    0    0 -0.70446201146E+00 -0.10696524260E+02  0.10947172787E+02  0.15321634713E+02  0.51100000000E-03 0.  1.
        -12    1    3    3    0    0  0.15466732119E+02  0.87747736599E+01  0.17325080225E+02  0.24826897914E+02  0.00000000000E+00 0.  1.
</event>
<event>
 7    1  0.6046695E-013  0.5052885E+02  0.7816164E-02  0.1300439E+00
        -11   -1    0    0    0    0  0.00000000000E+00  0.00000000000E+00  0.45593999997E+02  0.45594000000E+02  0.51100000000E-03 0.  1.
         11   -1    0    0    0    0 -0.00000000000E+00 -0.00000000000E+00 -0.45593999997E+02  0.45594000000E+02  0.51100000000E-03 0. -1.
    9900012    2    1    2    0    0  0.36563427131E+02 -0.40064243134E+01 -0.17327159181E+02  0.50528854846E+02  0.29999984790E+02 0.  0.
         12    1    1    2    0    0 -0.36563427131E+02  0.40064243134E+01  0.17327159181E+02  0.40659145154E+02  0.00000000000E+00 0. -1.
         11    1    3    3    0    0  0.37803825270E+01  0.81836974163E+01 -0.70448310060E+01  0.11440884564E+02  0.51100000000E-03 0. -1.
        -11    1    3    3    0    0  0.33143444397E+02 -0.91293956931E+01 -0.10636837398E+02  0.35985776111E+02  0.51100000000E-03 0.  1.
        -12    1    3    3    0    0 -0.36039979309E+00 -0.30607260365E+01  0.35450922271E+00  0.31021941703E+01  0.00000000000E+00 0.  1.
</event>
<event>
 7    1  0.6046695E-013  0.5052886E+02  0.7816164E-02  0.1300439E+00
        -11   -1    0    0    0    0  0.00000000000E+00  0.00000000000E+00  0.45593999997E+02  0.45594000000E+02  0.51100000000E-03 0. -1.
         11   -1    0    0    0    0 -0.00000000000E+00 -0.00000000000E+00 -0.45593999997E+02  0.45594000000E+02  0.51100000000E-03 0.  1.
    9900012    2    1    2    0    0 -0.94867413255E+01  0.22743135760E+02 -0.32340648698E+02  0.50528855353E+02  0.29999986332E+02 0.  0.
         12    1    1    2    0    0  0.94867413255E+01 -0.22743135760E+02  0.32340648698E+02  0.40659144647E+02  0.00000000000E+00 0. -1.
         11    1    3    3    0    0 -0.58632150627E+01 -0.46539291460E+01 -0.17393120053E+02  0.18935600672E+02  0.51100000000E-03 0. -1.
        -11    1    3    3    0    0 -0.23136146856E+01  0.10459896209E+02 -0.42938004993E+01  0.11541185581E+02  0.51100000000E-03 0.  1.
         12    1    3    3    0    0 -0.13099115772E+01  0.16937168697E+02 -0.10653728146E+02  0.20052069101E+02  0.00000000000E+00 0. -1.
</event>
<event>
 7    1  0.6046695E-013  0.5052887E+02  0.7816164E-02  0.1300439E+00
        -11   -1    0    0    0    0  0.00000000000E+00  0.00000000000E+00  0.45593999997E+02  0.45594000000E+02  0.51100000000E-03 0.  1.
         11   -1    0    0    0    0 -0.00000000000E+00 -0.00000000000E+00 -0.45593999997E+02  0.45594000000E+02  0.51100000000E-03 0. -1.
    9900012    2    1    2    0    0  0.15968379563E+02 -0.54312749025E+01  0.36995632887E+02  0.50528871313E+02  0.30000034842E+02 0.  0.
         12    1    1    2    0    0 -0.15968379563E+02  0.54312749025E+01 -0.36995632887E+02  0.40659128687E+02  0.00000000000E+00 0. -1.
         11    1    3    3    0    0  0.17426973408E+00 -0.10527567771E+02  0.10433436124E+02  0.14822841925E+02  0.51100000000E-03 0. -1.
        -11    1    3    3    0    0  0.17489450491E+02  0.36355451828E+01  0.27877910419E+02  0.33110058243E+02  0.51100000000E-03 0.  1.
        -12    1    3    3    0    0 -0.16953406613E+01  0.14607476855E+01 -0.13157136569E+01  0.25959711450E+01  0.00000000000E+00 0.  1.
</event>
<event>
 7    1  0.6046695E-013  0.5052886E+02  0.7816164E-02  0.1300439E+00
        -11   -1    0    0    0    0  0.00000000000E+00  0.00000000000E+00  0.45593999997E+02  0.45594000000E+02  0.51100000000E-03 0.  1.
         11   -1    0    0    0    0 -0.00000000000E+00 -0.00000000000E+00 -0.45593999997E+02  0.45594000000E+02  0.51100000000E-03 0. -1.
    9900012    2    1    2    0    0 -0.91105751300E+00 -0.27449053786E+02  0.29981414533E+02  0.50528858384E+02  0.29999995543E+02 0.  0.
         12    1    1    2    0    0  0.91105751300E+00  0.27449053786E+02 -0.29981414533E+02  0.40659141616E+02  0.00000000000E+00 0. -1.
         11    1    3    3    0    0  0.55375593664E+01 -0.14960355476E+00  0.40157065390E+00  0.55541159703E+01  0.51100000000E-03 0. -1.
        -11    1    3    3    0    0 -0.11759988423E+01 -0.27915957512E+02  0.21276192886E+02  0.35119226089E+02  0.51100000000E-03 0.  1.
        -12    1    3    3    0    0 -0.52726180372E+01  0.61650728089E+00  0.83036509938E+01  0.98555163244E+01  0.00000000000E+00 0.  1.
</event>
<event>
 7    1  0.6046695E-013  0.5052886E+02  0.7816164E-02  0.1300439E+00
        -11   -1    0    0    0    0  0.00000000000E+00  0.00000000000E+00  0.45593999997E+02  0.45594000000E+02  0.51100000000E-03 0.  1.
         11   -1    0    0    0    0 -0.00000000000E+00 -0.00000000000E+00 -0.45593999997E+02  0.45594000000E+02  0.51100000000E-03 0. -1.
    9900012    2    1    2    0    0 -0.70195507408E+01 -0.23310371604E+02  0.32565599187E+02  0.50528858748E+02  0.29999996651E+02 0.  0.
         12    1    1    2    0    0  0.70195507408E+01  0.23310371604E+02 -0.32565599187E+02  0.40659141252E+02  0.00000000000E+00 0. -1.
         11    1    3    3    0    0  0.44549888268E+01  0.39643015241E+00  0.86939048199E+01  0.97769148299E+01  0.51100000000E-03 0. -1.
        -11    1    3    3    0    0 -0.95521852119E+01 -0.26579737158E+02  0.16754276162E+02  0.32839495119E+02  0.51100000000E-03 0.  1.
        -12    1    3    3    0    0 -0.19223543557E+01  0.28729354019E+01  0.71174182050E+01  0.79124487991E+01  0.00000000000E+00 0.  1.
</event>
<event>
 7    1  0.6046695E-013  0.5052885E+02  0.7816164E-02  0.1300439E+00
        -11   -1    0    0    0    0  0.00000000000E+00  0.00000000000E+00  0.45593999997E+02  0.45594000000E+02  0.51100000000E-03 0.  1.
         11   -1    0    0    0    0 -0.00000000000E+00 -0.00000000000E+00 -0.45593999997E+02  0.45594000000E+02  0.51100000000E-03 0. -1.
    9900012    2    1    2    0    0 -0.25471779083E+02  0.30013455007E+02  0.10175842689E+02  0.50528846227E+02  0.29999958592E+02 0.  0.
         12    1    1    2    0    0  0.25471779083E+02 -0.30013455007E+02 -0.10175842689E+02  0.40659153773E+02  0.00000000000E+00 0. -1.
         11    1    3    3    0    0 -0.31953818618E+01  0.60292818570E+01  0.48186412370E+01  0.83535626283E+01  0.51100000000E-03 0. -1.
        -11    1    3    3    0    0 -0.20103516888E+01  0.11580724741E+02 -0.86497003888E+01  0.14593560789E+02  0.51100000000E-03 0.  1.
        -12    1    3    3    0    0 -0.20266045532E+02  0.12403448409E+02  0.14006901841E+02  0.27581722809E+02  0.00000000000E+00 0.  1.
</event>
<event>
 7    1  0.6046695E-013  0.5052885E+02  0.7816164E-02  0.1300439E+00
        -11   -1    0    0    0    0  0.00000000000E+00  0.00000000000E+00  0.45593999997E+02  0.45594000000E+02  0.51100000000E-03 0.  1.
         11   -1    0    0    0    0 -0.00000000000E+00 -0.00000000000E+00 -0.45593999997E+02  0.45594000000E+02  0.51100000000E-03 0. -1.
    9900012    2    1    2    0    0  0.10947283039E+02  0.33249411656E+02  0.20683319733E+02  0.50528854700E+02  0.29999984345E+02 0.  0.
         12    1    1    2    0    0 -0.10947283039E+02 -0.33249411656E+02 -0.20683319733E+02  0.40659145300E+02  0.00000000000E+00 0. -1.
         11    1    3    3    0    0  0.12209186151E+02  0.31137603971E+02  0.12194357539E+02  0.35599395550E+02  0.51100000000E-03 0. -1.
        -11    1    3    3    0    0 -0.18476494422E+01  0.42072714555E+01  0.10811184954E+02  0.11747198046E+02  0.51100000000E-03 0.  1.
         12    1    3    3    0    0  0.58574633028E+00 -0.20954637707E+01 -0.23222227605E+01  0.31822611029E+01  0.00000000000E+00 0. -1.
</event>
<event>
 7    1  0.6046695E-013  0.5052886E+02  0.7816164E-02  0.1300439E+00
        -11   -1    0    0    0    0  0.00000000000E+00  0.00000000000E+00  0.45593999997E+02  0.45594000000E+02  0.51100000000E-03 0.  1.
         11   -1    0    0    0    0 -0.00000000000E+00 -0.00000000000E+00 -0.45593999997E+02  0.45594000000E+02  0.51100000000E-03 0. -1.
    9900012    2    1    2    0    0 -0.26255697999E+02  0.31044505085E+02 -0.20640206233E+00  0.50528861111E+02  0.30000003833E+02 0.  0.
         12    1    1    2    0    0  0.26255697999E+02 -0.31044505085E+02  0.20640206233E+00  0.40659138889E+02  0.00000000000E+00 0. -1.
         11    1    3    3    0    0 -0.56856789597E+00  0.41153557148E+01  0.64827227223E+01  0.76996828680E+01  0.51100000000E-03 0. -1.
        -11    1    3    3    0    0 -0.26114245020E+02  0.14520891090E+02 -0.43443238511E+01  0.30194092485E+02  0.51100000000E-03 0.  1.
        -12    1    3    3    0    0  0.42711491649E+00  0.12408258280E+02 -0.23448009336E+01  0.12635085758E+02  0.00000000000E+00 0.  1.
</event>
<event>
 7    1  0.6046695E-013  0.5052888E+02  0.7816164E-02  0.1300439E+00
        -11   -1    0    0    0    0  0.00000000000E+00  0.00000000000E+00  0.45593999997E+02  0.45594000000E+02  0.51100000000E-03 0.  1.
         11   -1    0    0    0    0 -0.00000000000E+00 -0.00000000000E+00 -0.45593999997E+02  0.45594000000E+02  0.51100000000E-03 0. -1.
    9900012    2    1    2    0    0  0.32591690657E+01  0.16366986392E+02  0.37076455570E+02  0.50528880676E+02  0.30000063302E+02 0.  0.
         12    1    1    2    0    0 -0.32591690657E+01 -0.16366986392E+02 -0.37076455570E+02  0.40659119324E+02  0.00000000000E+00 0. -1.
         11    1    3    3    0    0 -0.20541208681E+01 -0.19396393765E+01 -0.11227047563E+01  0.30400788941E+01  0.51100000000E-03 0. -1.
        -11    1    3    3    0    0  0.13077344926E+02  0.97115359988E+01  0.18612263827E+02  0.24733524755E+02  0.51100000000E-03 0.  1.
        -12    1    3    3    0    0 -0.77640549924E+01  0.85950897697E+01  0.19586896500E+02  0.22755277027E+02  0.00000000000E+00 0.  1.
</event>
<event>
 7    1  0.6046695E-013  0.5052886E+02  0.7816164E-02  0.1300439E+00
        -11   -1    0    0    0    0  0.00000000000E+00  0.00000000000E+00  0.45593999997E+02  0.45594000000E+02  0.51100000000E-03 0.  1.
         11   -1    0    0    0    0 -0.00000000000E+00 -0.00000000000E+00 -0.45593999997E+02  0.45594000000E+02  0.51100000000E-03 0. -1.
    9900012    2    1    2    0    0 -0.64962666867E+01  0.37825158007E+02  0.13424659029E+02  0.50528861677E+02  0.30000005554E+02 0.  0.
         12    1    1    2    0    0  0.64962666867E+01 -0.37825158007E+02 -0.13424659029E+02  0.40659138323E+02  0.00000000000E+00 0. -1.
         11    1    3    3    0    0 -0.13750715166E+01  0.14825033089E+01 -0.34156616269E+01  0.39693050207E+01  0.51100000000E-03 0. -1.
        -11    1    3    3    0    0 -0.79877340573E+01  0.38080472539E+02  0.18183359058E+02  0.42948350737E+02  0.51100000000E-03 0.  1.
        -12    1    3    3    0    0  0.28665388872E+01 -0.17378178409E+01 -0.13430384025E+01  0.36112059192E+01  0.00000000000E+00 0.  1.
</event>
<event>
 7    1  0.6046695E-013  0.5052886E+02  0.7816164E-02  0.1300439E+00
        -11   -1    0    0    0    0  0.00000000000E+00  0.00000000000E+00  0.45593999997E+02  0.45594000000E+02  0.51100000000E-03 0. -1.
         11   -1    0    0    0    0 -0.00000000000E+00 -0.00000000000E+00 -0.45593999997E+02  0.45594000000E+02  0.51100000000E-03 0.  1.
    9900012    2    1    2    0    0  0.27953173322E+02 -0.23173915897E+02 -0.18296327880E+02  0.50528857231E+02  0.29999992040E+02 0.  0.
         12    1    1    2    0    0 -0.27953173322E+02  0.23173915897E+02  0.18296327880E+02  0.40659142769E+02  0.00000000000E+00 0. -1.
         11    1    3    3    0    0  0.78965303429E+01 -0.80291927531E+01 -0.13595435858E+02  0.17653866549E+02  0.51100000000E-03 0. -1.
        -11    1    3    3    0    0 -0.27162741197E+01  0.64523911294E+00  0.30152221905E+01  0.41092631608E+01  0.51100000000E-03 0.  1.
        -12    1    3    3    0    0  0.22772917099E+02 -0.15789962257E+02 -0.77161142131E+01  0.28765727521E+02  0.00000000000E+00 0.  1.
</event>
<event>
 7    1  0.6046695E-013  0.5052886E+02  0.7816164E-02  0.1300439E+00
        -11   -1    0    0    0    0  0.00000000000E+00  0.00000000000E+00  0.45593999997E+02  0.45594000000E+02  0.51100000000E-03 0.  1.
         11   -1    0    0    0    0 -0.00000000000E+00 -0.00000000000E+00 -0.45593999997E+02  0.45594000000E+02  0.51100000000E-03 0. -1.
    9900012    2    1    2    0    0 -0.98464177568E+01 -0.93270108648E+00  0.39437849117E+02  0.50528858138E+02  0.29999994797E+02 0.  0.
         12    1    1    2    0    0  0.98464177568E+01  0.93270108648E+00 -0.39437849117E+02  0.40659141862E+02  0.00000000000E+00 0. -1.
         11    1    3    3    0    0  0.23929865448E+01 -0.23564311806E+01 -0.29713428358E+01  0.44841979240E+01  0.51100000000E-03 0. -1.
        -11    1    3    3    0    0 -0.68917398764E+01  0.72482372070E+01  0.24851832162E+02  0.26788926503E+02  0.51100000000E-03 0.  1.
        -12    1    3    3    0    0 -0.53476644252E+01 -0.58245071128E+01  0.17557359791E+02  0.19255733711E+02  0.00000000000E+00 0.  1.
</event>
<event>
 7    1  0.6046695E-013  0.5052886E+02  0.7816164E-02  0.1300439E+00
        -11   -1    0    0    0    0  0.00000000000E+00  0.00000000000E+00  0.45593999997E+02  0.45594000000E+02  0.51100000000E-03 0. -1.
         11   -1    0    0    0    0 -0.00000000000E+00 -0.00000000000E+00 -0.45593999997E+02  0.45594000000E+02  0.51100000000E-03 0.  1.
    9900012    2    1    2    0    0 -0.14495344146E+02  0.37643978371E+02  0.50971852003E+01  0.50528863186E+02  0.30000010140E+02 0.  0.
         12    1    1    2    0    0  0.14495344146E+02 -0.37643978371E+02 -0.50971852003E+01  0.40659136814E+02  0.00000000000E+00 0. -1.
         11    1    3    3    0    0 -0.59235620063E+01  0.33891911102E+01  0.10122714547E+02  0.12208380453E+02  0.51100000000E-03 0. -1.
        -11    1    3    3    0    0  0.13541075888E+01  0.13112683199E+02 -0.69186216255E+01  0.14887692685E+02  0.51100000000E-03 0.  1.
         12    1    3    3    0    0 -0.99258897287E+01  0.21142104062E+02  0.18930922791E+01  0.23432790048E+02  0.00000000000E+00 0. -1.
</event>
<event>
 7    1  0.6046695E-013  0.5052887E+02  0.7816164E-02  0.1300439E+00
        -11   -1    0    0    0    0  0.00000000000E+00  0.00000000000E+00  0.45593999997E+02  0.45594000000E+02  0.51100000000E-03 0.  1.
         11   -1    0    0    0    0 -0.00000000000E+00 -0.00000000000E+00 -0.45593999997E+02  0.45594000000E+02  0.51100000000E-03 0. -1.
    9900012    2    1    2    0    0 -0.31937805324E+02  0.50062594938E+01  0.24659260052E+02  0.50528866348E+02  0.30000019752E+02 0.  0.
         12    1    1    2    0    0  0.31937805324E+02 -0.50062594938E+01 -0.24659260052E+02  0.40659133652E+02  0.00000000000E+00 0. -1.
         11    1    3    3    0    0 -0.41047565563E+01 -0.64550808846E+01  0.13512765228E+01  0.77680785344E+01  0.51100000000E-03 0. -1.
        -11    1    3    3    0    0 -0.24214097046E+02  0.11293899058E+02  0.26718200388E+02  0.37785405700E+02  0.51100000000E-03 0.  1.
        -12    1    3    3    0    0 -0.36189517213E+01  0.16744132024E+00 -0.34102168584E+01  0.49753821138E+01  0.00000000000E+00 0.  1.
</event>
<event>
 7    1  0.6046695E-013  0.5052887E+02  0.7816164E-02  0.1300439E+00
        -11   -1    0    0    0    0  0.00000000000E+00  0.00000000000E+00  0.45593999997E+02  0.45594000000E+02  0.51100000000E-03 0.  1.
         11   -1    0    0    0    0 -0.00000000000E+00 -0.00000000000E+00 -0.45593999997E+02  0.45594000000E+02  0.51100000000E-03 0. -1.
    9900012    2    1    2    0    0  0.38248332392E+02 -0.13673851502E+02  0.18043933476E+01  0.50528868418E+02  0.30000026042E+02 0.  0.
         12    1    1    2    0    0 -0.38248332392E+02  0.13673851502E+02 -0.18043933476E+01  0.40659131582E+02  0.00000000000E+00 0. -1.
         11    1    3    3    0    0 -0.15742463311E+01  0.52337095593E+01  0.12519990480E+01  0.56069126210E+01  0.51100000000E-03 0. -1.
        -11    1    3    3    0    0  0.30054103860E+02 -0.18148337392E+02  0.18274511567E-02  0.35108564661E+02  0.51100000000E-03 0.  1.
        -12    1    3    3    0    0  0.97684748630E+01 -0.75922366932E+00  0.55056684840E+00  0.98133911358E+01  0.00000000000E+00 0.  1.
</event>
<event>
 7    1  0.6046695E-013  0.5052886E+02  0.7816164E-02  0.1300439E+00
        -11   -1    0    0    0    0  0.00000000000E+00  0.00000000000E+00  0.45593999997E+02  0.45594000000E+02  0.51100000000E-03 0. -1.
         11   -1    0    0    0    0 -0.00000000000E+00 -0.00000000000E+00 -0.45593999997E+02  0.45594000000E+02  0.51100000000E-03 0.  1.
    9900012    2    1    2    0    0  0.29631495731E+02  0.21825513900E+02 -0.17285456545E+02  0.50528860754E+02  0.30000002749E+02 0.  0.
         12    1    1    2    0    0 -0.29631495731E+02 -0.21825513900E+02  0.17285456545E+02  0.40659139246E+02  0.00000000000E+00 0. -1.
         11    1    3    3    0    0  0.56855036106E+01  0.15653176963E+02 -0.13066178123E+02  0.21167709166E+02  0.51100000000E-03 0. -1.
        -11    1    3    3    0    0  0.25901411031E+02  0.64090335493E+01 -0.25956057284E+01  0.26808505624E+02  0.51100000000E-03 0.  1.
         12    1    3    3    0    0 -0.19554189109E+01 -0.23669661215E+00 -0.16236726936E+01  0.25526459643E+01  0.00000000000E+00 0. -1.
</event>
<event>
 7    1  0.6046695E-013  0.5052886E+02  0.7816164E-02  0.1300439E+00
        -11   -1    0    0    0    0  0.00000000000E+00  0.00000000000E+00  0.45593999997E+02  0.45594000000E+02  0.51100000000E-03 0. -1.
         11   -1    0    0    0    0 -0.00000000000E+00 -0.00000000000E+00 -0.45593999997E+02  0.45594000000E+02  0.51100000000E-03 0.  1.
    9900012    2    1    2    0    0  0.91093677807E+01 -0.35590329461E+01 -0.39465407635E+02  0.50528859617E+02  0.29999999293E+02 0.  0.
         12    1    1    2    0    0 -0.91093677807E+01  0.35590329461E+01  0.39465407635E+02  0.40659140383E+02  0.00000000000E+00 0. -1.
         11    1    3    3    0    0  0.89843673020E+01 -0.16917483988E+01 -0.22690293237E+02  0.24462834584E+02  0.51100000000E-03 0. -1.
        -11    1    3    3    0    0 -0.15846497123E+01  0.32300751182E+01  0.35424722882E+01  0.50491197405E+01  0.51100000000E-03 0.  1.
        -12    1    3    3    0    0  0.17096501910E+01 -0.50973596656E+01 -0.20317586686E+02  0.21016905293E+02  0.00000000000E+00 0.  1.
</event>
<event>
 7    1  0.6046695E-013  0.5052886E+02  0.7816164E-02  0.1300439E+00
        -11   -1    0    0    0    0  0.00000000000E+00  0.00000000000E+00  0.45593999997E+02  0.45594000000E+02  0.51100000000E-03 0.  1.
         11   -1    0    0    0    0 -0.00000000000E+00 -0.00000000000E+00 -0.45593999997E+02  0.45594000000E+02  0.51100000000E-03 0. -1.
    9900012    2    1    2    0    0 -0.18078236553E+00 -0.37533627381E+02  0.15632013057E+02  0.50528859590E+02  0.29999999210E+02 0.  0.
         12    1    1    2    0    0  0.18078236553E+00  0.37533627381E+02 -0.15632013057E+02  0.40659140410E+02  0.00000000000E+00 0. -1.
         11    1    3    3    0    0 -0.11252388996E+02 -0.10357540262E+02  0.70546548922E+01  0.16842299555E+02  0.51100000000E-03 0. -1.
        -11    1    3    3    0    0  0.93551809878E+01 -0.14897561275E+02 -0.15756858412E+01  0.17661809913E+02  0.51100000000E-03 0.  1.
        -12    1    3    3    0    0  0.17164256423E+01 -0.12278525844E+02  0.10153044006E+02  0.16024750122E+02  0.00000000000E+00 0.  1.
</event>
<event>
 7    1  0.6046695E-013  0.5052886E+02  0.7816164E-02  0.1300439E+00
        -11   -1    0    0    0    0  0.00000000000E+00  0.00000000000E+00  0.45593999997E+02  0.45594000000E+02  0.51100000000E-03 0.  1.
         11   -1    0    0    0    0 -0.00000000000E+00 -0.00000000000E+00 -0.45593999997E+02  0.45594000000E+02  0.51100000000E-03 0. -1.
    9900012    2    1    2    0    0 -0.11679329320E+02 -0.34720707585E+02  0.17641755943E+02  0.50528858084E+02  0.29999994632E+02 0.  0.
         12    1    1    2    0    0  0.11679329320E+02  0.34720707585E+02 -0.17641755943E+02  0.40659141916E+02  0.00000000000E+00 0. -1.
         11    1    3    3    0    0 -0.18461633477E+02 -0.10724082201E+02  0.10399808257E+02  0.23748554940E+02  0.51100000000E-03 0.  1.
        -11    1    3    3    0    0  0.50759787908E+01 -0.99246754232E+01  0.70243242372E+00  0.11169518992E+02  0.51100000000E-03 0. -1.
        -12    1    3    3    0    0  0.17063253669E+01 -0.14071949962E+02  0.65395152618E+01  0.15610784152E+02  0.00000000000E+00 0.  1.
</event>
<event>
 7    1  0.6046695E-013  0.5052886E+02  0.7816164E-02  0.1300439E+00
        -11   -1    0    0    0    0  0.00000000000E+00  0.00000000000E+00  0.45593999997E+02  0.45594000000E+02  0.51100000000E-03 0.  1.
         11   -1    0    0    0    0 -0.00000000000E+00 -0.00000000000E+00 -0.45593999997E+02  0.45594000000E+02  0.51100000000E-03 0. -1.
    9900012    2    1    2    0    0  0.59167104461E+01  0.23212597266E+02  0.32853210965E+02  0.50528860744E+02  0.30000002718E+02 0.  0.
         12    1    1    2    0    0 -0.59167104461E+01 -0.23212597266E+02 -0.32853210965E+02  0.40659139256E+02  0.00000000000E+00 0. -1.
         11    1    3    3    0    0  0.13256202044E+02  0.28755042855E+01  0.79728509466E+01  0.15734095779E+02  0.51100000000E-03 0. -1.
        -11    1    3    3    0    0 -0.46775709243E+00  0.10601653901E+02  0.52718232968E+01  0.11849303071E+02  0.51100000000E-03 0.  1.
         12    1    3    3    0    0 -0.68717345050E+01  0.97354390798E+01  0.19608536721E+02  0.22945461894E+02  0.00000000000E+00 0. -1.
</event>
<event>
 7    1  0.6046695E-013  0.5052884E+02  0.7816164E-02  0.1300439E+00
        -11   -1    0    0    0    0  0.00000000000E+00  0.00000000000E+00  0.45593999997E+02  0.45594000000E+02  0.51100000000E-03 0.  1.
         11   -1    0    0    0    0 -0.00000000000E+00 -0.00000000000E+00 -0.45593999997E+02  0.45594000000E+02  0.51100000000E-03 0. -1.
    9900012    2    1    2    0    0 -0.77396578350E+01  0.34680204658E+02  0.19762305125E+02  0.50528836182E+02  0.29999928059E+02 0.  0.
         12    1    1    2    0    0  0.77396578350E+01 -0.34680204658E+02 -0.19762305125E+02  0.40659163818E+02  0.00000000000E+00 0. -1.
         11    1    3    3    0    0  0.55512694280E+01  0.11036780931E+02  0.22849222185E+01  0.12563757216E+02  0.51100000000E-03 0. -1.
        -11    1    3    3    0    0 -0.15739102283E+02  0.13835639131E+02  0.43600056729E+01  0.21404529908E+02  0.51100000000E-03 0.  1.
        -12    1    3    3    0    0  0.24481750204E+01  0.98077845955E+01  0.13117377234E+02  0.16560549058E+02  0.00000000000E+00 0.  1.
</event>
<event>
 7    1  0.6046695E-013  0.5052880E+02  0.7816164E-02  0.1300439E+00
        -11   -1    0    0    0    0  0.00000000000E+00  0.00000000000E+00  0.45593999997E+02  0.45594000000E+02  0.51100000000E-03 0.  1.
         11   -1    0    0    0    0 -0.00000000000E+00 -0.00000000000E+00 -0.45593999997E+02  0.45594000000E+02  0.51100000000E-03 0. -1.
    9900012    2    1    2    0    0  0.27805114890E+02  0.70663854292E+01  0.28811667861E+02  0.50528801508E+02  0.29999822662E+02 0.  0.
         12    1    1    2    0    0 -0.27805114890E+02 -0.70663854292E+01 -0.28811667861E+02  0.40659198492E+02  0.00000000000E+00 0. -1.
         11    1    3    3    0    0  0.22716153842E+02  0.81593861810E+01  0.13443360863E+02  0.27628303961E+02  0.51100000000E-03 0. -1.
        -11    1    3    3    0    0  0.71112806254E+00  0.67847631130E+01  0.10856028595E+02  0.12821547127E+02  0.51100000000E-03 0.  1.
         12    1    3    3    0    0  0.43778329860E+01 -0.78777638648E+01  0.45122784028E+01  0.10078950419E+02  0.00000000000E+00 0. -1.
</event>
<event>
 7    1  0.6046695E-013  0.5052885E+02  0.7816164E-02  0.1300439E+00
        -11   -1    0    0    0    0  0.00000000000E+00  0.00000000000E+00  0.45593999997E+02  0.45594000000E+02  0.51100000000E-03 0.  1.
         11   -1    0    0    0    0 -0.00000000000E+00 -0.00000000000E+00 -0.45593999997E+02  0.45594000000E+02  0.51100000000E-03 0. -1.
    9900012    2    1    2    0    0 -0.29621116082E+02 -0.21194327424E+02  0.18070870810E+02  0.50528850910E+02  0.29999972827E+02 0.  0.
         12    1    1    2    0    0  0.29621116082E+02  0.21194327424E+02 -0.18070870810E+02  0.40659149090E+02  0.00000000000E+00 0. -1.
         11    1    3    3    0    0  0.23942881076E+01  0.25627519316E+00 -0.42085526785E+01  0.48487326618E+01  0.51100000000E-03 0. -1.
        -11    1    3    3    0    0 -0.10198546423E+02 -0.63111490457E+01  0.17621026354E+01  0.12122126768E+02  0.51100000000E-03 0.  1.
         12    1    3    3    0    0 -0.21816857767E+02 -0.15139453571E+02  0.20517320853E+02  0.33557991481E+02  0.00000000000E+00 0. -1.
</event>
<event>
 7    1  0.6046695E-013  0.5052885E+02  0.7816164E-02  0.1300439E+00
        -11   -1    0    0    0    0  0.00000000000E+00  0.00000000000E+00  0.45593999997E+02  0.45594000000E+02  0.51100000000E-03 0. -1.
         11   -1    0    0    0    0 -0.00000000000E+00 -0.00000000000E+00 -0.45593999997E+02  0.45594000000E+02  0.51100000000E-03 0.  1.
    9900012    2    1    2    0    0  0.17016409322E+02  0.16788603963E+01 -0.36888883352E+02  0.50528850066E+02  0.29999970259E+02 0.  0.
         12    1    1    2    0    0 -0.17016409322E+02 -0.16788603963E+01  0.36888883352E+02  0.40659149934E+02  0.00000000000E+00 0. -1.
         11    1    3    3    0    0 -0.16129054491E+01 -0.12552317724E+01 -0.52694087185E+00  0.21106249628E+01  0.51100000000E-03 0. -1.
        -11    1    3    3    0    0  0.25029255563E+02  0.30921283908E+01 -0.25879547417E+02  0.36135520846E+02  0.51100000000E-03 0.  1.
        -12    1    3    3    0    0 -0.63999407927E+01 -0.15803622209E+00 -0.10482395063E+02  0.12282704257E+02  0.00000000000E+00 0.  1.
</event>
<event>
 7    1  0.6046695E-013  0.5052878E+02  0.7816164E-02  0.1300439E+00
        -11   -1    0    0    0    0  0.00000000000E+00  0.00000000000E+00  0.45593999997E+02  0.45594000000E+02  0.51100000000E-03 0.  1.
         11   -1    0    0    0    0 -0.00000000000E+00 -0.00000000000E+00 -0.45593999997E+02  0.45594000000E+02  0.51100000000E-03 0. -1.
    9900012    2    1    2    0    0  0.34609948080E+02 -0.11860986302E+02  0.17738108699E+02  0.50528782074E+02  0.29999763591E+02 0.  0.
         12    1    1    2    0    0 -0.34609948080E+02  0.11860986302E+02 -0.17738108699E+02  0.40659217926E+02  0.00000000000E+00 0. -1.
         11    1    3    3    0    0  0.66084080747E+01 -0.89122748818E+01 -0.52230592186E+01  0.12262954322E+02  0.51100000000E-03 0. -1.
        -11    1    3    3    0    0  0.54942249526E+01 -0.24670316173E+01  0.11551169752E+02  0.13026982602E+02  0.51100000000E-03 0.  1.
         12    1    3    3    0    0  0.22507315053E+02 -0.48167980268E+00  0.11409998166E+02  0.25238845149E+02  0.00000000000E+00 0. -1.
</event>
<event>
 7    1  0.6046695E-013  0.5052887E+02  0.7816164E-02  0.1300439E+00
        -11   -1    0    0    0    0  0.00000000000E+00  0.00000000000E+00  0.45593999997E+02  0.45594000000E+02  0.51100000000E-03 0. -1.
         11   -1    0    0    0    0 -0.00000000000E+00 -0.00000000000E+00 -0.45593999997E+02  0.45594000000E+02  0.51100000000E-03 0.  1.
    9900012    2    1    2    0    0  0.14603352982E+02  0.36491964236E+02  0.10404022881E+02  0.50528867394E+02  0.30000022932E+02 0.  0.
         12    1    1    2    0    0 -0.14603352982E+02 -0.36491964236E+02 -0.10404022881E+02  0.40659132606E+02  0.00000000000E+00 0. -1.
         11    1    3    3    0    0  0.57830293661E+01  0.96742489288E+00 -0.12019566223E+01  0.59853186679E+01  0.51100000000E-03 0. -1.
        -11    1    3    3    0    0  0.84351698997E+01  0.38126917951E+02  0.76475849412E+01  0.39790696392E+02  0.51100000000E-03 0.  1.
        -12    1    3    3    0    0  0.38515371644E+00 -0.26023786076E+01  0.39583945622E+01  0.47528523344E+01  0.00000000000E+00 0.  1.
</event>
<event>
 7    1  0.6046695E-013  0.5052885E+02  0.7816164E-02  0.1300439E+00
        -11   -1    0    0    0    0  0.00000000000E+00  0.00000000000E+00  0.45593999997E+02  0.45594000000E+02  0.51100000000E-03 0.  1.
         11   -1    0    0    0    0 -0.00000000000E+00 -0.00000000000E+00 -0.45593999997E+02  0.45594000000E+02  0.51100000000E-03 0. -1.
    9900012    2    1    2    0    0 -0.19470084692E+02  0.23371149917E+02 -0.26979098230E+02  0.50528848660E+02  0.29999965988E+02 0.  0.
         12    1    1    2    0    0  0.19470084692E+02 -0.23371149917E+02  0.26979098230E+02  0.40659151340E+02  0.00000000000E+00 0. -1.
         11    1    3    3    0    0 -0.79522182919E+01  0.65185452689E+01 -0.11331644124E+02  0.15301482510E+02  0.51100000000E-03 0. -1.
        -11    1    3    3    0    0 -0.10234364464E+02 -0.20854941738E+01  0.28037408620E+00  0.10448450211E+02  0.51100000000E-03 0.  1.
        -12    1    3    3    0    0 -0.12835019361E+01  0.18938098822E+02 -0.15927828192E+02  0.24778915939E+02  0.00000000000E+00 0.  1.
</event>
<event>
 7    1  0.6046695E-013  0.5052886E+02  0.7816164E-02  0.1300439E+00
        -11   -1    0    0    0    0  0.00000000000E+00  0.00000000000E+00  0.45593999997E+02  0.45594000000E+02  0.51100000000E-03 0.  1.
         11   -1    0    0    0    0 -0.00000000000E+00 -0.00000000000E+00 -0.45593999997E+02  0.45594000000E+02  0.51100000000E-03 0. -1.
    9900012    2    1    2    0    0 -0.24235154221E+01  0.22764380594E+02  0.33601714309E+02  0.50528860126E+02  0.30000000838E+02 0.  0.
         12    1    1    2    0    0  0.24235154221E+01 -0.22764380594E+02 -0.33601714309E+02  0.40659139874E+02  0.00000000000E+00 0. -1.
         11    1    3    3    0    0 -0.59829924050E+01  0.10448887173E+02 -0.14591542137E+01  0.12128667386E+02  0.51100000000E-03 0. -1.
        -11    1    3    3    0    0  0.58939823109E+01  0.48337281204E+01  0.14217543654E+02  0.16132033438E+02  0.51100000000E-03 0.  1.
         12    1    3    3    0    0 -0.23345053280E+01  0.74817653006E+01  0.20843324868E+02  0.22268159302E+02  0.00000000000E+00 0. -1.
</event>
<event>
 7    1  0.6046695E-013  0.5052886E+02  0.7816164E-02  0.1300439E+00
        -11   -1    0    0    0    0  0.00000000000E+00  0.00000000000E+00  0.45593999997E+02  0.45594000000E+02  0.51100000000E-03 0.  1.
         11   -1    0    0    0    0 -0.00000000000E+00 -0.00000000000E+00 -0.45593999997E+02  0.45594000000E+02  0.51100000000E-03 0. -1.
    9900012    2    1    2    0    0  0.33062383692E+02  0.23213781663E+02  0.46004923986E+01  0.50528863207E+02  0.30000010203E+02 0.  0.
         12    1    1    2    0    0 -0.33062383692E+02 -0.23213781663E+02 -0.46004923986E+01  0.40659136793E+02  0.00000000000E+00 0. -1.
         11    1    3    3    0    0  0.13647971980E+02  0.15438345754E+02 -0.10775355573E+02  0.23253342701E+02  0.51100000000E-03 0. -1.
        -11    1    3    3    0    0  0.45526976755E+01  0.38185640017E+01  0.86390097129E+01  0.10485274257E+02  0.51100000000E-03 0.  1.
         12    1    3    3    0    0  0.14861714036E+02  0.39568719071E+01  0.67368382587E+01  0.16790246249E+02  0.00000000000E+00 0. -1.
</event>
<event>
 7    1  0.6046695E-013  0.5052886E+02  0.7816164E-02  0.1300439E+00
        -11   -1    0    0    0    0  0.00000000000E+00  0.00000000000E+00  0.45593999997E+02  0.45594000000E+02  0.51100000000E-03 0.  1.
         11   -1    0    0    0    0 -0.00000000000E+00 -0.00000000000E+00 -0.45593999997E+02  0.45594000000E+02  0.51100000000E-03 0. -1.
    9900012    2    1    2    0    0  0.20062280729E+01 -0.21403755426E+02  0.34511155079E+02  0.50528861761E+02  0.30000005809E+02 0.  0.
         12    1    1    2    0    0 -0.20062280729E+01  0.21403755426E+02 -0.34511155079E+02  0.40659138239E+02  0.00000000000E+00 0. -1.
         11    1    3    3    0    0 -0.55694976029E+01 -0.19623575580E+02  0.14169700979E+02  0.24837158618E+02  0.51100000000E-03 0. -1.
        -11    1    3    3    0    0  0.19729272726E+01 -0.53461358688E+01  0.17612677665E+02  0.18511618664E+02  0.51100000000E-03 0.  1.
         12    1    3    3    0    0  0.56027984033E+01  0.35659560227E+01  0.27287764345E+01  0.71800844795E+01  0.00000000000E+00 0. -1.
</event>
<event>
 7    1  0.6046695E-013  0.5052886E+02  0.7816164E-02  0.1300439E+00
        -11   -1    0    0    0    0  0.00000000000E+00  0.00000000000E+00  0.45593999997E+02  0.45594000000E+02  0.51100000000E-03 0.  1.
         11   -1    0    0    0    0 -0.00000000000E+00 -0.00000000000E+00 -0.45593999997E+02  0.45594000000E+02  0.51100000000E-03 0. -1.
    9900012    2    1    2    0    0  0.16932332290E+02 -0.93088303272E+01  0.35774398738E+02  0.50528858299E+02  0.29999995284E+02 0.  0.
         12    1    1    2    0    0 -0.16932332290E+02  0.93088303272E+01 -0.35774398738E+02  0.40659141701E+02  0.00000000000E+00 0. -1.
         11    1    3    3    0    0  0.97019174836E+01 -0.88885841240E+01  0.67631682658E+01  0.14794410290E+02  0.51100000000E-03 0. -1.
        -11    1    3    3    0    0 -0.56077484376E+01 -0.20942701874E+00  0.22378650269E+01  0.60414189025E+01  0.51100000000E-03 0.  1.
        -12    1    3    3    0    0  0.12838163244E+02 -0.21081918450E+00  0.26773365445E+02  0.29693029106E+02  0.00000000000E+00 0.  1.
</event>
<event>
 7    1  0.6046695E-013  0.5052887E+02  0.7816164E-02  0.1300439E+00
        -11   -1    0    0    0    0  0.00000000000E+00  0.00000000000E+00  0.45593999997E+02  0.45594000000E+02  0.51100000000E-03 0.  1.
         11   -1    0    0    0    0 -0.00000000000E+00 -0.00000000000E+00 -0.45593999997E+02  0.45594000000E+02  0.51100000000E-03 0. -1.
    9900012    2    1    2    0    0  0.15928996361E+02 -0.12853593014E+02  0.35131430213E+02  0.50528866127E+02  0.30000019081E+02 0.  0.
         12    1    1    2    0    0 -0.15928996361E+02  0.12853593014E+02 -0.35131430213E+02  0.40659133873E+02  0.00000000000E+00 0. -1.
         11    1    3    3    0    0  0.22217868429E+01 -0.12931848089E+02  0.18191018086E+01  0.13246817106E+02  0.51100000000E-03 0. -1.
        -11    1    3    3    0    0  0.90507060983E+01 -0.43706128039E+01  0.23325829758E+02  0.25399052568E+02  0.51100000000E-03 0.  1.
         12    1    3    3    0    0  0.46565034199E+01  0.44488678792E+01  0.99864986463E+01  0.11882996454E+02  0.00000000000E+00 0. -1.
</event>
<event>
 7    1  0.6046695E-013  0.5052886E+02  0.7816164E-02  0.1300439E+00
        -11   -1    0    0    0    0  0.00000000000E+00  0.00000000000E+00  0.45593999997E+02  0.45594000000E+02  0.51100000000E-03 0.  1.
         11   -1    0    0    0    0 -0.00000000000E+00 -0.00000000000E+00 -0.45593999997E+02  0.45594000000E+02  0.51100000000E-03 0. -1.
    9900012    2    1    2    0    0  0.25321405771E+02 -0.48506001330E+01  0.31439840620E+02  0.50528862158E+02  0.30000007015E+02 0.  0.
         12    1    1    2    0    0 -0.25321405771E+02  0.48506001330E+01 -0.31439840620E+02  0.40659137842E+02  0.00000000000E+00 0. -1.
         11    1    3    3    0    0 -0.24642368148E+01 -0.10243914474E+02  0.76475198404E+01  0.13019017121E+02  0.51100000000E-03 0. -1.
        -11    1    3    3    0    0  0.22376806149E+02  0.30544082049E+01  0.15725418452E+02  0.27519804662E+02  0.51100000000E-03 0.  1.
         12    1    3    3    0    0  0.54088364372E+01  0.23389061362E+01  0.80669023273E+01  0.99900403741E+01  0.00000000000E+00 0. -1.
</event>
<event>
 7    1  0.6046695E-013  0.5052884E+02  0.7816164E-02  0.1300439E+00
        -11   -1    0    0    0    0  0.00000000000E+00  0.00000000000E+00  0.45593999997E+02  0.45594000000E+02  0.51100000000E-03 0.  1.
         11   -1    0    0    0    0 -0.00000000000E+00 -0.00000000000E+00 -0.45593999997E+02  0.45594000000E+02  0.51100000000E-03 0. -1.
    9900012    2    1    2    0    0  0.25207516998E+02 -0.21302349188E+02  0.23747799775E+02  0.50528843734E+02  0.29999951013E+02 0.  0.
         12    1    1    2    0    0 -0.25207516998E+02  0.21302349188E+02 -0.23747799775E+02  0.40659156266E+02  0.00000000000E+00 0. -1.
         11    1    3    3    0    0  0.73115303670E+01 -0.22290915377E+02  0.17662659358E+02  0.29365165086E+02  0.51100000000E-03 0. -1.
        -11    1    3    3    0    0  0.58874585250E+01 -0.37252723558E+01  0.41756260843E+01  0.81225411950E+01  0.51100000000E-03 0.  1.
         12    1    3    3    0    0  0.12008528106E+02  0.47138385441E+01  0.19095143323E+01  0.13041137453E+02  0.00000000000E+00 0. -1.
</event>
<event>
 7    1  0.6046695E-013  0.5052886E+02  0.7816164E-02  0.1300439E+00
        -11   -1    0    0    0    0  0.00000000000E+00  0.00000000000E+00  0.45593999997E+02  0.45594000000E+02  0.51100000000E-03 0.  1.
         11   -1    0    0    0    0 -0.00000000000E+00 -0.00000000000E+00 -0.45593999997E+02  0.45594000000E+02  0.51100000000E-03 0. -1.
    9900012    2    1    2    0    0 -0.45595677642E+01  0.12282992536E+02  0.38490311275E+02  0.50528860488E+02  0.30000001940E+02 0.  0.
         12    1    1    2    0    0  0.45595677642E+01 -0.12282992536E+02 -0.38490311275E+02  0.40659139512E+02  0.00000000000E+00 0. -1.
         11    1    3    3    0    0 -0.48777223990E+01  0.13292413203E+02  0.16963136452E+02  0.22095891543E+02  0.51100000000E-03 0. -1.
        -11    1    3    3    0    0  0.89674872571E+01 -0.73711978272E+00  0.65276044083E+01  0.11116150091E+02  0.51100000000E-03 0.  1.
        -12    1    3    3    0    0 -0.86493326222E+01 -0.27230088415E+00  0.14999570414E+02  0.17316818853E+02  0.00000000000E+00 0.  1.
</event>
<event>
 7    1  0.6046695E-013  0.5052885E+02  0.7816164E-02  0.1300439E+00
        -11   -1    0    0    0    0  0.00000000000E+00  0.00000000000E+00  0.45593999997E+02  0.45594000000E+02  0.51100000000E-03 0.  1.
         11   -1    0    0    0    0 -0.00000000000E+00 -0.00000000000E+00 -0.45593999997E+02  0.45594000000E+02  0.51100000000E-03 0. -1.
    9900012    2    1    2    0    0 -0.17516634762E+02 -0.89800542925E+01  0.35576569669E+02  0.50528853699E+02  0.29999981304E+02 0.  0.
         12    1    1    2    0    0  0.17516634762E+02  0.89800542925E+01 -0.35576569669E+02  0.40659146301E+02  0.00000000000E+00 0. -1.
         11    1    3    3    0    0 -0.80624187135E+01 -0.11242390560E+02  0.10909952539E+01  0.13877471381E+02  0.51100000000E-03 0. -1.
        -11    1    3    3    0    0 -0.10389741154E+02  0.25903384677E+01  0.26154571158E+02  0.28261602349E+02  0.51100000000E-03 0.  1.
         12    1    3    3    0    0  0.93552510536E+00 -0.32800220032E+00  0.83310032570E+01  0.83897799694E+01  0.00000000000E+00 0. -1.
</event>
<event>
 7    1  0.6046695E-013  0.5052888E+02  0.7816164E-02  0.1300439E+00
        -11   -1    0    0    0    0  0.00000000000E+00  0.00000000000E+00  0.45593999997E+02  0.45594000000E+02  0.51100000000E-03 0.  1.
         11   -1    0    0    0    0 -0.00000000000E+00 -0.00000000000E+00 -0.45593999997E+02  0.45594000000E+02  0.51100000000E-03 0. -1.
    9900012    2    1    2    0    0  0.18251209412E+02  0.70345459064E+01  0.35645091103E+02  0.50528880471E+02  0.30000062680E+02 0.  0.
         12    1    1    2    0    0 -0.18251209412E+02 -0.70345459064E+01 -0.35645091103E+02  0.40659119529E+02  0.00000000000E+00 0. -1.
         11    1    3    3    0    0  0.83681052498E+01  0.38839635632E+01  0.70259999359E+00  0.92522432655E+01  0.51100000000E-03 0. -1.
        -11    1    3    3    0    0  0.11377974630E+01 -0.63957442425E+01  0.22123160931E+02  0.23057197951E+02  0.51100000000E-03 0.  1.
        -12    1    3    3    0    0  0.87453066990E+01  0.95463265857E+01  0.12819330179E+02  0.18219439255E+02  0.00000000000E+00 0.  1.
</event>
<event>
 7    1  0.6046695E-013  0.5052884E+02  0.7816164E-02  0.1300439E+00
        -11   -1    0    0    0    0  0.00000000000E+00  0.00000000000E+00  0.45593999997E+02  0.45594000000E+02  0.51100000000E-03 0.  1.
         11   -1    0    0    0    0 -0.00000000000E+00 -0.00000000000E+00 -0.45593999997E+02  0.45594000000E+02  0.51100000000E-03 0. -1.
    9900012    2    1    2    0    0  0.39497064719E+02  0.74418760485E+00  0.96226458734E+01  0.50528840513E+02  0.29999941222E+02 0.  0.
         12    1    1    2    0    0 -0.39497064719E+02 -0.74418760485E+00 -0.96226458734E+01  0.40659159487E+02  0.00000000000E+00 0. -1.
         11    1    3    3    0    0 -0.19510446235E+01  0.13846150021E+01  0.67942290242E+01  0.72031439053E+01  0.51100000000E-03 0.  1.
        -11    1    3    3    0    0  0.31101441296E+02 -0.26885038500E+01 -0.28493026450E+01  0.31347188542E+02  0.51100000000E-03 0. -1.
         12    1    3    3    0    0  0.10346668047E+02  0.20480764527E+01  0.56777194942E+01  0.11978508066E+02  0.00000000000E+00 0. -1.
</event>
<event>
 7    1  0.6046695E-013  0.5052886E+02  0.7816164E-02  0.1300439E+00
        -11   -1    0    0    0    0  0.00000000000E+00  0.00000000000E+00  0.45593999997E+02  0.45594000000E+02  0.51100000000E-03 0. -1.
         11   -1    0    0    0    0 -0.00000000000E+00 -0.00000000000E+00 -0.45593999997E+02  0.45594000000E+02  0.51100000000E-03 0.  1.
    9900012    2    1    2    0    0 -0.45491748348E+01  0.37611438914E+02 -0.14759759723E+02  0.50528857905E+02  0.29999994087E+02 0.  0.
         12    1    1    2    0    0  0.45491748348E+01 -0.37611438914E+02  0.14759759723E+02  0.40659142095E+02  0.00000000000E+00 0. -1.
         11    1    3    3    0    0 -0.98545213598E+01  0.17812431123E+02 -0.42566159962E+01  0.20796948664E+02  0.51100000000E-03 0. -1.
        -11    1    3    3    0    0  0.17828336526E+01  0.77972160784E+01 -0.14534754145E+02  0.16590182420E+02  0.51100000000E-03 0.  1.
         12    1    3    3    0    0  0.35225128724E+01  0.12001791713E+02  0.40316104187E+01  0.13141726820E+02  0.00000000000E+00 0. -1.
</event>
<event>
 7    1  0.6046695E-013  0.5052898E+02  0.7816164E-02  0.1300438E+00
        -11   -1    0    0    0    0  0.00000000000E+00  0.00000000000E+00  0.45593999997E+02  0.45594000000E+02  0.51100000000E-03 0.  1.
         11   -1    0    0    0    0 -0.00000000000E+00 -0.00000000000E+00 -0.45593999997E+02  0.45594000000E+02  0.51100000000E-03 0. -1.
    9900012    2    1    2    0    0  0.35049298864E+02 -0.55099669097E+00  0.20600951157E+02  0.50528977179E+02  0.30000356630E+02 0.  0.
         12    1    1    2    0    0 -0.35049298864E+02  0.55099669097E+00 -0.20600951157E+02  0.40659022821E+02  0.00000000000E+00 0. -1.
         11    1    3    3    0    0  0.16391090273E+02 -0.91269560177E+01  0.41337109161E+00  0.18765394811E+02  0.51100000000E-03 0. -1.
        -11    1    3    3    0    0  0.95533540054E+01  0.11353804604E+02  0.10469137397E+02  0.18159798728E+02  0.51100000000E-03 0.  1.
         12    1    3    3    0    0  0.91048545858E+01 -0.27778452775E+01  0.97184426689E+01  0.13603783640E+02  0.00000000000E+00 0. -1.
</event>
<event>
 7    1  0.6046695E-013  0.5052889E+02  0.7816164E-02  0.1300439E+00
        -11   -1    0    0    0    0  0.00000000000E+00  0.00000000000E+00  0.45593999997E+02  0.45594000000E+02  0.51100000000E-03 0. -1.
         11   -1    0    0    0    0 -0.00000000000E+00 -0.00000000000E+00 -0.45593999997E+02  0.45594000000E+02  0.51100000000E-03 0.  1.
    9900012    2    1    2    0    0  0.15850240630E+01 -0.13742380796E+02 -0.38233470700E+02  0.50528885241E+02  0.30000077179E+02 0.  0.
         12    1    1    2    0    0 -0.15850240630E+01  0.13742380796E+02  0.38233470700E+02  0.40659114759E+02  0.00000000000E+00 0. -1.
         11    1    3    3    0    0  0.44513352372E+01 -0.63060556433E+01 -0.33913051338E+01  0.84309948371E+01  0.51100000000E-03 0. -1.
        -11    1    3    3    0    0 -0.11200547815E+02 -0.96935241033E+01 -0.24446289775E+02  0.28583872462E+02  0.51100000000E-03 0.  1.
        -12    1    3    3    0    0  0.83342366406E+01  0.22571989506E+01 -0.10395875791E+02  0.13514017942E+02  0.00000000000E+00 0.  1.
</event>
<event>
 7    1  0.6046695E-013  0.5052886E+02  0.7816164E-02  0.1300439E+00
        -11   -1    0    0    0    0  0.00000000000E+00  0.00000000000E+00  0.45593999997E+02  0.45594000000E+02  0.51100000000E-03 0.  1.
         11   -1    0    0    0    0 -0.00000000000E+00 -0.00000000000E+00 -0.45593999997E+02  0.45594000000E+02  0.51100000000E-03 0. -1.
    9900012    2    1    2    0    0 -0.23497063163E+02  0.16561913681E+02  0.28753375635E+02  0.50528861145E+02  0.30000003935E+02 0.  0.
         12    1    1    2    0    0  0.23497063163E+02 -0.16561913681E+02 -0.28753375635E+02  0.40659138855E+02  0.00000000000E+00 0. -1.
         11    1    3    3    0    0 -0.10685086236E+02  0.17384303156E+01  0.25029123890E+01  0.11111155589E+02  0.51100000000E-03 0. -1.
        -11    1    3    3    0    0  0.89313845339E+00  0.14795852894E+02  0.88343013602E+01  0.17255719050E+02  0.51100000000E-03 0.  1.
        -12    1    3    3    0    0 -0.13705115380E+02  0.27630471539E-01  0.17416161886E+02  0.22161986505E+02  0.00000000000E+00 0.  1.
</event>
<event>
 7    1  0.6046695E-013  0.5052884E+02  0.7816164E-02  0.1300439E+00
        -11   -1    0    0    0    0  0.00000000000E+00  0.00000000000E+00  0.45593999997E+02  0.45594000000E+02  0.51100000000E-03 0.  1.
         11   -1    0    0    0    0 -0.00000000000E+00 -0.00000000000E+00 -0.45593999997E+02  0.45594000000E+02  0.51100000000E-03 0. -1.
    9900012    2    1    2    0    0  0.20572326417E+02 -0.31063231268E+02  0.16279506738E+02  0.50528840015E+02  0.29999939710E+02 0.  0.
         12    1    1    2    0    0 -0.20572326417E+02  0.31063231268E+02 -0.16279506738E+02  0.40659159985E+02  0.00000000000E+00 0. -1.
         11    1    3    3    0    0  0.13835273477E+02 -0.65119807603E+01 -0.39114826287E+01  0.15783547834E+02  0.51100000000E-03 0. -1.
        -11    1    3    3    0    0 -0.30791539717E+01 -0.10505067319E+02  0.59230115834E+01  0.12446674056E+02  0.51100000000E-03 0.  1.
         12    1    3    3    0    0  0.98162069123E+01 -0.14046183188E+02  0.14267977784E+02  0.22298618126E+02  0.00000000000E+00 0. -1.
</event>
<event>
 7    1  0.6046695E-013  0.5052886E+02  0.7816164E-02  0.1300439E+00
        -11   -1    0    0    0    0  0.00000000000E+00  0.00000000000E+00  0.45593999997E+02  0.45594000000E+02  0.51100000000E-03 0.  1.
         11   -1    0    0    0    0 -0.00000000000E+00 -0.00000000000E+00 -0.45593999997E+02  0.45594000000E+02  0.51100000000E-03 0. -1.
    9900012    2    1    2    0    0  0.11266973563E+02  0.35157727241E+02 -0.17033942272E+02  0.50528859977E+02  0.30000000387E+02 0.  0.
         12    1    1    2    0    0 -0.11266973563E+02 -0.35157727241E+02  0.17033942272E+02  0.40659140023E+02  0.00000000000E+00 0. -1.
         11    1    3    3    0    0 -0.21768259091E+01  0.58057557687E+00 -0.20467157530E+01  0.30437944533E+01  0.51100000000E-03 0. -1.
        -11    1    3    3    0    0  0.13567120867E+02  0.31423751203E+02 -0.21822628542E+01  0.34296955838E+02  0.51100000000E-03 0.  1.
        -12    1    3    3    0    0 -0.12332139447E+00  0.31534004612E+01 -0.12804963665E+02  0.13188109686E+02  0.00000000000E+00 0.  1.
</event>
<event>
 7    1  0.6046695E-013  0.5052886E+02  0.7816164E-02  0.1300439E+00
        -11   -1    0    0    0    0  0.00000000000E+00  0.00000000000E+00  0.45593999997E+02  0.45594000000E+02  0.51100000000E-03 0.  1.
         11   -1    0    0    0    0 -0.00000000000E+00 -0.00000000000E+00 -0.45593999997E+02  0.45594000000E+02  0.51100000000E-03 0. -1.
    9900012    2    1    2    0    0  0.48956729314E+01  0.11881540596E+01  0.40345836409E+02  0.50528857866E+02  0.29999993970E+02 0.  0.
         12    1    1    2    0    0 -0.48956729314E+01 -0.11881540596E+01 -0.40345836409E+02  0.40659142134E+02  0.00000000000E+00 0. -1.
         11    1    3    3    0    0 -0.18532556111E+01 -0.45377462122E+01  0.75843322533E+01  0.90303816662E+01  0.51100000000E-03 0. -1.
        -11    1    3    3    0    0 -0.25128917147E+01  0.12510931158E+02  0.23525036905E+02  0.26763134810E+02  0.51100000000E-03 0.  1.
        -12    1    3    3    0    0  0.92618202573E+01 -0.67850308865E+01  0.92364672504E+01  0.14735341390E+02  0.00000000000E+00 0.  1.
</event>
<event>
 7    1  0.6046695E-013  0.5052885E+02  0.7816164E-02  0.1300439E+00
        -11   -1    0    0    0    0  0.00000000000E+00  0.00000000000E+00  0.45593999997E+02  0.45594000000E+02  0.51100000000E-03 0. -1.
         11   -1    0    0    0    0 -0.00000000000E+00 -0.00000000000E+00 -0.45593999997E+02  0.45594000000E+02  0.51100000000E-03 0.  1.
    9900012    2    1    2    0    0 -0.13612699677E+02 -0.38201409569E+02  0.29177247042E+01  0.50528850931E+02  0.29999972891E+02 0.  0.
         12    1    1    2    0    0  0.13612699677E+02  0.38201409569E+02 -0.29177247042E+01  0.40659149069E+02  0.00000000000E+00 0. -1.
         11    1    3    3    0    0 -0.13260860595E+02 -0.31521474706E+02  0.81869314719E+01  0.35163612422E+02  0.51100000000E-03 0. -1.
        -11    1    3    3    0    0  0.57769694557E+01 -0.74151087138E+00 -0.29121764395E+01  0.65118343299E+01  0.51100000000E-03 0.  1.
         12    1    3    3    0    0 -0.61288085384E+01 -0.59384239914E+01 -0.23570303282E+01  0.88534041797E+01  0.00000000000E+00 0. -1.
</event>
<event>
 7    1  0.6046695E-013  0.5052886E+02  0.7816164E-02  0.1300439E+00
        -11   -1    0    0    0    0  0.00000000000E+00  0.00000000000E+00  0.45593999997E+02  0.45594000000E+02  0.51100000000E-03 0.  1.
         11   -1    0    0    0    0 -0.00000000000E+00 -0.00000000000E+00 -0.45593999997E+02  0.45594000000E+02  0.51100000000E-03 0. -1.
    9900012    2    1    2    0    0 -0.37925431094E+02  0.17239544390E+01  0.14555249625E+02  0.50528860385E+02  0.30000001628E+02 0.  0.
         12    1    1    2    0    0  0.37925431094E+02 -0.17239544390E+01 -0.14555249625E+02  0.40659139615E+02  0.00000000000E+00 0. -1.
         11    1    3    3    0    0 -0.10580630438E+02 -0.37671907447E+01  0.83674824249E+01  0.14005578494E+02  0.51100000000E-03 0. -1.
        -11    1    3    3    0    0 -0.21542254680E+02 -0.27720864910E+01 -0.41054910803E+01  0.22104485009E+02  0.51100000000E-03 0.  1.
        -12    1    3    3    0    0 -0.58025459753E+01  0.82632316746E+01  0.10293258281E+02  0.14418796882E+02  0.00000000000E+00 0.  1.
</event>
<event>
 7    1  0.6046695E-013  0.5052886E+02  0.7816164E-02  0.1300439E+00
        -11   -1    0    0    0    0  0.00000000000E+00  0.00000000000E+00  0.45593999997E+02  0.45594000000E+02  0.51100000000E-03 0.  1.
         11   -1    0    0    0    0 -0.00000000000E+00 -0.00000000000E+00 -0.45593999997E+02  0.45594000000E+02  0.51100000000E-03 0. -1.
    9900012    2    1    2    0    0  0.37023483307E+02  0.13635315676E+02 -0.98237401967E+01  0.50528855626E+02  0.29999987162E+02 0.  0.
         12    1    1    2    0    0 -0.37023483307E+02 -0.13635315676E+02  0.98237401967E+01  0.40659144374E+02  0.00000000000E+00 0. -1.
         11    1    3    3    0    0  0.45503427190E+01  0.99366092627E+00 -0.22588692211E+01  0.51764342279E+01  0.51100000000E-03 0. -1.
        -11    1    3    3    0    0  0.17192126324E+02 -0.80160013953E+01 -0.43021518175E+01  0.19450809660E+02  0.51100000000E-03 0.  1.
        -12    1    3    3    0    0  0.15281014264E+02  0.20657656145E+02 -0.32627191581E+01  0.25901611738E+02  0.00000000000E+00 0.  1.
</event>
<event>
 7    1  0.6046695E-013  0.5052884E+02  0.7816164E-02  0.1300439E+00
        -11   -1    0    0    0    0  0.00000000000E+00  0.00000000000E+00  0.45593999997E+02  0.45594000000E+02  0.51100000000E-03 0. -1.
         11   -1    0    0    0    0 -0.00000000000E+00 -0.00000000000E+00 -0.45593999997E+02  0.45594000000E+02  0.51100000000E-03 0.  1.
    9900012    2    1    2    0    0 -0.57850291676E+00  0.26632252476E+02 -0.30717351028E+02  0.50528841231E+02  0.29999943406E+02 0.  0.
         12    1    1    2    0    0  0.57850291676E+00 -0.26632252476E+02  0.30717351028E+02  0.40659158769E+02  0.00000000000E+00 0. -1.
         11    1    3    3    0    0 -0.21216040675E+01  0.37216597810E+01 -0.20028649638E+02  0.20481668924E+02  0.51100000000E-03 0. -1.
        -11    1    3    3    0    0  0.70481832641E+01  0.20972860029E+02 -0.73006555084E+01  0.23298869420E+02  0.51100000000E-03 0.  1.
        -12    1    3    3    0    0 -0.55050821133E+01  0.19377326664E+01 -0.33880458824E+01  0.67483028876E+01  0.00000000000E+00 0.  1.
</event>
<event>
 7    1  0.6046695E-013  0.5052886E+02  0.7816164E-02  0.1300439E+00
        -11   -1    0    0    0    0  0.00000000000E+00  0.00000000000E+00  0.45593999997E+02  0.45594000000E+02  0.51100000000E-03 0.  1.
         11   -1    0    0    0    0 -0.00000000000E+00 -0.00000000000E+00 -0.45593999997E+02  0.45594000000E+02  0.51100000000E-03 0. -1.
    9900012    2    1    2    0    0  0.26588577654E+02  0.11921495056E+01  0.30737465002E+02  0.50528862812E+02  0.30000009003E+02 0.  0.
         12    1    1    2    0    0 -0.26588577654E+02 -0.11921495056E+01 -0.30737465002E+02  0.40659137188E+02  0.00000000000E+00 0. -1.
         11    1    3    3    0    0  0.22935397977E+00 -0.85156625432E+01  0.16154196218E+02  0.18262726179E+02  0.51100000000E-03 0. -1.
        -11    1    3    3    0    0  0.29980332194E+01  0.10370881176E+01  0.42181919120E+01  0.52779634534E+01  0.51100000000E-03 0.  1.
         12    1    3    3    0    0  0.23361190455E+02  0.86707239312E+01  0.10365076872E+02  0.26988173179E+02  0.00000000000E+00 0. -1.
</event>
<event>
 7    1  0.6046695E-013  0.5052887E+02  0.7816164E-02  0.1300439E+00
        -11   -1    0    0    0    0  0.00000000000E+00  0.00000000000E+00  0.45593999997E+02  0.45594000000E+02  0.51100000000E-03 0.  1.
         11   -1    0    0    0    0 -0.00000000000E+00 -0.00000000000E+00 -0.45593999997E+02  0.45594000000E+02  0.51100000000E-03 0. -1.
    9900012    2    1    2    0    0 -0.40193755901E+02  0.55092645011E+01 -0.26972362337E+01  0.50528867052E+02  0.30000021891E+02 0.  0.
         12    1    1    2    0    0  0.40193755901E+02 -0.55092645011E+01  0.26972362337E+01  0.40659132948E+02  0.00000000000E+00 0. -1.
         11    1    3    3    0    0 -0.98263905486E+01 -0.39362100456E+01 -0.64676594440E+01  0.12404931265E+02  0.51100000000E-03 0. -1.
        -11    1    3    3    0    0 -0.86296932331E+01  0.74640048243E+01  0.10267826602E+02  0.15349633113E+02  0.51100000000E-03 0.  1.
        -12    1    3    3    0    0 -0.21737672120E+02  0.19814697225E+01 -0.64974033920E+01  0.22774302674E+02  0.00000000000E+00 0.  1.
</event>
<event>
 7    1  0.6046695E-013  0.5052887E+02  0.7816164E-02  0.1300439E+00
        -11   -1    0    0    0    0  0.00000000000E+00  0.00000000000E+00  0.45593999997E+02  0.45594000000E+02  0.51100000000E-03 0.  1.
         11   -1    0    0    0    0 -0.00000000000E+00 -0.00000000000E+00 -0.45593999997E+02  0.45594000000E+02  0.51100000000E-03 0. -1.
    9900012    2    1    2    0    0  0.25489558408E+02 -0.27700696379E+02  0.15366161875E+02  0.50528866973E+02  0.30000021651E+02 0.  0.
         12    1    1    2    0    0 -0.25489558408E+02  0.27700696379E+02 -0.15366161875E+02  0.40659133027E+02  0.00000000000E+00 0. -1.
         11    1    3    3    0    0  0.94517883811E+01 -0.24861612967E+02  0.57444784723E+01  0.27210937803E+02  0.51100000000E-03 0. -1.
        -11    1    3    3    0    0  0.46514933101E+01  0.54424164344E+01  0.31133339019E+01  0.78069926928E+01  0.51100000000E-03 0.  1.
        -12    1    3    3    0    0  0.11386276717E+02 -0.82814998470E+01  0.65083495011E+01  0.15510936478E+02  0.00000000000E+00 0.  1.
</event>
<event>
 7    1  0.6046695E-013  0.5052886E+02  0.7816164E-02  0.1300439E+00
        -11   -1    0    0    0    0  0.00000000000E+00  0.00000000000E+00  0.45593999997E+02  0.45594000000E+02  0.51100000000E-03 0. -1.
         11   -1    0    0    0    0 -0.00000000000E+00 -0.00000000000E+00 -0.45593999997E+02  0.45594000000E+02  0.51100000000E-03 0.  1.
    9900012    2    1    2    0    0  0.25606623035E+02 -0.20648607775E+02 -0.23897736085E+02  0.50528856670E+02  0.29999990335E+02 0.  0.
         12    1    1    2    0    0 -0.25606623035E+02  0.20648607775E+02  0.23897736085E+02  0.40659143330E+02  0.00000000000E+00 0. -1.
         11    1    3    3    0    0  0.80596853838E+01 -0.60153951912E+01 -0.13107120934E+01  0.10142064595E+02  0.51100000000E-03 0. -1.
        -11    1    3    3    0    0  0.74116260796E+00 -0.16530427141E+02 -0.10462520680E+02  0.19577249110E+02  0.51100000000E-03 0.  1.
        -12    1    3    3    0    0  0.16805775043E+02  0.18972145566E+01 -0.12124503312E+02  0.20809542965E+02  0.00000000000E+00 0.  1.
</event>
<event>
 7    1  0.6046695E-013  0.5052886E+02  0.7816164E-02  0.1300439E+00
        -11   -1    0    0    0    0  0.00000000000E+00  0.00000000000E+00  0.45593999997E+02  0.45594000000E+02  0.51100000000E-03 0.  1.
         11   -1    0    0    0    0 -0.00000000000E+00 -0.00000000000E+00 -0.45593999997E+02  0.45594000000E+02  0.51100000000E-03 0. -1.
    9900012    2    1    2    0    0  0.20184402636E+02  0.19686242215E+02  0.29295179294E+02  0.50528858688E+02  0.29999996468E+02 0.  0.
         12    1    1    2    0    0 -0.20184402636E+02 -0.19686242215E+02 -0.29295179294E+02  0.40659141312E+02  0.00000000000E+00 0. -1.
         11    1    3    3    0    0 -0.56657614791E+00 -0.36061871270E+01  0.33729465933E+01  0.49701471919E+01  0.51100000000E-03 0. -1.
        -11    1    3    3    0    0  0.17738702719E+02  0.26359440213E+02  0.26297245736E+02  0.41243506107E+02  0.51100000000E-03 0.  1.
        -12    1    3    3    0    0  0.30122760650E+01 -0.30670108703E+01 -0.37501303479E+00  0.43152053887E+01  0.00000000000E+00 0.  1.
</event>
<event>
 7    1  0.6046695E-013  0.5052886E+02  0.7816164E-02  0.1300439E+00
        -11   -1    0    0    0    0  0.00000000000E+00  0.00000000000E+00  0.45593999997E+02  0.45594000000E+02  0.51100000000E-03 0.  1.
         11   -1    0    0    0    0 -0.00000000000E+00 -0.00000000000E+00 -0.45593999997E+02  0.45594000000E+02  0.51100000000E-03 0. -1.
    9900012    2    1    2    0    0  0.88648611783E+01  0.30172541488E+02  0.25772025960E+02  0.50528863934E+02  0.30000012414E+02 0.  0.
         12    1    1    2    0    0 -0.88648611783E+01 -0.30172541488E+02 -0.25772025960E+02  0.40659136066E+02  0.00000000000E+00 0. -1.
         11    1    3    3    0    0  0.41704129440E+01  0.81825815649E+00 -0.14768160826E+01  0.44992084345E+01  0.51100000000E-03 0. -1.
        -11    1    3    3    0    0  0.34399712389E+00  0.23016675635E+02  0.30045219912E+02  0.37849715074E+02  0.51100000000E-03 0.  1.
        -12    1    3    3    0    0  0.43504511104E+01  0.63376076964E+01 -0.27963778703E+01  0.81799404259E+01  0.00000000000E+00 0.  1.
</event>
<event>
 7    1  0.6046695E-013  0.5052886E+02  0.7816164E-02  0.1300439E+00
        -11   -1    0    0    0    0  0.00000000000E+00  0.00000000000E+00  0.45593999997E+02  0.45594000000E+02  0.51100000000E-03 0. -1.
         11   -1    0    0    0    0 -0.00000000000E+00 -0.00000000000E+00 -0.45593999997E+02  0.45594000000E+02  0.51100000000E-03 0.  1.
    9900012    2    1    2    0    0  0.32893179018E+02  0.36651039470E+01 -0.23617193377E+02  0.50528855445E+02  0.29999986612E+02 0.  0.
         12    1    1    2    0    0 -0.32893179018E+02 -0.36651039470E+01  0.23617193377E+02  0.40659144555E+02  0.00000000000E+00 0. -1.
         11    1    3    3    0    0  0.26065229069E+02 -0.29640096951E+01 -0.24850127238E+01  0.26350651005E+02  0.51100000000E-03 0. -1.
        -11    1    3    3    0    0 -0.59097345153E+00  0.12974035299E+01 -0.83258956674E+01  0.84470731301E+01  0.51100000000E-03 0.  1.
         12    1    3    3    0    0  0.74189234007E+01  0.53317101122E+01 -0.12806284986E+02  0.15731131310E+02  0.00000000000E+00 0. -1.
</event>
<event>
 7    1  0.6046695E-013  0.5052890E+02  0.7816164E-02  0.1300439E+00
        -11   -1    0    0    0    0  0.00000000000E+00  0.00000000000E+00  0.45593999997E+02  0.45594000000E+02  0.51100000000E-03 0.  1.
         11   -1    0    0    0    0 -0.00000000000E+00 -0.00000000000E+00 -0.45593999997E+02  0.45594000000E+02  0.51100000000E-03 0. -1.
    9900012    2    1    2    0    0  0.20375537799E+02 -0.95445998465E-01  0.35185089663E+02  0.50528902800E+02  0.30000130549E+02 0.  0.
         12    1    1    2    0    0 -0.20375537799E+02  0.95445998465E-01 -0.35185089663E+02  0.40659097200E+02  0.00000000000E+00 0. -1.
         11    1    3    3    0    0  0.99040382901E+01 -0.90136070025E+00  0.10208859053E+00  0.99454938492E+01  0.51100000000E-03 0. -1.
        -11    1    3    3    0    0  0.89524884368E+01  0.86275510357E+01  0.21350007237E+02  0.24706365482E+02  0.51100000000E-03 0.  1.
        -12    1    3    3    0    0  0.15190110718E+01 -0.78216363340E+01  0.13732993836E+02  0.15877043468E+02  0.00000000000E+00 0.  1.
</event>
<event>
 7    1  0.6046695E-013  0.5052886E+02  0.7816164E-02  0.1300439E+00
        -11   -1    0    0    0    0  0.00000000000E+00  0.00000000000E+00  0.45593999997E+02  0.45594000000E+02  0.51100000000E-03 0.  1.
         11   -1    0    0    0    0 -0.00000000000E+00 -0.00000000000E+00 -0.45593999997E+02  0.45594000000E+02  0.51100000000E-03 0. -1.
    9900012    2    1    2    0    0 -0.16215066954E+02  0.30212369472E+02  0.21850636477E+02  0.50528856134E+02  0.29999988705E+02 0.  0.
         12    1    1    2    0    0  0.16215066954E+02 -0.30212369472E+02 -0.21850636477E+02  0.40659143866E+02  0.00000000000E+00 0. -1.
         11    1    3    3    0    0 -0.17910437600E+01  0.26216398721E+02  0.14447842177E+02  0.29987456435E+02  0.51100000000E-03 0. -1.
        -11    1    3    3    0    0 -0.10931874438E+02 -0.18273581330E+01  0.80821055502E+01  0.13717344746E+02  0.51100000000E-03 0.  1.
         12    1    3    3    0    0 -0.34921487558E+01  0.58233288848E+01 -0.67931124953E+00  0.68240549534E+01  0.00000000000E+00 0. -1.
</event>
<event>
 7    1  0.6046695E-013  0.5052886E+02  0.7816164E-02  0.1300439E+00
        -11   -1    0    0    0    0  0.00000000000E+00  0.00000000000E+00  0.45593999997E+02  0.45594000000E+02  0.51100000000E-03 0.  1.
         11   -1    0    0    0    0 -0.00000000000E+00 -0.00000000000E+00 -0.45593999997E+02  0.45594000000E+02  0.51100000000E-03 0. -1.
    9900012    2    1    2    0    0 -0.12572101835E+02 -0.53320041733E+01  0.38297228711E+02  0.50528859084E+02  0.29999997673E+02 0.  0.
         12    1    1    2    0    0  0.12572101835E+02  0.53320041733E+01 -0.38297228711E+02  0.40659140916E+02  0.00000000000E+00 0. -1.
         11    1    3    3    0    0  0.33773996617E+01  0.48540090740E+00  0.13472798681E+01  0.36684609606E+01  0.51100000000E-03 0. -1.
        -11    1    3    3    0    0 -0.96886826721E+01  0.68586433114E+01  0.27225979214E+02  0.29701271091E+02  0.51100000000E-03 0.  1.
        -12    1    3    3    0    0 -0.62608188245E+01 -0.12676048392E+02  0.97239696289E+01  0.17159127033E+02  0.00000000000E+00 0.  1.
</event>
<event>
 7    1  0.6046695E-013  0.5052886E+02  0.7816164E-02  0.1300439E+00
        -11   -1    0    0    0    0  0.00000000000E+00  0.00000000000E+00  0.45593999997E+02  0.45594000000E+02  0.51100000000E-03 0.  1.
         11   -1    0    0    0    0 -0.00000000000E+00 -0.00000000000E+00 -0.45593999997E+02  0.45594000000E+02  0.51100000000E-03 0. -1.
    9900012    2    1    2    0    0  0.34521529797E+02  0.19169280992E+02  0.96937218804E+01  0.50528860841E+02  0.30000003012E+02 0.  0.
         12    1    1    2    0    0 -0.34521529797E+02 -0.19169280992E+02 -0.96937218804E+01  0.40659139159E+02  0.00000000000E+00 0. -1.
         11    1    3    3    0    0  0.15327722706E+02  0.69168631906E+01 -0.61230741431E+01  0.17896203982E+02  0.51100000000E-03 0. -1.
        -11    1    3    3    0    0  0.45806790324E+01  0.11946895209E+01  0.13322272270E+02  0.14138346514E+02  0.51100000000E-03 0.  1.
        -12    1    3    3    0    0  0.14613128058E+02  0.11057728281E+02  0.24945237539E+01  0.18494310345E+02  0.00000000000E+00 0.  1.
</event>
<event>
 7    1  0.6046695E-013  0.5052890E+02  0.7816164E-02  0.1300439E+00
        -11   -1    0    0    0    0  0.00000000000E+00  0.00000000000E+00  0.45593999997E+02  0.45594000000E+02  0.51100000000E-03 0.  1.
         11   -1    0    0    0    0 -0.00000000000E+00 -0.00000000000E+00 -0.45593999997E+02  0.45594000000E+02  0.51100000000E-03 0. -1.
    9900012    2    1    2    0    0 -0.37909600077E+02  0.31054641676E+01 -0.14365962594E+02  0.50528898105E+02  0.30000116279E+02 0.  0.
         12    1    1    2    0    0  0.37909600077E+02 -0.31054641676E+01  0.14365962594E+02  0.40659101895E+02  0.00000000000E+00 0. -1.
         11    1    3    3    0    0 -0.38566366557E+01  0.51483963097E+00 -0.82126591752E+01  0.90877102247E+01  0.51100000000E-03 0. -1.
        -11    1    3    3    0    0 -0.36553745526E+02 -0.56579532295E+00 -0.72443550167E+01  0.37268983300E+02  0.51100000000E-03 0.  1.
        -12    1    3    3    0    0  0.25007821051E+01  0.31564198595E+01  0.10910515980E+01  0.41722045799E+01  0.00000000000E+00 0.  1.
</event>
<event>
 7    1  0.6046695E-013  0.5052887E+02  0.7816164E-02  0.1300439E+00
        -11   -1    0    0    0    0  0.00000000000E+00  0.00000000000E+00  0.45593999997E+02  0.45594000000E+02  0.51100000000E-03 0. -1.
         11   -1    0    0    0    0 -0.00000000000E+00 -0.00000000000E+00 -0.45593999997E+02  0.45594000000E+02  0.51100000000E-03 0.  1.
    9900012    2    1    2    0    0 -0.13627567497E+02 -0.33190580425E+02 -0.19126928631E+02  0.50528872812E+02  0.30000039401E+02 0.  0.
         12    1    1    2    0    0  0.13627567497E+02  0.33190580425E+02  0.19126928631E+02  0.40659127188E+02  0.00000000000E+00 0. -1.
         11    1    3    3    0    0 -0.78014135558E+00  0.39958818000E+01  0.93691536684E+00  0.41777389291E+01  0.51100000000E-03 0. -1.
        -11    1    3    3    0    0 -0.14607069321E+02 -0.28466723438E+02 -0.19429661922E+02  0.37433041289E+02  0.51100000000E-03 0.  1.
         12    1    3    3    0    0  0.17596431797E+01 -0.87197387862E+01 -0.63418207560E+00  0.89180925945E+01  0.00000000000E+00 0. -1.
</event>
<event>
 7    1  0.6046695E-013  0.5052886E+02  0.7816164E-02  0.1300439E+00
        -11   -1    0    0    0    0  0.00000000000E+00  0.00000000000E+00  0.45593999997E+02  0.45594000000E+02  0.51100000000E-03 0.  1.
         11   -1    0    0    0    0 -0.00000000000E+00 -0.00000000000E+00 -0.45593999997E+02  0.45594000000E+02  0.51100000000E-03 0. -1.
    9900012    2    1    2    0    0  0.76456201882E+01  0.38299938796E+02  0.11305969382E+02  0.50528858795E+02  0.29999996794E+02 0.  0.
         12    1    1    2    0    0 -0.76456201882E+01 -0.38299938796E+02 -0.11305969382E+02  0.40659141205E+02  0.00000000000E+00 0. -1.
         11    1    3    3    0    0  0.47694666074E+01  0.71157793940E+01  0.10103785105E+02  0.13246456198E+02  0.51100000000E-03 0. -1.
        -11    1    3    3    0    0  0.28042480127E+01  0.40268962885E+01 -0.73258951043E+01  0.88175075830E+01  0.51100000000E-03 0.  1.
        -12    1    3    3    0    0  0.71905568137E-01  0.27157263114E+02  0.85280793814E+01  0.28464895014E+02  0.00000000000E+00 0.  1.
</event>
<event>
 7    1  0.6046695E-013  0.5052882E+02  0.7816164E-02  0.1300439E+00
        -11   -1    0    0    0    0  0.00000000000E+00  0.00000000000E+00  0.45593999997E+02  0.45594000000E+02  0.51100000000E-03 0.  1.
         11   -1    0    0    0    0 -0.00000000000E+00 -0.00000000000E+00 -0.45593999997E+02  0.45594000000E+02  0.51100000000E-03 0. -1.
    9900012    2    1    2    0    0 -0.13944779199E+02  0.31999072040E+02  0.20851166404E+02  0.50528823684E+02  0.29999890069E+02 0.  0.
         12    1    1    2    0    0  0.13944779199E+02 -0.31999072040E+02 -0.20851166404E+02  0.40659176316E+02  0.00000000000E+00 0. -1.
         11    1    3    3    0    0 -0.71105593809E+01  0.12517987080E+02 -0.46208281966E+01  0.15119924230E+02  0.51100000000E-03 0. -1.
        -11    1    3    3    0    0  0.23698309738E+01 -0.47064873062E-01  0.55414578123E+01  0.60271111565E+01  0.51100000000E-03 0.  1.
         12    1    3    3    0    0 -0.92040507923E+01  0.19528149833E+02  0.19930536788E+02  0.29381788297E+02  0.00000000000E+00 0. -1.
</event>
<event>
 7    1  0.6046695E-013  0.5052885E+02  0.7816164E-02  0.1300439E+00
        -11   -1    0    0    0    0  0.00000000000E+00  0.00000000000E+00  0.45593999997E+02  0.45594000000E+02  0.51100000000E-03 0.  1.
         11   -1    0    0    0    0 -0.00000000000E+00 -0.00000000000E+00 -0.45593999997E+02  0.45594000000E+02  0.51100000000E-03 0. -1.
    9900012    2    1    2    0    0 -0.21501629562E+02 -0.86330968282E+00  0.34497841908E+02  0.50528850061E+02  0.29999970247E+02 0.  0.
         12    1    1    2    0    0  0.21501629562E+02  0.86330968282E+00 -0.34497841908E+02  0.40659149939E+02  0.00000000000E+00 0. -1.
         11    1    3    3    0    0 -0.16177511469E+02 -0.12049709427E+01  0.78637224142E+01  0.18027810815E+02  0.51100000000E-03 0. -1.
        -11    1    3    3    0    0 -0.34965057933E+00  0.67366255838E+01  0.22330313771E+02  0.23326964937E+02  0.51100000000E-03 0.  1.
         12    1    3    3    0    0 -0.49744675133E+01 -0.63949643239E+01  0.43038057229E+01  0.91740743100E+01  0.00000000000E+00 0. -1.
</event>
<event>
 7    1  0.6046695E-013  0.5052886E+02  0.7816164E-02  0.1300439E+00
        -11   -1    0    0    0    0  0.00000000000E+00  0.00000000000E+00  0.45593999997E+02  0.45594000000E+02  0.51100000000E-03 0.  1.
         11   -1    0    0    0    0 -0.00000000000E+00 -0.00000000000E+00 -0.45593999997E+02  0.45594000000E+02  0.51100000000E-03 0. -1.
    9900012    2    1    2    0    0 -0.18753810250E+01 -0.14525543418E+02  0.37929637997E+02  0.50528857065E+02  0.29999991535E+02 0.  0.
         12    1    1    2    0    0  0.18753810250E+01  0.14525543418E+02 -0.37929637997E+02  0.40659142935E+02  0.00000000000E+00 0. -1.
         11    1    3    3    0    0 -0.48280081730E+01 -0.11197396701E+02  0.49332170039E+01  0.13154010266E+02  0.51100000000E-03 0. -1.
        -11    1    3    3    0    0  0.40272078547E+01 -0.26858542923E+01  0.34824426432E+02  0.35159250461E+02  0.51100000000E-03 0.  1.
        -12    1    3    3    0    0 -0.10745807067E+01 -0.64229242476E+00 -0.18280054384E+01  0.22155963389E+01  0.00000000000E+00 0.  1.
</event>
<event>
 7    1  0.6046695E-013  0.5052901E+02  0.7816164E-02  0.1300438E+00
        -11   -1    0    0    0    0  0.00000000000E+00  0.00000000000E+00  0.45593999997E+02  0.45594000000E+02  0.51100000000E-03 0.  1.
         11   -1    0    0    0    0 -0.00000000000E+00 -0.00000000000E+00 -0.45593999997E+02  0.45594000000E+02  0.51100000000E-03 0. -1.
    9900012    2    1    2    0    0  0.28068807859E+02 -0.47899541202E+01  0.29023301451E+02  0.50529007609E+02  0.30000449126E+02 0.  0.
         12    1    1    2    0    0 -0.28068807859E+02  0.47899541202E+01 -0.29023301451E+02  0.40658992391E+02  0.00000000000E+00 0. -1.
         11    1    3    3    0    0  0.71961710674E+00 -0.12204015901E+02  0.70997265182E+01  0.14137254676E+02  0.51100000000E-03 0. -1.
        -11    1    3    3    0    0  0.10016365439E+02  0.58756229209E+01  0.79260403450E+01  0.14059610134E+02  0.51100000000E-03 0.  1.
         12    1    3    3    0    0  0.17332825313E+02  0.15384388595E+01  0.13997534588E+02  0.22332142799E+02  0.00000000000E+00 0. -1.
</event>
<event>
 7    1  0.6046695E-013  0.5052886E+02  0.7816164E-02  0.1300439E+00
        -11   -1    0    0    0    0  0.00000000000E+00  0.00000000000E+00  0.45593999997E+02  0.45594000000E+02  0.51100000000E-03 0. -1.
         11   -1    0    0    0    0 -0.00000000000E+00 -0.00000000000E+00 -0.45593999997E+02  0.45594000000E+02  0.51100000000E-03 0.  1.
    9900012    2    1    2    0    0  0.20235966663E+02 -0.26452264448E+02 -0.23322715895E+02  0.50528859356E+02  0.29999998498E+02 0.  0.
         12    1    1    2    0    0 -0.20235966663E+02  0.26452264448E+02  0.23322715895E+02  0.40659140644E+02  0.00000000000E+00 0. -1.
         11    1    3    3    0    0  0.77133980580E+01 -0.24306647500E+02 -0.13423088795E+02  0.28818204929E+02  0.51100000000E-03 0. -1.
        -11    1    3    3    0    0  0.13305929959E+02 -0.60944689694E+00 -0.12711605577E+02  0.18412064365E+02  0.51100000000E-03 0.  1.
        -12    1    3    3    0    0 -0.78336135380E+00 -0.15361700515E+01  0.28119784770E+01  0.32985900614E+01  0.00000000000E+00 0.  1.
</event>
<event>
 7    1  0.6046695E-013  0.5052886E+02  0.7816164E-02  0.1300439E+00
        -11   -1    0    0    0    0  0.00000000000E+00  0.00000000000E+00  0.45593999997E+02  0.45594000000E+02  0.51100000000E-03 0.  1.
         11   -1    0    0    0    0 -0.00000000000E+00 -0.00000000000E+00 -0.45593999997E+02  0.45594000000E+02  0.51100000000E-03 0. -1.
    9900012    2    1    2    0    0 -0.27894585716E+01 -0.88871571076E+00  0.40553603769E+02  0.50528859904E+02  0.30000000164E+02 0.  0.
         12    1    1    2    0    0  0.27894585716E+01  0.88871571076E+00 -0.40553603769E+02  0.40659140096E+02  0.00000000000E+00 0. -1.
         11    1    3    3    0    0 -0.91166045710E+01 -0.46037633389E+01  0.22242663697E+02  0.24475359127E+02  0.51100000000E-03 0. -1.
        -11    1    3    3    0    0  0.27207344279E+00  0.50381175339E+01 -0.15257347986E+01  0.52711022738E+01  0.51100000000E-03 0.  1.
        -12    1    3    3    0    0  0.60550725566E+01 -0.13230699058E+01  0.19836674870E+02  0.20782398503E+02  0.00000000000E+00 0.  1.
</event>
<event>
 7    1  0.6046695E-013  0.5052886E+02  0.7816164E-02  0.1300439E+00
        -11   -1    0    0    0    0  0.00000000000E+00  0.00000000000E+00  0.45593999997E+02  0.45594000000E+02  0.51100000000E-03 0. -1.
         11   -1    0    0    0    0 -0.00000000000E+00 -0.00000000000E+00 -0.45593999997E+02  0.45594000000E+02  0.51100000000E-03 0.  1.
    9900012    2    1    2    0    0  0.40351211261E+02  0.35542786300E+01 -0.35088756353E+01  0.50528863818E+02  0.30000012062E+02 0.  0.
         12    1    1    2    0    0 -0.40351211261E+02 -0.35542786300E+01  0.35088756353E+01  0.40659136182E+02  0.00000000000E+00 0. -1.
         11    1    3    3    0    0  0.19738014022E+02  0.16520006648E-01 -0.72993665431E+01  0.21044482000E+02  0.51100000000E-03 0. -1.
        -11    1    3    3    0    0  0.99874632067E+01  0.11502405747E+02  0.52783758370E+01  0.16121910898E+02  0.51100000000E-03 0.  1.
         12    1    3    3    0    0  0.10625734032E+02 -0.79646471237E+01 -0.14878849291E+01  0.13362470920E+02  0.00000000000E+00 0. -1.
</event>
<event>
 7    1  0.6046695E-013  0.5052877E+02  0.7816164E-02  0.1300439E+00
        -11   -1    0    0    0    0  0.00000000000E+00  0.00000000000E+00  0.45593999997E+02  0.45594000000E+02  0.51100000000E-03 0.  1.
         11   -1    0    0    0    0 -0.00000000000E+00 -0.00000000000E+00 -0.45593999997E+02  0.45594000000E+02  0.51100000000E-03 0. -1.
    9900012    2    1    2    0    0  0.34004318587E+02 -0.31740455690E+01  0.22063654960E+02  0.50528768354E+02  0.29999721889E+02 0.  0.
         12    1    1    2    0    0 -0.34004318587E+02  0.31740455690E+01 -0.22063654960E+02  0.40659231646E+02  0.00000000000E+00 0. -1.
         11    1    3    3    0    0 -0.26052737710E+01 -0.14329368244E+01  0.85902024575E+01  0.90902331041E+01  0.51100000000E-03 0. -1.
        -11    1    3    3    0    0  0.15286047470E+02 -0.74742952921E+01  0.72642698770E+01  0.18501296021E+02  0.51100000000E-03 0.  1.
         12    1    3    3    0    0  0.21323544888E+02  0.57331865474E+01  0.62091826251E+01  0.22937239229E+02  0.00000000000E+00 0. -1.
</event>
<event>
 7    1  0.6147155E-013  0.5052887E+02  0.7816164E-02  0.1300439E+00
        -11   -1    0    0    0    0  0.00000000000E+00  0.00000000000E+00  0.45593999997E+02  0.45594000000E+02  0.51100000000E-03 0. -1.
         11   -1    0    0    0    0 -0.00000000000E+00 -0.00000000000E+00 -0.45593999997E+02  0.45594000000E+02  0.51100000000E-03 0.  1.
    9900012    2    1    2    0    0  0.56095093328E+01 -0.22013623994E+02 -0.33720892386E+02  0.50528870403E+02  0.30000032076E+02 0.  0.
         12    1    1    2    0    0 -0.56095093328E+01  0.22013623994E+02  0.33720892386E+02  0.40659129597E+02  0.00000000000E+00 0. -1.
         11    1    3    3    0    0  0.32798920691E+01  0.14377263675E+01  0.34679710343E+01  0.49851351485E+01  0.51100000000E-03 0. -1.
        -11    1    3    3    0    0 -0.41576744281E+01 -0.82580933871E+01 -0.17903899211E+02  0.20150234993E+02  0.51100000000E-03 0.  1.
         12    1    3    3    0    0  0.64872916918E+01 -0.15193256974E+02 -0.19284964209E+02  0.25393500262E+02  0.00000000000E+00 0. -1.
</event>
<event>
 7    1  0.6046695E-013  0.5052874E+02  0.7816164E-02  0.1300439E+00
        -11   -1    0    0    0    0  0.00000000000E+00  0.00000000000E+00  0.45593999997E+02  0.45594000000E+02  0.51100000000E-03 0.  1.
         11   -1    0    0    0    0 -0.00000000000E+00 -0.00000000000E+00 -0.45593999997E+02  0.45594000000E+02  0.51100000000E-03 0. -1.
    9900012    2    1    2    0    0  0.10956450251E+02  0.41448963109E+01  0.38935221416E+02  0.50528739871E+02  0.29999635310E+02 0.  0.
         12    1    1    2    0    0 -0.10956450251E+02 -0.41448963109E+01 -0.38935221416E+02  0.40659260129E+02  0.00000000000E+00 0. -1.
         11    1    3    3    0    0  0.97694003800E+01  0.24165644336E+01  0.17010383395E+02  0.19764465865E+02  0.51100000000E-03 0. -1.
        -11    1    3    3    0    0 -0.74924427474E+01  0.78871100499E+01  0.99364975984E+01  0.14733539563E+02  0.51100000000E-03 0.  1.
        -12    1    3    3    0    0  0.86794926186E+01 -0.61587781726E+01  0.11988340423E+02  0.16030734443E+02  0.00000000000E+00 0.  1.
</event>
<event>
 7    1  0.6046695E-013  0.5052893E+02  0.7816164E-02  0.1300439E+00
        -11   -1    0    0    0    0  0.00000000000E+00  0.00000000000E+00  0.45593999997E+02  0.45594000000E+02  0.51100000000E-03 0.  1.
         11   -1    0    0    0    0 -0.00000000000E+00 -0.00000000000E+00 -0.45593999997E+02  0.45594000000E+02  0.51100000000E-03 0. -1.
    9900012    2    1    2    0    0  0.18968354880E+02  0.31915525826E+02 -0.16575909949E+02  0.50528928857E+02  0.30000209753E+02 0.  0.
         12    1    1    2    0    0 -0.18968354880E+02 -0.31915525826E+02  0.16575909949E+02  0.40659071143E+02  0.00000000000E+00 0. -1.
         11    1    3    3    0    0  0.46063072890E+01  0.81991567992E+01  0.37485887963E+01  0.10124038586E+02  0.51100000000E-03 0. -1.
        -11    1    3    3    0    0  0.21742404861E+01  0.22498641599E+02 -0.14381630884E+02  0.26790810041E+02  0.51100000000E-03 0.  1.
        -12    1    3    3    0    0  0.12187807105E+02  0.12177274274E+01 -0.59428678618E+01  0.13614080231E+02  0.00000000000E+00 0.  1.
</event>
<event>
 7    1  0.6046695E-013  0.5052887E+02  0.7816164E-02  0.1300439E+00
        -11   -1    0    0    0    0  0.00000000000E+00  0.00000000000E+00  0.45593999997E+02  0.45594000000E+02  0.51100000000E-03 0.  1.
         11   -1    0    0    0    0 -0.00000000000E+00 -0.00000000000E+00 -0.45593999997E+02  0.45594000000E+02  0.51100000000E-03 0. -1.
    9900012    2    1    2    0    0 -0.69894972196E+01  0.17149129227E+02  0.36196945274E+02  0.50528873696E+02  0.30000042087E+02 0.  0.
         12    1    1    2    0    0  0.69894972196E+01 -0.17149129227E+02 -0.36196945274E+02  0.40659126304E+02  0.00000000000E+00 0. -1.
         11    1    3    3    0    0  0.77164137148E+01  0.36809357277E+01  0.14323690574E+02  0.16681140260E+02  0.51100000000E-03 0. -1.
        -11    1    3    3    0    0 -0.15279833911E+02  0.15281288655E+02  0.23062371512E+02  0.31604811142E+02  0.51100000000E-03 0.  1.
        -12    1    3    3    0    0  0.57392297706E+00 -0.18130951555E+01 -0.11891168117E+01  0.22429222943E+01  0.00000000000E+00 0.  1.
</event>
<event>
 7    1  0.6046695E-013  0.5052886E+02  0.7816164E-02  0.1300439E+00
        -11   -1    0    0    0    0  0.00000000000E+00  0.00000000000E+00  0.45593999997E+02  0.45594000000E+02  0.51100000000E-03 0.  1.
         11   -1    0    0    0    0 -0.00000000000E+00 -0.00000000000E+00 -0.45593999997E+02  0.45594000000E+02  0.51100000000E-03 0. -1.
    9900012    2    1    2    0    0  0.64996020560E+01 -0.25387492733E+02  0.31086915491E+02  0.50528856762E+02  0.29999990613E+02 0.  0.
         12    1    1    2    0    0 -0.64996020560E+01  0.25387492733E+02 -0.31086915491E+02  0.40659143238E+02  0.00000000000E+00 0. -1.
         11    1    3    3    0    0 -0.33582037416E+01 -0.37077472563E+01  0.23279332584E+02  0.23810759078E+02  0.51100000000E-03 0. -1.
        -11    1    3    3    0    0  0.70559405353E+01 -0.21513660758E+02  0.76804597208E+01  0.23908436959E+02  0.51100000000E-03 0.  1.
        -12    1    3    3    0    0  0.28018652623E+01 -0.16608471875E+00  0.12712318627E+00  0.28096607244E+01  0.00000000000E+00 0.  1.
</event>
<event>
 7    1  0.6046695E-013  0.5052884E+02  0.7816164E-02  0.1300439E+00
        -11   -1    0    0    0    0  0.00000000000E+00  0.00000000000E+00  0.45593999997E+02  0.45594000000E+02  0.51100000000E-03 0. -1.
         11   -1    0    0    0    0 -0.00000000000E+00 -0.00000000000E+00 -0.45593999997E+02  0.45594000000E+02  0.51100000000E-03 0.  1.
    9900012    2    1    2    0    0 -0.29607287923E+01 -0.17570697270E+02 -0.36546841129E+02  0.50528844647E+02  0.29999953788E+02 0.  0.
         12    1    1    2    0    0  0.29607287923E+01  0.17570697270E+02  0.36546841129E+02  0.40659155353E+02  0.00000000000E+00 0. -1.
         11    1    3    3    0    0  0.17171035706E+00  0.31448106934E-01  0.19633536865E+01  0.19710990308E+01  0.51100000000E-03 0. -1.
        -11    1    3    3    0    0 -0.84597147738E+01 -0.13260587213E+02 -0.38603250653E+02  0.41684780298E+02  0.51100000000E-03 0.  1.
        -12    1    3    3    0    0  0.53272756244E+01 -0.43415581634E+01  0.93055837140E-01  0.68729653174E+01  0.00000000000E+00 0.  1.
</event>
<event>
 7    1  0.6046695E-013  0.5052885E+02  0.7816164E-02  0.1300439E+00
        -11   -1    0    0    0    0  0.00000000000E+00  0.00000000000E+00  0.45593999997E+02  0.45594000000E+02  0.51100000000E-03 0.  1.
         11   -1    0    0    0    0 -0.00000000000E+00 -0.00000000000E+00 -0.45593999997E+02  0.45594000000E+02  0.51100000000E-03 0. -1.
    9900012    2    1    2    0    0 -0.23150495332E+02 -0.64697778197E+01  0.32792722731E+02  0.50528854371E+02  0.29999983347E+02 0.  0.
         12    1    1    2    0    0  0.23150495332E+02  0.64697778197E+01 -0.32792722731E+02  0.40659145629E+02  0.00000000000E+00 0. -1.
         11    1    3    3    0    0 -0.61689993418E+01 -0.10983468720E+02  0.25318052518E+02  0.28278913019E+02  0.51100000000E-03 0.  1.
        -11    1    3    3    0    0 -0.14685640319E+02  0.43560400283E+01  0.10409632544E+02  0.18520355457E+02  0.51100000000E-03 0. -1.
         12    1    3    3    0    0 -0.22958556716E+01  0.15765087166E+00 -0.29349623311E+01  0.37295858948E+01  0.00000000000E+00 0. -1.
</event>
<event>
 7    1  0.6046695E-013  0.5052888E+02  0.7816164E-02  0.1300439E+00
        -11   -1    0    0    0    0  0.00000000000E+00  0.00000000000E+00  0.45593999997E+02  0.45594000000E+02  0.51100000000E-03 0.  1.
         11   -1    0    0    0    0 -0.00000000000E+00 -0.00000000000E+00 -0.45593999997E+02  0.45594000000E+02  0.51100000000E-03 0. -1.
    9900012    2    1    2    0    0 -0.34323134815E+02  0.60903070943E+01  0.20928315226E+02  0.50528882914E+02  0.30000070105E+02 0.  0.
         12    1    1    2    0    0  0.34323134815E+02 -0.60903070943E+01 -0.20928315226E+02  0.40659117086E+02  0.00000000000E+00 0. -1.
         11    1    3    3    0    0 -0.18650450960E+02  0.81873046677E+00  0.67839007256E+01  0.19862803173E+02  0.51100000000E-03 0. -1.
        -11    1    3    3    0    0 -0.24579893431E+00  0.61784667590E+01  0.13897047454E+02  0.15210581738E+02  0.51100000000E-03 0.  1.
        -12    1    3    3    0    0 -0.15426884921E+02 -0.90689013142E+00  0.24736704684E+00  0.15455498003E+02  0.00000000000E+00 0.  1.
</event>
<event>
 7    1  0.6046695E-013  0.5052886E+02  0.7816164E-02  0.1300439E+00
        -11   -1    0    0    0    0  0.00000000000E+00  0.00000000000E+00  0.45593999997E+02  0.45594000000E+02  0.51100000000E-03 0.  1.
         11   -1    0    0    0    0 -0.00000000000E+00 -0.00000000000E+00 -0.45593999997E+02  0.45594000000E+02  0.51100000000E-03 0. -1.
    9900012    2    1    2    0    0 -0.94741739657E+00 -0.55693395296E+01  0.40264750909E+02  0.50528864393E+02  0.30000013810E+02 0.  0.
         12    1    1    2    0    0  0.94741739657E+00  0.55693395296E+01 -0.40264750909E+02  0.40659135607E+02  0.00000000000E+00 0. -1.
         11    1    3    3    0    0 -0.13024593364E+02  0.96532088276E+00  0.13504446296E+02  0.18786749232E+02  0.51100000000E-03 0. -1.
        -11    1    3    3    0    0  0.95793229802E+01 -0.16810935675E+00  0.11158990069E+02  0.14707642542E+02  0.51100000000E-03 0.  1.
         12    1    3    3    0    0  0.24978529874E+01 -0.63665510556E+01  0.15601314545E+02  0.17034472619E+02  0.00000000000E+00 0. -1.
</event>
<event>
 7    1  0.6046695E-013  0.5052886E+02  0.7816164E-02  0.1300439E+00
        -11   -1    0    0    0    0  0.00000000000E+00  0.00000000000E+00  0.45593999997E+02  0.45594000000E+02  0.51100000000E-03 0. -1.
         11   -1    0    0    0    0 -0.00000000000E+00 -0.00000000000E+00 -0.45593999997E+02  0.45594000000E+02  0.51100000000E-03 0.  1.
    9900012    2    1    2    0    0 -0.53269133824E+01  0.38768230016E+02 -0.11036954719E+02  0.50528855467E+02  0.29999986676E+02 0.  0.
         12    1    1    2    0    0  0.53269133824E+01 -0.38768230016E+02  0.11036954719E+02  0.40659144533E+02  0.00000000000E+00 0. -1.
         11    1    3    3    0    0 -0.40464934834E+01  0.36465073700E+01 -0.51727070843E+01  0.75118589146E+01  0.51100000000E-03 0. -1.
        -11    1    3    3    0    0 -0.70079364005E+00  0.26471566020E+02  0.71045192902E+01  0.27417314126E+02  0.51100000000E-03 0.  1.
        -12    1    3    3    0    0 -0.57962625894E+00  0.86501566257E+01 -0.12968766924E+02  0.15599682426E+02  0.00000000000E+00 0.  1.
</event>
<event>
 7    1  0.6046695E-013  0.5052886E+02  0.7816164E-02  0.1300439E+00
        -11   -1    0    0    0    0  0.00000000000E+00  0.00000000000E+00  0.45593999997E+02  0.45594000000E+02  0.51100000000E-03 0. -1.
         11   -1    0    0    0    0 -0.00000000000E+00 -0.00000000000E+00 -0.45593999997E+02  0.45594000000E+02  0.51100000000E-03 0.  1.
    9900012    2    1    2    0    0 -0.28154466990E+02  0.17328333693E+02  0.23668986104E+02  0.50528855109E+02  0.29999985590E+02 0.  0.
         12    1    1    2    0    0  0.28154466990E+02 -0.17328333693E+02 -0.23668986104E+02  0.40659144891E+02  0.00000000000E+00 0. -1.
         11    1    3    3    0    0 -0.38695465058E+01  0.21287324775E+01 -0.65472719762E+01  0.78975732167E+01  0.51100000000E-03 0. -1.
        -11    1    3    3    0    0 -0.21234435678E+02  0.16348073319E+02  0.27350300094E+02  0.38290986867E+02  0.51100000000E-03 0.  1.
        -12    1    3    3    0    0 -0.30504848067E+01 -0.11484721037E+01  0.28659579861E+01  0.43402950253E+01  0.00000000000E+00 0.  1.
</event>
<event>
 7    1  0.6046695E-013  0.5052886E+02  0.7816164E-02  0.1300439E+00
        -11   -1    0    0    0    0  0.00000000000E+00  0.00000000000E+00  0.45593999997E+02  0.45594000000E+02  0.51100000000E-03 0. -1.
         11   -1    0    0    0    0 -0.00000000000E+00 -0.00000000000E+00 -0.45593999997E+02  0.45594000000E+02  0.51100000000E-03 0.  1.
    9900012    2    1    2    0    0 -0.17940033692E+02 -0.48146471584E+01 -0.36168222949E+02  0.50528856042E+02  0.29999988424E+02 0.  0.
         12    1    1    2    0    0  0.17940033692E+02  0.48146471584E+01  0.36168222949E+02  0.40659143958E+02  0.00000000000E+00 0. -1.
         11    1    3    3    0    0  0.56335839294E+01 -0.36407956370E+01 -0.98379402555E+01  0.11907045372E+02  0.51100000000E-03 0. -1.
        -11    1    3    3    0    0 -0.12554772581E+02  0.70271284928E+01 -0.11604043313E+02  0.18483957122E+02  0.51100000000E-03 0.  1.
         12    1    3    3    0    0 -0.11018845040E+02 -0.82009800142E+01 -0.14726239381E+02  0.20137853548E+02  0.00000000000E+00 0. -1.
</event>
<event>
 7    1  0.6046695E-013  0.5052886E+02  0.7816164E-02  0.1300439E+00
        -11   -1    0    0    0    0  0.00000000000E+00  0.00000000000E+00  0.45593999997E+02  0.45594000000E+02  0.51100000000E-03 0.  1.
         11   -1    0    0    0    0 -0.00000000000E+00 -0.00000000000E+00 -0.45593999997E+02  0.45594000000E+02  0.51100000000E-03 0. -1.
    9900012    2    1    2    0    0 -0.72983064964E+00  0.37247328286E+02  0.16287108044E+02  0.50528855818E+02  0.29999987744E+02 0.  0.
         12    1    1    2    0    0  0.72983064964E+00 -0.37247328286E+02 -0.16287108044E+02  0.40659144182E+02  0.00000000000E+00 0. -1.
         11    1    3    3    0    0 -0.62203257740E+01  0.17715931652E+02 -0.40838320207E+01  0.19215211976E+02  0.51100000000E-03 0. -1.
        -11    1    3    3    0    0  0.74759262500E+00  0.17623925086E+02  0.11444735272E+02  0.21027210844E+02  0.51100000000E-03 0.  1.
         12    1    3    3    0    0  0.47429024994E+01  0.19074715477E+01  0.89262047928E+01  0.10286432998E+02  0.00000000000E+00 0. -1.
</event>
<event>
 7    1  0.6046695E-013  0.5052886E+02  0.7816164E-02  0.1300439E+00
        -11   -1    0    0    0    0  0.00000000000E+00  0.00000000000E+00  0.45593999997E+02  0.45594000000E+02  0.51100000000E-03 0.  1.
         11   -1    0    0    0    0 -0.00000000000E+00 -0.00000000000E+00 -0.45593999997E+02  0.45594000000E+02  0.51100000000E-03 0. -1.
    9900012    2    1    2    0    0  0.27518362960E+02  0.18904991090E+02  0.23205751960E+02  0.50528856967E+02  0.29999991237E+02 0.  0.
         12    1    1    2    0    0 -0.27518362960E+02 -0.18904991090E+02 -0.23205751960E+02  0.40659143033E+02  0.00000000000E+00 0. -1.
         11    1    3    3    0    0 -0.87651439477E+00 -0.44646652397E+00 -0.16868833226E+01  0.19527379359E+01  0.51100000000E-03 0. -1.
        -11    1    3    3    0    0  0.24504073064E+02  0.15661312439E+02  0.29559918372E+02  0.41467036046E+02  0.51100000000E-03 0.  1.
        -12    1    3    3    0    0  0.38908042913E+01  0.36901451758E+01 -0.46672830895E+01  0.71090829851E+01  0.00000000000E+00 0.  1.
</event>
<event>
 7    1  0.6046695E-013  0.5052886E+02  0.7816164E-02  0.1300439E+00
        -11   -1    0    0    0    0  0.00000000000E+00  0.00000000000E+00  0.45593999997E+02  0.45594000000E+02  0.51100000000E-03 0.  1.
         11   -1    0    0    0    0 -0.00000000000E+00 -0.00000000000E+00 -0.45593999997E+02  0.45594000000E+02  0.51100000000E-03 0. -1.
    9900012    2    1    2    0    0  0.40418038711E+02  0.25346542324E+01 -0.36226704729E+01  0.50528855068E+02  0.29999985463E+02 0.  0.
         12    1    1    2    0    0 -0.40418038711E+02 -0.25346542324E+01  0.36226704729E+01  0.40659144932E+02  0.00000000000E+00 0. -1.
         11    1    3    3    0    0  0.30083562835E+02 -0.95279023115E+00  0.10042454106E+02  0.31729788004E+02  0.51100000000E-03 0. -1.
        -11    1    3    3    0    0  0.93565432132E+01  0.80029871824E-01 -0.10205423881E+02  0.13845648505E+02  0.51100000000E-03 0.  1.
         12    1    3    3    0    0  0.97793266265E+00  0.34074145917E+01 -0.34597006977E+01  0.49534185580E+01  0.00000000000E+00 0. -1.
</event>
<event>
 7    1  0.6046695E-013  0.5052888E+02  0.7816164E-02  0.1300439E+00
        -11   -1    0    0    0    0  0.00000000000E+00  0.00000000000E+00  0.45593999997E+02  0.45594000000E+02  0.51100000000E-03 0.  1.
         11   -1    0    0    0    0 -0.00000000000E+00 -0.00000000000E+00 -0.45593999997E+02  0.45594000000E+02  0.51100000000E-03 0. -1.
    9900012    2    1    2    0    0  0.16991089099E+02 -0.33619793900E+02  0.15302831810E+02  0.50528876645E+02  0.30000051049E+02 0.  0.
         12    1    1    2    0    0 -0.16991089099E+02  0.33619793900E+02 -0.15302831810E+02  0.40659123355E+02  0.00000000000E+00 0. -1.
         11    1    3    3    0    0  0.22680692157E+02 -0.19532965700E+02  0.18192004958E+01  0.29987664739E+02  0.51100000000E-03 0. -1.
        -11    1    3    3    0    0 -0.46462299512E+01 -0.10107948016E+02  0.80764214268E+01  0.13747241512E+02  0.51100000000E-03 0.  1.
         12    1    3    3    0    0 -0.10433731072E+01 -0.39788801836E+01  0.54072098872E+01  0.67939703944E+01  0.00000000000E+00 0. -1.
</event>
<event>
 7    1  0.6046695E-013  0.5052885E+02  0.7816164E-02  0.1300439E+00
        -11   -1    0    0    0    0  0.00000000000E+00  0.00000000000E+00  0.45593999997E+02  0.45594000000E+02  0.51100000000E-03 0.  1.
         11   -1    0    0    0    0 -0.00000000000E+00 -0.00000000000E+00 -0.45593999997E+02  0.45594000000E+02  0.51100000000E-03 0. -1.
    9900012    2    1    2    0    0  0.36808103530E+02  0.11662359607E+02  0.12740473115E+02  0.50528846390E+02  0.29999959088E+02 0.  0.
         12    1    1    2    0    0 -0.36808103530E+02 -0.11662359607E+02 -0.12740473115E+02  0.40659153610E+02  0.00000000000E+00 0. -1.
         11    1    3    3    0    0  0.28005752543E+02  0.60910390934E+01  0.44948018811E+00  0.28664001211E+02  0.51100000000E-03 0. -1.
        -11    1    3    3    0    0  0.73460634505E+01  0.56415231275E+01  0.15659854885E+02  0.18194023378E+02  0.51100000000E-03 0.  1.
        -12    1    3    3    0    0  0.14562875362E+01 -0.70202613744E-01 -0.33688619586E+01  0.36708218005E+01  0.00000000000E+00 0.  1.
</event>
<event>
 7    1  0.6046695E-013  0.5052886E+02  0.7816164E-02  0.1300439E+00
        -11   -1    0    0    0    0  0.00000000000E+00  0.00000000000E+00  0.45593999997E+02  0.45594000000E+02  0.51100000000E-03 0.  1.
         11   -1    0    0    0    0 -0.00000000000E+00 -0.00000000000E+00 -0.45593999997E+02  0.45594000000E+02  0.51100000000E-03 0. -1.
    9900012    2    1    2    0    0 -0.38348664351E+01  0.38819665043E+02  0.11467046912E+02  0.50528858845E+02  0.29999996945E+02 0.  0.
         12    1    1    2    0    0  0.38348664351E+01 -0.38819665043E+02 -0.11467046912E+02  0.40659141155E+02  0.00000000000E+00 0. -1.
         11    1    3    3    0    0  0.35300090823E+01 -0.16828707388E+01 -0.20153159290E+01  0.43993768421E+01  0.51100000000E-03 0. -1.
        -11    1    3    3    0    0 -0.55088236496E+01  0.16392661707E+02  0.13515144715E+02  0.21948248968E+02  0.51100000000E-03 0.  1.
         12    1    3    3    0    0 -0.18560518678E+01  0.24109874075E+02 -0.32781873507E-01  0.24181233035E+02  0.00000000000E+00 0. -1.
</event>
<event>
 7    1  0.6046695E-013  0.5052886E+02  0.7816164E-02  0.1300439E+00
        -11   -1    0    0    0    0  0.00000000000E+00  0.00000000000E+00  0.45593999997E+02  0.45594000000E+02  0.51100000000E-03 0. -1.
         11   -1    0    0    0    0 -0.00000000000E+00 -0.00000000000E+00 -0.45593999997E+02  0.45594000000E+02  0.51100000000E-03 0.  1.
    9900012    2    1    2    0    0  0.38211470893E+02 -0.65614268433E+01 -0.12247319450E+02  0.50528860022E+02  0.30000000524E+02 0.  0.
         12    1    1    2    0    0 -0.38211470893E+02  0.65614268433E+01  0.12247319450E+02  0.40659139978E+02  0.00000000000E+00 0. -1.
         11    1    3    3    0    0 -0.21982221847E+01  0.20068637341E+01 -0.13527479161E-01  0.29765527166E+01  0.51100000000E-03 0. -1.
        -11    1    3    3    0    0  0.25804256916E+02 -0.15086407803E+02 -0.91873652307E+01  0.31270865922E+02  0.51100000000E-03 0.  1.
         12    1    3    3    0    0  0.14605436162E+02  0.65181172255E+01 -0.30464267397E+01  0.16281441383E+02  0.00000000000E+00 0. -1.
</event>
<event>
 7    1  0.6046695E-013  0.5052886E+02  0.7816164E-02  0.1300439E+00
        -11   -1    0    0    0    0  0.00000000000E+00  0.00000000000E+00  0.45593999997E+02  0.45594000000E+02  0.51100000000E-03 0.  1.
         11   -1    0    0    0    0 -0.00000000000E+00 -0.00000000000E+00 -0.45593999997E+02  0.45594000000E+02  0.51100000000E-03 0. -1.
    9900012    2    1    2    0    0 -0.20195206629E+01 -0.29790366504E+02  0.27597485620E+02  0.50528860650E+02  0.30000002432E+02 0.  0.
         12    1    1    2    0    0  0.20195206629E+01  0.29790366504E+02 -0.27597485620E+02  0.40659139350E+02  0.00000000000E+00 0. -1.
         11    1    3    3    0    0  0.98049619160E+00  0.13796601530E+01 -0.11812134016E+01  0.20640010370E+01  0.51100000000E-03 0. -1.
        -11    1    3    3    0    0 -0.11446442657E+01 -0.17468274600E+02  0.29841582136E+02  0.34597266548E+02  0.51100000000E-03 0.  1.
        -12    1    3    3    0    0 -0.18553725888E+01 -0.13701752057E+02 -0.10628831146E+01  0.13867593065E+02  0.00000000000E+00 0.  1.
</event>
<event>
 7    1  0.6046695E-013  0.5052893E+02  0.7816164E-02  0.1300439E+00
        -11   -1    0    0    0    0  0.00000000000E+00  0.00000000000E+00  0.45593999997E+02  0.45594000000E+02  0.51100000000E-03 0.  1.
         11   -1    0    0    0    0 -0.00000000000E+00 -0.00000000000E+00 -0.45593999997E+02  0.45594000000E+02  0.51100000000E-03 0. -1.
    9900012    2    1    2    0    0  0.38726260133E+02 -0.53537491607E+01  0.11170234335E+02  0.50528929805E+02  0.30000212635E+02 0.  0.
         12    1    1    2    0    0 -0.38726260133E+02  0.53537491607E+01 -0.11170234335E+02  0.40659070195E+02  0.00000000000E+00 0. -1.
         11    1    3    3    0    0  0.10935928582E+02 -0.39735915262E+01 -0.91440986866E+01  0.14798598063E+02  0.51100000000E-03 0. -1.
        -11    1    3    3    0    0  0.34488414489E+01 -0.29345309635E+01  0.57601066659E+01  0.73269917687E+01  0.51100000000E-03 0.  1.
         12    1    3    3    0    0  0.24341490102E+02  0.15543733290E+01  0.14554226356E+02  0.28403339974E+02  0.00000000000E+00 0. -1.
</event>
<event>
 7    1  0.6046695E-013  0.5052886E+02  0.7816164E-02  0.1300439E+00
        -11   -1    0    0    0    0  0.00000000000E+00  0.00000000000E+00  0.45593999997E+02  0.45594000000E+02  0.51100000000E-03 0. -1.
         11   -1    0    0    0    0 -0.00000000000E+00 -0.00000000000E+00 -0.45593999997E+02  0.45594000000E+02  0.51100000000E-03 0.  1.
    9900012    2    1    2    0    0  0.32292836428E+02 -0.16434175727E+02 -0.18446040660E+02  0.50528857948E+02  0.29999994218E+02 0.  0.
         12    1    1    2    0    0 -0.32292836428E+02  0.16434175727E+02  0.18446040660E+02  0.40659142052E+02  0.00000000000E+00 0. -1.
         11    1    3    3    0    0  0.17373516535E+02 -0.18430064666E+02 -0.43364362747E+01  0.25696518057E+02  0.51100000000E-03 0. -1.
        -11    1    3    3    0    0  0.68683039637E+01 -0.19568017639E+01 -0.14164678463E+02  0.15863189739E+02  0.51100000000E-03 0.  1.
         12    1    3    3    0    0  0.80510159290E+01  0.39526907039E+01  0.55074077544E-01  0.89691501517E+01  0.00000000000E+00 0. -1.
</event>
<event>
 7    1  0.6046695E-013  0.5052886E+02  0.7816164E-02  0.1300439E+00
        -11   -1    0    0    0    0  0.00000000000E+00  0.00000000000E+00  0.45593999997E+02  0.45594000000E+02  0.51100000000E-03 0.  1.
         11   -1    0    0    0    0 -0.00000000000E+00 -0.00000000000E+00 -0.45593999997E+02  0.45594000000E+02  0.51100000000E-03 0. -1.
    9900012    2    1    2    0    0  0.36879771514E+02  0.37763523147E+01  0.16696922470E+02  0.50528860761E+02  0.30000002768E+02 0.  0.
         12    1    1    2    0    0 -0.36879771514E+02 -0.37763523147E+01 -0.16696922470E+02  0.40659139239E+02  0.00000000000E+00 0. -1.
         11    1    3    3    0    0  0.62916412954E+00  0.21998139964E+01 -0.57108799273E+01  0.61521686360E+01  0.51100000000E-03 0. -1.
        -11    1    3    3    0    0  0.24175573038E+02 -0.76461775903E+00  0.80981585014E+01  0.25507315488E+02  0.51100000000E-03 0.  1.
         12    1    3    3    0    0  0.12075034347E+02  0.23411560773E+01  0.14309643896E+02  0.18869376637E+02  0.00000000000E+00 0. -1.
</event>
<event>
 7    1  0.6046695E-013  0.5052881E+02  0.7816164E-02  0.1300439E+00
        -11   -1    0    0    0    0  0.00000000000E+00  0.00000000000E+00  0.45593999997E+02  0.45594000000E+02  0.51100000000E-03 0. -1.
         11   -1    0    0    0    0 -0.00000000000E+00 -0.00000000000E+00 -0.45593999997E+02  0.45594000000E+02  0.51100000000E-03 0.  1.
    9900012    2    1    2    0    0  0.24802508926E+02 -0.25941022249E+02 -0.19106767484E+02  0.50528811025E+02  0.29999851593E+02 0.  0.
         12    1    1    2    0    0 -0.24802508926E+02  0.25941022249E+02  0.19106767484E+02  0.40659188975E+02  0.00000000000E+00 0. -1.
         11    1    3    3    0    0  0.95197616285E+01 -0.27118412548E+01  0.21027133841E+00  0.99007150627E+01  0.51100000000E-03 0. -1.
        -11    1    3    3    0    0  0.17286590246E+01 -0.21787164985E+02 -0.95041901060E+01  0.23832718056E+02  0.51100000000E-03 0.  1.
        -12    1    3    3    0    0  0.13554088273E+02 -0.14420160091E+01 -0.98128487168E+01  0.16795377907E+02  0.00000000000E+00 0.  1.
</event>
<event>
 7    1  0.6046695E-013  0.5052886E+02  0.7816164E-02  0.1300439E+00
        -11   -1    0    0    0    0  0.00000000000E+00  0.00000000000E+00  0.45593999997E+02  0.45594000000E+02  0.51100000000E-03 0.  1.
         11   -1    0    0    0    0 -0.00000000000E+00 -0.00000000000E+00 -0.45593999997E+02  0.45594000000E+02  0.51100000000E-03 0. -1.
    9900012    2    1    2    0    0  0.25929342654E+02 -0.31297239332E+02  0.11480183514E+01  0.50528856546E+02  0.29999989957E+02 0.  0.
         12    1    1    2    0    0 -0.25929342654E+02  0.31297239332E+02 -0.11480183514E+01  0.40659143454E+02  0.00000000000E+00 0. -1.
         11    1    3    3    0    0 -0.12167128588E+01  0.10317799028E+01  0.38420932513E+01  0.41601250897E+01  0.51100000000E-03 0. -1.
        -11    1    3    3    0    0  0.15252239877E+02 -0.21740184580E+02 -0.10594658263E+02  0.28592188283E+02  0.51100000000E-03 0.  1.
        -12    1    3    3    0    0  0.11893815635E+02 -0.10588834655E+02  0.79005833628E+01  0.17776543173E+02  0.00000000000E+00 0.  1.
</event>
<event>
 7    1  0.6046695E-013  0.5052885E+02  0.7816164E-02  0.1300439E+00
        -11   -1    0    0    0    0  0.00000000000E+00  0.00000000000E+00  0.45593999997E+02  0.45594000000E+02  0.51100000000E-03 0.  1.
         11   -1    0    0    0    0 -0.00000000000E+00 -0.00000000000E+00 -0.45593999997E+02  0.45594000000E+02  0.51100000000E-03 0. -1.
    9900012    2    1    2    0    0 -0.72696289348E+00  0.31265754860E+02  0.25982499979E+02  0.50528853339E+02  0.29999980210E+02 0.  0.
         12    1    1    2    0    0  0.72696289348E+00 -0.31265754860E+02 -0.25982499979E+02  0.40659146661E+02  0.00000000000E+00 0. -1.
         11    1    3    3    0    0  0.73426262051E+01  0.41866661765E+01 -0.19679581759E+01  0.86784326295E+01  0.51100000000E-03 0. -1.
        -11    1    3    3    0    0 -0.50201021457E+01  0.16684921534E+02  0.25264502408E+02  0.30690114277E+02  0.51100000000E-03 0.  1.
         12    1    3    3    0    0 -0.30494869529E+01  0.10394167149E+02  0.26859557477E+01  0.11160306433E+02  0.00000000000E+00 0. -1.
</event>
<event>
 7    1  0.6046695E-013  0.5052885E+02  0.7816164E-02  0.1300439E+00
        -11   -1    0    0    0    0  0.00000000000E+00  0.00000000000E+00  0.45593999997E+02  0.45594000000E+02  0.51100000000E-03 0.  1.
         11   -1    0    0    0    0 -0.00000000000E+00 -0.00000000000E+00 -0.45593999997E+02  0.45594000000E+02  0.51100000000E-03 0. -1.
    9900012    2    1    2    0    0  0.30768615647E+02  0.15591595601E+00  0.26578833303E+02  0.50528850988E+02  0.29999973063E+02 0.  0.
         12    1    1    2    0    0 -0.30768615647E+02 -0.15591595601E+00 -0.26578833303E+02  0.40659149012E+02  0.00000000000E+00 0. -1.
         11    1    3    3    0    0  0.39536778733E+01  0.11668780567E+01  0.23124607312E+01  0.47265894702E+01  0.51100000000E-03 0. -1.
        -11    1    3    3    0    0  0.24117373123E+02 -0.10864668209E+02  0.10051594350E+02  0.28297053749E+02  0.51100000000E-03 0.  1.
        -12    1    3    3    0    0  0.26975646510E+01  0.98537061086E+01  0.14214778222E+02  0.17505207768E+02  0.00000000000E+00 0.  1.
</event>
<event>
 7    1  0.6046695E-013  0.5052886E+02  0.7816164E-02  0.1300439E+00
        -11   -1    0    0    0    0  0.00000000000E+00  0.00000000000E+00  0.45593999997E+02  0.45594000000E+02  0.51100000000E-03 0. -1.
         11   -1    0    0    0    0 -0.00000000000E+00 -0.00000000000E+00 -0.45593999997E+02  0.45594000000E+02  0.51100000000E-03 0.  1.
    9900012    2    1    2    0    0 -0.47451482471E+01 -0.31922378312E+02 -0.24730775416E+02  0.50528856850E+02  0.29999990882E+02 0.  0.
         12    1    1    2    0    0  0.47451482471E+01  0.31922378312E+02  0.24730775416E+02  0.40659143150E+02  0.00000000000E+00 0. -1.
         11    1    3    3    0    0  0.10794124197E+02 -0.66275601759E+01 -0.10186126416E+02  0.16254071573E+02  0.51100000000E-03 0. -1.
        -11    1    3    3    0    0 -0.84648004827E+00 -0.21476007571E+01 -0.45338202832E+01  0.50876560522E+01  0.51100000000E-03 0.  1.
         12    1    3    3    0    0 -0.14692792396E+02 -0.23147217379E+02 -0.10010828717E+02  0.29187129225E+02  0.00000000000E+00 0. -1.
</event>
<event>
 7    1  0.6046695E-013  0.5052886E+02  0.7816164E-02  0.1300439E+00
        -11   -1    0    0    0    0  0.00000000000E+00  0.00000000000E+00  0.45593999997E+02  0.45594000000E+02  0.51100000000E-03 0.  1.
         11   -1    0    0    0    0 -0.00000000000E+00 -0.00000000000E+00 -0.45593999997E+02  0.45594000000E+02  0.51100000000E-03 0. -1.
    9900012    2    1    2    0    0 -0.29504029665E+02  0.14742274673E+02 -0.23776943538E+02  0.50528862368E+02  0.30000007653E+02 0.  0.
         12    1    1    2    0    0  0.29504029665E+02 -0.14742274673E+02  0.23776943538E+02  0.40659137632E+02  0.00000000000E+00 0. -1.
         11    1    3    3    0    0  0.41448167065E+00  0.28895716478E+01  0.34933242300E+01  0.45524426191E+01  0.51100000000E-03 0. -1.
        -11    1    3    3    0    0 -0.30879660427E+02  0.13636244576E+02 -0.21903814546E+02  0.40240249578E+02  0.51100000000E-03 0.  1.
         12    1    3    3    0    0  0.96114909154E+00 -0.17835415502E+01 -0.53664532223E+01  0.57361701705E+01  0.00000000000E+00 0. -1.
</event>
<event>
 7    1  0.6046695E-013  0.5052886E+02  0.7816164E-02  0.1300439E+00
        -11   -1    0    0    0    0  0.00000000000E+00  0.00000000000E+00  0.45593999997E+02  0.45594000000E+02  0.51100000000E-03 0.  1.
         11   -1    0    0    0    0 -0.00000000000E+00 -0.00000000000E+00 -0.45593999997E+02  0.45594000000E+02  0.51100000000E-03 0. -1.
    9900012    2    1    2    0    0 -0.17481889349E+02 -0.36498365339E-01  0.36708959925E+02  0.50528861715E+02  0.30000005669E+02 0.  0.
         12    1    1    2    0    0  0.17481889349E+02  0.36498365339E-01 -0.36708959925E+02  0.40659138285E+02  0.00000000000E+00 0. -1.
         11    1    3    3    0    0 -0.75535867264E-01 -0.11485214901E+02  0.79417918629E+01  0.13963807692E+02  0.51100000000E-03 0. -1.
        -11    1    3    3    0    0 -0.33212894242E+01 -0.57450507713E+00  0.83274845771E+01  0.89837641980E+01  0.51100000000E-03 0.  1.
         12    1    3    3    0    0 -0.14085064058E+02  0.12023221613E+02  0.20439683485E+02  0.27581289825E+02  0.00000000000E+00 0. -1.
</event>
<event>
 7    1  0.6046695E-013  0.5052886E+02  0.7816164E-02  0.1300439E+00
        -11   -1    0    0    0    0  0.00000000000E+00  0.00000000000E+00  0.45593999997E+02  0.45594000000E+02  0.51100000000E-03 0. -1.
         11   -1    0    0    0    0 -0.00000000000E+00 -0.00000000000E+00 -0.45593999997E+02  0.45594000000E+02  0.51100000000E-03 0.  1.
    9900012    2    1    2    0    0  0.13823552819E+02 -0.38117206638E+02  0.30255023603E+01  0.50528859343E+02  0.29999998458E+02 0.  0.
         12    1    1    2    0    0 -0.13823552819E+02  0.38117206638E+02 -0.30255023603E+01  0.40659140657E+02  0.00000000000E+00 0. -1.
         11    1    3    3    0    0  0.10883222577E+02 -0.61097269942E+01  0.91619351545E+01  0.15482711443E+02  0.51100000000E-03 0. -1.
        -11    1    3    3    0    0  0.11376660426E+01 -0.30583484362E+02 -0.24500397774E+01  0.30702548672E+02  0.51100000000E-03 0.  1.
         12    1    3    3    0    0  0.18026641992E+01 -0.14239952820E+01 -0.36863930168E+01  0.43435992279E+01  0.00000000000E+00 0. -1.
</event>
<event>
 7    1  0.6046695E-013  0.5052886E+02  0.7816164E-02  0.1300439E+00
        -11   -1    0    0    0    0  0.00000000000E+00  0.00000000000E+00  0.45593999997E+02  0.45594000000E+02  0.51100000000E-03 0.  1.
         11   -1    0    0    0    0 -0.00000000000E+00 -0.00000000000E+00 -0.45593999997E+02  0.45594000000E+02  0.51100000000E-03 0. -1.
    9900012    2    1    2    0    0  0.19629963475E+02 -0.35341603753E+02 -0.43360830536E+01  0.50528855418E+02  0.29999986529E+02 0.  0.
         12    1    1    2    0    0 -0.19629963475E+02  0.35341603753E+02  0.43360830536E+01  0.40659144582E+02  0.00000000000E+00 0. -1.
         11    1    3    3    0    0  0.14159862132E+01 -0.21097217020E+02  0.89073129099E+01  0.22944232532E+02  0.51100000000E-03 0. -1.
        -11    1    3    3    0    0  0.14296101717E+02 -0.14372732868E+02 -0.11314579020E+02  0.23215806535E+02  0.51100000000E-03 0.  1.
        -12    1    3    3    0    0  0.39178755448E+01  0.12834613439E+00 -0.19288169436E+01  0.43688163519E+01  0.00000000000E+00 0.  1.
</event>
<event>
 7    1  0.6046695E-013  0.5052886E+02  0.7816164E-02  0.1300439E+00
        -11   -1    0    0    0    0  0.00000000000E+00  0.00000000000E+00  0.45593999997E+02  0.45594000000E+02  0.51100000000E-03 0.  1.
         11   -1    0    0    0    0 -0.00000000000E+00 -0.00000000000E+00 -0.45593999997E+02  0.45594000000E+02  0.51100000000E-03 0. -1.
    9900012    2    1    2    0    0  0.10152566872E+02 -0.16099894013E+02  0.35928880193E+02  0.50528860397E+02  0.30000001663E+02 0.  0.
         12    1    1    2    0    0 -0.10152566872E+02  0.16099894013E+02 -0.35928880193E+02  0.40659139603E+02  0.00000000000E+00 0. -1.
         11    1    3    3    0    0  0.11101195104E+01 -0.93412745958E+01 -0.22042325578E+01  0.96618019971E+01  0.51100000000E-03 0. -1.
        -11    1    3    3    0    0  0.81782650807E+01 -0.33371806805E+00  0.20007386481E+02  0.21616912396E+02  0.51100000000E-03 0.  1.
         12    1    3    3    0    0  0.86418228119E+00 -0.64249013496E+01  0.18125726270E+02  0.19250146004E+02  0.00000000000E+00 0. -1.
</event>
<event>
 7    1  0.6046695E-013  0.5052886E+02  0.7816164E-02  0.1300439E+00
        -11   -1    0    0    0    0  0.00000000000E+00  0.00000000000E+00  0.45593999997E+02  0.45594000000E+02  0.51100000000E-03 0. -1.
         11   -1    0    0    0    0 -0.00000000000E+00 -0.00000000000E+00 -0.45593999997E+02  0.45594000000E+02  0.51100000000E-03 0.  1.
    9900012    2    1    2    0    0  0.33197508014E+02 -0.19657808552E+02 -0.12832071786E+02  0.50528855373E+02  0.29999986393E+02 0.  0.
         12    1    1    2    0    0 -0.33197508014E+02  0.19657808552E+02  0.12832071786E+02  0.40659144627E+02  0.00000000000E+00 0. -1.
         11    1    3    3    0    0 -0.42934277334E+01 -0.12504017018E+01 -0.13582610535E+01  0.46735317981E+01  0.51100000000E-03 0. -1.
        -11    1    3    3    0    0  0.26578548334E+02 -0.81400136572E+01 -0.14632579729E+01  0.27835591929E+02  0.51100000000E-03 0.  1.
        -12    1    3    3    0    0  0.10912387414E+02 -0.10267393193E+02 -0.10010552760E+02  0.18019731647E+02  0.00000000000E+00 0.  1.
</event>
<event>
 7    1  0.6046695E-013  0.5052886E+02  0.7816164E-02  0.1300439E+00
        -11   -1    0    0    0    0  0.00000000000E+00  0.00000000000E+00  0.45593999997E+02  0.45594000000E+02  0.51100000000E-03 0. -1.
         11   -1    0    0    0    0 -0.00000000000E+00 -0.00000000000E+00 -0.45593999997E+02  0.45594000000E+02  0.51100000000E-03 0.  1.
    9900012    2    1    2    0    0 -0.30468949115E+02 -0.24991645337E+01 -0.26806030389E+02  0.50528856517E+02  0.29999989869E+02 0.  0.
         12    1    1    2    0    0  0.30468949115E+02  0.24991645337E+01  0.26806030389E+02  0.40659143483E+02  0.00000000000E+00 0. -1.
         11    1    3    3    0    0  0.24438602068E+01 -0.58910427580E+01 -0.19203574826E+01  0.66606764378E+01  0.51100000000E-03 0. -1.
        -11    1    3    3    0    0 -0.27162685672E+02  0.45640888266E+01 -0.12673731930E+02  0.30319397768E+02  0.51100000000E-03 0.  1.
         12    1    3    3    0    0 -0.57501236503E+01 -0.11722106023E+01 -0.12211940977E+02  0.13548782311E+02  0.00000000000E+00 0. -1.
</event>
<event>
 7    1  0.6046695E-013  0.5052886E+02  0.7816164E-02  0.1300439E+00
        -11   -1    0    0    0    0  0.00000000000E+00  0.00000000000E+00  0.45593999997E+02  0.45594000000E+02  0.51100000000E-03 0.  1.
         11   -1    0    0    0    0 -0.00000000000E+00 -0.00000000000E+00 -0.45593999997E+02  0.45594000000E+02  0.51100000000E-03 0. -1.
    9900012    2    1    2    0    0 -0.15350862019E+02  0.36196366657E+02  0.10360483118E+02  0.50528861614E+02  0.30000005361E+02 0.  0.
         12    1    1    2    0    0  0.15350862019E+02 -0.36196366657E+02 -0.10360483118E+02  0.40659138386E+02  0.00000000000E+00 0. -1.
         11    1    3    3    0    0 -0.13307688369E+02  0.27846007112E+01  0.27386273519E+01  0.13868981610E+02  0.51100000000E-03 0. -1.
        -11    1    3    3    0    0 -0.24658780670E+01  0.29439986075E+02  0.10903005123E+02  0.31490774137E+02  0.51100000000E-03 0.  1.
         12    1    3    3    0    0  0.42270441690E+00  0.39717798703E+01 -0.32811493571E+01  0.51691058671E+01  0.00000000000E+00 0. -1.
</event>
<event>
 7    1  0.6046695E-013  0.5052887E+02  0.7816164E-02  0.1300439E+00
        -11   -1    0    0    0    0  0.00000000000E+00  0.00000000000E+00  0.45593999997E+02  0.45594000000E+02  0.51100000000E-03 0. -1.
         11   -1    0    0    0    0 -0.00000000000E+00 -0.00000000000E+00 -0.45593999997E+02  0.45594000000E+02  0.51100000000E-03 0.  1.
    9900012    2    1    2    0    0 -0.69432592250E+01 -0.14868698470E+02 -0.37200509925E+02  0.50528868411E+02  0.30000026023E+02 0.  0.
         12    1    1    2    0    0  0.69432592250E+01  0.14868698470E+02  0.37200509925E+02  0.40659131589E+02  0.00000000000E+00 0. -1.
         11    1    3    3    0    0 -0.51817356538E+01  0.47339060366E+01 -0.28026642781E-01  0.70186206981E+01  0.51100000000E-03 0. -1.
        -11    1    3    3    0    0  0.10023065980E+01 -0.14801354687E+02 -0.16868242778E+02  0.22463800519E+02  0.51100000000E-03 0.  1.
        -12    1    3    3    0    0 -0.27638301691E+01 -0.48012498200E+01 -0.20304240504E+02  0.21046447194E+02  0.00000000000E+00 0.  1.
</event>
<event>
 7    1  0.6046695E-013  0.5052886E+02  0.7816164E-02  0.1300439E+00
        -11   -1    0    0    0    0  0.00000000000E+00  0.00000000000E+00  0.45593999997E+02  0.45594000000E+02  0.51100000000E-03 0. -1.
         11   -1    0    0    0    0 -0.00000000000E+00 -0.00000000000E+00 -0.45593999997E+02  0.45594000000E+02  0.51100000000E-03 0.  1.
    9900012    2    1    2    0    0 -0.73345307752E+01 -0.30646768428E+01 -0.39874531052E+02  0.50528858193E+02  0.29999994963E+02 0.  0.
         12    1    1    2    0    0  0.73345307752E+01  0.30646768428E+01  0.39874531052E+02  0.40659141807E+02  0.00000000000E+00 0. -1.
         11    1    3    3    0    0 -0.12449993151E+02  0.50604306980E+01 -0.18919267300E+02  0.23206657746E+02  0.51100000000E-03 0. -1.
        -11    1    3    3    0    0  0.57943310282E+01 -0.12589845305E+01 -0.75656449613E+00  0.59776002050E+01  0.51100000000E-03 0.  1.
        -12    1    3    3    0    0 -0.67886865259E+00 -0.68661230103E+01 -0.20198699256E+02  0.21344600242E+02  0.00000000000E+00 0.  1.
</event>
<event>
 7    1  0.6046695E-013  0.5052881E+02  0.7816164E-02  0.1300439E+00
        -11   -1    0    0    0    0  0.00000000000E+00  0.00000000000E+00  0.45593999997E+02  0.45594000000E+02  0.51100000000E-03 0. -1.
         11   -1    0    0    0    0 -0.00000000000E+00 -0.00000000000E+00 -0.45593999997E+02  0.45594000000E+02  0.51100000000E-03 0.  1.
    9900012    2    1    2    0    0  0.38290773547E+02  0.13089214287E+02 -0.39571312117E+01  0.50528809687E+02  0.29999847525E+02 0.  0.
         12    1    1    2    0    0 -0.38290773547E+02 -0.13089214287E+02  0.39571312117E+01  0.40659190313E+02  0.00000000000E+00 0. -1.
         11    1    3    3    0    0  0.40880977183E+01  0.15108511899E+02 -0.34920737156E+01  0.16036653449E+02  0.51100000000E-03 0. -1.
        -11    1    3    3    0    0  0.10108623744E+02 -0.22600103728E+01  0.57840917081E+00  0.10374318209E+02  0.51100000000E-03 0.  1.
         12    1    3    3    0    0  0.24094052085E+02  0.24071276081E+00 -0.10434666669E+01  0.24117838029E+02  0.00000000000E+00 0. -1.
</event>
<event>
 7    1  0.6046695E-013  0.5052885E+02  0.7816164E-02  0.1300439E+00
        -11   -1    0    0    0    0  0.00000000000E+00  0.00000000000E+00  0.45593999997E+02  0.45594000000E+02  0.51100000000E-03 0.  1.
         11   -1    0    0    0    0 -0.00000000000E+00 -0.00000000000E+00 -0.45593999997E+02  0.45594000000E+02  0.51100000000E-03 0. -1.
    9900012    2    1    2    0    0 -0.12173538683E+02  0.19610564741E+02  0.33472337460E+02  0.50528847666E+02  0.29999962965E+02 0.  0.
         12    1    1    2    0    0  0.12173538683E+02 -0.19610564741E+02 -0.33472337460E+02  0.40659152334E+02  0.00000000000E+00 0. -1.
         11    1    3    3    0    0 -0.79063749796E+01  0.89674142160E+00  0.29361072590E+01  0.84814878761E+01  0.51100000000E-03 0. -1.
        -11    1    3    3    0    0 -0.24418949051E+01  0.20672826078E+02  0.32591364524E+02  0.38672026461E+02  0.51100000000E-03 0.  1.
        -12    1    3    3    0    0 -0.18252687985E+01 -0.19590027590E+01 -0.20551343229E+01  0.33753333290E+01  0.00000000000E+00 0.  1.
</event>
<event>
 7    1  0.6046695E-013  0.5052885E+02  0.7816164E-02  0.1300439E+00
        -11   -1    0    0    0    0  0.00000000000E+00  0.00000000000E+00  0.45593999997E+02  0.45594000000E+02  0.51100000000E-03 0. -1.
         11   -1    0    0    0    0 -0.00000000000E+00 -0.00000000000E+00 -0.45593999997E+02  0.45594000000E+02  0.51100000000E-03 0.  1.
    9900012    2    1    2    0    0 -0.29315505871E+02  0.28139558669E+02  0.13901553901E+01  0.50528853691E+02  0.29999981279E+02 0.  0.
         12    1    1    2    0    0  0.29315505871E+02 -0.28139558669E+02 -0.13901553901E+01  0.40659146309E+02  0.00000000000E+00 0. -1.
         11    1    3    3    0    0  0.56314102306E+01  0.76503413926E+01 -0.22815629512E+01  0.97696486308E+01  0.51100000000E-03 0. -1.
        -11    1    3    3    0    0 -0.23806224540E+02  0.14805855979E+02  0.34906553341E+01  0.28251272060E+02  0.51100000000E-03 0.  1.
         12    1    3    3    0    0 -0.11140691562E+02  0.56833612980E+01  0.18106300715E+00  0.12507933000E+02  0.00000000000E+00 0. -1.
</event>
<event>
 7    1  0.6046695E-013  0.5052887E+02  0.7816164E-02  0.1300439E+00
        -11   -1    0    0    0    0  0.00000000000E+00  0.00000000000E+00  0.45593999997E+02  0.45594000000E+02  0.51100000000E-03 0.  1.
         11   -1    0    0    0    0 -0.00000000000E+00 -0.00000000000E+00 -0.45593999997E+02  0.45594000000E+02  0.51100000000E-03 0. -1.
    9900012    2    1    2    0    0  0.15032477818E+02  0.24392287079E+02  0.28847974318E+02  0.50528872113E+02  0.30000037275E+02 0.  0.
         12    1    1    2    0    0 -0.15032477818E+02 -0.24392287079E+02 -0.28847974318E+02  0.40659127887E+02  0.00000000000E+00 0. -1.
         11    1    3    3    0    0 -0.22590290196E+01  0.29142645174E+01  0.49151075104E+00  0.37199103307E+01  0.51100000000E-03 0. -1.
        -11    1    3    3    0    0  0.63418375109E+01  0.19498963918E+01  0.22793794627E+02  0.23739799340E+02  0.51100000000E-03 0.  1.
        -12    1    3    3    0    0  0.10949669326E+02  0.19528126170E+02  0.55626689402E+01  0.23069162443E+02  0.00000000000E+00 0.  1.
</event>
<event>
 7    1  0.6046695E-013  0.5052887E+02  0.7816164E-02  0.1300439E+00
        -11   -1    0    0    0    0  0.00000000000E+00  0.00000000000E+00  0.45593999997E+02  0.45594000000E+02  0.51100000000E-03 0. -1.
         11   -1    0    0    0    0 -0.00000000000E+00 -0.00000000000E+00 -0.45593999997E+02  0.45594000000E+02  0.51100000000E-03 0.  1.
    9900012    2    1    2    0    0  0.24269112887E+01 -0.29389114931E+01 -0.40480092196E+02  0.50528868635E+02  0.30000026701E+02 0.  0.
         12    1    1    2    0    0 -0.24269112887E+01  0.29389114931E+01  0.40480092196E+02  0.40659131365E+02  0.00000000000E+00 0. -1.
         11    1    3    3    0    0  0.14207137924E+01 -0.35061783666E+01  0.40335984906E+01  0.55300661355E+01  0.51100000000E-03 0. -1.
        -11    1    3    3    0    0  0.15991387928E+01  0.33546411065E+01 -0.23286560297E+02  0.23581237300E+02  0.51100000000E-03 0.  1.
         12    1    3    3    0    0 -0.59294129638E+00 -0.27873742329E+01 -0.21227130390E+02  0.21417565199E+02  0.00000000000E+00 0. -1.
</event>
<event>
 7    1  0.6046695E-013  0.5052886E+02  0.7816164E-02  0.1300439E+00
        -11   -1    0    0    0    0  0.00000000000E+00  0.00000000000E+00  0.45593999997E+02  0.45594000000E+02  0.51100000000E-03 0.  1.
         11   -1    0    0    0    0 -0.00000000000E+00 -0.00000000000E+00 -0.45593999997E+02  0.45594000000E+02  0.51100000000E-03 0. -1.
    9900012    2    1    2    0    0 -0.17086731305E+02  0.18144511570E+02  0.32124544148E+02  0.50528855598E+02  0.29999987075E+02 0.  0.
         12    1    1    2    0    0  0.17086731305E+02 -0.18144511570E+02 -0.32124544148E+02  0.40659144402E+02  0.00000000000E+00 0. -1.
         11    1    3    3    0    0  0.15717325003E+01 -0.34844064324E+01 -0.27634874350E+01  0.47168097591E+01  0.51100000000E-03 0. -1.
        -11    1    3    3    0    0 -0.46211578629E+01  0.56592380863E+01  0.40474128871E+01  0.83524623345E+01  0.51100000000E-03 0.  1.
         12    1    3    3    0    0 -0.14037305943E+02  0.15969679916E+02  0.30840618696E+02  0.37459583504E+02  0.00000000000E+00 0. -1.
</event>
<event>
 7    1  0.6046695E-013  0.5052886E+02  0.7816164E-02  0.1300439E+00
        -11   -1    0    0    0    0  0.00000000000E+00  0.00000000000E+00  0.45593999997E+02  0.45594000000E+02  0.51100000000E-03 0. -1.
         11   -1    0    0    0    0 -0.00000000000E+00 -0.00000000000E+00 -0.45593999997E+02  0.45594000000E+02  0.51100000000E-03 0.  1.
    9900012    2    1    2    0    0 -0.20502729471E+02 -0.28227359620E+02 -0.20881098386E+02  0.50528855682E+02  0.29999987331E+02 0.  0.
         12    1    1    2    0    0  0.20502729471E+02  0.28227359620E+02  0.20881098386E+02  0.40659144318E+02  0.00000000000E+00 0. -1.
         11    1    3    3    0    0 -0.15482248628E+02 -0.11919881833E+02 -0.14937802414E+01  0.19596300292E+02  0.51100000000E-03 0. -1.
        -11    1    3    3    0    0  0.59786226970E+01 -0.42088719455E+01 -0.33962942938E+01  0.80618451732E+01  0.51100000000E-03 0.  1.
        -12    1    3    3    0    0 -0.10999103540E+02 -0.12098605842E+02 -0.15991023850E+02  0.22870710216E+02  0.00000000000E+00 0.  1.
</event>
<event>
 7    1  0.6046695E-013  0.5052886E+02  0.7816164E-02  0.1300439E+00
        -11   -1    0    0    0    0  0.00000000000E+00  0.00000000000E+00  0.45593999997E+02  0.45594000000E+02  0.51100000000E-03 0. -1.
         11   -1    0    0    0    0 -0.00000000000E+00 -0.00000000000E+00 -0.45593999997E+02  0.45594000000E+02  0.51100000000E-03 0.  1.
    9900012    2    1    2    0    0  0.17383562411E+02  0.21539974956E+02  0.29782664159E+02  0.50528857761E+02  0.29999993649E+02 0.  0.
         12    1    1    2    0    0 -0.17383562411E+02 -0.21539974956E+02 -0.29782664159E+02  0.40659142239E+02  0.00000000000E+00 0. -1.
         11    1    3    3    0    0 -0.12093182577E+01  0.94727578737E+01  0.86725015412E+01  0.12899917660E+02  0.51100000000E-03 0. -1.
        -11    1    3    3    0    0  0.50528098777E+01 -0.64130696036E+01  0.44179374380E+01  0.92831309841E+01  0.51100000000E-03 0.  1.
        -12    1    3    3    0    0  0.13540070791E+02  0.18480286686E+02  0.16692225180E+02  0.28345809117E+02  0.00000000000E+00 0.  1.
</event>
<event>
 7    1  0.6046695E-013  0.5052886E+02  0.7816164E-02  0.1300439E+00
        -11   -1    0    0    0    0  0.00000000000E+00  0.00000000000E+00  0.45593999997E+02  0.45594000000E+02  0.51100000000E-03 0.  1.
         11   -1    0    0    0    0 -0.00000000000E+00 -0.00000000000E+00 -0.45593999997E+02  0.45594000000E+02  0.51100000000E-03 0. -1.
    9900012    2    1    2    0    0  0.28375953057E+01 -0.39800792232E+02 -0.78109294453E+01  0.50528860459E+02  0.30000001852E+02 0.  0.
         12    1    1    2    0    0 -0.28375953057E+01  0.39800792232E+02  0.78109294453E+01  0.40659139541E+02  0.00000000000E+00 0. -1.
         11    1    3    3    0    0  0.77775233139E+00  0.90555002204E+00 -0.16675664404E+01  0.20507797604E+01  0.51100000000E-03 0. -1.
        -11    1    3    3    0    0 -0.10776819903E+02 -0.27359258096E+02 -0.57116335383E+01  0.29954826134E+02  0.51100000000E-03 0.  1.
        -12    1    3    3    0    0  0.12836662877E+02 -0.13347084158E+02 -0.43172946659E+00  0.18523254565E+02  0.00000000000E+00 0.  1.
</event>
<event>
 7    1  0.6046695E-013  0.5052886E+02  0.7816164E-02  0.1300439E+00
        -11   -1    0    0    0    0  0.00000000000E+00  0.00000000000E+00  0.45593999997E+02  0.45594000000E+02  0.51100000000E-03 0.  1.
         11   -1    0    0    0    0 -0.00000000000E+00 -0.00000000000E+00 -0.45593999997E+02  0.45594000000E+02  0.51100000000E-03 0. -1.
    9900012    2    1    2    0    0  0.27412443194E+01  0.18918776470E+02  0.35884969632E+02  0.50528861187E+02  0.30000004063E+02 0.  0.
         12    1    1    2    0    0 -0.27412443194E+01 -0.18918776470E+02 -0.35884969632E+02  0.40659138813E+02  0.00000000000E+00 0. -1.
         11    1    3    3    0    0  0.11691487996E+02  0.15195396630E+02  0.86891578993E+01  0.21049760938E+02  0.51100000000E-03 0. -1.
        -11    1    3    3    0    0 -0.40247083864E+01  0.15404607616E+01  0.20170893609E+02  0.20626105939E+02  0.51100000000E-03 0.  1.
         12    1    3    3    0    0 -0.49255352901E+01  0.21829190789E+01  0.70249181234E+01  0.88529943092E+01  0.00000000000E+00 0. -1.
</event>
<event>
 7    1  0.6046695E-013  0.5052885E+02  0.7816164E-02  0.1300439E+00
        -11   -1    0    0    0    0  0.00000000000E+00  0.00000000000E+00  0.45593999997E+02  0.45594000000E+02  0.51100000000E-03 0.  1.
         11   -1    0    0    0    0 -0.00000000000E+00 -0.00000000000E+00 -0.45593999997E+02  0.45594000000E+02  0.51100000000E-03 0. -1.
    9900012    2    1    2    0    0  0.37900997968E+02 -0.10301651808E+02  0.10514581858E+02  0.50528854551E+02  0.29999983894E+02 0.  0.
         12    1    1    2    0    0 -0.37900997968E+02  0.10301651808E+02 -0.10514581858E+02  0.40659145449E+02  0.00000000000E+00 0. -1.
         11    1    3    3    0    0  0.44342025517E+01 -0.62479876401E+01  0.26512900411E-01  0.76616059031E+01  0.51100000000E-03 0. -1.
        -11    1    3    3    0    0  0.35481841085E+02  0.14718129142E+01  0.76065344111E+01  0.36317855747E+02  0.51100000000E-03 0.  1.
        -12    1    3    3    0    0 -0.20150456685E+01 -0.55254770820E+01  0.28815345468E+01  0.65493929012E+01  0.00000000000E+00 0.  1.
</event>
<event>
 7    1  0.6046695E-013  0.5052883E+02  0.7816164E-02  0.1300439E+00
        -11   -1    0    0    0    0  0.00000000000E+00  0.00000000000E+00  0.45593999997E+02  0.45594000000E+02  0.51100000000E-03 0.  1.
         11   -1    0    0    0    0 -0.00000000000E+00 -0.00000000000E+00 -0.45593999997E+02  0.45594000000E+02  0.51100000000E-03 0. -1.
    9900012    2    1    2    0    0 -0.80215644374E+01 -0.36438488425E+02 -0.16157321918E+02  0.50528831461E+02  0.29999913710E+02 0.  0.
         12    1    1    2    0    0  0.80215644374E+01  0.36438488425E+02  0.16157321918E+02  0.40659168539E+02  0.00000000000E+00 0. -1.
         11    1    3    3    0    0  0.86336828812E+00  0.44446605894E+01 -0.40188957366E+01  0.60540842213E+01  0.51100000000E-03 0. -1.
        -11    1    3    3    0    0 -0.72161448324E+01 -0.39372473133E+02 -0.97620138321E+01  0.41201472075E+02  0.51100000000E-03 0.  1.
         12    1    3    3    0    0 -0.16687878931E+01 -0.15106758812E+01 -0.23764123497E+01  0.32732751650E+01  0.00000000000E+00 0. -1.
</event>
<event>
 7    1  0.6046695E-013  0.5052886E+02  0.7816164E-02  0.1300439E+00
        -11   -1    0    0    0    0  0.00000000000E+00  0.00000000000E+00  0.45593999997E+02  0.45594000000E+02  0.51100000000E-03 0.  1.
         11   -1    0    0    0    0 -0.00000000000E+00 -0.00000000000E+00 -0.45593999997E+02  0.45594000000E+02  0.51100000000E-03 0. -1.
    9900012    2    1    2    0    0  0.20400594053E+02 -0.26378126226E+02  0.23263189083E+02  0.50528858996E+02  0.29999997404E+02 0.  0.
         12    1    1    2    0    0 -0.20400594053E+02  0.26378126226E+02 -0.23263189083E+02  0.40659141004E+02  0.00000000000E+00 0. -1.
         11    1    3    3    0    0 -0.43878735012E+01 -0.31867070038E+01  0.58938251175E+01  0.80091017079E+01  0.51100000000E-03 0. -1.
        -11    1    3    3    0    0  0.25058527045E+02 -0.25023921863E+02  0.12914185475E+02  0.37694862114E+02  0.51100000000E-03 0.  1.
        -12    1    3    3    0    0 -0.27005949125E+00  0.18325026411E+01  0.44551784903E+01  0.48248951739E+01  0.00000000000E+00 0.  1.
</event>
<event>
 7    1  0.6046695E-013  0.5052886E+02  0.7816164E-02  0.1300439E+00
        -11   -1    0    0    0    0  0.00000000000E+00  0.00000000000E+00  0.45593999997E+02  0.45594000000E+02  0.51100000000E-03 0.  1.
         11   -1    0    0    0    0 -0.00000000000E+00 -0.00000000000E+00 -0.45593999997E+02  0.45594000000E+02  0.51100000000E-03 0. -1.
    9900012    2    1    2    0    0  0.78170757863E+01 -0.23293682706E+01  0.39832563230E+02  0.50528859283E+02  0.29999998276E+02 0.  0.
         12    1    1    2    0    0 -0.78170757863E+01  0.23293682706E+01 -0.39832563230E+02  0.40659140717E+02  0.00000000000E+00 0. -1.
         11    1    3    3    0    0  0.43928617522E+01 -0.27300638794E+01  0.30692617075E+01  0.60142207184E+01  0.51100000000E-03 0. -1.
        -11    1    3    3    0    0 -0.20242689585E+01  0.10699863028E+02  0.27666693388E+02  0.29732653042E+02  0.51100000000E-03 0.  1.
        -12    1    3    3    0    0  0.54484829927E+01 -0.10299167419E+02  0.90966081345E+01  0.14781985523E+02  0.00000000000E+00 0.  1.
</event>
<event>
 7    1  0.6046695E-013  0.5052884E+02  0.7816164E-02  0.1300439E+00
        -11   -1    0    0    0    0  0.00000000000E+00  0.00000000000E+00  0.45593999997E+02  0.45594000000E+02  0.51100000000E-03 0.  1.
         11   -1    0    0    0    0 -0.00000000000E+00 -0.00000000000E+00 -0.45593999997E+02  0.45594000000E+02  0.51100000000E-03 0. -1.
    9900012    2    1    2    0    0 -0.28320450172E+01 -0.31372080723E+02  0.25708736648E+02  0.50528842755E+02  0.29999948038E+02 0.  0.
         12    1    1    2    0    0  0.28320450172E+01  0.31372080723E+02 -0.25708736648E+02  0.40659157245E+02  0.00000000000E+00 0. -1.
         11    1    3    3    0    0 -0.64729407926E+01 -0.17717879838E+02  0.28499854023E+02  0.34176949953E+02  0.51100000000E-03 0. -1.
        -11    1    3    3    0    0  0.48500609321E+00 -0.12844344407E+02 -0.21879331495E+01  0.13038384328E+02  0.51100000000E-03 0.  1.
        -12    1    3    3    0    0  0.31558896822E+01 -0.80985647794E+00 -0.60318422555E+00  0.33135084745E+01  0.00000000000E+00 0.  1.
</event>
<event>
 7    1  0.6046695E-013  0.5052887E+02  0.7816164E-02  0.1300439E+00
        -11   -1    0    0    0    0  0.00000000000E+00  0.00000000000E+00  0.45593999997E+02  0.45594000000E+02  0.51100000000E-03 0. -1.
         11   -1    0    0    0    0 -0.00000000000E+00 -0.00000000000E+00 -0.45593999997E+02  0.45594000000E+02  0.51100000000E-03 0.  1.
    9900012    2    1    2    0    0 -0.67193076202E+01  0.33771802361E+02  0.21621318354E+02  0.50528866501E+02  0.30000020215E+02 0.  0.
         12    1    1    2    0    0  0.67193076202E+01 -0.33771802361E+02 -0.21621318354E+02  0.40659133499E+02  0.00000000000E+00 0. -1.
         11    1    3    3    0    0 -0.33759062477E+01  0.24653470730E+02  0.24160764606E+02  0.34683323206E+02  0.51100000000E-03 0. -1.
        -11    1    3    3    0    0 -0.74183550822E+01  0.56809797189E+01 -0.42246598829E+01  0.10254427048E+02  0.51100000000E-03 0.  1.
         12    1    3    3    0    0  0.40749537096E+01  0.34373519118E+01  0.16852136309E+01  0.55911162466E+01  0.00000000000E+00 0. -1.
</event>
<event>
 7    1  0.6046695E-013  0.5052886E+02  0.7816164E-02  0.1300439E+00
        -11   -1    0    0    0    0  0.00000000000E+00  0.00000000000E+00  0.45593999997E+02  0.45594000000E+02  0.51100000000E-03 0.  1.
         11   -1    0    0    0    0 -0.00000000000E+00 -0.00000000000E+00 -0.45593999997E+02  0.45594000000E+02  0.51100000000E-03 0. -1.
    9900012    2    1    2    0    0  0.68607805511E+01 -0.93134755222E+01  0.38978897528E+02  0.50528860946E+02  0.30000003332E+02 0.  0.
         12    1    1    2    0    0 -0.68607805511E+01  0.93134755222E+01 -0.38978897528E+02  0.40659139054E+02  0.00000000000E+00 0. -1.
         11    1    3    3    0    0  0.74978514772E+01 -0.14009628440E+01 -0.24976557780E+00  0.76317007783E+01  0.51100000000E-03 0. -1.
        -11    1    3    3    0    0 -0.65957781173E+01 -0.83357855265E+01  0.30670942272E+02  0.32460688677E+02  0.51100000000E-03 0.  1.
        -12    1    3    3    0    0  0.59587071912E+01  0.42327284829E+00  0.85577208343E+01  0.10436471491E+02  0.00000000000E+00 0.  1.
</event>
<event>
 7    1  0.6046695E-013  0.5052886E+02  0.7816164E-02  0.1300439E+00
        -11   -1    0    0    0    0  0.00000000000E+00  0.00000000000E+00  0.45593999997E+02  0.45594000000E+02  0.51100000000E-03 0. -1.
         11   -1    0    0    0    0 -0.00000000000E+00 -0.00000000000E+00 -0.45593999997E+02  0.45594000000E+02  0.51100000000E-03 0.  1.
    9900012    2    1    2    0    0  0.13313021156E+02  0.32893287341E+02 -0.19848439015E+02  0.50528863072E+02  0.30000009793E+02 0.  0.
         12    1    1    2    0    0 -0.13313021156E+02 -0.32893287341E+02  0.19848439015E+02  0.40659136928E+02  0.00000000000E+00 0. -1.
         11    1    3    3    0    0 -0.39645214119E+01  0.13564074792E+01  0.30677990904E+01  0.51931361233E+01  0.51100000000E-03 0. -1.
        -11    1    3    3    0    0  0.13815711217E+02  0.17243230517E+02 -0.59497823696E+01  0.22882368444E+02  0.51100000000E-03 0.  1.
        -12    1    3    3    0    0  0.34618313515E+01  0.14293649345E+02 -0.16966455735E+02  0.22453358504E+02  0.00000000000E+00 0.  1.
</event>
<event>
 7    1  0.6046695E-013  0.5052889E+02  0.7816164E-02  0.1300439E+00
        -11   -1    0    0    0    0  0.00000000000E+00  0.00000000000E+00  0.45593999997E+02  0.45594000000E+02  0.51100000000E-03 0. -1.
         11   -1    0    0    0    0 -0.00000000000E+00 -0.00000000000E+00 -0.45593999997E+02  0.45594000000E+02  0.51100000000E-03 0.  1.
    9900012    2    1    2    0    0 -0.24938760845E+02  0.48253503033E+01 -0.31748027671E+02  0.50528892053E+02  0.30000097884E+02 0.  0.
         12    1    1    2    0    0  0.24938760845E+02 -0.48253503033E+01  0.31748027671E+02  0.40659107947E+02  0.00000000000E+00 0. -1.
         11    1    3    3    0    0 -0.22695400959E+02  0.32845661290E+01 -0.12306463512E+02  0.26025346179E+02  0.51100000000E-03 0. -1.
        -11    1    3    3    0    0  0.40530786006E+01  0.51248971634E+01 -0.13976664310E+02  0.15428517834E+02  0.51100000000E-03 0.  1.
        -12    1    3    3    0    0 -0.62964384876E+01 -0.35841129891E+01 -0.54648998497E+01  0.90750280393E+01  0.00000000000E+00 0.  1.
</event>
<event>
 7    1  0.6046695E-013  0.5052886E+02  0.7816164E-02  0.1300439E+00
        -11   -1    0    0    0    0  0.00000000000E+00  0.00000000000E+00  0.45593999997E+02  0.45594000000E+02  0.51100000000E-03 0. -1.
         11   -1    0    0    0    0 -0.00000000000E+00 -0.00000000000E+00 -0.45593999997E+02  0.45594000000E+02  0.51100000000E-03 0.  1.
    9900012    2    1    2    0    0  0.31423665696E+02  0.14695255946E+02 -0.21207735750E+02  0.50528863650E+02  0.30000011551E+02 0.  0.
         12    1    1    2    0    0 -0.31423665696E+02 -0.14695255946E+02  0.21207735750E+02  0.40659136350E+02  0.00000000000E+00 0. -1.
         11    1    3    3    0    0 -0.29223614551E+01  0.83292948249E+01 -0.75610020756E+01  0.11622654662E+02  0.51100000000E-03 0. -1.
        -11    1    3    3    0    0  0.34672716857E+02  0.65514133473E+01 -0.12082533828E+02  0.37297532560E+02  0.51100000000E-03 0.  1.
        -12    1    3    3    0    0 -0.32668970612E+00 -0.18545222591E+00 -0.15641998455E+01  0.16086764277E+01  0.00000000000E+00 0.  1.
</event>
<event>
 7    1  0.6046695E-013  0.5052885E+02  0.7816164E-02  0.1300439E+00
        -11   -1    0    0    0    0  0.00000000000E+00  0.00000000000E+00  0.45593999997E+02  0.45594000000E+02  0.51100000000E-03 0.  1.
         11   -1    0    0    0    0 -0.00000000000E+00 -0.00000000000E+00 -0.45593999997E+02  0.45594000000E+02  0.51100000000E-03 0. -1.
    9900012    2    1    2    0    0  0.25673533484E+02 -0.29284447954E+02  0.11681489412E+02  0.50528850865E+02  0.29999972689E+02 0.  0.
         12    1    1    2    0    0 -0.25673533484E+02  0.29284447954E+02 -0.11681489412E+02  0.40659149135E+02  0.00000000000E+00 0. -1.
         11    1    3    3    0    0 -0.39897020882E+01  0.17045254288E+01 -0.12801441429E+01  0.45234830582E+01  0.51100000000E-03 0. -1.
        -11    1    3    3    0    0  0.15792974357E+02 -0.19491941674E+02  0.12392061409E+02  0.27980654308E+02  0.51100000000E-03 0.  1.
         12    1    3    3    0    0  0.13870261215E+02 -0.11497031709E+02  0.56957214551E+00  0.18024713499E+02  0.00000000000E+00 0. -1.
</event>
<event>
 7    1  0.6046695E-013  0.5052886E+02  0.7816164E-02  0.1300439E+00
        -11   -1    0    0    0    0  0.00000000000E+00  0.00000000000E+00  0.45593999997E+02  0.45594000000E+02  0.51100000000E-03 0.  1.
         11   -1    0    0    0    0 -0.00000000000E+00 -0.00000000000E+00 -0.45593999997E+02  0.45594000000E+02  0.51100000000E-03 0. -1.
    9900012    2    1    2    0    0 -0.15600539522E+02  0.35889255637E+02 -0.11034060631E+02  0.50528855916E+02  0.29999988044E+02 0.  0.
         12    1    1    2    0    0  0.15600539522E+02 -0.35889255637E+02  0.11034060631E+02  0.40659144084E+02  0.00000000000E+00 0. -1.
         11    1    3    3    0    0 -0.16686508560E+02  0.27630179565E+02 -0.19941009876E+02  0.37940878559E+02  0.51100000000E-03 0. -1.
        -11    1    3    3    0    0  0.15965381976E+01  0.72572534281E+01  0.62748415714E+01  0.97257543946E+01  0.51100000000E-03 0.  1.
         12    1    3    3    0    0 -0.51056915958E+00  0.10018226447E+01  0.26321076743E+01  0.28622229625E+01  0.00000000000E+00 0. -1.
</event>
<event>
 7    1  0.6046695E-013  0.5052894E+02  0.7816164E-02  0.1300439E+00
        -11   -1    0    0    0    0  0.00000000000E+00  0.00000000000E+00  0.45593999997E+02  0.45594000000E+02  0.51100000000E-03 0.  1.
         11   -1    0    0    0    0 -0.00000000000E+00 -0.00000000000E+00 -0.45593999997E+02  0.45594000000E+02  0.51100000000E-03 0. -1.
    9900012    2    1    2    0    0 -0.19912619866E+02 -0.26977587616E+02  0.22996878274E+02  0.50528941061E+02  0.30000246847E+02 0.  0.
         12    1    1    2    0    0  0.19912619866E+02  0.26977587616E+02 -0.22996878274E+02  0.40659058939E+02  0.00000000000E+00 0. -1.
         11    1    3    3    0    0 -0.78974725390E+01  0.19198412292E+01  0.93537144401E+01  0.12391442085E+02  0.51100000000E-03 0. -1.
        -11    1    3    3    0    0 -0.16106712958E+02 -0.23941445319E+02  0.90603489147E+01  0.30244155287E+02  0.51100000000E-03 0.  1.
         12    1    3    3    0    0  0.40915656307E+01 -0.49559835255E+01  0.45828149189E+01  0.78933436893E+01  0.00000000000E+00 0. -1.
</event>
<event>
 7    1  0.6046695E-013  0.5052886E+02  0.7816164E-02  0.1300439E+00
        -11   -1    0    0    0    0  0.00000000000E+00  0.00000000000E+00  0.45593999997E+02  0.45594000000E+02  0.51100000000E-03 0. -1.
         11   -1    0    0    0    0 -0.00000000000E+00 -0.00000000000E+00 -0.45593999997E+02  0.45594000000E+02  0.51100000000E-03 0.  1.
    9900012    2    1    2    0    0 -0.28253457032E+01 -0.27410895035E+02 -0.29896925858E+02  0.50528856862E+02  0.29999990918E+02 0.  0.
         12    1    1    2    0    0  0.28253457032E+01  0.27410895035E+02  0.29896925858E+02  0.40659143138E+02  0.00000000000E+00 0. -1.
         11    1    3    3    0    0  0.42729465453E+01 -0.13214023825E+01 -0.14930648677E+02  0.15586162023E+02  0.51100000000E-03 0. -1.
        -11    1    3    3    0    0 -0.58416258928E+01 -0.25926275453E+02 -0.17699028164E+02  0.31930423583E+02  0.51100000000E-03 0.  1.
        -12    1    3    3    0    0 -0.12566663558E+01 -0.16321719931E+00  0.27327509835E+01  0.30122712563E+01  0.00000000000E+00 0.  1.
</event>
<event>
 7    1  0.6046695E-013  0.5052888E+02  0.7816164E-02  0.1300439E+00
        -11   -1    0    0    0    0  0.00000000000E+00  0.00000000000E+00  0.45593999997E+02  0.45594000000E+02  0.51100000000E-03 0.  1.
         11   -1    0    0    0    0 -0.00000000000E+00 -0.00000000000E+00 -0.45593999997E+02  0.45594000000E+02  0.51100000000E-03 0. -1.
    9900012    2    1    2    0    0  0.22745794240E+02  0.23656108229E+02  0.24003780980E+02  0.50528879086E+02  0.30000058471E+02 0.  0.
         12    1    1    2    0    0 -0.22745794240E+02 -0.23656108229E+02 -0.24003780980E+02  0.40659120914E+02  0.00000000000E+00 0. -1.
         11    1    3    3    0    0  0.11825500893E+02  0.15582178889E+02  0.22414827329E+02  0.29750147138E+02  0.51100000000E-03 0.  1.
        -11    1    3    3    0    0 -0.17891020833E+00  0.83862559347E+01 -0.27942011905E+01  0.88413154009E+01  0.51100000000E-03 0. -1.
         12    1    3    3    0    0  0.11099203555E+02 -0.31232659496E+00  0.43831548419E+01  0.11937416547E+02  0.00000000000E+00 0. -1.
</event>
<event>
 7    1  0.6046695E-013  0.5052883E+02  0.7816164E-02  0.1300439E+00
        -11   -1    0    0    0    0  0.00000000000E+00  0.00000000000E+00  0.45593999997E+02  0.45594000000E+02  0.51100000000E-03 0.  1.
         11   -1    0    0    0    0 -0.00000000000E+00 -0.00000000000E+00 -0.45593999997E+02  0.45594000000E+02  0.51100000000E-03 0. -1.
    9900012    2    1    2    0    0 -0.34683623956E+02 -0.20979858606E+02 -0.31717355242E+01  0.50528829520E+02  0.29999907809E+02 0.  0.
         12    1    1    2    0    0  0.34683623956E+02  0.20979858606E+02  0.31717355242E+01  0.40659170480E+02  0.00000000000E+00 0. -1.
         11    1    3    3    0    0 -0.28368198622E+02 -0.27884368102E+02 -0.34164465286E+01  0.39924488533E+02  0.51100000000E-03 0.  1.
        -11    1    3    3    0    0 -0.65412237464E+01  0.63932346791E+01  0.14639900551E+01  0.92630623935E+01  0.51100000000E-03 0. -1.
         12    1    3    3    0    0  0.22579841221E+00  0.51127481682E+00 -0.12192790507E+01  0.13412785933E+01  0.00000000000E+00 0. -1.
</event>
<event>
 7    1  0.6046695E-013  0.5052886E+02  0.7816164E-02  0.1300439E+00
        -11   -1    0    0    0    0  0.00000000000E+00  0.00000000000E+00  0.45593999997E+02  0.45594000000E+02  0.51100000000E-03 0. -1.
         11   -1    0    0    0    0 -0.00000000000E+00 -0.00000000000E+00 -0.45593999997E+02  0.45594000000E+02  0.51100000000E-03 0.  1.
    9900012    2    1    2    0    0 -0.35774722405E+02 -0.16257406456E+02 -0.10441803577E+02  0.50528864621E+02  0.30000014503E+02 0.  0.
         12    1    1    2    0    0  0.35774722405E+02  0.16257406456E+02  0.10441803577E+02  0.40659135379E+02  0.00000000000E+00 0. -1.
         11    1    3    3    0    0 -0.85922317883E+01 -0.86453564759E+01  0.81796554256E+01  0.14679080313E+02  0.51100000000E-03 0. -1.
        -11    1    3    3    0    0 -0.80311705504E+01 -0.27709354291E+01 -0.12603830309E+02  0.15199813232E+02  0.51100000000E-03 0.  1.
        -12    1    3    3    0    0 -0.19151320066E+02 -0.48411145506E+01 -0.60176286932E+01  0.20649971076E+02  0.00000000000E+00 0.  1.
</event>
<event>
 7    1  0.6046695E-013  0.5052886E+02  0.7816164E-02  0.1300439E+00
        -11   -1    0    0    0    0  0.00000000000E+00  0.00000000000E+00  0.45593999997E+02  0.45594000000E+02  0.51100000000E-03 0.  1.
         11   -1    0    0    0    0 -0.00000000000E+00 -0.00000000000E+00 -0.45593999997E+02  0.45594000000E+02  0.51100000000E-03 0. -1.
    9900012    2    1    2    0    0 -0.94033088457E+01  0.11963719787E+02  0.37704279266E+02  0.50528862240E+02  0.30000007266E+02 0.  0.
         12    1    1    2    0    0  0.94033088457E+01 -0.11963719787E+02 -0.37704279266E+02  0.40659137760E+02  0.00000000000E+00 0. -1.
         11    1    3    3    0    0  0.14429461690E+01 -0.10910130681E+01  0.66335696382E+00  0.19267708437E+01  0.51100000000E-03 0. -1.
        -11    1    3    3    0    0  0.28584697275E+01  0.15610585406E+02  0.27359375875E+02  0.31629047953E+02  0.51100000000E-03 0.  1.
        -12    1    3    3    0    0 -0.13704724742E+02 -0.25558525509E+01  0.96815464273E+01  0.16973043444E+02  0.00000000000E+00 0.  1.
</event>
<event>
 7    1  0.6046695E-013  0.5052886E+02  0.7816164E-02  0.1300439E+00
        -11   -1    0    0    0    0  0.00000000000E+00  0.00000000000E+00  0.45593999997E+02  0.45594000000E+02  0.51100000000E-03 0. -1.
         11   -1    0    0    0    0 -0.00000000000E+00 -0.00000000000E+00 -0.45593999997E+02  0.45594000000E+02  0.51100000000E-03 0.  1.
    9900012    2    1    2    0    0 -0.30075731602E+02 -0.36193394535E+01  0.27120398654E+02  0.50528864832E+02  0.30000015143E+02 0.  0.
         12    1    1    2    0    0  0.30075731602E+02  0.36193394535E+01 -0.27120398654E+02  0.40659135168E+02  0.00000000000E+00 0. -1.
         11    1    3    3    0    0 -0.90470174189E+01  0.82917106487E+01  0.41846000580E+01  0.12965796064E+02  0.51100000000E-03 0. -1.
        -11    1    3    3    0    0 -0.22286944546E+02 -0.94962716544E+01  0.13481187555E+02  0.27724167989E+02  0.51100000000E-03 0.  1.
         12    1    3    3    0    0  0.12582303628E+01 -0.24147784478E+01  0.94546110413E+01  0.98389007791E+01  0.00000000000E+00 0. -1.
</event>
<event>
 7    1  0.6046695E-013  0.5052886E+02  0.7816164E-02  0.1300439E+00
        -11   -1    0    0    0    0  0.00000000000E+00  0.00000000000E+00  0.45593999997E+02  0.45594000000E+02  0.51100000000E-03 0. -1.
         11   -1    0    0    0    0 -0.00000000000E+00 -0.00000000000E+00 -0.45593999997E+02  0.45594000000E+02  0.51100000000E-03 0.  1.
    9900012    2    1    2    0    0 -0.10160609312E+02 -0.34533385095E+02  0.18904307671E+02  0.50528861837E+02  0.30000006038E+02 0.  0.
         12    1    1    2    0    0  0.10160609312E+02  0.34533385095E+02 -0.18904307671E+02  0.40659138163E+02  0.00000000000E+00 0. -1.
         11    1    3    3    0    0 -0.21760766009E+01 -0.71869142370E+01 -0.10646569342E+01  0.75842297086E+01  0.51100000000E-03 0. -1.
        -11    1    3    3    0    0 -0.30322312243E+01 -0.13319090202E+02  0.23926563551E+02  0.27551280073E+02  0.51100000000E-03 0.  1.
        -12    1    3    3    0    0 -0.49523014864E+01 -0.14027380656E+02 -0.39575989465E+01  0.15393352055E+02  0.00000000000E+00 0.  1.
</event>
<event>
 7    1  0.6046695E-013  0.5052887E+02  0.7816164E-02  0.1300439E+00
        -11   -1    0    0    0    0  0.00000000000E+00  0.00000000000E+00  0.45593999997E+02  0.45594000000E+02  0.51100000000E-03 0.  1.
         11   -1    0    0    0    0 -0.00000000000E+00 -0.00000000000E+00 -0.45593999997E+02  0.45594000000E+02  0.51100000000E-03 0. -1.
    9900012    2    1    2    0    0  0.33674280196E+02  0.39199055311E+01  0.22446431599E+02  0.50528866984E+02  0.30000021686E+02 0.  0.
         12    1    1    2    0    0 -0.33674280196E+02 -0.39199055311E+01 -0.22446431599E+02  0.40659133016E+02  0.00000000000E+00 0. -1.
         11    1    3    3    0    0  0.11804641065E+02  0.86305868113E+01  0.19796052993E+02  0.24611385449E+02  0.51100000000E-03 0. -1.
        -11    1    3    3    0    0  0.10855506244E+02 -0.58675391744E+01  0.68018097051E+01  0.14090232337E+02  0.51100000000E-03 0.  1.
         12    1    3    3    0    0  0.11014132886E+02  0.11568578943E+01 -0.41514310992E+01  0.11827249198E+02  0.00000000000E+00 0. -1.
</event>
<event>
 7    1  0.6046695E-013  0.5052886E+02  0.7816164E-02  0.1300439E+00
        -11   -1    0    0    0    0  0.00000000000E+00  0.00000000000E+00  0.45593999997E+02  0.45594000000E+02  0.51100000000E-03 0.  1.
         11   -1    0    0    0    0 -0.00000000000E+00 -0.00000000000E+00 -0.45593999997E+02  0.45594000000E+02  0.51100000000E-03 0. -1.
    9900012    2    1    2    0    0  0.36988188261E+02 -0.16855757115E+02 -0.96093977532E+00  0.50528855592E+02  0.29999987058E+02 0.  0.
         12    1    1    2    0    0 -0.36988188261E+02  0.16855757115E+02  0.96093977532E+00  0.40659144408E+02  0.00000000000E+00 0. -1.
         11    1    3    3    0    0  0.80384933766E+01 -0.30246808437E+01  0.10835652768E+02  0.13826693066E+02  0.51100000000E-03 0. -1.
        -11    1    3    3    0    0  0.19512562193E+02 -0.23729610178E+01 -0.89033686548E+01  0.21578716389E+02  0.51100000000E-03 0.  1.
         12    1    3    3    0    0  0.94371326905E+01 -0.11458115253E+02 -0.28932238890E+01  0.15123446137E+02  0.00000000000E+00 0. -1.
</event>
<event>
 7    1  0.6046695E-013  0.5052886E+02  0.7816164E-02  0.1300439E+00
        -11   -1    0    0    0    0  0.00000000000E+00  0.00000000000E+00  0.45593999997E+02  0.45594000000E+02  0.51100000000E-03 0.  1.
         11   -1    0    0    0    0 -0.00000000000E+00 -0.00000000000E+00 -0.45593999997E+02  0.45594000000E+02  0.51100000000E-03 0. -1.
    9900012    2    1    2    0    0  0.21919468931E+02 -0.76621752536E+01  0.33376539513E+02  0.50528862802E+02  0.30000008973E+02 0.  0.
         12    1    1    2    0    0 -0.21919468931E+02  0.76621752536E+01 -0.33376539513E+02  0.40659137198E+02  0.00000000000E+00 0. -1.
         11    1    3    3    0    0  0.10206972647E+02 -0.80871002658E+01  0.48844281341E+01  0.13908311177E+02  0.51100000000E-03 0. -1.
        -11    1    3    3    0    0 -0.29784097371E+01 -0.24797809943E+01  0.17807425377E+02  0.18224287013E+02  0.51100000000E-03 0.  1.
        -12    1    3    3    0    0  0.14690906021E+02  0.29047060065E+01  0.10684686002E+02  0.18396264612E+02  0.00000000000E+00 0.  1.
</event>
<event>
 7    1  0.6046695E-013  0.5052886E+02  0.7816164E-02  0.1300439E+00
        -11   -1    0    0    0    0  0.00000000000E+00  0.00000000000E+00  0.45593999997E+02  0.45594000000E+02  0.51100000000E-03 0.  1.
         11   -1    0    0    0    0 -0.00000000000E+00 -0.00000000000E+00 -0.45593999997E+02  0.45594000000E+02  0.51100000000E-03 0. -1.
    9900012    2    1    2    0    0  0.10804454741E+02 -0.33085266474E+02  0.21018904926E+02  0.50528862476E+02  0.30000007982E+02 0.  0.
         12    1    1    2    0    0 -0.10804454741E+02  0.33085266474E+02 -0.21018904926E+02  0.40659137524E+02  0.00000000000E+00 0. -1.
         11    1    3    3    0    0 -0.10607331814E+00 -0.23156155380E+02  0.20359292363E+02  0.30833740761E+02  0.51100000000E-03 0. -1.
        -11    1    3    3    0    0  0.12014008597E+02 -0.31986359881E+01  0.23866315329E+01  0.12659529418E+02  0.51100000000E-03 0.  1.
         12    1    3    3    0    0 -0.11034805377E+01 -0.67304751059E+01 -0.17270189700E+01  0.70355922971E+01  0.00000000000E+00 0. -1.
</event>
<event>
 7    1  0.6046695E-013  0.5052885E+02  0.7816164E-02  0.1300439E+00
        -11   -1    0    0    0    0  0.00000000000E+00  0.00000000000E+00  0.45593999997E+02  0.45594000000E+02  0.51100000000E-03 0. -1.
         11   -1    0    0    0    0 -0.00000000000E+00 -0.00000000000E+00 -0.45593999997E+02  0.45594000000E+02  0.51100000000E-03 0.  1.
    9900012    2    1    2    0    0  0.30072121388E+02  0.18358540223E+02 -0.20292805131E+02  0.50528850673E+02  0.29999972105E+02 0.  0.
         12    1    1    2    0    0 -0.30072121388E+02 -0.18358540223E+02  0.20292805131E+02  0.40659149327E+02  0.00000000000E+00 0. -1.
         11    1    3    3    0    0 -0.11768544509E+01  0.55243169076E+01 -0.35764652473E+01  0.66853696697E+01  0.51100000000E-03 0. -1.
        -11    1    3    3    0    0  0.26473658530E+02  0.18965022250E+02 -0.15144729307E+02  0.35915031546E+02  0.51100000000E-03 0.  1.
        -12    1    3    3    0    0  0.47753173091E+01 -0.61307989351E+01 -0.15716105772E+01  0.79284494569E+01  0.00000000000E+00 0.  1.
</event>
<event>
 7    1  0.6046695E-013  0.5052886E+02  0.7816164E-02  0.1300439E+00
        -11   -1    0    0    0    0  0.00000000000E+00  0.00000000000E+00  0.45593999997E+02  0.45594000000E+02  0.51100000000E-03 0.  1.
         11   -1    0    0    0    0 -0.00000000000E+00 -0.00000000000E+00 -0.45593999997E+02  0.45594000000E+02  0.51100000000E-03 0. -1.
    9900012    2    1    2    0    0 -0.12794409517E+02  0.38007932213E+02 -0.66982045132E+01  0.50528858719E+02  0.29999996563E+02 0.  0.
         12    1    1    2    0    0  0.12794409517E+02 -0.38007932213E+02  0.66982045132E+01  0.40659141281E+02  0.00000000000E+00 0. -1.
         11    1    3    3    0    0  0.18701763685E+00  0.11524378173E+02  0.68652293707E+01  0.13415574622E+02  0.51100000000E-03 0. -1.
        -11    1    3    3    0    0 -0.11115767819E+02  0.29168072483E+02 -0.11601602958E+02  0.33300659724E+02  0.51100000000E-03 0.  1.
        -12    1    3    3    0    0 -0.18656593354E+01 -0.26845184436E+01 -0.19618309260E+01  0.38126243733E+01  0.00000000000E+00 0.  1.
</event>
<event>
 7    1  0.6046695E-013  0.5052886E+02  0.7816164E-02  0.1300439E+00
        -11   -1    0    0    0    0  0.00000000000E+00  0.00000000000E+00  0.45593999997E+02  0.45594000000E+02  0.51100000000E-03 0.  1.
         11   -1    0    0    0    0 -0.00000000000E+00 -0.00000000000E+00 -0.45593999997E+02  0.45594000000E+02  0.51100000000E-03 0. -1.
    9900012    2    1    2    0    0  0.23526671787E+02  0.31943667629E+02  0.89030058839E+01  0.50528859568E+02  0.29999999142E+02 0.  0.
         12    1    1    2    0    0 -0.23526671787E+02 -0.31943667629E+02 -0.89030058839E+01  0.40659140432E+02  0.00000000000E+00 0. -1.
         11    1    3    3    0    0 -0.25357377432E+01  0.12080846433E+02  0.68846247864E+01  0.14134174017E+02  0.51100000000E-03 0. -1.
        -11    1    3    3    0    0  0.20120734161E+02  0.16665609804E+02  0.80563158758E+01  0.27340276499E+02  0.51100000000E-03 0.  1.
         12    1    3    3    0    0  0.59416753695E+01  0.31972113915E+01 -0.60379347783E+01  0.90544090511E+01  0.00000000000E+00 0. -1.
</event>
<event>
 7    1  0.6046695E-013  0.5052885E+02  0.7816164E-02  0.1300439E+00
        -11   -1    0    0    0    0  0.00000000000E+00  0.00000000000E+00  0.45593999997E+02  0.45594000000E+02  0.51100000000E-03 0. -1.
         11   -1    0    0    0    0 -0.00000000000E+00 -0.00000000000E+00 -0.45593999997E+02  0.45594000000E+02  0.51100000000E-03 0.  1.
    9900012    2    1    2    0    0 -0.33817693325E+02  0.22011273419E+02 -0.50033527607E+01  0.50528854925E+02  0.29999985031E+02 0.  0.
         12    1    1    2    0    0  0.33817693325E+02 -0.22011273419E+02  0.50033527607E+01  0.40659145075E+02  0.00000000000E+00 0. -1.
         11    1    3    3    0    0 -0.11964357875E+02  0.58126653241E+00 -0.12137391438E+02  0.17052859037E+02  0.51100000000E-03 0. -1.
        -11    1    3    3    0    0 -0.12597396718E+02  0.19023182681E+02  0.28390162785E+01  0.22992083357E+02  0.51100000000E-03 0.  1.
        -12    1    3    3    0    0 -0.92559387322E+01  0.24068242051E+01  0.42950223988E+01  0.10483912532E+02  0.00000000000E+00 0.  1.
</event>
<event>
 7    1  0.6046695E-013  0.5052885E+02  0.7816164E-02  0.1300439E+00
        -11   -1    0    0    0    0  0.00000000000E+00  0.00000000000E+00  0.45593999997E+02  0.45594000000E+02  0.51100000000E-03 0. -1.
         11   -1    0    0    0    0 -0.00000000000E+00 -0.00000000000E+00 -0.45593999997E+02  0.45594000000E+02  0.51100000000E-03 0.  1.
    9900012    2    1    2    0    0 -0.38074547455E+02  0.21373137434E+01  0.14104155579E+02  0.50528850002E+02  0.29999970067E+02 0.  0.
         12    1    1    2    0    0  0.38074547455E+02 -0.21373137434E+01 -0.14104155579E+02  0.40659149998E+02  0.00000000000E+00 0. -1.
         11    1    3    3    0    0 -0.76827750489E+01  0.61991170699E+01  0.12264498032E+02  0.15743951128E+02  0.51100000000E-03 0. -1.
        -11    1    3    3    0    0 -0.76944378005E+01 -0.71727140405E+01 -0.38119966874E+01  0.11188544087E+02  0.51100000000E-03 0.  1.
        -12    1    3    3    0    0 -0.22697334606E+02  0.31109107140E+01  0.56516542344E+01  0.23596354788E+02  0.00000000000E+00 0.  1.
</event>
<event>
 7    1  0.6046695E-013  0.5052887E+02  0.7816164E-02  0.1300439E+00
        -11   -1    0    0    0    0  0.00000000000E+00  0.00000000000E+00  0.45593999997E+02  0.45594000000E+02  0.51100000000E-03 0.  1.
         11   -1    0    0    0    0 -0.00000000000E+00 -0.00000000000E+00 -0.45593999997E+02  0.45594000000E+02  0.51100000000E-03 0. -1.
    9900012    2    1    2    0    0  0.87445225402E+01 -0.30121818674E+01  0.39593247438E+02  0.50528866257E+02  0.30000019474E+02 0.  0.
         12    1    1    2    0    0 -0.87445225402E+01  0.30121818674E+01 -0.39593247438E+02  0.40659133743E+02  0.00000000000E+00 0. -1.
         11    1    3    3    0    0 -0.62350531771E+00  0.11234806278E+02  0.89121352995E+01  0.14353946734E+02  0.51100000000E-03 0. -1.
        -11    1    3    3    0    0  0.51014689914E+01 -0.96866885191E+00  0.75150513207E+01  0.91345115813E+01  0.51100000000E-03 0.  1.
         12    1    3    3    0    0  0.42665588665E+01 -0.13278319294E+02  0.23166060818E+02  0.27040407941E+02  0.00000000000E+00 0. -1.
</event>
<event>
 7    1  0.6046695E-013  0.5052886E+02  0.7816164E-02  0.1300439E+00
        -11   -1    0    0    0    0  0.00000000000E+00  0.00000000000E+00  0.45593999997E+02  0.45594000000E+02  0.51100000000E-03 0.  1.
         11   -1    0    0    0    0 -0.00000000000E+00 -0.00000000000E+00 -0.45593999997E+02  0.45594000000E+02  0.51100000000E-03 0. -1.
    9900012    2    1    2    0    0 -0.69774969085E+01 -0.15766990266E+02  0.36822306898E+02  0.50528859201E+02  0.29999998029E+02 0.  0.
         12    1    1    2    0    0  0.69774969085E+01  0.15766990266E+02 -0.36822306898E+02  0.40659140799E+02  0.00000000000E+00 0. -1.
         11    1    3    3    0    0  0.35732515550E+01  0.31409072748E+01  0.95259868037E+01  0.10647903551E+02  0.51100000000E-03 0. -1.
        -11    1    3    3    0    0 -0.53307487134E+01 -0.22173187317E+02  0.22876198658E+02  0.32301510537E+02  0.51100000000E-03 0.  1.
        -12    1    3    3    0    0 -0.52199997502E+01  0.32652897765E+01  0.44201214364E+01  0.75794451135E+01  0.00000000000E+00 0.  1.
</event>
<event>
 7    1  0.6046695E-013  0.5052886E+02  0.7816164E-02  0.1300439E+00
        -11   -1    0    0    0    0  0.00000000000E+00  0.00000000000E+00  0.45593999997E+02  0.45594000000E+02  0.51100000000E-03 0.  1.
         11   -1    0    0    0    0 -0.00000000000E+00 -0.00000000000E+00 -0.45593999997E+02  0.45594000000E+02  0.51100000000E-03 0. -1.
    9900012    2    1    2    0    0  0.37183716951E+01 -0.17056850123E+02  0.36720615020E+02  0.50528855990E+02  0.29999988267E+02 0.  0.
         12    1    1    2    0    0 -0.37183716951E+01  0.17056850123E+02 -0.36720615020E+02  0.40659144010E+02  0.00000000000E+00 0. -1.
         11    1    3    3    0    0  0.10986464605E+02 -0.91587930660E-01  0.12032319660E+02  0.16293787452E+02  0.51100000000E-03 0. -1.
        -11    1    3    3    0    0 -0.40554746237E+01 -0.11359649528E+02  0.25009408325E+02  0.27766148758E+02  0.51100000000E-03 0.  1.
        -12    1    3    3    0    0 -0.32126182864E+01 -0.56056126639E+01 -0.32111296389E+00  0.64689197805E+01  0.00000000000E+00 0.  1.
</event>
<event>
 7    1  0.6046695E-013  0.5052882E+02  0.7816164E-02  0.1300439E+00
        -11   -1    0    0    0    0  0.00000000000E+00  0.00000000000E+00  0.45593999997E+02  0.45594000000E+02  0.51100000000E-03 0.  1.
         11   -1    0    0    0    0 -0.00000000000E+00 -0.00000000000E+00 -0.45593999997E+02  0.45594000000E+02  0.51100000000E-03 0. -1.
    9900012    2    1    2    0    0 -0.35117321845E+02 -0.14626060824E+02  0.14353417764E+02  0.50528824525E+02  0.29999892625E+02 0.  0.
         12    1    1    2    0    0  0.35117321845E+02  0.14626060824E+02 -0.14353417764E+02  0.40659175475E+02  0.00000000000E+00 0. -1.
         11    1    3    3    0    0 -0.25302169094E+02  0.54349947373E+00  0.12284437293E+02  0.28131877868E+02  0.51100000000E-03 0. -1.
        -11    1    3    3    0    0  0.22270643379E+01 -0.47817684559E+01 -0.25180555987E+01  0.58451457972E+01  0.51100000000E-03 0.  1.
        -12    1    3    3    0    0 -0.12042217090E+02 -0.10387791842E+02  0.45870360698E+01  0.16551800860E+02  0.00000000000E+00 0.  1.
</event>
<event>
 7    1  0.6046695E-013  0.5052886E+02  0.7816164E-02  0.1300439E+00
        -11   -1    0    0    0    0  0.00000000000E+00  0.00000000000E+00  0.45593999997E+02  0.45594000000E+02  0.51100000000E-03 0.  1.
         11   -1    0    0    0    0 -0.00000000000E+00 -0.00000000000E+00 -0.45593999997E+02  0.45594000000E+02  0.51100000000E-03 0. -1.
    9900012    2    1    2    0    0  0.10691763948E+02 -0.22408798155E+01  0.39164149152E+02  0.50528856656E+02  0.29999990291E+02 0.  0.
         12    1    1    2    0    0 -0.10691763948E+02  0.22408798155E+01 -0.39164149152E+02  0.40659143344E+02  0.00000000000E+00 0. -1.
         11    1    3    3    0    0 -0.10244053383E+01  0.57390592395E+01  0.29815770116E+02  0.30380361339E+02  0.51100000000E-03 0. -1.
        -11    1    3    3    0    0  0.83084254014E+01 -0.14502534044E+01  0.96001912158E+01  0.12778765168E+02  0.51100000000E-03 0.  1.
         12    1    3    3    0    0  0.34077438852E+01 -0.65296856506E+01 -0.25181217922E+00  0.73697301481E+01  0.00000000000E+00 0. -1.
</event>
<event>
 7    1  0.6046695E-013  0.5052887E+02  0.7816164E-02  0.1300439E+00
        -11   -1    0    0    0    0  0.00000000000E+00  0.00000000000E+00  0.45593999997E+02  0.45594000000E+02  0.51100000000E-03 0.  1.
         11   -1    0    0    0    0 -0.00000000000E+00 -0.00000000000E+00 -0.45593999997E+02  0.45594000000E+02  0.51100000000E-03 0. -1.
    9900012    2    1    2    0    0 -0.20451827234E+02  0.41140000993E+01  0.34899325648E+02  0.50528866159E+02  0.30000019177E+02 0.  0.
         12    1    1    2    0    0  0.20451827234E+02 -0.41140000993E+01 -0.34899325648E+02  0.40659133841E+02  0.00000000000E+00 0. -1.
         11    1    3    3    0    0  0.27818347821E+00 -0.34157023342E+01 -0.31001018261E+01  0.46211513800E+01  0.51100000000E-03 0. -1.
        -11    1    3    3    0    0 -0.18017435234E+02  0.90562582177E+00  0.22530767743E+02  0.28863188076E+02  0.51100000000E-03 0.  1.
         12    1    3    3    0    0 -0.27125754786E+01  0.66240766117E+01  0.15468659730E+02  0.17044526703E+02  0.00000000000E+00 0. -1.
</event>
<event>
 7    1  0.6046695E-013  0.5052885E+02  0.7816164E-02  0.1300439E+00
        -11   -1    0    0    0    0  0.00000000000E+00  0.00000000000E+00  0.45593999997E+02  0.45594000000E+02  0.51100000000E-03 0.  1.
         11   -1    0    0    0    0 -0.00000000000E+00 -0.00000000000E+00 -0.45593999997E+02  0.45594000000E+02  0.51100000000E-03 0. -1.
    9900012    2    1    2    0    0  0.21733519265E+02  0.32861424443E+02  0.10047244371E+02  0.50528853483E+02  0.29999980646E+02 0.  0.
         12    1    1    2    0    0 -0.21733519265E+02 -0.32861424443E+02 -0.10047244371E+02  0.40659146517E+02  0.00000000000E+00 0. -1.
         11    1    3    3    0    0  0.12001269577E+02  0.48022212214E+01 -0.32543667751E+01  0.13329767571E+02  0.51100000000E-03 0. -1.
        -11    1    3    3    0    0  0.66230309459E+01  0.25531309744E+02  0.34969486477E+01  0.26607160056E+02  0.51100000000E-03 0.  1.
        -12    1    3    3    0    0  0.31092187420E+01  0.25278934773E+01  0.98046624988E+01  0.10591925856E+02  0.00000000000E+00 0.  1.
</event>
<event>
 7    1  0.9090770E-013  0.5052887E+02  0.7816164E-02  0.1300439E+00
        -11   -1    0    0    0    0  0.00000000000E+00  0.00000000000E+00  0.45593999997E+02  0.45594000000E+02  0.51100000000E-03 0.  1.
         11   -1    0    0    0    0 -0.00000000000E+00 -0.00000000000E+00 -0.45593999997E+02  0.45594000000E+02  0.51100000000E-03 0. -1.
    9900012    2    1    2    0    0 -0.32492635423E+02 -0.19478484482E+02  0.14764226214E+02  0.50528867075E+02  0.30000021962E+02 0.  0.
         12    1    1    2    0    0  0.32492635423E+02  0.19478484482E+02 -0.14764226214E+02  0.40659132925E+02  0.00000000000E+00 0. -1.
         11    1    3    3    0    0 -0.19585313905E+00  0.53144108791E+01  0.30413563357E+01  0.61262688535E+01  0.51100000000E-03 0. -1.
        -11    1    3    3    0    0 -0.26251971519E+02 -0.13156602180E+02  0.10688723726E+02  0.31249176065E+02  0.51100000000E-03 0.  1.
         12    1    3    3    0    0 -0.60448107652E+01 -0.11636293181E+02  0.10341461525E+01  0.13153422157E+02  0.00000000000E+00 0. -1.
</event>
<event>
 7    1  0.6046695E-013  0.5052885E+02  0.7816164E-02  0.1300439E+00
        -11   -1    0    0    0    0  0.00000000000E+00  0.00000000000E+00  0.45593999997E+02  0.45594000000E+02  0.51100000000E-03 0.  1.
         11   -1    0    0    0    0 -0.00000000000E+00 -0.00000000000E+00 -0.45593999997E+02  0.45594000000E+02  0.51100000000E-03 0. -1.
    9900012    2    1    2    0    0  0.59748342458E+00  0.31205055785E+02  0.26058661957E+02  0.50528851509E+02  0.29999974648E+02 0.  0.
         12    1    1    2    0    0 -0.59748342458E+00 -0.31205055785E+02 -0.26058661957E+02  0.40659148491E+02  0.00000000000E+00 0. -1.
         11    1    3    3    0    0 -0.16242379087E+00 -0.20432068626E+01  0.46233031395E+01  0.50572727781E+01  0.51100000000E-03 0. -1.
        -11    1    3    3    0    0  0.17313302710E+01  0.27299072427E+02  0.47923452675E+01  0.27770549748E+02  0.51100000000E-03 0.  1.
        -12    1    3    3    0    0 -0.97142305554E+00  0.59491902205E+01  0.16643013550E+02  0.17701028983E+02  0.00000000000E+00 0.  1.
</event>
<event>
 7    1  0.6046695E-013  0.5052887E+02  0.7816164E-02  0.1300439E+00
        -11   -1    0    0    0    0  0.00000000000E+00  0.00000000000E+00  0.45593999997E+02  0.45594000000E+02  0.51100000000E-03 0. -1.
         11   -1    0    0    0    0 -0.00000000000E+00 -0.00000000000E+00 -0.45593999997E+02  0.45594000000E+02  0.51100000000E-03 0.  1.
    9900012    2    1    2    0    0  0.40236865061E+02  0.47416326241E+01 -0.34170520126E+01  0.50528872681E+02  0.30000039003E+02 0.  0.
         12    1    1    2    0    0 -0.40236865061E+02 -0.47416326241E+01  0.34170520126E+01  0.40659127319E+02  0.00000000000E+00 0. -1.
         11    1    3    3    0    0  0.47351409159E+01 -0.11685216371E+01  0.23363793767E+01  0.54079266973E+01  0.51100000000E-03 0. -1.
        -11    1    3    3    0    0  0.30656742204E+02  0.16410863667E+01  0.63980500868E+01  0.31360230423E+02  0.51100000000E-03 0.  1.
        -12    1    3    3    0    0  0.48449819409E+01  0.42690678945E+01 -0.12151481476E+02  0.13760715561E+02  0.00000000000E+00 0.  1.
</event>
<event>
 7    1  0.6046695E-013  0.5052883E+02  0.7816164E-02  0.1300439E+00
        -11   -1    0    0    0    0  0.00000000000E+00  0.00000000000E+00  0.45593999997E+02  0.45594000000E+02  0.51100000000E-03 0.  1.
         11   -1    0    0    0    0 -0.00000000000E+00 -0.00000000000E+00 -0.45593999997E+02  0.45594000000E+02  0.51100000000E-03 0. -1.
    9900012    2    1    2    0    0 -0.16785498049E+02  0.15800066349E+02  0.33492876687E+02  0.50528833381E+02  0.29999919545E+02 0.  0.
         12    1    1    2    0    0  0.16785498049E+02 -0.15800066349E+02 -0.33492876687E+02  0.40659166619E+02  0.00000000000E+00 0. -1.
         11    1    3    3    0    0 -0.44250341555E+01 -0.66133308764E+01  0.95916727708E+00  0.80148034714E+01  0.51100000000E-03 0. -1.
        -11    1    3    3    0    0 -0.12712341059E+02  0.20456383608E+02  0.32591289865E+02  0.40524800071E+02  0.51100000000E-03 0.  1.
         12    1    3    3    0    0  0.35187716549E+00  0.19570136181E+01 -0.57580454885E-01  0.19892298384E+01  0.00000000000E+00 0. -1.
</event>
<event>
 7    1  0.6046695E-013  0.5052891E+02  0.7816164E-02  0.1300439E+00
        -11   -1    0    0    0    0  0.00000000000E+00  0.00000000000E+00  0.45593999997E+02  0.45594000000E+02  0.51100000000E-03 0.  1.
         11   -1    0    0    0    0 -0.00000000000E+00 -0.00000000000E+00 -0.45593999997E+02  0.45594000000E+02  0.51100000000E-03 0. -1.
    9900012    2    1    2    0    0 -0.75631942087E+01  0.85126862056E+00  0.39940391137E+02  0.50528912343E+02  0.30000159559E+02 0.  0.
         12    1    1    2    0    0  0.75631942087E+01 -0.85126862056E+00 -0.39940391137E+02  0.40659087657E+02  0.00000000000E+00 0. -1.
         11    1    3    3    0    0  0.52731622401E+01 -0.96624891163E+01  0.15467100936E+02  0.18984234184E+02  0.51100000000E-03 0.  1.
        -11    1    3    3    0    0 -0.88195895165E+01  0.80161954748E+01  0.78734269979E+01  0.14284096124E+02  0.51100000000E-03 0. -1.
        -12    1    3    3    0    0 -0.40167669322E+01  0.24975622621E+01  0.16599863203E+02  0.17260582035E+02  0.00000000000E+00 0.  1.
</event>
<event>
 7    1  0.6046695E-013  0.5052886E+02  0.7816164E-02  0.1300439E+00
        -11   -1    0    0    0    0  0.00000000000E+00  0.00000000000E+00  0.45593999997E+02  0.45594000000E+02  0.51100000000E-03 0.  1.
         11   -1    0    0    0    0 -0.00000000000E+00 -0.00000000000E+00 -0.45593999997E+02  0.45594000000E+02  0.51100000000E-03 0. -1.
    9900012    2    1    2    0    0 -0.83024645313E+01  0.34761933376E+02  0.19386662120E+02  0.50528860837E+02  0.30000002999E+02 0.  0.
         12    1    1    2    0    0  0.83024645313E+01 -0.34761933376E+02 -0.19386662120E+02  0.40659139163E+02  0.00000000000E+00 0. -1.
         11    1    3    3    0    0 -0.79112917872E+01  0.44445519864E+01 -0.38103887627E+01  0.98418312771E+01  0.51100000000E-03 0. -1.
        -11    1    3    3    0    0 -0.51704593143E+01  0.19074132647E+02  0.19871587656E+02  0.28025634372E+02  0.51100000000E-03 0.  1.
         12    1    3    3    0    0  0.47792865702E+01  0.11243248743E+02  0.33254632268E+01  0.12661395187E+02  0.00000000000E+00 0. -1.
</event>
<event>
 7    1  0.6046695E-013  0.5052885E+02  0.7816164E-02  0.1300439E+00
        -11   -1    0    0    0    0  0.00000000000E+00  0.00000000000E+00  0.45593999997E+02  0.45594000000E+02  0.51100000000E-03 0. -1.
         11   -1    0    0    0    0 -0.00000000000E+00 -0.00000000000E+00 -0.45593999997E+02  0.45594000000E+02  0.51100000000E-03 0.  1.
    9900012    2    1    2    0    0 -0.32189782360E+02 -0.22993773331E+02  0.93952668229E+01  0.50528846799E+02  0.29999960329E+02 0.  0.
         12    1    1    2    0    0  0.32189782360E+02  0.22993773331E+02 -0.93952668229E+01  0.40659153201E+02  0.00000000000E+00 0. -1.
         11    1    3    3    0    0 -0.11256008365E+02 -0.19717214089E+02 -0.48843499667E+01  0.23223331600E+02  0.51100000000E-03 0. -1.
        -11    1    3    3    0    0 -0.11864397840E+02 -0.42874881136E+01  0.33215719832E+01  0.13045280032E+02  0.51100000000E-03 0.  1.
         12    1    3    3    0    0 -0.90693761547E+01  0.10109288715E+01  0.10958044806E+02  0.14260235166E+02  0.00000000000E+00 0. -1.
</event>
<event>
 7    1  0.6046695E-013  0.5052886E+02  0.7816164E-02  0.1300439E+00
        -11   -1    0    0    0    0  0.00000000000E+00  0.00000000000E+00  0.45593999997E+02  0.45594000000E+02  0.51100000000E-03 0. -1.
         11   -1    0    0    0    0 -0.00000000000E+00 -0.00000000000E+00 -0.45593999997E+02  0.45594000000E+02  0.51100000000E-03 0.  1.
    9900012    2    1    2    0    0 -0.32721896655E+02 -0.24066071183E+02  0.18074833787E+01  0.50528864507E+02  0.30000014156E+02 0.  0.
         12    1    1    2    0    0  0.32721896655E+02  0.24066071183E+02 -0.18074833787E+01  0.40659135493E+02  0.00000000000E+00 0. -1.
         11    1    3    3    0    0 -0.22168414102E+02 -0.11473227555E+01  0.78094090807E+01  0.23531719099E+02  0.51100000000E-03 0. -1.
        -11    1    3    3    0    0 -0.65963549067E+01 -0.67684023492E+01 -0.39485959241E+01  0.10242781773E+02  0.51100000000E-03 0.  1.
         12    1    3    3    0    0 -0.39571276463E+01 -0.16150346078E+02 -0.20533297779E+01  0.16754363635E+02  0.00000000000E+00 0. -1.
</event>
<event>
 7    1  0.6046695E-013  0.5052884E+02  0.7816164E-02  0.1300439E+00
        -11   -1    0    0    0    0  0.00000000000E+00  0.00000000000E+00  0.45593999997E+02  0.45594000000E+02  0.51100000000E-03 0.  1.
         11   -1    0    0    0    0 -0.00000000000E+00 -0.00000000000E+00 -0.45593999997E+02  0.45594000000E+02  0.51100000000E-03 0. -1.
    9900012    2    1    2    0    0  0.88240346615E+01 -0.67093080839E+01  0.39118902375E+02  0.50528844503E+02  0.29999953352E+02 0.  0.
         12    1    1    2    0    0 -0.88240346615E+01  0.67093080839E+01 -0.39118902375E+02  0.40659155497E+02  0.00000000000E+00 0. -1.
         11    1    3    3    0    0  0.26067284877E+01  0.25643936409E+01 -0.32323251832E+01  0.48804789217E+01  0.51100000000E-03 0. -1.
        -11    1    3    3    0    0  0.61230194113E+01 -0.11415550074E+02  0.41253938657E+02  0.43239953806E+02  0.51100000000E-03 0.  1.
        -12    1    3    3    0    0  0.94286762568E-01  0.21418483495E+01  0.10972889015E+01  0.24084117753E+01  0.00000000000E+00 0.  1.
</event>
<event>
 7    1  0.6046695E-013  0.5052894E+02  0.7816164E-02  0.1300439E+00
        -11   -1    0    0    0    0  0.00000000000E+00  0.00000000000E+00  0.45593999997E+02  0.45594000000E+02  0.51100000000E-03 0. -1.
         11   -1    0    0    0    0 -0.00000000000E+00 -0.00000000000E+00 -0.45593999997E+02  0.45594000000E+02  0.51100000000E-03 0.  1.
    9900012    2    1    2    0    0  0.40301760782E+02  0.50174861336E+01 -0.19371072977E+01  0.50528936141E+02  0.30000231893E+02 0.  0.
         12    1    1    2    0    0 -0.40301760782E+02 -0.50174861336E+01  0.19371072977E+01  0.40659063859E+02  0.00000000000E+00 0. -1.
         11    1    3    3    0    0  0.10790646892E+02 -0.40347606887E+01  0.11694606912E+02  0.16415882104E+02  0.51100000000E-03 0. -1.
        -11    1    3    3    0    0  0.79044354569E+01  0.45365663251E+01 -0.28633569206E+01  0.95529758207E+01  0.51100000000E-03 0.  1.
         12    1    3    3    0    0  0.21606678433E+02  0.45156804972E+01 -0.10768357289E+02  0.24560078216E+02  0.00000000000E+00 0. -1.
</event>
<event>
 7    1  0.6046695E-013  0.5052886E+02  0.7816164E-02  0.1300439E+00
        -11   -1    0    0    0    0  0.00000000000E+00  0.00000000000E+00  0.45593999997E+02  0.45594000000E+02  0.51100000000E-03 0.  1.
         11   -1    0    0    0    0 -0.00000000000E+00 -0.00000000000E+00 -0.45593999997E+02  0.45594000000E+02  0.51100000000E-03 0. -1.
    9900012    2    1    2    0    0  0.16555183647E+02  0.32760988728E+02  0.17487397633E+02  0.50528861248E+02  0.30000004251E+02 0.  0.
         12    1    1    2    0    0 -0.16555183647E+02 -0.32760988728E+02 -0.17487397633E+02  0.40659138752E+02  0.00000000000E+00 0. -1.
         11    1    3    3    0    0 -0.39615453973E+00  0.45404812796E+01  0.36922891097E+01  0.58656549336E+01  0.51100000000E-03 0. -1.
        -11    1    3    3    0    0 -0.62189018210E+01  0.89997689396E+01 -0.12459304487E+01  0.11010128236E+02  0.51100000000E-03 0.  1.
        -12    1    3    3    0    0  0.23170240007E+02  0.19220738509E+02  0.15041038972E+02  0.33653078079E+02  0.00000000000E+00 0.  1.
</event>
<event>
 7    1  0.6046695E-013  0.5052887E+02  0.7816164E-02  0.1300439E+00
        -11   -1    0    0    0    0  0.00000000000E+00  0.00000000000E+00  0.45593999997E+02  0.45594000000E+02  0.51100000000E-03 0. -1.
         11   -1    0    0    0    0 -0.00000000000E+00 -0.00000000000E+00 -0.45593999997E+02  0.45594000000E+02  0.51100000000E-03 0.  1.
    9900012    2    1    2    0    0  0.13172633474E+02  0.36584774487E+02  0.11882813154E+02  0.50528865167E+02  0.30000016162E+02 0.  0.
         12    1    1    2    0    0 -0.13172633474E+02 -0.36584774487E+02 -0.11882813154E+02  0.40659134833E+02  0.00000000000E+00 0. -1.
         11    1    3    3    0    0  0.17521335728E+02  0.10869626762E+02  0.77496270637E+01  0.22027317393E+02  0.51100000000E-03 0. -1.
        -11    1    3    3    0    0 -0.45824366395E+01  0.12140537430E+02 -0.27726894941E+01  0.13269483108E+02  0.51100000000E-03 0.  1.
        -12    1    3    3    0    0  0.23373438572E+00  0.13574610295E+02  0.69058755845E+01  0.15232064667E+02  0.00000000000E+00 0.  1.
</event>
<event>
 7    1  0.6046695E-013  0.5052886E+02  0.7816164E-02  0.1300439E+00
        -11   -1    0    0    0    0  0.00000000000E+00  0.00000000000E+00  0.45593999997E+02  0.45594000000E+02  0.51100000000E-03 0.  1.
         11   -1    0    0    0    0 -0.00000000000E+00 -0.00000000000E+00 -0.45593999997E+02  0.45594000000E+02  0.51100000000E-03 0. -1.
    9900012    2    1    2    0    0  0.31503238366E+02 -0.21353290958E+02  0.14309037688E+02  0.50528860537E+02  0.30000002088E+02 0.  0.
         12    1    1    2    0    0 -0.31503238366E+02  0.21353290958E+02 -0.14309037688E+02  0.40659139463E+02  0.00000000000E+00 0. -1.
         11    1    3    3    0    0  0.17123698314E+02 -0.61017057007E+01  0.21372040544E+01  0.18303537850E+02  0.51100000000E-03 0. -1.
        -11    1    3    3    0    0  0.81407175738E+01 -0.33263198465E+01  0.15978549819E+02  0.18238688026E+02  0.51100000000E-03 0.  1.
        -12    1    3    3    0    0  0.62388224791E+01 -0.11925265411E+02 -0.38067161846E+01  0.13986634661E+02  0.00000000000E+00 0.  1.
</event>
<event>
 7    1  0.6046695E-013  0.5052888E+02  0.7816164E-02  0.1300439E+00
        -11   -1    0    0    0    0  0.00000000000E+00  0.00000000000E+00  0.45593999997E+02  0.45594000000E+02  0.51100000000E-03 0. -1.
         11   -1    0    0    0    0 -0.00000000000E+00 -0.00000000000E+00 -0.45593999997E+02  0.45594000000E+02  0.51100000000E-03 0.  1.
    9900012    2    1    2    0    0 -0.38458891797E+02 -0.65971346267E+01 -0.11426099071E+02  0.50528876995E+02  0.30000052115E+02 0.  0.
         12    1    1    2    0    0  0.38458891797E+02  0.65971346267E+01  0.11426099071E+02  0.40659123005E+02  0.00000000000E+00 0. -1.
         11    1    3    3    0    0  0.44080354653E+01 -0.11505429205E+01 -0.45502399826E+00  0.45783810212E+01  0.51100000000E-03 0. -1.
        -11    1    3    3    0    0 -0.13323474084E+02  0.43482203883E+00 -0.83131581729E+01  0.15710271511E+02  0.51100000000E-03 0.  1.
         12    1    3    3    0    0 -0.29543453178E+02 -0.58814137450E+01 -0.26579169000E+01  0.30240224463E+02  0.00000000000E+00 0. -1.
</event>
<event>
 7    1  0.6046695E-013  0.5052887E+02  0.7816164E-02  0.1300439E+00
        -11   -1    0    0    0    0  0.00000000000E+00  0.00000000000E+00  0.45593999997E+02  0.45594000000E+02  0.51100000000E-03 0. -1.
         11   -1    0    0    0    0 -0.00000000000E+00 -0.00000000000E+00 -0.45593999997E+02  0.45594000000E+02  0.51100000000E-03 0.  1.
    9900012    2    1    2    0    0  0.38486473239E+02  0.13092427717E+02  0.73811541371E+00  0.50528866952E+02  0.30000021586E+02 0.  0.
         12    1    1    2    0    0 -0.38486473239E+02 -0.13092427717E+02 -0.73811541371E+00  0.40659133048E+02  0.00000000000E+00 0. -1.
         11    1    3    3    0    0  0.18747878025E+02 -0.16438913395E+01  0.23748388168E+00  0.18821309945E+02  0.51100000000E-03 0. -1.
        -11    1    3    3    0    0 -0.28884786056E+01  0.62983102806E+01 -0.25137189066E+01  0.73709432265E+01  0.51100000000E-03 0.  1.
         12    1    3    3    0    0  0.22627073819E+02  0.84380087756E+01  0.30143504387E+01  0.24336613780E+02  0.00000000000E+00 0. -1.
</event>
<event>
 7    1  0.6046695E-013  0.5052886E+02  0.7816164E-02  0.1300439E+00
        -11   -1    0    0    0    0  0.00000000000E+00  0.00000000000E+00  0.45593999997E+02  0.45594000000E+02  0.51100000000E-03 0.  1.
         11   -1    0    0    0    0 -0.00000000000E+00 -0.00000000000E+00 -0.45593999997E+02  0.45594000000E+02  0.51100000000E-03 0. -1.
    9900012    2    1    2    0    0 -0.21582562186E+02 -0.34034666826E+02 -0.53851959361E+01  0.50528857465E+02  0.29999992750E+02 0.  0.
         12    1    1    2    0    0  0.21582562186E+02  0.34034666826E+02  0.53851959361E+01  0.40659142535E+02  0.00000000000E+00 0. -1.
         11    1    3    3    0    0 -0.16816182765E+02 -0.13104452648E+02 -0.14455221259E+02  0.25757796953E+02  0.51100000000E-03 0. -1.
        -11    1    3    3    0    0 -0.40444709150E+01 -0.40258640169E+01  0.44366471499E+01  0.72283583377E+01  0.51100000000E-03 0.  1.
         12    1    3    3    0    0 -0.72190850606E+00 -0.16904350161E+02  0.46333781730E+01  0.17542702174E+02  0.00000000000E+00 0. -1.
</event>
<event>
 7    1  0.6046695E-013  0.5052886E+02  0.7816164E-02  0.1300439E+00
        -11   -1    0    0    0    0  0.00000000000E+00  0.00000000000E+00  0.45593999997E+02  0.45594000000E+02  0.51100000000E-03 0.  1.
         11   -1    0    0    0    0 -0.00000000000E+00 -0.00000000000E+00 -0.45593999997E+02  0.45594000000E+02  0.51100000000E-03 0. -1.
    9900012    2    1    2    0    0  0.17665757658E+02  0.16496495906E+02  0.32694840070E+02  0.50528856650E+02  0.29999990273E+02 0.  0.
         12    1    1    2    0    0 -0.17665757658E+02 -0.16496495906E+02 -0.32694840070E+02  0.40659143350E+02  0.00000000000E+00 0. -1.
         11    1    3    3    0    0 -0.55542493641E+00  0.12776803390E+02  0.56191658572E+00  0.12801209015E+02  0.51100000000E-03 0. -1.
        -11    1    3    3    0    0  0.68775026262E+01 -0.13577445748E+01  0.15045720573E+02  0.16598711412E+02  0.51100000000E-03 0.  1.
         12    1    3    3    0    0  0.11343679968E+02  0.50774370900E+01  0.17087202910E+02  0.21128936223E+02  0.00000000000E+00 0. -1.
</event>
<event>
 7    1  0.6046695E-013  0.5052885E+02  0.7816164E-02  0.1300439E+00
        -11   -1    0    0    0    0  0.00000000000E+00  0.00000000000E+00  0.45593999997E+02  0.45594000000E+02  0.51100000000E-03 0.  1.
         11   -1    0    0    0    0 -0.00000000000E+00 -0.00000000000E+00 -0.45593999997E+02  0.45594000000E+02  0.51100000000E-03 0. -1.
    9900012    2    1    2    0    0  0.28653869606E+02  0.14128798517E+01  0.28811908511E+02  0.50528849186E+02  0.29999967585E+02 0.  0.
         12    1    1    2    0    0 -0.28653869606E+02 -0.14128798517E+01 -0.28811908511E+02  0.40659150814E+02  0.00000000000E+00 0. -1.
         11    1    3    3    0    0  0.14475621810E+02  0.12870510616E+02  0.68504800588E+01  0.20545625997E+02  0.51100000000E-03 0.  1.
        -11    1    3    3    0    0  0.14549229162E+02 -0.77371390167E+01  0.19385199956E+02  0.25442668236E+02  0.51100000000E-03 0. -1.
         12    1    3    3    0    0 -0.37098136554E+00 -0.37204917478E+01  0.25762284969E+01  0.45405549536E+01  0.00000000000E+00 0. -1.
</event>
<event>
 7    1  0.6046695E-013  0.5052885E+02  0.7816164E-02  0.1300439E+00
        -11   -1    0    0    0    0  0.00000000000E+00  0.00000000000E+00  0.45593999997E+02  0.45594000000E+02  0.51100000000E-03 0. -1.
         11   -1    0    0    0    0 -0.00000000000E+00 -0.00000000000E+00 -0.45593999997E+02  0.45594000000E+02  0.51100000000E-03 0.  1.
    9900012    2    1    2    0    0 -0.31295571368E+02 -0.18422123983E+02 -0.18286024456E+02  0.50528854292E+02  0.29999983105E+02 0.  0.
         12    1    1    2    0    0  0.31295571368E+02  0.18422123983E+02  0.18286024456E+02  0.40659145708E+02  0.00000000000E+00 0. -1.
         11    1    3    3    0    0 -0.40994116954E+01 -0.13829015482E+02 -0.28702329827E+01  0.14706633982E+02  0.51100000000E-03 0. -1.
        -11    1    3    3    0    0 -0.29563827554E+02 -0.47503426537E+01 -0.14601535087E+02  0.33313518009E+02  0.51100000000E-03 0.  1.
        -12    1    3    3    0    0  0.23676678809E+01  0.15723415219E+00 -0.81425638692E+00  0.25087023013E+01  0.00000000000E+00 0.  1.
</event>
<event>
 7    1  0.6046695E-013  0.5052886E+02  0.7816164E-02  0.1300439E+00
        -11   -1    0    0    0    0  0.00000000000E+00  0.00000000000E+00  0.45593999997E+02  0.45594000000E+02  0.51100000000E-03 0.  1.
         11   -1    0    0    0    0 -0.00000000000E+00 -0.00000000000E+00 -0.45593999997E+02  0.45594000000E+02  0.51100000000E-03 0. -1.
    9900012    2    1    2    0    0  0.11913643177E+00 -0.38961545496E+02  0.11625387934E+02  0.50528857541E+02  0.29999992980E+02 0.  0.
         12    1    1    2    0    0 -0.11913643177E+00  0.38961545496E+02 -0.11625387934E+02  0.40659142459E+02  0.00000000000E+00 0. -1.
         11    1    3    3    0    0  0.32507235401E+01 -0.38274506277E+01  0.13376071491E+01  0.51967080915E+01  0.51100000000E-03 0. -1.
        -11    1    3    3    0    0 -0.14786760084E+02 -0.21526274636E+02  0.44779228934E+01  0.26496802962E+02  0.51100000000E-03 0.  1.
        -12    1    3    3    0    0  0.11655172976E+02 -0.13607820233E+02  0.58098578919E+01  0.18835346488E+02  0.00000000000E+00 0.  1.
</event>
<event>
 7    1  0.6046695E-013  0.5052886E+02  0.7816164E-02  0.1300439E+00
        -11   -1    0    0    0    0  0.00000000000E+00  0.00000000000E+00  0.45593999997E+02  0.45594000000E+02  0.51100000000E-03 0. -1.
         11   -1    0    0    0    0 -0.00000000000E+00 -0.00000000000E+00 -0.45593999997E+02  0.45594000000E+02  0.51100000000E-03 0.  1.
    9900012    2    1    2    0    0  0.51782487852E+01 -0.36602186266E+02 -0.16930194559E+02  0.50528858497E+02  0.29999995889E+02 0.  0.
         12    1    1    2    0    0 -0.51782487852E+01  0.36602186266E+02  0.16930194559E+02  0.40659141503E+02  0.00000000000E+00 0. -1.
         11    1    3    3    0    0  0.40990493736E+01 -0.19523718113E+01  0.69719791527E+01  0.83200033067E+01  0.51100000000E-03 0. -1.
        -11    1    3    3    0    0  0.81796111296E+00 -0.10158597105E+02 -0.55601132572E+01  0.11609522609E+02  0.51100000000E-03 0.  1.
         12    1    3    3    0    0  0.26123829862E+00 -0.24491217350E+02 -0.18342060454E+02  0.30599332581E+02  0.00000000000E+00 0. -1.
</event>
<event>
 7    1  0.6046695E-013  0.5052886E+02  0.7816164E-02  0.1300439E+00
        -11   -1    0    0    0    0  0.00000000000E+00  0.00000000000E+00  0.45593999997E+02  0.45594000000E+02  0.51100000000E-03 0.  1.
         11   -1    0    0    0    0 -0.00000000000E+00 -0.00000000000E+00 -0.45593999997E+02  0.45594000000E+02  0.51100000000E-03 0. -1.
    9900012    2    1    2    0    0 -0.29659086575E+02 -0.19552205160E+01  0.27743127318E+02  0.50528863054E+02  0.30000009740E+02 0.  0.
         12    1    1    2    0    0  0.29659086575E+02  0.19552205160E+01 -0.27743127318E+02  0.40659136946E+02  0.00000000000E+00 0. -1.
         11    1    3    3    0    0  0.11398449461E+01 -0.96297529287E+01  0.56437299000E+01  0.11219762716E+02  0.51100000000E-03 0. -1.
        -11    1    3    3    0    0 -0.86472583725E+01  0.33108489445E+00  0.92563250004E+01  0.12671394846E+02  0.51100000000E-03 0.  1.
         12    1    3    3    0    0 -0.22151673149E+02  0.73434475182E+01  0.12843072418E+02  0.26637705492E+02  0.00000000000E+00 0. -1.
</event>
<event>
 7    1  0.6046695E-013  0.5052886E+02  0.7816164E-02  0.1300439E+00
        -11   -1    0    0    0    0  0.00000000000E+00  0.00000000000E+00  0.45593999997E+02  0.45594000000E+02  0.51100000000E-03 0.  1.
         11   -1    0    0    0    0 -0.00000000000E+00 -0.00000000000E+00 -0.45593999997E+02  0.45594000000E+02  0.51100000000E-03 0. -1.
    9900012    2    1    2    0    0  0.11359029294E+02  0.21733807472E+02  0.32431148060E+02  0.50528864518E+02  0.30000014188E+02 0.  0.
         12    1    1    2    0    0 -0.11359029294E+02 -0.21733807472E+02 -0.32431148060E+02  0.40659135482E+02  0.00000000000E+00 0. -1.
         11    1    3    3    0    0  0.13071355730E+02 -0.27115707555E+01  0.69809112362E+01  0.15064729620E+02  0.51100000000E-03 0. -1.
        -11    1    3    3    0    0  0.68355334104E+00  0.11176046417E+02  0.12205611945E+02  0.16563460444E+02  0.51100000000E-03 0.  1.
         12    1    3    3    0    0 -0.23958797775E+01  0.13269331810E+02  0.13244624879E+02  0.18900674453E+02  0.00000000000E+00 0. -1.
</event>
<event>
 7    1  0.6657302E-013  0.5052887E+02  0.7816164E-02  0.1300439E+00
        -11   -1    0    0    0    0  0.00000000000E+00  0.00000000000E+00  0.45593999997E+02  0.45594000000E+02  0.51100000000E-03 0. -1.
         11   -1    0    0    0    0 -0.00000000000E+00 -0.00000000000E+00 -0.45593999997E+02  0.45594000000E+02  0.51100000000E-03 0.  1.
    9900012    2    1    2    0    0 -0.14852297511E+02 -0.12016832240E+02 -0.35891085682E+02  0.50528867817E+02  0.30000024216E+02 0.  0.
         12    1    1    2    0    0  0.14852297511E+02  0.12016832240E+02  0.35891085682E+02  0.40659132183E+02  0.00000000000E+00 0. -1.
         11    1    3    3    0    0 -0.14967872737E+01 -0.29900664941E+01  0.37601761185E+01  0.50318778289E+01  0.51100000000E-03 0. -1.
        -11    1    3    3    0    0 -0.16456554156E+02 -0.72368302267E+01 -0.27712789957E+02  0.33033144172E+02  0.51100000000E-03 0.  1.
        -12    1    3    3    0    0  0.31010439196E+01 -0.17899355194E+01 -0.11938471844E+02  0.12463845816E+02  0.00000000000E+00 0.  1.
</event>
<event>
 7    1  0.6046695E-013  0.5052887E+02  0.7816164E-02  0.1300439E+00
        -11   -1    0    0    0    0  0.00000000000E+00  0.00000000000E+00  0.45593999997E+02  0.45594000000E+02  0.51100000000E-03 0.  1.
         11   -1    0    0    0    0 -0.00000000000E+00 -0.00000000000E+00 -0.45593999997E+02  0.45594000000E+02  0.51100000000E-03 0. -1.
    9900012    2    1    2    0    0  0.39272913477E+02  0.63417231677E+01  0.84015169133E+01  0.50528872216E+02  0.30000037589E+02 0.  0.
         12    1    1    2    0    0 -0.39272913477E+02 -0.63417231677E+01 -0.84015169133E+01  0.40659127784E+02  0.00000000000E+00 0. -1.
         11    1    3    3    0    0  0.68376393952E+01 -0.24775618586E+01 -0.75515463713E+01  0.10484153667E+02  0.51100000000E-03 0. -1.
        -11    1    3    3    0    0  0.14801591233E+02  0.80450335328E+01  0.14684961675E+02  0.22348551793E+02  0.51100000000E-03 0.  1.
        -12    1    3    3    0    0  0.17633682848E+02  0.77425149351E+00  0.12681016096E+01  0.17696166756E+02  0.00000000000E+00 0.  1.
</event>
<event>
 7    1  0.6046695E-013  0.5052886E+02  0.7816164E-02  0.1300439E+00
        -11   -1    0    0    0    0  0.00000000000E+00  0.00000000000E+00  0.45593999997E+02  0.45594000000E+02  0.51100000000E-03 0.  1.
         11   -1    0    0    0    0 -0.00000000000E+00 -0.00000000000E+00 -0.45593999997E+02  0.45594000000E+02  0.51100000000E-03 0. -1.
    9900012    2    1    2    0    0  0.33743497201E+02  0.22048977890E+02 -0.53277101473E+01  0.50528861731E+02  0.30000005718E+02 0.  0.
         12    1    1    2    0    0 -0.33743497201E+02 -0.22048977890E+02  0.53277101473E+01  0.40659138269E+02  0.00000000000E+00 0. -1.
         11    1    3    3    0    0  0.11371099904E+01 -0.67947463709E+00  0.38788678337E+01  0.40988194453E+01  0.51100000000E-03 0. -1.
        -11    1    3    3    0    0  0.22092325246E+02  0.24016395124E+02 -0.13073570042E+02  0.35153610105E+02  0.51100000000E-03 0.  1.
        -12    1    3    3    0    0  0.10514061965E+02 -0.12879425966E+01  0.38669920606E+01  0.11276432181E+02  0.00000000000E+00 0.  1.
</event>
<event>
 7    1  0.6046695E-013  0.5052886E+02  0.7816164E-02  0.1300439E+00
        -11   -1    0    0    0    0  0.00000000000E+00  0.00000000000E+00  0.45593999997E+02  0.45594000000E+02  0.51100000000E-03 0.  1.
         11   -1    0    0    0    0 -0.00000000000E+00 -0.00000000000E+00 -0.45593999997E+02  0.45594000000E+02  0.51100000000E-03 0. -1.
    9900012    2    1    2    0    0 -0.18546349685E+02 -0.12666254363E+02  0.33893424651E+02  0.50528864240E+02  0.30000013343E+02 0.  0.
         12    1    1    2    0    0  0.18546349685E+02  0.12666254363E+02 -0.33893424651E+02  0.40659135760E+02  0.00000000000E+00 0. -1.
         11    1    3    3    0    0 -0.59125873623E+01  0.46891808438E+01  0.28906892308E+01  0.80810389674E+01  0.51100000000E-03 0. -1.
        -11    1    3    3    0    0  0.12517312572E+01 -0.13349240376E+02  0.90904691559E+01  0.16198940690E+02  0.51100000000E-03 0.  1.
        -12    1    3    3    0    0 -0.13885493580E+02 -0.40061948312E+01  0.21912266264E+02  0.26248884582E+02  0.00000000000E+00 0.  1.
</event>
<event>
 7    1  0.6046695E-013  0.5052885E+02  0.7816164E-02  0.1300439E+00
        -11   -1    0    0    0    0  0.00000000000E+00  0.00000000000E+00  0.45593999997E+02  0.45594000000E+02  0.51100000000E-03 0.  1.
         11   -1    0    0    0    0 -0.00000000000E+00 -0.00000000000E+00 -0.45593999997E+02  0.45594000000E+02  0.51100000000E-03 0. -1.
    9900012    2    1    2    0    0  0.63677660543E+01 -0.37714333967E+02  0.13793019224E+02  0.50528845921E+02  0.29999957661E+02 0.  0.
         12    1    1    2    0    0 -0.63677660543E+01  0.37714333967E+02 -0.13793019224E+02  0.40659154079E+02  0.00000000000E+00 0. -1.
         11    1    3    3    0    0  0.10461200680E+02 -0.15219152951E+02 -0.20922264415E+01  0.18585928762E+02  0.51100000000E-03 0. -1.
        -11    1    3    3    0    0 -0.85111452542E+01 -0.17809001496E+02  0.16140901314E+02  0.25497623876E+02  0.51100000000E-03 0.  1.
        -12    1    3    3    0    0  0.44177106287E+01 -0.46861795205E+01 -0.25565564825E+00  0.64452932833E+01  0.00000000000E+00 0.  1.
</event>
<event>
 7    1  0.6046695E-013  0.5052886E+02  0.7816164E-02  0.1300439E+00
        -11   -1    0    0    0    0  0.00000000000E+00  0.00000000000E+00  0.45593999997E+02  0.45594000000E+02  0.51100000000E-03 0.  1.
         11   -1    0    0    0    0 -0.00000000000E+00 -0.00000000000E+00 -0.45593999997E+02  0.45594000000E+02  0.51100000000E-03 0. -1.
    9900012    2    1    2    0    0  0.18499280292E+02  0.35983819247E+02  0.40133466144E+01  0.50528861175E+02  0.30000004028E+02 0.  0.
         12    1    1    2    0    0 -0.18499280292E+02 -0.35983819247E+02 -0.40133466144E+01  0.40659138825E+02  0.00000000000E+00 0. -1.
         11    1    3    3    0    0 -0.13568835834E+01  0.22761852463E+02  0.65821746179E+01  0.23733269551E+02  0.51100000000E-03 0.  1.
        -11    1    3    3    0    0  0.13973551240E+02  0.13006686120E+02 -0.59640248374E+01  0.20000090265E+02  0.51100000000E-03 0. -1.
        -12    1    3    3    0    0  0.58826126356E+01  0.21528066409E+00  0.33951968339E+01  0.67955013594E+01  0.00000000000E+00 0.  1.
</event>
<event>
 7    1  0.6046695E-013  0.5052884E+02  0.7816164E-02  0.1300439E+00
        -11   -1    0    0    0    0  0.00000000000E+00  0.00000000000E+00  0.45593999997E+02  0.45594000000E+02  0.51100000000E-03 0.  1.
         11   -1    0    0    0    0 -0.00000000000E+00 -0.00000000000E+00 -0.45593999997E+02  0.45594000000E+02  0.51100000000E-03 0. -1.
    9900012    2    1    2    0    0  0.36497614917E+01  0.36659354649E+02  0.17202856724E+02  0.50528839633E+02  0.29999938550E+02 0.  0.
         12    1    1    2    0    0 -0.36497614917E+01 -0.36659354649E+02 -0.17202856724E+02  0.40659160367E+02  0.00000000000E+00 0. -1.
         11    1    3    3    0    0 -0.67932930853E+01  0.12738661965E+02 -0.18293077981E+01  0.14552274973E+02  0.51100000000E-03 0. -1.
        -11    1    3    3    0    0  0.60368420203E+01  0.12227223988E+02  0.19114708205E+02  0.23480215886E+02  0.51100000000E-03 0.  1.
         12    1    3    3    0    0  0.44062125567E+01  0.11693468697E+02 -0.82543682451E-01  0.12496348775E+02  0.00000000000E+00 0. -1.
</event>
<event>
 7    1  0.6046695E-013  0.5052886E+02  0.7816164E-02  0.1300439E+00
        -11   -1    0    0    0    0  0.00000000000E+00  0.00000000000E+00  0.45593999997E+02  0.45594000000E+02  0.51100000000E-03 0.  1.
         11   -1    0    0    0    0 -0.00000000000E+00 -0.00000000000E+00 -0.45593999997E+02  0.45594000000E+02  0.51100000000E-03 0. -1.
    9900012    2    1    2    0    0  0.29746144839E+02  0.11481488602E+02  0.25229107877E+02  0.50528860836E+02  0.30000002997E+02 0.  0.
         12    1    1    2    0    0 -0.29746144839E+02 -0.11481488602E+02 -0.25229107877E+02  0.40659139164E+02  0.00000000000E+00 0. -1.
         11    1    3    3    0    0  0.52341560122E+01 -0.17126481610E-01 -0.23010884552E+01  0.57176648044E+01  0.51100000000E-03 0. -1.
        -11    1    3    3    0    0  0.15917370577E+02 -0.15831550830E+01  0.23873982164E+02  0.28737364018E+02  0.51100000000E-03 0.  1.
        -12    1    3    3    0    0  0.85946182497E+01  0.13081770166E+02  0.36562141684E+01  0.16073832013E+02  0.00000000000E+00 0.  1.
</event>
<event>
 7    1  0.6046695E-013  0.5052885E+02  0.7816164E-02  0.1300439E+00
        -11   -1    0    0    0    0  0.00000000000E+00  0.00000000000E+00  0.45593999997E+02  0.45594000000E+02  0.51100000000E-03 0.  1.
         11   -1    0    0    0    0 -0.00000000000E+00 -0.00000000000E+00 -0.45593999997E+02  0.45594000000E+02  0.51100000000E-03 0. -1.
    9900012    2    1    2    0    0  0.20947632644E+02  0.32787317234E+02  0.11804867637E+02  0.50528851156E+02  0.29999973575E+02 0.  0.
         12    1    1    2    0    0 -0.20947632644E+02 -0.32787317234E+02 -0.11804867637E+02  0.40659148844E+02  0.00000000000E+00 0. -1.
         11    1    3    3    0    0  0.24275847187E+01  0.22929042162E+02  0.68709541503E+00  0.23067428170E+02  0.51100000000E-03 0. -1.
        -11    1    3    3    0    0  0.14574293144E+02  0.91342159322E+01  0.17721367017E+01  0.17291165088E+02  0.51100000000E-03 0.  1.
         12    1    3    3    0    0  0.39457547810E+01  0.72405913955E+00  0.93456355205E+01  0.10170257898E+02  0.00000000000E+00 0. -1.
</event>
<event>
 7    1  0.6046695E-013  0.5052885E+02  0.7816164E-02  0.1300439E+00
        -11   -1    0    0    0    0  0.00000000000E+00  0.00000000000E+00  0.45593999997E+02  0.45594000000E+02  0.51100000000E-03 0.  1.
         11   -1    0    0    0    0 -0.00000000000E+00 -0.00000000000E+00 -0.45593999997E+02  0.45594000000E+02  0.51100000000E-03 0. -1.
    9900012    2    1    2    0    0  0.34590072772E+01  0.23300311164E+02  0.33140564593E+02  0.50528852773E+02  0.29999978489E+02 0.  0.
         12    1    1    2    0    0 -0.34590072772E+01 -0.23300311164E+02 -0.33140564593E+02  0.40659147227E+02  0.00000000000E+00 0. -1.
         11    1    3    3    0    0  0.38367372986E+01  0.61671068174E+01 -0.68046324084E+00  0.72949838985E+01  0.51100000000E-03 0. -1.
        -11    1    3    3    0    0  0.78941061803E+01  0.15015929801E+02  0.28518582066E+02  0.33182895948E+02  0.51100000000E-03 0.  1.
        -12    1    3    3    0    0 -0.82718362018E+01  0.21172745454E+01  0.53024457683E+01  0.10050972927E+02  0.00000000000E+00 0.  1.
</event>
<event>
 7    1  0.6046695E-013  0.5052885E+02  0.7816164E-02  0.1300439E+00
        -11   -1    0    0    0    0  0.00000000000E+00  0.00000000000E+00  0.45593999997E+02  0.45594000000E+02  0.51100000000E-03 0.  1.
         11   -1    0    0    0    0 -0.00000000000E+00 -0.00000000000E+00 -0.45593999997E+02  0.45594000000E+02  0.51100000000E-03 0. -1.
    9900012    2    1    2    0    0  0.17086614392E+02 -0.13609603086E+02  0.34292747974E+02  0.50528852799E+02  0.29999978567E+02 0.  0.
         12    1    1    2    0    0 -0.17086614392E+02  0.13609603086E+02 -0.34292747974E+02  0.40659147201E+02  0.00000000000E+00 0. -1.
         11    1    3    3    0    0 -0.22708888624E+01 -0.17571865096E+01 -0.13379247705E+01  0.31677568731E+01  0.51100000000E-03 0. -1.
        -11    1    3    3    0    0  0.18182062682E+02 -0.13550384461E+02  0.37979228601E+02  0.44233721614E+02  0.51100000000E-03 0.  1.
        -12    1    3    3    0    0  0.11754405719E+01  0.16979678844E+01 -0.23485558568E+01  0.31273743119E+01  0.00000000000E+00 0.  1.
</event>
<event>
 7    1  0.6046695E-013  0.5052886E+02  0.7816164E-02  0.1300439E+00
        -11   -1    0    0    0    0  0.00000000000E+00  0.00000000000E+00  0.45593999997E+02  0.45594000000E+02  0.51100000000E-03 0. -1.
         11   -1    0    0    0    0 -0.00000000000E+00 -0.00000000000E+00 -0.45593999997E+02  0.45594000000E+02  0.51100000000E-03 0.  1.
    9900012    2    1    2    0    0 -0.39537111865E+02  0.94313218227E+01 -0.10162582793E+01  0.50528858017E+02  0.29999994428E+02 0.  0.
         12    1    1    2    0    0  0.39537111865E+02 -0.94313218227E+01  0.10162582793E+01  0.40659141983E+02  0.00000000000E+00 0. -1.
         11    1    3    3    0    0 -0.31933416669E+01 -0.50263653873E+00 -0.10113882960E+02  0.10617942517E+02  0.51100000000E-03 0. -1.
        -11    1    3    3    0    0 -0.28500200794E+02  0.54792169229E+01  0.10332285939E+02  0.30806483025E+02  0.51100000000E-03 0.  1.
        -12    1    3    3    0    0 -0.78435694041E+01  0.44547414385E+01 -0.12346612581E+01  0.91044324756E+01  0.00000000000E+00 0.  1.
</event>
<event>
 7    1  0.6046695E-013  0.5052886E+02  0.7816164E-02  0.1300439E+00
        -11   -1    0    0    0    0  0.00000000000E+00  0.00000000000E+00  0.45593999997E+02  0.45594000000E+02  0.51100000000E-03 0.  1.
         11   -1    0    0    0    0 -0.00000000000E+00 -0.00000000000E+00 -0.45593999997E+02  0.45594000000E+02  0.51100000000E-03 0. -1.
    9900012    2    1    2    0    0 -0.18040547883E+02 -0.19602689604E+01  0.36384907764E+02  0.50528861601E+02  0.30000005323E+02 0.  0.
         12    1    1    2    0    0  0.18040547883E+02  0.19602689604E+01 -0.36384907764E+02  0.40659138399E+02  0.00000000000E+00 0. -1.
         11    1    3    3    0    0 -0.28630691585E+01  0.38857454653E+01 -0.23844891032E+01  0.53834906309E+01  0.51100000000E-03 0. -1.
        -11    1    3    3    0    0 -0.15396868681E+02 -0.13180175181E+01  0.37308900746E+02  0.40382605296E+02  0.51100000000E-03 0.  1.
        -12    1    3    3    0    0  0.21938995683E+00 -0.45279969076E+01  0.14604961216E+01  0.47627656745E+01  0.00000000000E+00 0.  1.
</event>
<event>
 7    1  0.6046695E-013  0.5052886E+02  0.7816164E-02  0.1300439E+00
        -11   -1    0    0    0    0  0.00000000000E+00  0.00000000000E+00  0.45593999997E+02  0.45594000000E+02  0.51100000000E-03 0.  1.
         11   -1    0    0    0    0 -0.00000000000E+00 -0.00000000000E+00 -0.45593999997E+02  0.45594000000E+02  0.51100000000E-03 0. -1.
    9900012    2    1    2    0    0 -0.10905433627E+02 -0.21533056510E+02  0.32719482850E+02  0.50528861258E+02  0.30000004280E+02 0.  0.
         12    1    1    2    0    0  0.10905433627E+02  0.21533056510E+02 -0.32719482850E+02  0.40659138742E+02  0.00000000000E+00 0. -1.
         11    1    3    3    0    0  0.51427663200E+01 -0.19891141705E+02  0.18669230747E+02  0.27760506853E+02  0.51100000000E-03 0. -1.
        -11    1    3    3    0    0 -0.15435122197E+02  0.32039033466E+00  0.10516204710E+02  0.18679834287E+02  0.51100000000E-03 0.  1.
        -12    1    3    3    0    0 -0.61307774965E+00 -0.19623051400E+01  0.35340473925E+01  0.40885201188E+01  0.00000000000E+00 0.  1.
</event>
<event>
 7    1  0.6046695E-013  0.5052887E+02  0.7816164E-02  0.1300439E+00
        -11   -1    0    0    0    0  0.00000000000E+00  0.00000000000E+00  0.45593999997E+02  0.45594000000E+02  0.51100000000E-03 0.  1.
         11   -1    0    0    0    0 -0.00000000000E+00 -0.00000000000E+00 -0.45593999997E+02  0.45594000000E+02  0.51100000000E-03 0. -1.
    9900012    2    1    2    0    0  0.33646322172E+02  0.12435921541E+02  0.19142564855E+02  0.50528869052E+02  0.30000027969E+02 0.  0.
         12    1    1    2    0    0 -0.33646322172E+02 -0.12435921541E+02 -0.19142564855E+02  0.40659130948E+02  0.00000000000E+00 0. -1.
         11    1    3    3    0    0  0.80749072191E+00 -0.56269894254E+01 -0.18915050152E+01  0.59910635736E+01  0.51100000000E-03 0. -1.
        -11    1    3    3    0    0  0.26817875965E+02  0.10095323151E+02  0.11982673250E+02  0.31059595607E+02  0.51100000000E-03 0.  1.
         12    1    3    3    0    0  0.60209554845E+01  0.79675878147E+01  0.90513966206E+01  0.13478209871E+02  0.00000000000E+00 0. -1.
</event>
<event>
 7    1  0.6046695E-013  0.5052887E+02  0.7816164E-02  0.1300439E+00
        -11   -1    0    0    0    0  0.00000000000E+00  0.00000000000E+00  0.45593999997E+02  0.45594000000E+02  0.51100000000E-03 0.  1.
         11   -1    0    0    0    0 -0.00000000000E+00 -0.00000000000E+00 -0.45593999997E+02  0.45594000000E+02  0.51100000000E-03 0. -1.
    9900012    2    1    2    0    0  0.37021692702E+02  0.14818815001E+02  0.79348717305E+01  0.50528865750E+02  0.30000017935E+02 0.  0.
         12    1    1    2    0    0 -0.37021692702E+02 -0.14818815001E+02 -0.79348717305E+01  0.40659134250E+02  0.00000000000E+00 0. -1.
         11    1    3    3    0    0 -0.37263054221E+01 -0.24280108908E+00 -0.38498769852E+01  0.53633811658E+01  0.51100000000E-03 0. -1.
        -11    1    3    3    0    0  0.27412703992E+02  0.83517749315E+01  0.83269130029E+01  0.29842016773E+02  0.51100000000E-03 0.  1.
         12    1    3    3    0    0  0.13335294132E+02  0.67098411584E+01  0.34578357128E+01  0.15323467812E+02  0.00000000000E+00 0. -1.
</event>
<event>
 7    1  0.6046695E-013  0.5052882E+02  0.7816164E-02  0.1300439E+00
        -11   -1    0    0    0    0  0.00000000000E+00  0.00000000000E+00  0.45593999997E+02  0.45594000000E+02  0.51100000000E-03 0.  1.
         11   -1    0    0    0    0 -0.00000000000E+00 -0.00000000000E+00 -0.45593999997E+02  0.45594000000E+02  0.51100000000E-03 0. -1.
    9900012    2    1    2    0    0 -0.21535023552E+02 -0.34082842581E+01  0.34319022268E+02  0.50528819851E+02  0.29999878418E+02 0.  0.
         12    1    1    2    0    0  0.21535023552E+02  0.34082842581E+01 -0.34319022268E+02  0.40659180149E+02  0.00000000000E+00 0. -1.
         11    1    3    3    0    0  0.17098552383E+01  0.29549410852E+01  0.85640528562E+01  0.92194513578E+01  0.51100000000E-03 0. -1.
        -11    1    3    3    0    0 -0.25104291374E+02 -0.47301356268E+01  0.28046318635E+02  0.37936731774E+02  0.51100000000E-03 0.  1.
        -12    1    3    3    0    0  0.18594125834E+01 -0.16330897165E+01 -0.22913492233E+01  0.33726367194E+01  0.00000000000E+00 0.  1.
</event>
<event>
 7    1  0.6046695E-013  0.5052887E+02  0.7816164E-02  0.1300439E+00
        -11   -1    0    0    0    0  0.00000000000E+00  0.00000000000E+00  0.45593999997E+02  0.45594000000E+02  0.51100000000E-03 0.  1.
         11   -1    0    0    0    0 -0.00000000000E+00 -0.00000000000E+00 -0.45593999997E+02  0.45594000000E+02  0.51100000000E-03 0. -1.
    9900012    2    1    2    0    0  0.35292959807E+01  0.28869854931E+02  0.28411973036E+02  0.50528872296E+02  0.30000037831E+02 0.  0.
         12    1    1    2    0    0 -0.35292959807E+01 -0.28869854931E+02 -0.28411973036E+02  0.40659127704E+02  0.00000000000E+00 0. -1.
         11    1    3    3    0    0  0.69651464341E+01  0.95541188007E+01 -0.10378658927E+01  0.11868934947E+02  0.51100000000E-03 0. -1.
        -11    1    3    3    0    0 -0.45375604597E+00  0.10031393251E+02  0.26703413048E+02  0.28529055606E+02  0.51100000000E-03 0.  1.
        -12    1    3    3    0    0 -0.29820944074E+01  0.92843428799E+01  0.27464258802E+01  0.10130881743E+02  0.00000000000E+00 0.  1.
</event>
<event>
 7    1  0.6046695E-013  0.5052885E+02  0.7816164E-02  0.1300439E+00
        -11   -1    0    0    0    0  0.00000000000E+00  0.00000000000E+00  0.45593999997E+02  0.45594000000E+02  0.51100000000E-03 0.  1.
         11   -1    0    0    0    0 -0.00000000000E+00 -0.00000000000E+00 -0.45593999997E+02  0.45594000000E+02  0.51100000000E-03 0. -1.
    9900012    2    1    2    0    0  0.18988546736E+02 -0.96713815744E+01  0.34627536862E+02  0.50528845584E+02  0.29999956638E+02 0.  0.
         12    1    1    2    0    0 -0.18988546736E+02  0.96713815744E+01 -0.34627536862E+02  0.40659154416E+02  0.00000000000E+00 0. -1.
         11    1    3    3    0    0  0.83407586104E+01 -0.14899245519E+01  0.27997037965E-01  0.84728338507E+01  0.51100000000E-03 0. -1.
        -11    1    3    3    0    0  0.47687629508E+01 -0.13653139348E+02  0.28540584900E+02  0.31995535639E+02  0.51100000000E-03 0.  1.
        -12    1    3    3    0    0  0.58790251748E+01  0.54716823255E+01  0.60589549233E+01  0.10060476094E+02  0.00000000000E+00 0.  1.
</event>
<event>
 7    1  0.6046695E-013  0.5052887E+02  0.7816164E-02  0.1300439E+00
        -11   -1    0    0    0    0  0.00000000000E+00  0.00000000000E+00  0.45593999997E+02  0.45594000000E+02  0.51100000000E-03 0. -1.
         11   -1    0    0    0    0 -0.00000000000E+00 -0.00000000000E+00 -0.45593999997E+02  0.45594000000E+02  0.51100000000E-03 0.  1.
    9900012    2    1    2    0    0 -0.19934845063E+02  0.14521364360E+02 -0.32324862552E+02  0.50528870526E+02  0.30000032451E+02 0.  0.
         12    1    1    2    0    0  0.19934845063E+02 -0.14521364360E+02  0.32324862552E+02  0.40659129474E+02  0.00000000000E+00 0. -1.
         11    1    3    3    0    0  0.24264926591E+01  0.17264648342E+01 -0.82222686051E+01  0.87449556159E+01  0.51100000000E-03 0. -1.
        -11    1    3    3    0    0 -0.20761167204E+02  0.17822966302E+02 -0.24167624937E+02  0.36506962169E+02  0.51100000000E-03 0.  1.
         12    1    3    3    0    0 -0.16001705181E+01 -0.50280667766E+01  0.65030989814E-01  0.52769527406E+01  0.00000000000E+00 0. -1.
</event>
<event>
 7    1  0.6046695E-013  0.5052885E+02  0.7816164E-02  0.1300439E+00
        -11   -1    0    0    0    0  0.00000000000E+00  0.00000000000E+00  0.45593999997E+02  0.45594000000E+02  0.51100000000E-03 0. -1.
         11   -1    0    0    0    0 -0.00000000000E+00 -0.00000000000E+00 -0.45593999997E+02  0.45594000000E+02  0.51100000000E-03 0.  1.
    9900012    2    1    2    0    0 -0.10540340805E+02 -0.21153141386E+02 -0.33084926639E+02  0.50528849179E+02  0.29999967565E+02 0.  0.
         12    1    1    2    0    0  0.10540340805E+02  0.21153141386E+02  0.33084926639E+02  0.40659150821E+02  0.00000000000E+00 0. -1.
         11    1    3    3    0    0  0.51462943970E+01  0.35263223624E+00  0.13879145365E+01  0.53418164079E+01  0.51100000000E-03 0. -1.
        -11    1    3    3    0    0 -0.15451505115E+02 -0.14025766531E+02 -0.20054743546E+02  0.28942423466E+02  0.51100000000E-03 0.  1.
         12    1    3    3    0    0 -0.23513008731E+00 -0.74800070907E+01 -0.14418097629E+02  0.16244609305E+02  0.00000000000E+00 0. -1.
</event>
<event>
 7    1  0.6046695E-013  0.5052887E+02  0.7816164E-02  0.1300439E+00
        -11   -1    0    0    0    0  0.00000000000E+00  0.00000000000E+00  0.45593999997E+02  0.45594000000E+02  0.51100000000E-03 0.  1.
         11   -1    0    0    0    0 -0.00000000000E+00 -0.00000000000E+00 -0.45593999997E+02  0.45594000000E+02  0.51100000000E-03 0. -1.
    9900012    2    1    2    0    0 -0.16804695994E+01 -0.36906748232E+02  0.16977424401E+02  0.50528868400E+02  0.30000025990E+02 0.  0.
         12    1    1    2    0    0  0.16804695994E+01  0.36906748232E+02 -0.16977424401E+02  0.40659131600E+02  0.00000000000E+00 0. -1.
         11    1    3    3    0    0  0.28681770786E+01 -0.13856876107E+02 -0.62468328447E+01  0.15468108354E+02  0.51100000000E-03 0. -1.
        -11    1    3    3    0    0 -0.42260697908E+01 -0.21286188228E+02  0.14372884966E+02  0.26029623464E+02  0.51100000000E-03 0.  1.
        -12    1    3    3    0    0 -0.32257688710E+00 -0.17636838972E+01  0.88513722800E+01  0.90311365828E+01  0.00000000000E+00 0.  1.
</event>
<event>
 7    1  0.6046695E-013  0.5052886E+02  0.7816164E-02  0.1300439E+00
        -11   -1    0    0    0    0  0.00000000000E+00  0.00000000000E+00  0.45593999997E+02  0.45594000000E+02  0.51100000000E-03 0.  1.
         11   -1    0    0    0    0 -0.00000000000E+00 -0.00000000000E+00 -0.45593999997E+02  0.45594000000E+02  0.51100000000E-03 0. -1.
    9900012    2    1    2    0    0  0.30515525893E+02 -0.24876485705E+02  0.10155238815E+02  0.50528859122E+02  0.29999997788E+02 0.  0.
         12    1    1    2    0    0 -0.30515525893E+02  0.24876485705E+02 -0.10155238815E+02  0.40659140878E+02  0.00000000000E+00 0. -1.
         11    1    3    3    0    0  0.23200123010E+02 -0.59564728594E+01 -0.35772028617E+01  0.24218209207E+02  0.51100000000E-03 0. -1.
        -11    1    3    3    0    0  0.37530353802E+01 -0.70081248090E+00  0.16392010531E+01  0.41549239526E+01  0.51100000000E-03 0.  1.
         12    1    3    3    0    0  0.35623675019E+01 -0.18219200364E+02  0.12093240624E+02  0.22155725962E+02  0.00000000000E+00 0. -1.
</event>
<event>
 7    1  0.6046695E-013  0.5052887E+02  0.7816164E-02  0.1300439E+00
        -11   -1    0    0    0    0  0.00000000000E+00  0.00000000000E+00  0.45593999997E+02  0.45594000000E+02  0.51100000000E-03 0.  1.
         11   -1    0    0    0    0 -0.00000000000E+00 -0.00000000000E+00 -0.45593999997E+02  0.45594000000E+02  0.51100000000E-03 0. -1.
    9900012    2    1    2    0    0 -0.27234960822E+02  0.15894730740E+02  0.25666702669E+02  0.50528865945E+02  0.30000018525E+02 0.  0.
         12    1    1    2    0    0  0.27234960822E+02 -0.15894730740E+02 -0.25666702669E+02  0.40659134055E+02  0.00000000000E+00 0. -1.
         11    1    3    3    0    0 -0.13763660709E+02 -0.14377187859E+01  0.32077962622E+01  0.14205468966E+02  0.51100000000E-03 0. -1.
        -11    1    3    3    0    0 -0.13269268939E+02  0.16842782430E+02  0.25454178318E+02  0.33281646778E+02  0.51100000000E-03 0.  1.
         12    1    3    3    0    0 -0.20203117404E+00  0.48966709563E+00 -0.29952719115E+01  0.30417502008E+01  0.00000000000E+00 0. -1.
</event>
<event>
 7    1  0.6046695E-013  0.5052886E+02  0.7816164E-02  0.1300439E+00
        -11   -1    0    0    0    0  0.00000000000E+00  0.00000000000E+00  0.45593999997E+02  0.45594000000E+02  0.51100000000E-03 0. -1.
         11   -1    0    0    0    0 -0.00000000000E+00 -0.00000000000E+00 -0.45593999997E+02  0.45594000000E+02  0.51100000000E-03 0.  1.
    9900012    2    1    2    0    0  0.20834211107E+02 -0.14298887433E+02 -0.31853464848E+02  0.50528858874E+02  0.29999997033E+02 0.  0.
         12    1    1    2    0    0 -0.20834211107E+02  0.14298887433E+02  0.31853464848E+02  0.40659141126E+02  0.00000000000E+00 0. -1.
         11    1    3    3    0    0  0.25393579275E+01  0.11005141280E+01 -0.38663271549E+01  0.47547824303E+01  0.51100000000E-03 0. -1.
        -11    1    3    3    0    0 -0.83259704084E+00 -0.10460758864E+02 -0.23177271144E+02  0.25442220654E+02  0.51100000000E-03 0.  1.
        -12    1    3    3    0    0  0.19127450221E+02 -0.49386426969E+01 -0.48098665493E+01  0.20331855790E+02  0.00000000000E+00 0.  1.
</event>
<event>
 7    1  0.6046695E-013  0.5052886E+02  0.7816164E-02  0.1300439E+00
        -11   -1    0    0    0    0  0.00000000000E+00  0.00000000000E+00  0.45593999997E+02  0.45594000000E+02  0.51100000000E-03 0. -1.
         11   -1    0    0    0    0 -0.00000000000E+00 -0.00000000000E+00 -0.45593999997E+02  0.45594000000E+02  0.51100000000E-03 0.  1.
    9900012    2    1    2    0    0 -0.35650517840E+02 -0.18774881767E+02  0.54506942453E+01  0.50528859879E+02  0.30000000087E+02 0.  0.
         12    1    1    2    0    0  0.35650517840E+02  0.18774881767E+02 -0.54506942453E+01  0.40659140121E+02  0.00000000000E+00 0. -1.
         11    1    3    3    0    0  0.74431414375E+00 -0.10526365928E+02  0.58596346445E+01  0.12070364602E+02  0.51100000000E-03 0. -1.
        -11    1    3    3    0    0 -0.30050716601E+02 -0.63505530808E+01 -0.39196173483E+01  0.30963502597E+02  0.51100000000E-03 0.  1.
        -12    1    3    3    0    0 -0.63441153831E+01 -0.18979627584E+01  0.35106769491E+01  0.74949926796E+01  0.00000000000E+00 0.  1.
</event>
<event>
 7    1  0.6046695E-013  0.5052886E+02  0.7816164E-02  0.1300439E+00
        -11   -1    0    0    0    0  0.00000000000E+00  0.00000000000E+00  0.45593999997E+02  0.45594000000E+02  0.51100000000E-03 0.  1.
         11   -1    0    0    0    0 -0.00000000000E+00 -0.00000000000E+00 -0.45593999997E+02  0.45594000000E+02  0.51100000000E-03 0. -1.
    9900012    2    1    2    0    0 -0.38921855626E+02 -0.54131054230E+00  0.11745708218E+02  0.50528861740E+02  0.30000005746E+02 0.  0.
         12    1    1    2    0    0  0.38921855626E+02  0.54131054230E+00 -0.11745708218E+02  0.40659138260E+02  0.00000000000E+00 0. -1.
         11    1    3    3    0    0 -0.23425769331E+02 -0.76871127359E+01 -0.54287277563E+01  0.25245384851E+02  0.51100000000E-03 0. -1.
        -11    1    3    3    0    0 -0.99636615412E+01  0.70579892992E+01  0.80915793164E+01  0.14647983491E+02  0.51100000000E-03 0.  1.
         12    1    3    3    0    0 -0.55324247541E+01  0.87812894369E-01  0.90828566577E+01  0.10635493398E+02  0.00000000000E+00 0. -1.
</event>
<event>
 7    1  0.6046695E-013  0.5052883E+02  0.7816164E-02  0.1300439E+00
        -11   -1    0    0    0    0  0.00000000000E+00  0.00000000000E+00  0.45593999997E+02  0.45594000000E+02  0.51100000000E-03 0.  1.
         11   -1    0    0    0    0 -0.00000000000E+00 -0.00000000000E+00 -0.45593999997E+02  0.45594000000E+02  0.51100000000E-03 0. -1.
    9900012    2    1    2    0    0 -0.34013416012E+01 -0.36328928070E+02  0.17938995784E+02  0.50528834869E+02  0.29999924067E+02 0.  0.
         12    1    1    2    0    0  0.34013416012E+01  0.36328928070E+02 -0.17938995784E+02  0.40659165131E+02  0.00000000000E+00 0. -1.
         11    1    3    3    0    0 -0.10893822169E+02 -0.13807640515E+02  0.94439219012E+01  0.19962814411E+02  0.51100000000E-03 0.  1.
        -11    1    3    3    0    0  0.11409506669E+02 -0.97003868990E+01  0.55694175316E+00  0.14986144694E+02  0.51100000000E-03 0. -1.
        -12    1    3    3    0    0 -0.39170261004E+01 -0.12820900656E+02  0.79381321298E+01  0.15579875764E+02  0.00000000000E+00 0.  1.
</event>
<event>
 7    1  0.6046695E-013  0.5052886E+02  0.7816164E-02  0.1300439E+00
        -11   -1    0    0    0    0  0.00000000000E+00  0.00000000000E+00  0.45593999997E+02  0.45594000000E+02  0.51100000000E-03 0.  1.
         11   -1    0    0    0    0 -0.00000000000E+00 -0.00000000000E+00 -0.45593999997E+02  0.45594000000E+02  0.51100000000E-03 0. -1.
    9900012    2    1    2    0    0 -0.26580374515E+01 -0.26948459027E+02  0.30329535313E+02  0.50528864258E+02  0.30000013398E+02 0.  0.
         12    1    1    2    0    0  0.26580374515E+01  0.26948459027E+02 -0.30329535313E+02  0.40659135742E+02  0.00000000000E+00 0. -1.
         11    1    3    3    0    0  0.75728742165E+00 -0.79939191319E+00 -0.35463237320E+01  0.37133440378E+01  0.51100000000E-03 0. -1.
        -11    1    3    3    0    0 -0.89046879723E+01 -0.16850758461E+02  0.29593292587E+02  0.35199495664E+02  0.51100000000E-03 0.  1.
         12    1    3    3    0    0  0.54893630991E+01 -0.92983086525E+01  0.42825664580E+01  0.11616024557E+02  0.00000000000E+00 0. -1.
</event>
<event>
 7    1  0.6046695E-013  0.5052880E+02  0.7816164E-02  0.1300439E+00
        -11   -1    0    0    0    0  0.00000000000E+00  0.00000000000E+00  0.45593999997E+02  0.45594000000E+02  0.51100000000E-03 0. -1.
         11   -1    0    0    0    0 -0.00000000000E+00 -0.00000000000E+00 -0.45593999997E+02  0.45594000000E+02  0.51100000000E-03 0.  1.
    9900012    2    1    2    0    0 -0.53263799292E+01 -0.10461147986E+02 -0.38927682618E+02  0.50528801602E+02  0.29999822949E+02 0.  0.
         12    1    1    2    0    0  0.53263799292E+01  0.10461147986E+02  0.38927682618E+02  0.40659198398E+02  0.00000000000E+00 0. -1.
         11    1    3    3    0    0  0.26082943235E+01  0.47310967186E+01  0.20286618621E+01  0.57707837120E+01  0.51100000000E-03 0. -1.
        -11    1    3    3    0    0 -0.36288809470E+01 -0.11412542799E+02 -0.31522411280E+02  0.33720577149E+02  0.51100000000E-03 0.  1.
         12    1    3    3    0    0 -0.43057933057E+01 -0.37797019054E+01 -0.94339332004E+01  0.11037440741E+02  0.00000000000E+00 0. -1.
</event>
<event>
 7    1  0.6046695E-013  0.5052887E+02  0.7816164E-02  0.1300439E+00
        -11   -1    0    0    0    0  0.00000000000E+00  0.00000000000E+00  0.45593999997E+02  0.45594000000E+02  0.51100000000E-03 0. -1.
         11   -1    0    0    0    0 -0.00000000000E+00 -0.00000000000E+00 -0.45593999997E+02  0.45594000000E+02  0.51100000000E-03 0.  1.
    9900012    2    1    2    0    0  0.50857420857E+01 -0.38576908225E+02 -0.11795021521E+02  0.50528866297E+02  0.30000019597E+02 0.  0.
         12    1    1    2    0    0 -0.50857420857E+01  0.38576908225E+02  0.11795021521E+02  0.40659133703E+02  0.00000000000E+00 0. -1.
         11    1    3    3    0    0  0.14409799013E+02 -0.18832841494E+02 -0.13165998884E+01  0.23749771827E+02  0.51100000000E-03 0. -1.
        -11    1    3    3    0    0 -0.34876694382E+01 -0.28355002516E+01 -0.73567513917E+01  0.86212348934E+01  0.51100000000E-03 0.  1.
         12    1    3    3    0    0 -0.58363874886E+01 -0.16908566480E+02 -0.31216702407E+01  0.18157859577E+02  0.00000000000E+00 0. -1.
</event>
<event>
 7    1  0.6046695E-013  0.5052886E+02  0.7816164E-02  0.1300439E+00
        -11   -1    0    0    0    0  0.00000000000E+00  0.00000000000E+00  0.45593999997E+02  0.45594000000E+02  0.51100000000E-03 0.  1.
         11   -1    0    0    0    0 -0.00000000000E+00 -0.00000000000E+00 -0.45593999997E+02  0.45594000000E+02  0.51100000000E-03 0. -1.
    9900012    2    1    2    0    0  0.41574665482E+01 -0.27893837405E+02  0.29288483879E+02  0.50528856118E+02  0.29999988655E+02 0.  0.
         12    1    1    2    0    0 -0.41574665482E+01  0.27893837405E+02 -0.29288483879E+02  0.40659143882E+02  0.00000000000E+00 0. -1.
         11    1    3    3    0    0  0.11769134985E+02 -0.54002375566E+01  0.15022412548E+02  0.19833002370E+02  0.51100000000E-03 0. -1.
        -11    1    3    3    0    0 -0.40414491691E+01 -0.80533507275E+01  0.12931381043E+02  0.15761040108E+02  0.51100000000E-03 0.  1.
         12    1    3    3    0    0 -0.35702192680E+01 -0.14440249121E+02  0.13346902883E+01  0.14934813640E+02  0.00000000000E+00 0. -1.
</event>
<event>
 7    1  0.6046695E-013  0.5052886E+02  0.7816164E-02  0.1300439E+00
        -11   -1    0    0    0    0  0.00000000000E+00  0.00000000000E+00  0.45593999997E+02  0.45594000000E+02  0.51100000000E-03 0.  1.
         11   -1    0    0    0    0 -0.00000000000E+00 -0.00000000000E+00 -0.45593999997E+02  0.45594000000E+02  0.51100000000E-03 0. -1.
    9900012    2    1    2    0    0 -0.37956642600E+02 -0.86002460181E+01  0.11768378107E+02  0.50528859916E+02  0.30000000202E+02 0.  0.
         12    1    1    2    0    0  0.37956642600E+02  0.86002460181E+01 -0.11768378107E+02  0.40659140084E+02  0.00000000000E+00 0. -1.
         11    1    3    3    0    0  0.64582217327E+00 -0.88346995919E+01  0.71655664062E+01  0.11393609847E+02  0.51100000000E-03 0. -1.
        -11    1    3    3    0    0 -0.33835238943E+02 -0.11425016830E+01  0.33667803008E+01  0.34021521340E+02  0.51100000000E-03 0.  1.
         12    1    3    3    0    0 -0.47672258307E+01  0.13769552568E+01  0.12360313996E+01  0.51137287297E+01  0.00000000000E+00 0. -1.
</event>
<event>
 7    1  0.6046695E-013  0.5052886E+02  0.7816164E-02  0.1300439E+00
        -11   -1    0    0    0    0  0.00000000000E+00  0.00000000000E+00  0.45593999997E+02  0.45594000000E+02  0.51100000000E-03 0.  1.
         11   -1    0    0    0    0 -0.00000000000E+00 -0.00000000000E+00 -0.45593999997E+02  0.45594000000E+02  0.51100000000E-03 0. -1.
    9900012    2    1    2    0    0  0.37219335391E+02  0.15306485921E+02 -0.57963768622E+01  0.50528862983E+02  0.30000009523E+02 0.  0.
         12    1    1    2    0    0 -0.37219335391E+02 -0.15306485921E+02  0.57963768622E+01  0.40659137017E+02  0.00000000000E+00 0. -1.
         11    1    3    3    0    0  0.21802703336E+02  0.90787744576E+01 -0.14936793259E+02  0.27944405728E+02  0.51100000000E-03 0. -1.
        -11    1    3    3    0    0  0.16478470422E+02  0.78851456457E+01  0.67200063148E+01  0.19464685829E+02  0.51100000000E-03 0.  1.
        -12    1    3    3    0    0 -0.10618383662E+01 -0.16574341819E+01  0.24204100818E+01  0.31197714255E+01  0.00000000000E+00 0.  1.
</event>
<event>
 7    1  0.6046695E-013  0.5052885E+02  0.7816164E-02  0.1300439E+00
        -11   -1    0    0    0    0  0.00000000000E+00  0.00000000000E+00  0.45593999997E+02  0.45594000000E+02  0.51100000000E-03 0. -1.
         11   -1    0    0    0    0 -0.00000000000E+00 -0.00000000000E+00 -0.45593999997E+02  0.45594000000E+02  0.51100000000E-03 0.  1.
    9900012    2    1    2    0    0 -0.56355988260E+01  0.39536335155E+02 -0.76344678439E+01  0.50528845177E+02  0.29999955401E+02 0.  0.
         12    1    1    2    0    0  0.56355988260E+01 -0.39536335155E+02  0.76344678439E+01  0.40659154823E+02  0.00000000000E+00 0. -1.
         11    1    3    3    0    0  0.65131835859E+01  0.48526618791E+00 -0.63807528950E+01  0.91307749652E+01  0.51100000000E-03 0. -1.
        -11    1    3    3    0    0 -0.95610556875E+01  0.27989606925E+02  0.18074763941E+01  0.29632732794E+02  0.51100000000E-03 0.  1.
         12    1    3    3    0    0 -0.25877267244E+01  0.11061462043E+02 -0.30611913431E+01  0.11765337418E+02  0.00000000000E+00 0. -1.
</event>
<event>
 7    1  0.6046695E-013  0.5052886E+02  0.7816164E-02  0.1300439E+00
        -11   -1    0    0    0    0  0.00000000000E+00  0.00000000000E+00  0.45593999997E+02  0.45594000000E+02  0.51100000000E-03 0.  1.
         11   -1    0    0    0    0 -0.00000000000E+00 -0.00000000000E+00 -0.45593999997E+02  0.45594000000E+02  0.51100000000E-03 0. -1.
    9900012    2    1    2    0    0  0.14786024426E+02 -0.14171816870E+02  0.35124052804E+02  0.50528855923E+02  0.29999988062E+02 0.  0.
         12    1    1    2    0    0 -0.14786024426E+02  0.14171816870E+02 -0.35124052804E+02  0.40659144077E+02  0.00000000000E+00 0. -1.
         11    1    3    3    0    0  0.84378480420E+01  0.47243487155E+01  0.99054812374E+01  0.13843240559E+02  0.51100000000E-03 0. -1.
        -11    1    3    3    0    0 -0.52234728953E+01 -0.11445786387E+02  0.14794676239E+02  0.19420945919E+02  0.51100000000E-03 0.  1.
        -12    1    3    3    0    0  0.11571649279E+02 -0.74503791981E+01  0.10423895328E+02  0.17264669445E+02  0.00000000000E+00 0.  1.
</event>
<event>
 7    1  0.6046695E-013  0.5052886E+02  0.7816164E-02  0.1300439E+00
        -11   -1    0    0    0    0  0.00000000000E+00  0.00000000000E+00  0.45593999997E+02  0.45594000000E+02  0.51100000000E-03 0.  1.
         11   -1    0    0    0    0 -0.00000000000E+00 -0.00000000000E+00 -0.45593999997E+02  0.45594000000E+02  0.51100000000E-03 0. -1.
    9900012    2    1    2    0    0 -0.36593515504E+02 -0.90469383512E+01  0.15239199875E+02  0.50528859781E+02  0.29999999791E+02 0.  0.
         12    1    1    2    0    0  0.36593515504E+02  0.90469383512E+01 -0.15239199875E+02  0.40659140219E+02  0.00000000000E+00 0. -1.
         11    1    3    3    0    0 -0.25710694330E+02  0.51630535372E+01 -0.10381022659E+01  0.26244515262E+02  0.51100000000E-03 0. -1.
        -11    1    3    3    0    0 -0.66667736098E+01 -0.89273177029E+01  0.11466498894E+02  0.15988229073E+02  0.51100000000E-03 0.  1.
         12    1    3    3    0    0 -0.42160475641E+01 -0.52826741854E+01  0.48108032472E+01  0.82961154461E+01  0.00000000000E+00 0. -1.
</event>
<event>
 7    1  0.6046695E-013  0.5052887E+02  0.7816164E-02  0.1300439E+00
        -11   -1    0    0    0    0  0.00000000000E+00  0.00000000000E+00  0.45593999997E+02  0.45594000000E+02  0.51100000000E-03 0.  1.
         11   -1    0    0    0    0 -0.00000000000E+00 -0.00000000000E+00 -0.45593999997E+02  0.45594000000E+02  0.51100000000E-03 0. -1.
    9900012    2    1    2    0    0  0.35479569807E+02  0.82329200860E+01 -0.18071638506E+02  0.50528868614E+02  0.30000026638E+02 0.  0.
         12    1    1    2    0    0 -0.35479569807E+02 -0.82329200860E+01  0.18071638506E+02  0.40659131386E+02  0.00000000000E+00 0. -1.
         11    1    3    3    0    0  0.24775204387E+02  0.16636327971E+02 -0.29215704849E+01  0.29985225281E+02  0.51100000000E-03 0. -1.
        -11    1    3    3    0    0  0.33388322652E+01 -0.39886202274E+01 -0.68463326018E+01  0.85982069392E+01  0.51100000000E-03 0.  1.
         12    1    3    3    0    0  0.73655331548E+01 -0.44147876581E+01 -0.83037354191E+01  0.11945436393E+02  0.00000000000E+00 0. -1.
</event>
<event>
 7    1  0.6046695E-013  0.5052886E+02  0.7816164E-02  0.1300439E+00
        -11   -1    0    0    0    0  0.00000000000E+00  0.00000000000E+00  0.45593999997E+02  0.45594000000E+02  0.51100000000E-03 0. -1.
         11   -1    0    0    0    0 -0.00000000000E+00 -0.00000000000E+00 -0.45593999997E+02  0.45594000000E+02  0.51100000000E-03 0.  1.
    9900012    2    1    2    0    0  0.32122244912E+02 -0.15165707256E+01 -0.24880259054E+02  0.50528857171E+02  0.29999991858E+02 0.  0.
         12    1    1    2    0    0 -0.32122244912E+02  0.15165707256E+01  0.24880259054E+02  0.40659142829E+02  0.00000000000E+00 0. -1.
         11    1    3    3    0    0 -0.36972831295E+00 -0.73970937381E+01 -0.19432507793E+01  0.76570176079E+01  0.51100000000E-03 0. -1.
        -11    1    3    3    0    0  0.32774979275E+02  0.80559571073E+01 -0.20088663539E+02  0.39276610271E+02  0.51100000000E-03 0.  1.
        -12    1    3    3    0    0 -0.28300604993E+00 -0.21754340948E+01 -0.28483447364E+01  0.35952292921E+01  0.00000000000E+00 0.  1.
</event>
<event>
 7    1  0.6046695E-013  0.5052886E+02  0.7816164E-02  0.1300439E+00
        -11   -1    0    0    0    0  0.00000000000E+00  0.00000000000E+00  0.45593999997E+02  0.45594000000E+02  0.51100000000E-03 0.  1.
         11   -1    0    0    0    0 -0.00000000000E+00 -0.00000000000E+00 -0.45593999997E+02  0.45594000000E+02  0.51100000000E-03 0. -1.
    9900012    2    1    2    0    0  0.69660929268E+01 -0.28125759497E+02  0.28523338707E+02  0.50528860204E+02  0.30000001075E+02 0.  0.
         12    1    1    2    0    0 -0.69660929268E+01  0.28125759497E+02 -0.28523338707E+02  0.40659139796E+02  0.00000000000E+00 0. -1.
         11    1    3    3    0    0 -0.17894925212E+01 -0.16067441574E+01 -0.10510448175E+01  0.26246153509E+01  0.51100000000E-03 0. -1.
        -11    1    3    3    0    0  0.34929668414E+01 -0.24181675641E+02  0.33108701980E+02  0.41147787319E+02  0.51100000000E-03 0.  1.
        -12    1    3    3    0    0  0.52626186066E+01 -0.23373396987E+01 -0.35343184551E+01  0.67564575340E+01  0.00000000000E+00 0.  1.
</event>
<event>
 7    1  0.6046695E-013  0.5052887E+02  0.7816164E-02  0.1300439E+00
        -11   -1    0    0    0    0  0.00000000000E+00  0.00000000000E+00  0.45593999997E+02  0.45594000000E+02  0.51100000000E-03 0. -1.
         11   -1    0    0    0    0 -0.00000000000E+00 -0.00000000000E+00 -0.45593999997E+02  0.45594000000E+02  0.51100000000E-03 0.  1.
    9900012    2    1    2    0    0  0.38287995408E+02 -0.69204745240E+00  0.13664391878E+02  0.50528866618E+02  0.30000020571E+02 0.  0.
         12    1    1    2    0    0 -0.38287995408E+02  0.69204745240E+00 -0.13664391878E+02  0.40659133382E+02  0.00000000000E+00 0. -1.
         11    1    3    3    0    0  0.98525632662E+01 -0.37144326296E+01  0.17297439590E+02  0.20250220475E+02  0.51100000000E-03 0. -1.
        -11    1    3    3    0    0  0.20381274309E+02 -0.19607347365E+01 -0.37019540119E+01  0.20807337334E+02  0.51100000000E-03 0.  1.
        -12    1    3    3    0    0  0.80541578319E+01  0.49831199137E+01  0.68906299766E-01  0.94713088079E+01  0.00000000000E+00 0.  1.
</event>
<event>
 7    1  0.6046695E-013  0.5052895E+02  0.7816164E-02  0.1300438E+00
        -11   -1    0    0    0    0  0.00000000000E+00  0.00000000000E+00  0.45593999997E+02  0.45594000000E+02  0.51100000000E-03 0.  1.
         11   -1    0    0    0    0 -0.00000000000E+00 -0.00000000000E+00 -0.45593999997E+02  0.45594000000E+02  0.51100000000E-03 0. -1.
    9900012    2    1    2    0    0  0.34195836281E+02  0.72851798372E+01  0.20754019056E+02  0.50528949701E+02  0.30000273110E+02 0.  0.
         12    1    1    2    0    0 -0.34195836281E+02 -0.72851798372E+01 -0.20754019056E+02  0.40659050299E+02  0.00000000000E+00 0. -1.
         11    1    3    3    0    0  0.82212469578E+01 -0.53651376650E+01  0.14602997994E+02  0.17596055080E+02  0.51100000000E-03 0. -1.
        -11    1    3    3    0    0  0.60314765396E+01  0.10173778013E+02 -0.28635635543E+00  0.11830742518E+02  0.51100000000E-03 0.  1.
         12    1    3    3    0    0  0.19943112784E+02  0.24765394892E+01  0.64373774176E+01  0.21102152103E+02  0.00000000000E+00 0. -1.
</event>
<event>
 7    1  0.6046695E-013  0.5052886E+02  0.7816164E-02  0.1300439E+00
        -11   -1    0    0    0    0  0.00000000000E+00  0.00000000000E+00  0.45593999997E+02  0.45594000000E+02  0.51100000000E-03 0.  1.
         11   -1    0    0    0    0 -0.00000000000E+00 -0.00000000000E+00 -0.45593999997E+02  0.45594000000E+02  0.51100000000E-03 0. -1.
    9900012    2    1    2    0    0 -0.27745407676E+02 -0.29281730768E+02 -0.50929666948E+01  0.50528859409E+02  0.29999998659E+02 0.  0.
         12    1    1    2    0    0  0.27745407676E+02  0.29281730768E+02  0.50929666948E+01  0.40659140591E+02  0.00000000000E+00 0. -1.
         11    1    3    3    0    0 -0.17771219672E+02 -0.27536371123E+02 -0.23453628645E+01  0.32856790934E+02  0.51100000000E-03 0. -1.
        -11    1    3    3    0    0 -0.11416354857E+02 -0.34759709610E+01  0.22919783408E+01  0.12151900975E+02  0.51100000000E-03 0.  1.
         12    1    3    3    0    0  0.14421668534E+01  0.17306113164E+01 -0.50395821711E+01  0.55201674993E+01  0.00000000000E+00 0. -1.
</event>
<event>
 7    1  0.6046695E-013  0.5052889E+02  0.7816164E-02  0.1300439E+00
        -11   -1    0    0    0    0  0.00000000000E+00  0.00000000000E+00  0.45593999997E+02  0.45594000000E+02  0.51100000000E-03 0.  1.
         11   -1    0    0    0    0 -0.00000000000E+00 -0.00000000000E+00 -0.45593999997E+02  0.45594000000E+02  0.51100000000E-03 0. -1.
    9900012    2    1    2    0    0 -0.37975961733E+02 -0.31798064394E+01  0.14173167210E+02  0.50528886540E+02  0.30000081128E+02 0.  0.
         12    1    1    2    0    0  0.37975961733E+02  0.31798064394E+01 -0.14173167210E+02  0.40659113460E+02  0.00000000000E+00 0. -1.
         11    1    3    3    0    0 -0.35083896088E+01  0.56166353183E+01 -0.39881637911E+01  0.77305136072E+01  0.51100000000E-03 0. -1.
        -11    1    3    3    0    0 -0.32512785227E+02 -0.45005830265E+01  0.11804467658E+02  0.34880967701E+02  0.51100000000E-03 0.  1.
        -12    1    3    3    0    0 -0.19547868976E+01 -0.42958587312E+01  0.63568633429E+01  0.79174052324E+01  0.00000000000E+00 0.  1.
</event>
<event>
 7    1  0.6046695E-013  0.5052892E+02  0.7816164E-02  0.1300439E+00
        -11   -1    0    0    0    0  0.00000000000E+00  0.00000000000E+00  0.45593999997E+02  0.45594000000E+02  0.51100000000E-03 0.  1.
         11   -1    0    0    0    0 -0.00000000000E+00 -0.00000000000E+00 -0.45593999997E+02  0.45594000000E+02  0.51100000000E-03 0. -1.
    9900012    2    1    2    0    0 -0.22515611607E+02 -0.29226837083E+02  0.17088011674E+02  0.50528918420E+02  0.30000178030E+02 0.  0.
         12    1    1    2    0    0  0.22515611607E+02  0.29226837083E+02 -0.17088011674E+02  0.40659081580E+02  0.00000000000E+00 0. -1.
         11    1    3    3    0    0 -0.77089716426E+00 -0.17219455678E+02  0.17559309486E+02  0.24605553970E+02  0.51100000000E-03 0. -1.
        -11    1    3    3    0    0 -0.15128956756E+02 -0.67137287840E+01  0.29008922883E+01  0.16804007351E+02  0.51100000000E-03 0.  1.
         12    1    3    3    0    0 -0.66157576863E+01 -0.52936526213E+01 -0.33721901003E+01  0.91193570997E+01  0.00000000000E+00 0. -1.
</event>
<event>
 7    1  0.6046695E-013  0.5052885E+02  0.7816164E-02  0.1300439E+00
        -11   -1    0    0    0    0  0.00000000000E+00  0.00000000000E+00  0.45593999997E+02  0.45594000000E+02  0.51100000000E-03 0.  1.
         11   -1    0    0    0    0 -0.00000000000E+00 -0.00000000000E+00 -0.45593999997E+02  0.45594000000E+02  0.51100000000E-03 0. -1.
    9900012    2    1    2    0    0  0.16135559680E+01 -0.30949132474E+01  0.40509061551E+02  0.50528854428E+02  0.29999983520E+02 0.  0.
         12    1    1    2    0    0 -0.16135559680E+01  0.30949132474E+01 -0.40509061551E+02  0.40659145572E+02  0.00000000000E+00 0. -1.
         11    1    3    3    0    0 -0.22641985010E+01 -0.56625196367E+01 -0.61849639324E+00  0.61297032178E+01  0.51100000000E-03 0. -1.
        -11    1    3    3    0    0  0.10423643949E+01 -0.61949050966E+01  0.25474848679E+02  0.26237974162E+02  0.51100000000E-03 0.  1.
         12    1    3    3    0    0  0.28353900741E+01  0.87625114859E+01  0.15652709266E+02  0.18161177048E+02  0.00000000000E+00 0. -1.
</event>
<event>
 7    1  0.6046695E-013  0.5052886E+02  0.7816164E-02  0.1300439E+00
        -11   -1    0    0    0    0  0.00000000000E+00  0.00000000000E+00  0.45593999997E+02  0.45594000000E+02  0.51100000000E-03 0. -1.
         11   -1    0    0    0    0 -0.00000000000E+00 -0.00000000000E+00 -0.45593999997E+02  0.45594000000E+02  0.51100000000E-03 0.  1.
    9900012    2    1    2    0    0 -0.12843373666E+01 -0.40566796412E+02  0.24189997138E+01  0.50528855232E+02  0.29999985964E+02 0.  0.
         12    1    1    2    0    0  0.12843373666E+01  0.40566796412E+02 -0.24189997138E+01  0.40659144768E+02  0.00000000000E+00 0. -1.
         11    1    3    3    0    0  0.44713020951E+01 -0.66724780034E+01  0.56703258067E+01  0.98319428470E+01  0.51100000000E-03 0.  1.
        -11    1    3    3    0    0 -0.16127589952E+01 -0.13232899506E+02 -0.11946722980E+02  0.17900693034E+02  0.51100000000E-03 0. -1.
         12    1    3    3    0    0 -0.41428804665E+01 -0.20661418903E+02  0.86953968868E+01  0.22796219351E+02  0.00000000000E+00 0. -1.
</event>
<event>
 7    1  0.6046695E-013  0.5052884E+02  0.7816164E-02  0.1300439E+00
        -11   -1    0    0    0    0  0.00000000000E+00  0.00000000000E+00  0.45593999997E+02  0.45594000000E+02  0.51100000000E-03 0.  1.
         11   -1    0    0    0    0 -0.00000000000E+00 -0.00000000000E+00 -0.45593999997E+02  0.45594000000E+02  0.51100000000E-03 0. -1.
    9900012    2    1    2    0    0 -0.15452147315E+02 -0.30776680402E+02  0.21614672568E+02  0.50528843794E+02  0.29999951195E+02 0.  0.
         12    1    1    2    0    0  0.15452147315E+02  0.30776680402E+02 -0.21614672568E+02  0.40659156206E+02  0.00000000000E+00 0. -1.
         11    1    3    3    0    0 -0.86620993234E+00 -0.11681011162E+01 -0.12411755305E+01  0.19118830569E+01  0.51100000000E-03 0. -1.
        -11    1    3    3    0    0 -0.14532156592E+02 -0.30437038372E+01  0.14539075211E+02  0.20780577868E+02  0.51100000000E-03 0.  1.
        -12    1    3    3    0    0 -0.53780790628E-01 -0.26564875448E+02  0.83167728875E+01  0.27836382869E+02  0.00000000000E+00 0.  1.
</event>
<event>
 7    1  0.6046695E-013  0.5052885E+02  0.7816164E-02  0.1300439E+00
        -11   -1    0    0    0    0  0.00000000000E+00  0.00000000000E+00  0.45593999997E+02  0.45594000000E+02  0.51100000000E-03 0. -1.
         11   -1    0    0    0    0 -0.00000000000E+00 -0.00000000000E+00 -0.45593999997E+02  0.45594000000E+02  0.51100000000E-03 0.  1.
    9900012    2    1    2    0    0 -0.39153122782E+02  0.96809737647E+01 -0.51456817882E+01  0.50528851980E+02  0.29999976078E+02 0.  0.
         12    1    1    2    0    0  0.39153122782E+02 -0.96809737647E+01  0.51456817882E+01  0.40659148020E+02  0.00000000000E+00 0. -1.
         11    1    3    3    0    0  0.17363660963E+01  0.18846424636E+01  0.39317373708E+01  0.46931229954E+01  0.51100000000E-03 0. -1.
        -11    1    3    3    0    0 -0.34495993209E+02  0.70966105355E+01 -0.13832180588E+02  0.37837344630E+02  0.51100000000E-03 0.  1.
         12    1    3    3    0    0 -0.63934956697E+01  0.69972076562E+00  0.47547614293E+01  0.79983843542E+01  0.00000000000E+00 0. -1.
</event>
<event>
 7    1  0.6046695E-013  0.5052879E+02  0.7816164E-02  0.1300439E+00
        -11   -1    0    0    0    0  0.00000000000E+00  0.00000000000E+00  0.45593999997E+02  0.45594000000E+02  0.51100000000E-03 0. -1.
         11   -1    0    0    0    0 -0.00000000000E+00 -0.00000000000E+00 -0.45593999997E+02  0.45594000000E+02  0.51100000000E-03 0.  1.
    9900012    2    1    2    0    0  0.28130137107E+02  0.49605042185E+01 -0.28935454418E+02  0.50528785324E+02  0.29999773469E+02 0.  0.
         12    1    1    2    0    0 -0.28130137107E+02 -0.49605042185E+01  0.28935454418E+02  0.40659214676E+02  0.00000000000E+00 0. -1.
         11    1    3    3    0    0  0.14211268376E+02 -0.10094045079E+02 -0.75320028387E+01  0.18988969481E+02  0.51100000000E-03 0. -1.
        -11    1    3    3    0    0  0.33849713409E+01  0.63531136747E+01 -0.14283833938E+01  0.73389620331E+01  0.51100000000E-03 0.  1.
        -12    1    3    3    0    0  0.10533897390E+02  0.87014356229E+01 -0.19975068185E+02  0.24200853810E+02  0.00000000000E+00 0.  1.
</event>
<event>
 7    1  0.6046695E-013  0.5052886E+02  0.7816164E-02  0.1300439E+00
        -11   -1    0    0    0    0  0.00000000000E+00  0.00000000000E+00  0.45593999997E+02  0.45594000000E+02  0.51100000000E-03 0. -1.
         11   -1    0    0    0    0 -0.00000000000E+00 -0.00000000000E+00 -0.45593999997E+02  0.45594000000E+02  0.51100000000E-03 0.  1.
    9900012    2    1    2    0    0  0.24104834365E+02  0.32733944200E+02  0.78201679114E+00  0.50528859664E+02  0.29999999434E+02 0.  0.
         12    1    1    2    0    0 -0.24104834365E+02 -0.32733944200E+02 -0.78201679114E+00  0.40659140336E+02  0.00000000000E+00 0. -1.
         11    1    3    3    0    0  0.25524741410E+01 -0.39103530238E+01  0.57725292077E+01  0.74248285318E+01  0.51100000000E-03 0. -1.
        -11    1    3    3    0    0  0.85207895424E+01  0.13517861424E+02  0.54143816113E+00  0.15988420417E+02  0.51100000000E-03 0.  1.
         12    1    3    3    0    0  0.13031570682E+02  0.23126435800E+02 -0.55319505777E+01  0.27115610714E+02  0.00000000000E+00 0. -1.
</event>
<event>
 7    1  0.6046695E-013  0.5052886E+02  0.7816164E-02  0.1300439E+00
        -11   -1    0    0    0    0  0.00000000000E+00  0.00000000000E+00  0.45593999997E+02  0.45594000000E+02  0.51100000000E-03 0.  1.
         11   -1    0    0    0    0 -0.00000000000E+00 -0.00000000000E+00 -0.45593999997E+02  0.45594000000E+02  0.51100000000E-03 0. -1.
    9900012    2    1    2    0    0 -0.36650211877E+02  0.16987720416E+02  0.46200420714E+01  0.50528862475E+02  0.30000007978E+02 0.  0.
         12    1    1    2    0    0  0.36650211877E+02 -0.16987720416E+02 -0.46200420714E+01  0.40659137525E+02  0.00000000000E+00 0. -1.
         11    1    3    3    0    0 -0.46386681243E+01  0.21105536794E+01 -0.58560541886E+01  0.77630567254E+01  0.51100000000E-03 0. -1.
        -11    1    3    3    0    0 -0.27684796126E+01  0.28632177049E+00  0.96830967561E+01  0.10075158687E+02  0.51100000000E-03 0.  1.
        -12    1    3    3    0    0 -0.29243064140E+02  0.14590844966E+02  0.79299950397E+00  0.32690647062E+02  0.00000000000E+00 0.  1.
</event>
<event>
 7    1  0.6046695E-013  0.5052886E+02  0.7816164E-02  0.1300439E+00
        -11   -1    0    0    0    0  0.00000000000E+00  0.00000000000E+00  0.45593999997E+02  0.45594000000E+02  0.51100000000E-03 0.  1.
         11   -1    0    0    0    0 -0.00000000000E+00 -0.00000000000E+00 -0.45593999997E+02  0.45594000000E+02  0.51100000000E-03 0. -1.
    9900012    2    1    2    0    0 -0.66508307461E+01 -0.30681178397E+02  0.25837901834E+02  0.50528862914E+02  0.30000009312E+02 0.  0.
         12    1    1    2    0    0  0.66508307461E+01  0.30681178397E+02 -0.25837901834E+02  0.40659137086E+02  0.00000000000E+00 0. -1.
         11    1    3    3    0    0  0.78654810878E+01 -0.11941776873E+02  0.42652407027E+01  0.14921933726E+02  0.51100000000E-03 0. -1.
        -11    1    3    3    0    0 -0.11835857368E+02 -0.35092228596E+01  0.62500549441E+01  0.13837100555E+02  0.51100000000E-03 0.  1.
        -12    1    3    3    0    0 -0.26804544660E+01 -0.15230178664E+02  0.15322606187E+02  0.21769828632E+02  0.00000000000E+00 0.  1.
</event>
<event>
 7    1  0.6046695E-013  0.5052886E+02  0.7816164E-02  0.1300439E+00
        -11   -1    0    0    0    0  0.00000000000E+00  0.00000000000E+00  0.45593999997E+02  0.45594000000E+02  0.51100000000E-03 0.  1.
         11   -1    0    0    0    0 -0.00000000000E+00 -0.00000000000E+00 -0.45593999997E+02  0.45594000000E+02  0.51100000000E-03 0. -1.
    9900012    2    1    2    0    0  0.14403450761E+02  0.26825398552E+02  0.26946323133E+02  0.50528859187E+02  0.29999997985E+02 0.  0.
         12    1    1    2    0    0 -0.14403450761E+02 -0.26825398552E+02 -0.26946323133E+02  0.40659140813E+02  0.00000000000E+00 0. -1.
         11    1    3    3    0    0 -0.24457562669E+01  0.12088801804E+02 -0.20288933644E+01  0.12499490442E+02  0.51100000000E-03 0.  1.
        -11    1    3    3    0    0  0.46051215134E+01  0.95457697247E+01  0.17523587789E+02  0.20479379704E+02  0.51100000000E-03 0. -1.
         12    1    3    3    0    0  0.12244085514E+02  0.51908270233E+01  0.11451628708E+02  0.17549989041E+02  0.00000000000E+00 0. -1.
</event>
<event>
 7    1  0.6046695E-013  0.5052886E+02  0.7816164E-02  0.1300439E+00
        -11   -1    0    0    0    0  0.00000000000E+00  0.00000000000E+00  0.45593999997E+02  0.45594000000E+02  0.51100000000E-03 0. -1.
         11   -1    0    0    0    0 -0.00000000000E+00 -0.00000000000E+00 -0.45593999997E+02  0.45594000000E+02  0.51100000000E-03 0.  1.
    9900012    2    1    2    0    0  0.28415079703E+02 -0.20971875013E+02 -0.20147687235E+02  0.50528860843E+02  0.30000003019E+02 0.  0.
         12    1    1    2    0    0 -0.28415079703E+02  0.20971875013E+02  0.20147687235E+02  0.40659139157E+02  0.00000000000E+00 0. -1.
         11    1    3    3    0    0  0.17677579294E+02  0.29283310157E+01 -0.81728015460E+01  0.19694329580E+02  0.51100000000E-03 0. -1.
        -11    1    3    3    0    0  0.41114758338E+01 -0.20609689835E+02 -0.89272912303E+01  0.22833310702E+02  0.51100000000E-03 0.  1.
         12    1    3    3    0    0  0.66260245752E+01 -0.32905161936E+01 -0.30475944584E+01  0.80012205615E+01  0.00000000000E+00 0. -1.
</event>
<event>
 7    1  0.6046695E-013  0.5052884E+02  0.7816164E-02  0.1300439E+00
        -11   -1    0    0    0    0  0.00000000000E+00  0.00000000000E+00  0.45593999997E+02  0.45594000000E+02  0.51100000000E-03 0. -1.
         11   -1    0    0    0    0 -0.00000000000E+00 -0.00000000000E+00 -0.45593999997E+02  0.45594000000E+02  0.51100000000E-03 0.  1.
    9900012    2    1    2    0    0  0.33896769873E+02 -0.22363400198E+02  0.20136685966E+01  0.50528836980E+02  0.29999930484E+02 0.  0.
         12    1    1    2    0    0 -0.33896769873E+02  0.22363400198E+02 -0.20136685966E+01  0.40659163020E+02  0.00000000000E+00 0. -1.
         11    1    3    3    0    0  0.57992557714E+01 -0.59102637878E+01 -0.12369602653E+02  0.14885216008E+02  0.51100000000E-03 0. -1.
        -11    1    3    3    0    0  0.79989207365E+01 -0.44465578907E+01  0.31719009622E+01  0.96858435874E+01  0.51100000000E-03 0.  1.
         12    1    3    3    0    0  0.20098593365E+02 -0.12006578520E+02  0.11211370288E+02  0.25957777385E+02  0.00000000000E+00 0. -1.
</event>
<event>
 7    1  0.6046695E-013  0.5052886E+02  0.7816164E-02  0.1300439E+00
        -11   -1    0    0    0    0  0.00000000000E+00  0.00000000000E+00  0.45593999997E+02  0.45594000000E+02  0.51100000000E-03 0.  1.
         11   -1    0    0    0    0 -0.00000000000E+00 -0.00000000000E+00 -0.45593999997E+02  0.45594000000E+02  0.51100000000E-03 0. -1.
    9900012    2    1    2    0    0  0.31335025239E+02  0.22173741825E+02  0.13401761714E+02  0.50528857728E+02  0.29999993552E+02 0.  0.
         12    1    1    2    0    0 -0.31335025239E+02 -0.22173741825E+02 -0.13401761714E+02  0.40659142272E+02  0.00000000000E+00 0. -1.
         11    1    3    3    0    0  0.12387463791E+02  0.95593824760E+01 -0.73855621796E+01  0.17302531071E+02  0.51100000000E-03 0. -1.
        -11    1    3    3    0    0  0.12796910739E+02  0.11563277771E+02  0.80305436287E+01  0.19025245032E+02  0.51100000000E-03 0.  1.
         12    1    3    3    0    0  0.61506507084E+01  0.10510815776E+01  0.12756780265E+02  0.14201081626E+02  0.00000000000E+00 0. -1.
</event>
<event>
 7    1  0.6046695E-013  0.5052886E+02  0.7816164E-02  0.1300439E+00
        -11   -1    0    0    0    0  0.00000000000E+00  0.00000000000E+00  0.45593999997E+02  0.45594000000E+02  0.51100000000E-03 0. -1.
         11   -1    0    0    0    0 -0.00000000000E+00 -0.00000000000E+00 -0.45593999997E+02  0.45594000000E+02  0.51100000000E-03 0.  1.
    9900012    2    1    2    0    0  0.29999219792E+02 -0.70161206576E+01 -0.26532742505E+02  0.50528861272E+02  0.30000004323E+02 0.  0.
         12    1    1    2    0    0 -0.29999219792E+02  0.70161206576E+01  0.26532742505E+02  0.40659138728E+02  0.00000000000E+00 0. -1.
         11    1    3    3    0    0  0.97999554262E+01 -0.78718556425E+01 -0.11295054647E+02  0.16899215880E+02  0.51100000000E-03 0. -1.
        -11    1    3    3    0    0  0.11414411909E+02  0.88175168563E+01 -0.12840609532E+00  0.14424073320E+02  0.51100000000E-03 0.  1.
        -12    1    3    3    0    0  0.87848524570E+01 -0.79617818714E+01 -0.15109281763E+02  0.19205572073E+02  0.00000000000E+00 0.  1.
</event>
<event>
 7    1  0.6046695E-013  0.5052888E+02  0.7816164E-02  0.1300439E+00
        -11   -1    0    0    0    0  0.00000000000E+00  0.00000000000E+00  0.45593999997E+02  0.45594000000E+02  0.51100000000E-03 0. -1.
         11   -1    0    0    0    0 -0.00000000000E+00 -0.00000000000E+00 -0.45593999997E+02  0.45594000000E+02  0.51100000000E-03 0.  1.
    9900012    2    1    2    0    0  0.82073074475E+00 -0.29411338700E+02 -0.28061788145E+02  0.50528875600E+02  0.30000047874E+02 0.  0.
         12    1    1    2    0    0 -0.82073074475E+00  0.29411338700E+02  0.28061788145E+02  0.40659124400E+02  0.00000000000E+00 0. -1.
         11    1    3    3    0    0 -0.27091882425E+01 -0.17037704300E+02  0.31529261061E+00  0.17254636433E+02  0.51100000000E-03 0. -1.
        -11    1    3    3    0    0  0.73992683268E+01 -0.92262377594E+01 -0.15737151389E+02  0.19685796125E+02  0.51100000000E-03 0.  1.
        -12    1    3    3    0    0 -0.38693493395E+01 -0.31473966403E+01 -0.12639929366E+02  0.13588443042E+02  0.00000000000E+00 0.  1.
</event>
<event>
 7    1  0.6046695E-013  0.5052888E+02  0.7816164E-02  0.1300439E+00
        -11   -1    0    0    0    0  0.00000000000E+00  0.00000000000E+00  0.45593999997E+02  0.45594000000E+02  0.51100000000E-03 0. -1.
         11   -1    0    0    0    0 -0.00000000000E+00 -0.00000000000E+00 -0.45593999997E+02  0.45594000000E+02  0.51100000000E-03 0.  1.
    9900012    2    1    2    0    0  0.37167570890E+02  0.49927805118E+01  0.15710124318E+02  0.50528878155E+02  0.30000055640E+02 0.  0.
         12    1    1    2    0    0 -0.37167570890E+02 -0.49927805118E+01 -0.15710124318E+02  0.40659121845E+02  0.00000000000E+00 0. -1.
         11    1    3    3    0    0  0.11268567201E+02 -0.43716421296E+01  0.11013407059E+02  0.16351972266E+02  0.51100000000E-03 0. -1.
        -11    1    3    3    0    0  0.14803428490E+02  0.62924069281E+01 -0.71985381233E+01  0.17622565970E+02  0.51100000000E-03 0.  1.
        -12    1    3    3    0    0  0.11095575199E+02  0.30720157133E+01  0.11895255382E+02  0.16554339919E+02  0.00000000000E+00 0.  1.
</event>
<event>
 7    1  0.6046695E-013  0.5052886E+02  0.7816164E-02  0.1300439E+00
        -11   -1    0    0    0    0  0.00000000000E+00  0.00000000000E+00  0.45593999997E+02  0.45594000000E+02  0.51100000000E-03 0.  1.
         11   -1    0    0    0    0 -0.00000000000E+00 -0.00000000000E+00 -0.45593999997E+02  0.45594000000E+02  0.51100000000E-03 0. -1.
    9900012    2    1    2    0    0 -0.37698230145E+02 -0.14886942213E+02  0.32230036987E+01  0.50528863790E+02  0.30000011976E+02 0.  0.
         12    1    1    2    0    0  0.37698230145E+02  0.14886942213E+02 -0.32230036987E+01  0.40659136210E+02  0.00000000000E+00 0. -1.
         11    1    3    3    0    0 -0.25310409574E+02  0.14043464693E+01 -0.41028370652E+00  0.25352659718E+02  0.51100000000E-03 0. -1.
        -11    1    3    3    0    0 -0.13298794215E+02 -0.16918088332E+02  0.61889474577E+01  0.22391576793E+02  0.51100000000E-03 0.  1.
         12    1    3    3    0    0  0.91097364391E+00  0.62679964955E+00 -0.25556600525E+01  0.27846272793E+01  0.00000000000E+00 0. -1.
</event>
<event>
 7    1  0.6046695E-013  0.5052885E+02  0.7816164E-02  0.1300439E+00
        -11   -1    0    0    0    0  0.00000000000E+00  0.00000000000E+00  0.45593999997E+02  0.45594000000E+02  0.51100000000E-03 0.  1.
         11   -1    0    0    0    0 -0.00000000000E+00 -0.00000000000E+00 -0.45593999997E+02  0.45594000000E+02  0.51100000000E-03 0. -1.
    9900012    2    1    2    0    0  0.34101832876E+02 -0.21342474308E+02  0.58932395340E+01  0.50528849894E+02  0.29999969738E+02 0.  0.
         12    1    1    2    0    0 -0.34101832876E+02  0.21342474308E+02 -0.58932395340E+01  0.40659150106E+02  0.00000000000E+00 0. -1.
         11    1    3    3    0    0  0.51670802894E+01  0.52768923965E+01 -0.39673162972E+01  0.83835500204E+01  0.51100000000E-03 0. -1.
        -11    1    3    3    0    0  0.12330422514E+02 -0.10600380445E+02  0.99688625634E+01  0.19073164552E+02  0.51100000000E-03 0.  1.
         12    1    3    3    0    0  0.16604330073E+02 -0.16018986260E+02 -0.10830673227E+00  0.23072135322E+02  0.00000000000E+00 0. -1.
</event>
<event>
 7    1  0.6046695E-013  0.5052887E+02  0.7816164E-02  0.1300439E+00
        -11   -1    0    0    0    0  0.00000000000E+00  0.00000000000E+00  0.45593999997E+02  0.45594000000E+02  0.51100000000E-03 0.  1.
         11   -1    0    0    0    0 -0.00000000000E+00 -0.00000000000E+00 -0.45593999997E+02  0.45594000000E+02  0.51100000000E-03 0. -1.
    9900012    2    1    2    0    0 -0.19340041905E+01 -0.16462749830E+02  0.37126845678E+02  0.50528866043E+02  0.30000018823E+02 0.  0.
         12    1    1    2    0    0  0.19340041905E+01  0.16462749830E+02 -0.37126845678E+02  0.40659133957E+02  0.00000000000E+00 0. -1.
         11    1    3    3    0    0 -0.53669620615E+01 -0.38668803506E+01 -0.22636800471E+01  0.69915157893E+01  0.51100000000E-03 0. -1.
        -11    1    3    3    0    0  0.51029620995E+01 -0.46516635405E+01  0.31386960798E+02  0.32137509304E+02  0.51100000000E-03 0.  1.
        -12    1    3    3    0    0 -0.16700042285E+01 -0.79442059392E+01  0.80035649268E+01  0.11399840949E+02  0.00000000000E+00 0.  1.
</event>
<event>
 7    1  0.6046695E-013  0.5052886E+02  0.7816164E-02  0.1300439E+00
        -11   -1    0    0    0    0  0.00000000000E+00  0.00000000000E+00  0.45593999997E+02  0.45594000000E+02  0.51100000000E-03 0. -1.
         11   -1    0    0    0    0 -0.00000000000E+00 -0.00000000000E+00 -0.45593999997E+02  0.45594000000E+02  0.51100000000E-03 0.  1.
    9900012    2    1    2    0    0 -0.13351638989E+02 -0.26036855179E+02 -0.28230863543E+02  0.50528858990E+02  0.29999997387E+02 0.  0.
         12    1    1    2    0    0  0.13351638989E+02  0.26036855179E+02  0.28230863543E+02  0.40659141010E+02  0.00000000000E+00 0. -1.
         11    1    3    3    0    0 -0.58968317720E+01 -0.25285042199E+02 -0.18546414057E+02  0.31907294756E+02  0.51100000000E-03 0.  1.
        -11    1    3    3    0    0 -0.63188620878E+01  0.41556577880E+01  0.15849769180E+00  0.75645641986E+01  0.51100000000E-03 0. -1.
        -12    1    3    3    0    0 -0.11359451287E+01 -0.49074707674E+01 -0.98429471771E+01  0.11057000036E+02  0.00000000000E+00 0.  1.
</event>
<event>
 7    1  0.6046695E-013  0.5052887E+02  0.7816164E-02  0.1300439E+00
        -11   -1    0    0    0    0  0.00000000000E+00  0.00000000000E+00  0.45593999997E+02  0.45594000000E+02  0.51100000000E-03 0.  1.
         11   -1    0    0    0    0 -0.00000000000E+00 -0.00000000000E+00 -0.45593999997E+02  0.45594000000E+02  0.51100000000E-03 0. -1.
    9900012    2    1    2    0    0  0.10789004454E+02  0.14469635968E+02  0.36433384602E+02  0.50528874386E+02  0.30000044184E+02 0.  0.
         12    1    1    2    0    0 -0.10789004454E+02 -0.14469635968E+02 -0.36433384602E+02  0.40659125614E+02  0.00000000000E+00 0. -1.
         11    1    3    3    0    0  0.94046588614E+01  0.17288733888E+01  0.10220101554E+02  0.13995966831E+02  0.51100000000E-03 0. -1.
        -11    1    3    3    0    0 -0.31853866230E+01  0.13459699985E+02  0.48232031598E+01  0.14648327570E+02  0.51100000000E-03 0.  1.
        -12    1    3    3    0    0  0.45697322157E+01 -0.71893740557E+00  0.21390079888E+02  0.21884579985E+02  0.00000000000E+00 0.  1.
</event>
<event>
 7    1  0.6046695E-013  0.5052886E+02  0.7816164E-02  0.1300439E+00
        -11   -1    0    0    0    0  0.00000000000E+00  0.00000000000E+00  0.45593999997E+02  0.45594000000E+02  0.51100000000E-03 0. -1.
         11   -1    0    0    0    0 -0.00000000000E+00 -0.00000000000E+00 -0.45593999997E+02  0.45594000000E+02  0.51100000000E-03 0.  1.
    9900012    2    1    2    0    0  0.93001204968E+01  0.33961862743E+02 -0.20328925609E+02  0.50528861069E+02  0.30000003705E+02 0.  0.
         12    1    1    2    0    0 -0.93001204968E+01 -0.33961862743E+02  0.20328925609E+02  0.40659138931E+02  0.00000000000E+00 0. -1.
         11    1    3    3    0    0  0.15521690618E+02  0.12807997931E+02 -0.74669487456E+01  0.21464459333E+02  0.51100000000E-03 0. -1.
        -11    1    3    3    0    0 -0.48255314344E+01  0.18250282503E+02 -0.15865976204E+02  0.24659435643E+02  0.51100000000E-03 0.  1.
         12    1    3    3    0    0 -0.13960386864E+01  0.29035823089E+01  0.30039993408E+01  0.44049660927E+01  0.00000000000E+00 0. -1.
</event>
<event>
 7    1  0.6046695E-013  0.5052886E+02  0.7816164E-02  0.1300439E+00
        -11   -1    0    0    0    0  0.00000000000E+00  0.00000000000E+00  0.45593999997E+02  0.45594000000E+02  0.51100000000E-03 0.  1.
         11   -1    0    0    0    0 -0.00000000000E+00 -0.00000000000E+00 -0.45593999997E+02  0.45594000000E+02  0.51100000000E-03 0. -1.
    9900012    2    1    2    0    0  0.22494439632E+00  0.29830348730E+01  0.40548944685E+02  0.50528855738E+02  0.29999987501E+02 0.  0.
         12    1    1    2    0    0 -0.22494439632E+00 -0.29830348730E+01 -0.40548944685E+02  0.40659144262E+02  0.00000000000E+00 0. -1.
         11    1    3    3    0    0 -0.18535677854E+01 -0.34143668727E+01 -0.11861555349E+01  0.40620905813E+01  0.51100000000E-03 0. -1.
        -11    1    3    3    0    0  0.87530727156E+01  0.87093451452E+01  0.19001910608E+02  0.22661455863E+02  0.51100000000E-03 0.  1.
        -12    1    3    3    0    0 -0.66745605339E+01 -0.23119433996E+01  0.22733189612E+02  0.23805309293E+02  0.00000000000E+00 0.  1.
</event>
<event>
 7    1  0.6046695E-013  0.5052886E+02  0.7816164E-02  0.1300439E+00
        -11   -1    0    0    0    0  0.00000000000E+00  0.00000000000E+00  0.45593999997E+02  0.45594000000E+02  0.51100000000E-03 0.  1.
         11   -1    0    0    0    0 -0.00000000000E+00 -0.00000000000E+00 -0.45593999997E+02  0.45594000000E+02  0.51100000000E-03 0. -1.
    9900012    2    1    2    0    0  0.69200430516E+01  0.16900279836E+02  0.36327119087E+02  0.50528855450E+02  0.29999986625E+02 0.  0.
         12    1    1    2    0    0 -0.69200430516E+01 -0.16900279836E+02 -0.36327119087E+02  0.40659144550E+02  0.00000000000E+00 0. -1.
         11    1    3    3    0    0  0.45627532898E+01 -0.25885595170E+01  0.49997225775E+01  0.72468326922E+01  0.51100000000E-03 0. -1.
        -11    1    3    3    0    0 -0.95619839102E+01  0.12653223645E+02  0.19634934821E+02  0.25240171762E+02  0.51100000000E-03 0.  1.
        -12    1    3    3    0    0  0.11919273672E+02  0.68356157081E+01  0.11692461689E+02  0.18041850995E+02  0.00000000000E+00 0.  1.
</event>
<event>
 7    1  0.6046695E-013  0.5052888E+02  0.7816164E-02  0.1300439E+00
        -11   -1    0    0    0    0  0.00000000000E+00  0.00000000000E+00  0.45593999997E+02  0.45594000000E+02  0.51100000000E-03 0. -1.
         11   -1    0    0    0    0 -0.00000000000E+00 -0.00000000000E+00 -0.45593999997E+02  0.45594000000E+02  0.51100000000E-03 0.  1.
    9900012    2    1    2    0    0 -0.19816205262E+02 -0.35117214683E+02 -0.52214140496E+01  0.50528881431E+02  0.30000065599E+02 0.  0.
         12    1    1    2    0    0  0.19816205262E+02  0.35117214683E+02  0.52214140496E+01  0.40659118569E+02  0.00000000000E+00 0. -1.
         11    1    3    3    0    0 -0.65725659404E+01 -0.25183332075E+02  0.27888788067E+01  0.26175879788E+02  0.51100000000E-03 0. -1.
        -11    1    3    3    0    0 -0.12801355344E+02 -0.11642183085E+02 -0.11267313553E+02  0.20648667768E+02  0.51100000000E-03 0.  1.
        -12    1    3    3    0    0 -0.44228397785E+00  0.17083004766E+01  0.32570206973E+01  0.37043338751E+01  0.00000000000E+00 0.  1.
</event>
<event>
 7    1  0.6046695E-013  0.5052886E+02  0.7816164E-02  0.1300439E+00
        -11   -1    0    0    0    0  0.00000000000E+00  0.00000000000E+00  0.45593999997E+02  0.45594000000E+02  0.51100000000E-03 0. -1.
         11   -1    0    0    0    0 -0.00000000000E+00 -0.00000000000E+00 -0.45593999997E+02  0.45594000000E+02  0.51100000000E-03 0.  1.
    9900012    2    1    2    0    0  0.23384054134E+02  0.22091717082E+02 -0.24865795151E+02  0.50528859332E+02  0.29999998425E+02 0.  0.
         12    1    1    2    0    0 -0.23384054134E+02 -0.22091717082E+02  0.24865795151E+02  0.40659140668E+02  0.00000000000E+00 0. -1.
         11    1    3    3    0    0 -0.16672178587E+01 -0.49629392403E-01  0.39479298737E+01  0.42858171933E+01  0.51100000000E-03 0. -1.
        -11    1    3    3    0    0  0.73946575917E+01  0.14294669285E+02 -0.84727764029E+01  0.18188085966E+02  0.51100000000E-03 0.  1.
         12    1    3    3    0    0  0.17656614401E+02  0.78466771895E+01 -0.20340948622E+02  0.28054956173E+02  0.00000000000E+00 0. -1.
</event>
<event>
 7    1  0.6046695E-013  0.5052885E+02  0.7816164E-02  0.1300439E+00
        -11   -1    0    0    0    0  0.00000000000E+00  0.00000000000E+00  0.45593999997E+02  0.45594000000E+02  0.51100000000E-03 0. -1.
         11   -1    0    0    0    0 -0.00000000000E+00 -0.00000000000E+00 -0.45593999997E+02  0.45594000000E+02  0.51100000000E-03 0.  1.
    9900012    2    1    2    0    0 -0.38337284552E+02  0.11780464952E+02 -0.66812878101E+01  0.50528851606E+02  0.29999974942E+02 0.  0.
         12    1    1    2    0    0  0.38337284552E+02 -0.11780464952E+02  0.66812878101E+01  0.40659148394E+02  0.00000000000E+00 0. -1.
         11    1    3    3    0    0 -0.26484323940E+02 -0.14019273844E+01  0.10357538413E+01  0.26541620169E+02  0.51100000000E-03 0. -1.
        -11    1    3    3    0    0  0.19947735476E+00  0.40171526783E+01 -0.78775541280E+01  0.88449514502E+01  0.51100000000E-03 0.  1.
         12    1    3    3    0    0 -0.12052437967E+02  0.91652396580E+01  0.16051247660E+00  0.15142279987E+02  0.00000000000E+00 0. -1.
</event>
<event>
 7    1  0.6046695E-013  0.5052884E+02  0.7816164E-02  0.1300439E+00
        -11   -1    0    0    0    0  0.00000000000E+00  0.00000000000E+00  0.45593999997E+02  0.45594000000E+02  0.51100000000E-03 0.  1.
         11   -1    0    0    0    0 -0.00000000000E+00 -0.00000000000E+00 -0.45593999997E+02  0.45594000000E+02  0.51100000000E-03 0. -1.
    9900012    2    1    2    0    0 -0.49986598363E+01  0.85039924122E+01  0.39444425913E+02  0.50528840851E+02  0.29999942251E+02 0.  0.
         12    1    1    2    0    0  0.49986598363E+01 -0.85039924122E+01 -0.39444425913E+02  0.40659159149E+02  0.00000000000E+00 0. -1.
         11    1    3    3    0    0  0.72019004168E+01 -0.71433934131E+01  0.14656963261E+02  0.17824758382E+02  0.51100000000E-03 0. -1.
        -11    1    3    3    0    0 -0.40853842795E+01  0.28587722519E+01  0.20664688552E+01  0.53975214025E+01  0.51100000000E-03 0.  1.
         12    1    3    3    0    0 -0.81151759736E+01  0.12788613573E+02  0.22720993797E+02  0.27306561067E+02  0.00000000000E+00 0. -1.
</event>
<event>
 7    1  0.6046695E-013  0.5052886E+02  0.7816164E-02  0.1300439E+00
        -11   -1    0    0    0    0  0.00000000000E+00  0.00000000000E+00  0.45593999997E+02  0.45594000000E+02  0.51100000000E-03 0. -1.
         11   -1    0    0    0    0 -0.00000000000E+00 -0.00000000000E+00 -0.45593999997E+02  0.45594000000E+02  0.51100000000E-03 0.  1.
    9900012    2    1    2    0    0  0.24815533335E+02 -0.99273630054E+01 -0.30639877613E+02  0.50528864113E+02  0.30000012957E+02 0.  0.
         12    1    1    2    0    0 -0.24815533335E+02  0.99273630054E+01  0.30639877613E+02  0.40659135887E+02  0.00000000000E+00 0. -1.
         11    1    3    3    0    0  0.15281438966E+02 -0.26775080734E+00 -0.14376710833E+02  0.20982942644E+02  0.51100000000E-03 0. -1.
        -11    1    3    3    0    0  0.17398779358E+01  0.21857427423E+01 -0.15058218332E+02  0.15315175029E+02  0.51100000000E-03 0.  1.
         12    1    3    3    0    0  0.77942164334E+01 -0.11845354940E+02 -0.12049484480E+01  0.14230746440E+02  0.00000000000E+00 0. -1.
</event>
<event>
 7    1  0.6046695E-013  0.5052888E+02  0.7816164E-02  0.1300439E+00
        -11   -1    0    0    0    0  0.00000000000E+00  0.00000000000E+00  0.45593999997E+02  0.45594000000E+02  0.51100000000E-03 0. -1.
         11   -1    0    0    0    0 -0.00000000000E+00 -0.00000000000E+00 -0.45593999997E+02  0.45594000000E+02  0.51100000000E-03 0.  1.
    9900012    2    1    2    0    0 -0.16575763617E+02 -0.30532762518E+02 -0.21122468926E+02  0.50528877776E+02  0.30000054488E+02 0.  0.
         12    1    1    2    0    0  0.16575763617E+02  0.30532762518E+02  0.21122468926E+02  0.40659122224E+02  0.00000000000E+00 0. -1.
         11    1    3    3    0    0 -0.70446625091E-01 -0.49955172075E+01 -0.14295322615E+02  0.15143196619E+02  0.51100000000E-03 0. -1.
        -11    1    3    3    0    0 -0.57019628059E+01 -0.22363497251E+02 -0.21018417083E+01  0.23174471471E+02  0.51100000000E-03 0.  1.
        -12    1    3    3    0    0 -0.10803354186E+02 -0.31737480597E+01 -0.47253046025E+01  0.12211209686E+02  0.00000000000E+00 0.  1.
</event>
<event>
 7    1  0.6046695E-013  0.5052886E+02  0.7816164E-02  0.1300439E+00
        -11   -1    0    0    0    0  0.00000000000E+00  0.00000000000E+00  0.45593999997E+02  0.45594000000E+02  0.51100000000E-03 0.  1.
         11   -1    0    0    0    0 -0.00000000000E+00 -0.00000000000E+00 -0.45593999997E+02  0.45594000000E+02  0.51100000000E-03 0. -1.
    9900012    2    1    2    0    0  0.33350684901E+01 -0.31196818517E+02  0.25861200265E+02  0.50528857774E+02  0.29999993690E+02 0.  0.
         12    1    1    2    0    0 -0.33350684901E+01  0.31196818517E+02 -0.25861200265E+02  0.40659142226E+02  0.00000000000E+00 0. -1.
         11    1    3    3    0    0 -0.84972168917E+01 -0.14590068995E+02  0.14057950556E+02  0.21970406966E+02  0.51100000000E-03 0. -1.
        -11    1    3    3    0    0  0.86951760585E+01 -0.18904324131E+02  0.61518055365E+01  0.21698485412E+02  0.51100000000E-03 0.  1.
         12    1    3    3    0    0  0.31371093233E+01  0.22975746092E+01  0.56514441731E+01  0.68599653959E+01  0.00000000000E+00 0. -1.
</event>
<event>
 7    1  0.6046695E-013  0.5052884E+02  0.7816164E-02  0.1300439E+00
        -11   -1    0    0    0    0  0.00000000000E+00  0.00000000000E+00  0.45593999997E+02  0.45594000000E+02  0.51100000000E-03 0.  1.
         11   -1    0    0    0    0 -0.00000000000E+00 -0.00000000000E+00 -0.45593999997E+02  0.45594000000E+02  0.51100000000E-03 0. -1.
    9900012    2    1    2    0    0 -0.21314594205E+02  0.29710993440E+02 -0.17779544734E+02  0.50528840291E+02  0.29999940548E+02 0.  0.
         12    1    1    2    0    0  0.21314594205E+02 -0.29710993440E+02  0.17779544734E+02  0.40659159709E+02  0.00000000000E+00 0. -1.
         11    1    3    3    0    0 -0.71575489991E+01  0.31326860193E+02 -0.15619092788E+02  0.35728962159E+02  0.51100000000E-03 0. -1.
        -11    1    3    3    0    0 -0.11002711034E+02  0.19428402621E+00 -0.16465262407E+01  0.11126924341E+02  0.51100000000E-03 0.  1.
         12    1    3    3    0    0 -0.31543341727E+01 -0.18101507789E+01 -0.51392570482E+00  0.36729537903E+01  0.00000000000E+00 0. -1.
</event>
<event>
 7    1  0.6046695E-013  0.5052886E+02  0.7816164E-02  0.1300439E+00
        -11   -1    0    0    0    0  0.00000000000E+00  0.00000000000E+00  0.45593999997E+02  0.45594000000E+02  0.51100000000E-03 0.  1.
         11   -1    0    0    0    0 -0.00000000000E+00 -0.00000000000E+00 -0.45593999997E+02  0.45594000000E+02  0.51100000000E-03 0. -1.
    9900012    2    1    2    0    0  0.24614646130E+02 -0.32361075813E+02 -0.21445519700E+00  0.50528855605E+02  0.29999987096E+02 0.  0.
         12    1    1    2    0    0 -0.24614646130E+02  0.32361075813E+02  0.21445519700E+00  0.40659144395E+02  0.00000000000E+00 0. -1.
         11    1    3    3    0    0  0.14358079578E+01  0.15848611861E+01 -0.46789214918E+01  0.51444762667E+01  0.51100000000E-03 0. -1.
        -11    1    3    3    0    0  0.23204220158E+02 -0.25649096706E+02 -0.23218632254E+01  0.34665588760E+02  0.51100000000E-03 0.  1.
        -12    1    3    3    0    0 -0.25381985537E-01 -0.82968402929E+01  0.67863295202E+01  0.10718790578E+02  0.00000000000E+00 0.  1.
</event>
<event>
 7    1  0.6046695E-013  0.5052887E+02  0.7816164E-02  0.1300439E+00
        -11   -1    0    0    0    0  0.00000000000E+00  0.00000000000E+00  0.45593999997E+02  0.45594000000E+02  0.51100000000E-03 0.  1.
         11   -1    0    0    0    0 -0.00000000000E+00 -0.00000000000E+00 -0.45593999997E+02  0.45594000000E+02  0.51100000000E-03 0. -1.
    9900012    2    1    2    0    0  0.24941186331E+02 -0.25226393771E+02 -0.19867849741E+02  0.50528866074E+02  0.30000018918E+02 0.  0.
         12    1    1    2    0    0 -0.24941186331E+02  0.25226393771E+02  0.19867849741E+02  0.40659133926E+02  0.00000000000E+00 0. -1.
         11    1    3    3    0    0  0.22319317240E+02 -0.53895110717E+01 -0.15395331809E+02  0.27644438744E+02  0.51100000000E-03 0. -1.
        -11    1    3    3    0    0  0.44112188584E+01 -0.12781575286E+02  0.13151313054E+01  0.13585179028E+02  0.51100000000E-03 0.  1.
         12    1    3    3    0    0 -0.17893497679E+01 -0.70553074139E+01 -0.57876492372E+01  0.92992483024E+01  0.00000000000E+00 0. -1.
</event>
<event>
 7    1  0.6046695E-013  0.5052886E+02  0.7816164E-02  0.1300439E+00
        -11   -1    0    0    0    0  0.00000000000E+00  0.00000000000E+00  0.45593999997E+02  0.45594000000E+02  0.51100000000E-03 0.  1.
         11   -1    0    0    0    0 -0.00000000000E+00 -0.00000000000E+00 -0.45593999997E+02  0.45594000000E+02  0.51100000000E-03 0. -1.
    9900012    2    1    2    0    0 -0.25314291988E+02  0.23543592708E+02  0.21402140412E+02  0.50528858954E+02  0.29999997275E+02 0.  0.
         12    1    1    2    0    0  0.25314291988E+02 -0.23543592708E+02 -0.21402140412E+02  0.40659141046E+02  0.00000000000E+00 0. -1.
         11    1    3    3    0    0 -0.26625165475E+02  0.15549797377E+02  0.20092214634E+02  0.36802074998E+02  0.51100000000E-03 0. -1.
        -11    1    3    3    0    0  0.21122991730E+01  0.28591891772E+01  0.58372779921E+01  0.68345142597E+01  0.51100000000E-03 0.  1.
         12    1    3    3    0    0 -0.80142568597E+00  0.51346061535E+01 -0.45273522145E+01  0.68922696955E+01  0.00000000000E+00 0. -1.
</event>
<event>
 7    1  0.6046695E-013  0.5052888E+02  0.7816164E-02  0.1300439E+00
        -11   -1    0    0    0    0  0.00000000000E+00  0.00000000000E+00  0.45593999997E+02  0.45594000000E+02  0.51100000000E-03 0.  1.
         11   -1    0    0    0    0 -0.00000000000E+00 -0.00000000000E+00 -0.45593999997E+02  0.45594000000E+02  0.51100000000E-03 0. -1.
    9900012    2    1    2    0    0 -0.16849317447E+02 -0.21594957709E+02  0.30048663991E+02  0.50528881656E+02  0.30000066281E+02 0.  0.
         12    1    1    2    0    0  0.16849317447E+02  0.21594957709E+02 -0.30048663991E+02  0.40659118344E+02  0.00000000000E+00 0. -1.
         11    1    3    3    0    0 -0.44686750030E+01  0.37263138572E+01  0.13619078103E+02  0.14809920995E+02  0.51100000000E-03 0.  1.
        -11    1    3    3    0    0 -0.80683546556E+01 -0.70302250341E+01 -0.83981835269E-01  0.10701843957E+02  0.51100000000E-03 0. -1.
        -12    1    3    3    0    0 -0.43122877883E+01 -0.18291046532E+02  0.16513567724E+02  0.25017116704E+02  0.00000000000E+00 0.  1.
</event>
<event>
 7    1  0.6046695E-013  0.5052886E+02  0.7816164E-02  0.1300439E+00
        -11   -1    0    0    0    0  0.00000000000E+00  0.00000000000E+00  0.45593999997E+02  0.45594000000E+02  0.51100000000E-03 0.  1.
         11   -1    0    0    0    0 -0.00000000000E+00 -0.00000000000E+00 -0.45593999997E+02  0.45594000000E+02  0.51100000000E-03 0. -1.
    9900012    2    1    2    0    0  0.17655942723E+02 -0.35197316729E+02 -0.10128290660E+02  0.50528859699E+02  0.29999999540E+02 0.  0.
         12    1    1    2    0    0 -0.17655942723E+02  0.35197316729E+02  0.10128290660E+02  0.40659140301E+02  0.00000000000E+00 0. -1.
         11    1    3    3    0    0 -0.14858234577E+01  0.28065099365E+01 -0.62424426623E+01  0.70037318641E+01  0.51100000000E-03 0. -1.
        -11    1    3    3    0    0  0.19889465474E+02 -0.37193228080E+02 -0.33820210885E+01  0.42312706351E+02  0.51100000000E-03 0.  1.
         12    1    3    3    0    0 -0.74769929296E+00 -0.81059858513E+00 -0.50382690918E+00  0.12124214834E+01  0.00000000000E+00 0. -1.
</event>
<event>
 7    1  0.6046695E-013  0.5052884E+02  0.7816164E-02  0.1300439E+00
        -11   -1    0    0    0    0  0.00000000000E+00  0.00000000000E+00  0.45593999997E+02  0.45594000000E+02  0.51100000000E-03 0.  1.
         11   -1    0    0    0    0 -0.00000000000E+00 -0.00000000000E+00 -0.45593999997E+02  0.45594000000E+02  0.51100000000E-03 0. -1.
    9900012    2    1    2    0    0  0.27342133914E+02  0.98625080804E+01  0.28430724978E+02  0.50528837744E+02  0.29999932808E+02 0.  0.
         12    1    1    2    0    0 -0.27342133914E+02 -0.98625080804E+01 -0.28430724978E+02  0.40659162256E+02  0.00000000000E+00 0. -1.
         11    1    3    3    0    0  0.10251855667E+02  0.91371742905E+01  0.19130001756E+02  0.23548789058E+02  0.51100000000E-03 0. -1.
        -11    1    3    3    0    0  0.20094734835E+02  0.55940941668E+00  0.34437820654E+01  0.20395365703E+02  0.51100000000E-03 0.  1.
        -12    1    3    3    0    0 -0.30044565885E+01  0.16592437315E+00  0.58569411563E+01  0.65846829839E+01  0.00000000000E+00 0.  1.
</event>
<event>
 7    1  0.6046695E-013  0.5052891E+02  0.7816164E-02  0.1300439E+00
        -11   -1    0    0    0    0  0.00000000000E+00  0.00000000000E+00  0.45593999997E+02  0.45594000000E+02  0.51100000000E-03 0.  1.
         11   -1    0    0    0    0 -0.00000000000E+00 -0.00000000000E+00 -0.45593999997E+02  0.45594000000E+02  0.51100000000E-03 0. -1.
    9900012    2    1    2    0    0 -0.52042549070E+01  0.10096367703E+02  0.39040246661E+02  0.50528907914E+02  0.30000146095E+02 0.  0.
         12    1    1    2    0    0  0.52042549070E+01 -0.10096367703E+02 -0.39040246661E+02  0.40659092086E+02  0.00000000000E+00 0. -1.
         11    1    3    3    0    0 -0.88215610706E+01  0.82934914338E+00  0.19517912059E+02  0.21434939961E+02  0.51100000000E-03 0. -1.
        -11    1    3    3    0    0  0.79490205008E+01 -0.15024563816E+01  0.24565323646E+01  0.84545167586E+01  0.51100000000E-03 0.  1.
        -12    1    3    3    0    0 -0.43317143372E+01  0.10769474941E+02  0.17065802237E+02  0.20639451195E+02  0.00000000000E+00 0.  1.
</event>
<event>
 7    1  0.6046695E-013  0.5052886E+02  0.7816164E-02  0.1300439E+00
        -11   -1    0    0    0    0  0.00000000000E+00  0.00000000000E+00  0.45593999997E+02  0.45594000000E+02  0.51100000000E-03 0.  1.
         11   -1    0    0    0    0 -0.00000000000E+00 -0.00000000000E+00 -0.45593999997E+02  0.45594000000E+02  0.51100000000E-03 0. -1.
    9900012    2    1    2    0    0 -0.35045876675E+01 -0.23873048333E+02  0.32725538029E+02  0.50528863134E+02  0.30000009981E+02 0.  0.
         12    1    1    2    0    0  0.35045876675E+01  0.23873048333E+02 -0.32725538029E+02  0.40659136866E+02  0.00000000000E+00 0. -1.
         11    1    3    3    0    0 -0.93851375430E+01 -0.66463401999E+01  0.32497411563E+01  0.11950542356E+02  0.51100000000E-03 0. -1.
        -11    1    3    3    0    0 -0.10245920346E+00  0.22939035212E+01  0.10352888808E+02  0.10604470670E+02  0.51100000000E-03 0.  1.
         12    1    3    3    0    0  0.59830090790E+01 -0.19520611655E+02  0.19122908064E+02  0.27973850108E+02  0.00000000000E+00 0. -1.
</event>
<event>
 7    1  0.6046695E-013  0.5052886E+02  0.7816164E-02  0.1300439E+00
        -11   -1    0    0    0    0  0.00000000000E+00  0.00000000000E+00  0.45593999997E+02  0.45594000000E+02  0.51100000000E-03 0.  1.
         11   -1    0    0    0    0 -0.00000000000E+00 -0.00000000000E+00 -0.45593999997E+02  0.45594000000E+02  0.51100000000E-03 0. -1.
    9900012    2    1    2    0    0 -0.17026270607E+02 -0.10939345876E+02  0.35264751460E+02  0.50528857430E+02  0.29999992646E+02 0.  0.
         12    1    1    2    0    0  0.17026270607E+02  0.10939345876E+02 -0.35264751460E+02  0.40659142570E+02  0.00000000000E+00 0. -1.
         11    1    3    3    0    0 -0.10112643083E+02 -0.47586103246E+01  0.59491747812E+01  0.12661066432E+02  0.51100000000E-03 0. -1.
        -11    1    3    3    0    0  0.28726007708E+01 -0.84977104704E+00  0.26096870196E+02  0.26268242810E+02  0.51100000000E-03 0.  1.
        -12    1    3    3    0    0 -0.97862282944E+01 -0.53309645040E+01  0.32187064829E+01  0.11599548189E+02  0.00000000000E+00 0.  1.
</event>
<event>
 7    1  0.6046695E-013  0.5052886E+02  0.7816164E-02  0.1300439E+00
        -11   -1    0    0    0    0  0.00000000000E+00  0.00000000000E+00  0.45593999997E+02  0.45594000000E+02  0.51100000000E-03 0.  1.
         11   -1    0    0    0    0 -0.00000000000E+00 -0.00000000000E+00 -0.45593999997E+02  0.45594000000E+02  0.51100000000E-03 0. -1.
    9900012    2    1    2    0    0  0.11174044450E+02  0.20191670821E+01  0.39041384207E+02  0.50528856061E+02  0.29999988482E+02 0.  0.
         12    1    1    2    0    0 -0.11174044450E+02 -0.20191670821E+01 -0.39041384207E+02  0.40659143939E+02  0.00000000000E+00 0. -1.
         11    1    3    3    0    0 -0.88701829454E+01  0.22062397493E+01  0.88238394988E+01  0.12704636283E+02  0.51100000000E-03 0. -1.
        -11    1    3    3    0    0  0.10528963125E+02 -0.41298927708E+01  0.98391309216E+01  0.14990783046E+02  0.51100000000E-03 0.  1.
        -12    1    3    3    0    0  0.95152642703E+01  0.39428201036E+01  0.20378413787E+02  0.22833436731E+02  0.00000000000E+00 0.  1.
</event>
<event>
 7    1  0.6046695E-013  0.5052886E+02  0.7816164E-02  0.1300439E+00
        -11   -1    0    0    0    0  0.00000000000E+00  0.00000000000E+00  0.45593999997E+02  0.45594000000E+02  0.51100000000E-03 0. -1.
         11   -1    0    0    0    0 -0.00000000000E+00 -0.00000000000E+00 -0.45593999997E+02  0.45594000000E+02  0.51100000000E-03 0.  1.
    9900012    2    1    2    0    0 -0.22144894336E+02  0.33030804189E+02  0.84696529087E+01  0.50528863377E+02  0.30000010722E+02 0.  0.
         12    1    1    2    0    0  0.22144894336E+02 -0.33030804189E+02 -0.84696529087E+01  0.40659136623E+02  0.00000000000E+00 0. -1.
         11    1    3    3    0    0 -0.10259073990E+02  0.27879568147E+02  0.14329997079E+02  0.32982840020E+02  0.51100000000E-03 0. -1.
        -11    1    3    3    0    0 -0.66356138744E+01  0.56599555940E+01 -0.80178584334E+01  0.11847047013E+02  0.51100000000E-03 0.  1.
         12    1    3    3    0    0 -0.52502064717E+01 -0.50871955276E+00  0.21575142633E+01  0.56989763446E+01  0.00000000000E+00 0. -1.
</event>
<event>
 7    1  0.6046695E-013  0.5052885E+02  0.7816164E-02  0.1300439E+00
        -11   -1    0    0    0    0  0.00000000000E+00  0.00000000000E+00  0.45593999997E+02  0.45594000000E+02  0.51100000000E-03 0.  1.
         11   -1    0    0    0    0 -0.00000000000E+00 -0.00000000000E+00 -0.45593999997E+02  0.45594000000E+02  0.51100000000E-03 0. -1.
    9900012    2    1    2    0    0 -0.41410227620E+01 -0.40252519718E+02 -0.39690234466E+01  0.50528848997E+02  0.29999967012E+02 0.  0.
         12    1    1    2    0    0  0.41410227620E+01  0.40252519718E+02  0.39690234466E+01  0.40659151003E+02  0.00000000000E+00 0. -1.
         11    1    3    3    0    0 -0.95694298573E+01 -0.99829954206E+01 -0.97483031971E+01  0.16919326253E+02  0.51100000000E-03 0. -1.
        -11    1    3    3    0    0  0.71858794550E+01 -0.88645249054E+01  0.38621032526E+01  0.12047095382E+02  0.51100000000E-03 0.  1.
         12    1    3    3    0    0 -0.17574723598E+01 -0.21404999392E+02  0.19171764979E+01  0.21562427363E+02  0.00000000000E+00 0. -1.
</event>
<event>
 7    1  0.6046695E-013  0.5052886E+02  0.7816164E-02  0.1300439E+00
        -11   -1    0    0    0    0  0.00000000000E+00  0.00000000000E+00  0.45593999997E+02  0.45594000000E+02  0.51100000000E-03 0.  1.
         11   -1    0    0    0    0 -0.00000000000E+00 -0.00000000000E+00 -0.45593999997E+02  0.45594000000E+02  0.51100000000E-03 0. -1.
    9900012    2    1    2    0    0  0.56675858147E+01  0.21427520326E+02  0.34086731247E+02  0.50528863223E+02  0.30000010254E+02 0.  0.
         12    1    1    2    0    0 -0.56675858147E+01 -0.21427520326E+02 -0.34086731247E+02  0.40659136777E+02  0.00000000000E+00 0. -1.
         11    1    3    3    0    0  0.24242082688E+01  0.37546138419E+01 -0.50447681804E+01  0.67397030415E+01  0.51100000000E-03 0. -1.
        -11    1    3    3    0    0  0.16287784245E-01  0.11195120638E+02  0.30700576890E+02  0.32678072358E+02  0.51100000000E-03 0.  1.
         12    1    3    3    0    0  0.32270897616E+01  0.64777858466E+01  0.84309225379E+01  0.11111087824E+02  0.00000000000E+00 0. -1.
</event>
<event>
 7    1  0.6046695E-013  0.5052886E+02  0.7816164E-02  0.1300439E+00
        -11   -1    0    0    0    0  0.00000000000E+00  0.00000000000E+00  0.45593999997E+02  0.45594000000E+02  0.51100000000E-03 0.  1.
         11   -1    0    0    0    0 -0.00000000000E+00 -0.00000000000E+00 -0.45593999997E+02  0.45594000000E+02  0.51100000000E-03 0. -1.
    9900012    2    1    2    0    0 -0.24159205099E+02 -0.24555257216E+02  0.21599488807E+02  0.50528858781E+02  0.29999996751E+02 0.  0.
         12    1    1    2    0    0  0.24159205099E+02  0.24555257216E+02 -0.21599488807E+02  0.40659141219E+02  0.00000000000E+00 0. -1.
         11    1    3    3    0    0 -0.18632527354E+01  0.71620127384E+00  0.72714926835E+01  0.75405080153E+01  0.51100000000E-03 0. -1.
        -11    1    3    3    0    0 -0.24935149959E+02 -0.23526577833E+02  0.17515305016E+02  0.38497369755E+02  0.51100000000E-03 0.  1.
        -12    1    3    3    0    0  0.26391975958E+01 -0.17448806574E+01 -0.31873088931E+01  0.44909810107E+01  0.00000000000E+00 0.  1.
</event>
<event>
 7    1  0.6046695E-013  0.5052885E+02  0.7816164E-02  0.1300439E+00
        -11   -1    0    0    0    0  0.00000000000E+00  0.00000000000E+00  0.45593999997E+02  0.45594000000E+02  0.51100000000E-03 0.  1.
         11   -1    0    0    0    0 -0.00000000000E+00 -0.00000000000E+00 -0.45593999997E+02  0.45594000000E+02  0.51100000000E-03 0. -1.
    9900012    2    1    2    0    0 -0.30789409122E+02  0.25811572841E+02  0.62402889246E+01  0.50528853275E+02  0.29999980014E+02 0.  0.
         12    1    1    2    0    0  0.30789409122E+02 -0.25811572841E+02 -0.62402889246E+01  0.40659146725E+02  0.00000000000E+00 0. -1.
         11    1    3    3    0    0 -0.39284450849E+01 -0.57933063390E+01 -0.15173419268E+01  0.71622207384E+01  0.51100000000E-03 0. -1.
        -11    1    3    3    0    0 -0.19235308417E+02  0.15370922513E+02  0.60146468580E+01  0.25346367115E+02  0.51100000000E-03 0.  1.
         12    1    3    3    0    0 -0.76256556193E+01  0.16233956666E+02  0.17429839934E+01  0.18020265422E+02  0.00000000000E+00 0. -1.
</event>
<event>
 7    1  0.6046695E-013  0.5052886E+02  0.7816164E-02  0.1300439E+00
        -11   -1    0    0    0    0  0.00000000000E+00  0.00000000000E+00  0.45593999997E+02  0.45594000000E+02  0.51100000000E-03 0. -1.
         11   -1    0    0    0    0 -0.00000000000E+00 -0.00000000000E+00 -0.45593999997E+02  0.45594000000E+02  0.51100000000E-03 0.  1.
    9900012    2    1    2    0    0 -0.24912034684E+02 -0.20289682912E+02 -0.24917558420E+02  0.50528862990E+02  0.30000009545E+02 0.  0.
         12    1    1    2    0    0  0.24912034684E+02  0.20289682912E+02  0.24917558420E+02  0.40659137010E+02  0.00000000000E+00 0. -1.
         11    1    3    3    0    0 -0.38686739428E+01 -0.14293004977E+02 -0.21217865068E+02  0.25873817415E+02  0.51100000000E-03 0. -1.
        -11    1    3    3    0    0 -0.14810316860E+02 -0.69831685217E+01 -0.66698196553E+01  0.17680402218E+02  0.51100000000E-03 0.  1.
         12    1    3    3    0    0 -0.62330438813E+01  0.98649058711E+00  0.29701263029E+01  0.69746433571E+01  0.00000000000E+00 0. -1.
</event>
<event>
 7    1  0.6046695E-013  0.5052883E+02  0.7816164E-02  0.1300439E+00
        -11   -1    0    0    0    0  0.00000000000E+00  0.00000000000E+00  0.45593999997E+02  0.45594000000E+02  0.51100000000E-03 0. -1.
         11   -1    0    0    0    0 -0.00000000000E+00 -0.00000000000E+00 -0.45593999997E+02  0.45594000000E+02  0.51100000000E-03 0.  1.
    9900012    2    1    2    0    0  0.33654871306E+02 -0.67068259361E+01 -0.21806789167E+02  0.50528832147E+02  0.29999915794E+02 0.  0.
         12    1    1    2    0    0 -0.33654871306E+02  0.67068259361E+01  0.21806789167E+02  0.40659167853E+02  0.00000000000E+00 0. -1.
         11    1    3    3    0    0  0.20217645475E+01  0.26286219006E+01  0.15322480381E+01  0.36530766887E+01  0.51100000000E-03 0. -1.
        -11    1    3    3    0    0  0.74852394456E+01 -0.81351208713E+01 -0.19471342003E+02  0.22390671290E+02  0.51100000000E-03 0.  1.
        -12    1    3    3    0    0  0.24147867313E+02 -0.12003269654E+01 -0.38676952016E+01  0.24485084169E+02  0.00000000000E+00 0.  1.
</event>
<event>
 7    1  0.6046695E-013  0.5052886E+02  0.7816164E-02  0.1300439E+00
        -11   -1    0    0    0    0  0.00000000000E+00  0.00000000000E+00  0.45593999997E+02  0.45594000000E+02  0.51100000000E-03 0.  1.
         11   -1    0    0    0    0 -0.00000000000E+00 -0.00000000000E+00 -0.45593999997E+02  0.45594000000E+02  0.51100000000E-03 0. -1.
    9900012    2    1    2    0    0  0.33996389553E+01 -0.12517670175E+02  0.38534611145E+02  0.50528857514E+02  0.29999992898E+02 0.  0.
         12    1    1    2    0    0 -0.33996389553E+01  0.12517670175E+02 -0.38534611145E+02  0.40659142486E+02  0.00000000000E+00 0. -1.
         11    1    3    3    0    0  0.77460699653E+01 -0.38063115792E+01  0.27598505997E+02  0.28916554796E+02  0.51100000000E-03 0.  1.
        -11    1    3    3    0    0  0.25241284524E+01 -0.10770373312E+02  0.43891163411E+01  0.11901113740E+02  0.51100000000E-03 0. -1.
         12    1    3    3    0    0 -0.68705594624E+01  0.20590147162E+01  0.65469888069E+01  0.97111889780E+01  0.00000000000E+00 0. -1.
</event>
<event>
 7    1  0.6046695E-013  0.5052886E+02  0.7816164E-02  0.1300439E+00
        -11   -1    0    0    0    0  0.00000000000E+00  0.00000000000E+00  0.45593999997E+02  0.45594000000E+02  0.51100000000E-03 0.  1.
         11   -1    0    0    0    0 -0.00000000000E+00 -0.00000000000E+00 -0.45593999997E+02  0.45594000000E+02  0.51100000000E-03 0. -1.
    9900012    2    1    2    0    0  0.13754916654E+02 -0.18527427071E+02  0.33476890167E+02  0.50528862512E+02  0.30000008092E+02 0.  0.
         12    1    1    2    0    0 -0.13754916654E+02  0.18527427071E+02 -0.33476890167E+02  0.40659137488E+02  0.00000000000E+00 0. -1.
         11    1    3    3    0    0 -0.91321576683E+00 -0.56417761395E+01  0.27689092036E+02  0.28272768154E+02  0.51100000000E-03 0. -1.
        -11    1    3    3    0    0  0.12473788129E+02 -0.14222305233E+02  0.52256856296E+01  0.19625930475E+02  0.51100000000E-03 0.  1.
        -12    1    3    3    0    0  0.21943442911E+01  0.13366543020E+01  0.56211250130E+00  0.26301638837E+01  0.00000000000E+00 0.  1.
</event>
<event>
 7    1  0.6046695E-013  0.5052887E+02  0.7816164E-02  0.1300439E+00
        -11   -1    0    0    0    0  0.00000000000E+00  0.00000000000E+00  0.45593999997E+02  0.45594000000E+02  0.51100000000E-03 0.  1.
         11   -1    0    0    0    0 -0.00000000000E+00 -0.00000000000E+00 -0.45593999997E+02  0.45594000000E+02  0.51100000000E-03 0. -1.
    9900012    2    1    2    0    0  0.20851270225E+02  0.16734967797E+02  0.30632179232E+02  0.50528867919E+02  0.30000024525E+02 0.  0.
         12    1    1    2    0    0 -0.20851270225E+02 -0.16734967797E+02 -0.30632179232E+02  0.40659132081E+02  0.00000000000E+00 0. -1.
         11    1    3    3    0    0  0.15940361544E+01 -0.38632455778E+00 -0.49945812154E+01  0.52569991159E+01  0.51100000000E-03 0. -1.
        -11    1    3    3    0    0  0.60080459895E+01  0.41170802735E+01  0.19006948997E+02  0.20354632814E+02  0.51100000000E-03 0.  1.
        -12    1    3    3    0    0  0.13249188081E+02  0.13004212081E+02  0.16619811451E+02  0.24917235988E+02  0.00000000000E+00 0.  1.
</event>
<event>
 7    1  0.6046695E-013  0.5052885E+02  0.7816164E-02  0.1300439E+00
        -11   -1    0    0    0    0  0.00000000000E+00  0.00000000000E+00  0.45593999997E+02  0.45594000000E+02  0.51100000000E-03 0.  1.
         11   -1    0    0    0    0 -0.00000000000E+00 -0.00000000000E+00 -0.45593999997E+02  0.45594000000E+02  0.51100000000E-03 0. -1.
    9900012    2    1    2    0    0  0.10983479955E+02 -0.13246882453E+01  0.39125118944E+02  0.50528848960E+02  0.29999966900E+02 0.  0.
         12    1    1    2    0    0 -0.10983479955E+02  0.13246882453E+01 -0.39125118944E+02  0.40659151040E+02  0.00000000000E+00 0. -1.
         11    1    3    3    0    0 -0.67129447098E+01 -0.48424202190E+01  0.62089411537E+01  0.10347154718E+02  0.51100000000E-03 0. -1.
        -11    1    3    3    0    0  0.16205306996E+02  0.40317065541E+01  0.34257706078E+02  0.38111114633E+02  0.51100000000E-03 0.  1.
         12    1    3    3    0    0  0.14911176693E+01 -0.51397458044E+00 -0.13415282873E+01  0.20705796093E+01  0.00000000000E+00 0. -1.
</event>
<event>
 7    1  0.6046695E-013  0.5052886E+02  0.7816164E-02  0.1300439E+00
        -11   -1    0    0    0    0  0.00000000000E+00  0.00000000000E+00  0.45593999997E+02  0.45594000000E+02  0.51100000000E-03 0.  1.
         11   -1    0    0    0    0 -0.00000000000E+00 -0.00000000000E+00 -0.45593999997E+02  0.45594000000E+02  0.51100000000E-03 0. -1.
    9900012    2    1    2    0    0 -0.56717038528E+01 -0.48543137797E+01  0.39967903130E+02  0.50528857516E+02  0.29999992906E+02 0.  0.
         12    1    1    2    0    0  0.56717038528E+01  0.48543137797E+01 -0.39967903130E+02  0.40659142484E+02  0.00000000000E+00 0. -1.
         11    1    3    3    0    0  0.38331209866E+01 -0.43912061090E+01  0.65590831825E+01  0.87747980060E+01  0.51100000000E-03 0. -1.
        -11    1    3    3    0    0 -0.62616326990E+01  0.53478825462E+01  0.34084484151E+02  0.35065081661E+02  0.51100000000E-03 0.  1.
        -12    1    3    3    0    0 -0.32431921404E+01 -0.58109902169E+01 -0.67566420260E+00  0.66889778498E+01  0.00000000000E+00 0.  1.
</event>
<event>
 7    1  0.6046695E-013  0.5052886E+02  0.7816164E-02  0.1300439E+00
        -11   -1    0    0    0    0  0.00000000000E+00  0.00000000000E+00  0.45593999997E+02  0.45594000000E+02  0.51100000000E-03 0. -1.
         11   -1    0    0    0    0 -0.00000000000E+00 -0.00000000000E+00 -0.45593999997E+02  0.45594000000E+02  0.51100000000E-03 0.  1.
    9900012    2    1    2    0    0 -0.52231331572E+01 -0.13144487862E+02 -0.38119639142E+02  0.50528861181E+02  0.30000004046E+02 0.  0.
         12    1    1    2    0    0  0.52231331572E+01  0.13144487862E+02  0.38119639142E+02  0.40659138819E+02  0.00000000000E+00 0. -1.
         11    1    3    3    0    0 -0.10657134860E+02  0.40451872581E+01 -0.15228428725E+02  0.19022174037E+02  0.51100000000E-03 0. -1.
        -11    1    3    3    0    0 -0.25981310508E+01 -0.11254949811E+02 -0.13856735928E+02  0.18039770261E+02  0.51100000000E-03 0.  1.
         12    1    3    3    0    0  0.80321327535E+01 -0.59347253093E+01 -0.90344744886E+01  0.13466916884E+02  0.00000000000E+00 0. -1.
</event>
<event>
 7    1  0.6046695E-013  0.5052885E+02  0.7816164E-02  0.1300439E+00
        -11   -1    0    0    0    0  0.00000000000E+00  0.00000000000E+00  0.45593999997E+02  0.45594000000E+02  0.51100000000E-03 0.  1.
         11   -1    0    0    0    0 -0.00000000000E+00 -0.00000000000E+00 -0.45593999997E+02  0.45594000000E+02  0.51100000000E-03 0. -1.
    9900012    2    1    2    0    0 -0.18051541916E+02  0.32948851421E+02  0.15546100301E+02  0.50528853303E+02  0.29999980101E+02 0.  0.
         12    1    1    2    0    0  0.18051541916E+02 -0.32948851421E+02 -0.15546100301E+02  0.40659146697E+02  0.00000000000E+00 0. -1.
         11    1    3    3    0    0  0.42524672630E+01  0.25713284759E+01  0.71341093135E+01  0.86942926056E+01  0.51100000000E-03 0. -1.
        -11    1    3    3    0    0 -0.17149432475E+02  0.30924274434E+02  0.93278283343E+01  0.36570782945E+02  0.51100000000E-03 0.  1.
         12    1    3    3    0    0 -0.51545767041E+01 -0.54675148859E+00 -0.91583734666E+00  0.52637777531E+01  0.00000000000E+00 0. -1.
</event>
<event>
 7    1  0.6046695E-013  0.5052886E+02  0.7816164E-02  0.1300439E+00
        -11   -1    0    0    0    0  0.00000000000E+00  0.00000000000E+00  0.45593999997E+02  0.45594000000E+02  0.51100000000E-03 0.  1.
         11   -1    0    0    0    0 -0.00000000000E+00 -0.00000000000E+00 -0.45593999997E+02  0.45594000000E+02  0.51100000000E-03 0. -1.
    9900012    2    1    2    0    0 -0.79084334163E+01 -0.39328171862E+02  0.66270219025E+01  0.50528857850E+02  0.29999993920E+02 0.  0.
         12    1    1    2    0    0  0.79084334163E+01  0.39328171862E+02 -0.66270219025E+01  0.40659142150E+02  0.00000000000E+00 0. -1.
         11    1    3    3    0    0 -0.16263346319E+02 -0.24499854695E+02  0.62701749786E+01  0.30067497537E+02  0.51100000000E-03 0.  1.
        -11    1    3    3    0    0  0.10976169672E+02 -0.13534564203E+02  0.10489218657E+01  0.17457404337E+02  0.51100000000E-03 0. -1.
         12    1    3    3    0    0 -0.26212567692E+01 -0.12937529631E+01 -0.69207494176E+00  0.30039559759E+01  0.00000000000E+00 0. -1.
</event>
<event>
 7    1  0.6046695E-013  0.5052886E+02  0.7816164E-02  0.1300439E+00
        -11   -1    0    0    0    0  0.00000000000E+00  0.00000000000E+00  0.45593999997E+02  0.45594000000E+02  0.51100000000E-03 0. -1.
         11   -1    0    0    0    0 -0.00000000000E+00 -0.00000000000E+00 -0.45593999997E+02  0.45594000000E+02  0.51100000000E-03 0.  1.
    9900012    2    1    2    0    0 -0.13434462324E+02  0.38042929356E+02  0.50414611162E+01  0.50528861026E+02  0.30000003574E+02 0.  0.
         12    1    1    2    0    0  0.13434462324E+02 -0.38042929356E+02 -0.50414611162E+01  0.40659138974E+02  0.00000000000E+00 0. -1.
         11    1    3    3    0    0 -0.26238209383E+01  0.58397016594E+01 -0.50834479465E+01  0.81748391466E+01  0.51100000000E-03 0. -1.
        -11    1    3    3    0    0  0.70258025290E+01  0.65184963095E+01  0.44748262232E+01  0.10577181350E+02  0.51100000000E-03 0.  1.
        -12    1    3    3    0    0 -0.17836443915E+02  0.25684731387E+02  0.56500828396E+01  0.31776840530E+02  0.00000000000E+00 0.  1.
</event>
<event>
 7    1  0.6046695E-013  0.5052892E+02  0.7816164E-02  0.1300439E+00
        -11   -1    0    0    0    0  0.00000000000E+00  0.00000000000E+00  0.45593999997E+02  0.45594000000E+02  0.51100000000E-03 0. -1.
         11   -1    0    0    0    0 -0.00000000000E+00 -0.00000000000E+00 -0.45593999997E+02  0.45594000000E+02  0.51100000000E-03 0.  1.
    9900012    2    1    2    0    0  0.14409338027E+02 -0.36371673716E+02 -0.11073968035E+02  0.50528924269E+02  0.30000195806E+02 0.  0.
         12    1    1    2    0    0 -0.14409338027E+02  0.36371673716E+02  0.11073968035E+02  0.40659075731E+02  0.00000000000E+00 0. -1.
         11    1    3    3    0    0  0.42725766731E+01 -0.21728295386E+01 -0.12128368165E+02  0.13041219814E+02  0.51100000000E-03 0. -1.
        -11    1    3    3    0    0  0.85760910694E+01 -0.14195685131E+02 -0.34123977044E+01  0.16932550685E+02  0.51100000000E-03 0.  1.
         12    1    3    3    0    0  0.15606702847E+01 -0.20003159047E+02  0.44667978339E+01  0.20555153769E+02  0.00000000000E+00 0. -1.
</event>
<event>
 7    1  0.6046695E-013  0.5052887E+02  0.7816164E-02  0.1300439E+00
        -11   -1    0    0    0    0  0.00000000000E+00  0.00000000000E+00  0.45593999997E+02  0.45594000000E+02  0.51100000000E-03 0.  1.
         11   -1    0    0    0    0 -0.00000000000E+00 -0.00000000000E+00 -0.45593999997E+02  0.45594000000E+02  0.51100000000E-03 0. -1.
    9900012    2    1    2    0    0  0.29568767910E+02 -0.27295271886E+02  0.58155983699E+01  0.50528867109E+02  0.30000022066E+02 0.  0.
         12    1    1    2    0    0 -0.29568767910E+02  0.27295271886E+02 -0.58155983699E+01  0.40659132891E+02  0.00000000000E+00 0. -1.
         11    1    3    3    0    0  0.46063209084E+01  0.14510486971E+01 -0.49596384223E+01  0.69225535876E+01  0.51100000000E-03 0. -1.
        -11    1    3    3    0    0  0.25576418548E+02 -0.30740877768E+02  0.93171677913E+01  0.41060496436E+02  0.51100000000E-03 0.  1.
        -12    1    3    3    0    0 -0.61397154645E+00  0.19945571848E+01  0.14580690009E+01  0.25458170859E+01  0.00000000000E+00 0.  1.
</event>
<event>
 7    1  0.6046695E-013  0.5052886E+02  0.7816164E-02  0.1300439E+00
        -11   -1    0    0    0    0  0.00000000000E+00  0.00000000000E+00  0.45593999997E+02  0.45594000000E+02  0.51100000000E-03 0. -1.
         11   -1    0    0    0    0 -0.00000000000E+00 -0.00000000000E+00 -0.45593999997E+02  0.45594000000E+02  0.51100000000E-03 0.  1.
    9900012    2    1    2    0    0 -0.75372292080E+01  0.28660823577E+02 -0.27837259005E+02  0.50528860546E+02  0.30000002115E+02 0.  0.
         12    1    1    2    0    0  0.75372292080E+01 -0.28660823577E+02  0.27837259005E+02  0.40659139454E+02  0.00000000000E+00 0. -1.
         11    1    3    3    0    0 -0.10094577562E+02  0.19330640622E+02 -0.13361273081E+01  0.21848556004E+02  0.51100000000E-03 0. -1.
        -11    1    3    3    0    0  0.35616615838E+01  0.84359830510E+01 -0.19394388554E+02  0.21447460244E+02  0.51100000000E-03 0.  1.
         12    1    3    3    0    0 -0.10043132298E+01  0.89419990368E+00 -0.71067431432E+01  0.72328442977E+01  0.00000000000E+00 0. -1.
</event>
<event>
 7    1  0.6046695E-013  0.5052886E+02  0.7816164E-02  0.1300439E+00
        -11   -1    0    0    0    0  0.00000000000E+00  0.00000000000E+00  0.45593999997E+02  0.45594000000E+02  0.51100000000E-03 0.  1.
         11   -1    0    0    0    0 -0.00000000000E+00 -0.00000000000E+00 -0.45593999997E+02  0.45594000000E+02  0.51100000000E-03 0. -1.
    9900012    2    1    2    0    0 -0.12667020361E+02 -0.14977219035E+02  0.35614540467E+02  0.50528856041E+02  0.29999988421E+02 0.  0.
         12    1    1    2    0    0  0.12667020361E+02  0.14977219035E+02 -0.35614540467E+02  0.40659143959E+02  0.00000000000E+00 0. -1.
         11    1    3    3    0    0  0.79931659533E+01 -0.59856887694E+00  0.12037727649E+02  0.14462222301E+02  0.51100000000E-03 0. -1.
        -11    1    3    3    0    0 -0.88491134974E+01 -0.27896810005E+01  0.14441681052E+02  0.17165409451E+02  0.51100000000E-03 0.  1.
         12    1    3    3    0    0 -0.11811072817E+02 -0.11588969158E+02  0.91351317657E+01  0.18901224288E+02  0.00000000000E+00 0. -1.
</event>
<event>
 7    1  0.6046695E-013  0.5052887E+02  0.7816164E-02  0.1300439E+00
        -11   -1    0    0    0    0  0.00000000000E+00  0.00000000000E+00  0.45593999997E+02  0.45594000000E+02  0.51100000000E-03 0.  1.
         11   -1    0    0    0    0 -0.00000000000E+00 -0.00000000000E+00 -0.45593999997E+02  0.45594000000E+02  0.51100000000E-03 0. -1.
    9900012    2    1    2    0    0 -0.21697483266E+02  0.55081991861E+01  0.33941774817E+02  0.50528866757E+02  0.30000020994E+02 0.  0.
         12    1    1    2    0    0  0.21697483266E+02 -0.55081991861E+01 -0.33941774817E+02  0.40659133243E+02  0.00000000000E+00 0. -1.
         11    1    3    3    0    0 -0.46137618599E+01  0.78778569119E+01  0.50121821341E+00  0.91432296254E+01  0.51100000000E-03 0. -1.
        -11    1    3    3    0    0 -0.80485835108E+01 -0.92689680006E+00  0.30821533996E+02  0.31868570604E+02  0.51100000000E-03 0.  1.
         12    1    3    3    0    0 -0.90351378948E+01 -0.14427609258E+01  0.26190226076E+01  0.95170665273E+01  0.00000000000E+00 0. -1.
</event>
<event>
 7    1  0.6046695E-013  0.5052886E+02  0.7816164E-02  0.1300439E+00
        -11   -1    0    0    0    0  0.00000000000E+00  0.00000000000E+00  0.45593999997E+02  0.45594000000E+02  0.51100000000E-03 0.  1.
         11   -1    0    0    0    0 -0.00000000000E+00 -0.00000000000E+00 -0.45593999997E+02  0.45594000000E+02  0.51100000000E-03 0. -1.
    9900012    2    1    2    0    0 -0.99092921719E+01 -0.45020320940E+01  0.39175284659E+02  0.50528864588E+02  0.30000014402E+02 0.  0.
         12    1    1    2    0    0  0.99092921719E+01  0.45020320940E+01 -0.39175284659E+02  0.40659135412E+02  0.00000000000E+00 0. -1.
         11    1    3    3    0    0 -0.92443353017E+01  0.79049039035E+01  0.18664779307E+02  0.22278223173E+02  0.51100000000E-03 0. -1.
        -11    1    3    3    0    0  0.59791985264E+01 -0.90642162753E+01  0.16630895659E+02  0.19861961695E+02  0.51100000000E-03 0.  1.
        -12    1    3    3    0    0 -0.66441553967E+01 -0.33427197223E+01  0.38796096932E+01  0.83886797202E+01  0.00000000000E+00 0.  1.
</event>
<event>
 7    1  0.6046695E-013  0.5052886E+02  0.7816164E-02  0.1300439E+00
        -11   -1    0    0    0    0  0.00000000000E+00  0.00000000000E+00  0.45593999997E+02  0.45594000000E+02  0.51100000000E-03 0.  1.
         11   -1    0    0    0    0 -0.00000000000E+00 -0.00000000000E+00 -0.45593999997E+02  0.45594000000E+02  0.51100000000E-03 0. -1.
    9900012    2    1    2    0    0  0.39050265464E+02 -0.11295984871E+02  0.80181940277E+00  0.50528863002E+02  0.30000009582E+02 0.  0.
         12    1    1    2    0    0 -0.39050265464E+02  0.11295984871E+02 -0.80181940277E+00  0.40659136998E+02  0.00000000000E+00 0. -1.
         11    1    3    3    0    0  0.17217840652E+02 -0.16440649711E+02  0.62255453677E+00  0.23814629412E+02  0.51100000000E-03 0. -1.
        -11    1    3    3    0    0  0.23976658367E+02  0.51935704349E+01 -0.21428513070E+00  0.24533634844E+02  0.51100000000E-03 0.  1.
        -12    1    3    3    0    0 -0.21442335539E+01 -0.48905594838E-01  0.39354999670E+00  0.21805987459E+01  0.00000000000E+00 0.  1.
</event>
<event>
 7    1  0.6046695E-013  0.5052886E+02  0.7816164E-02  0.1300439E+00
        -11   -1    0    0    0    0  0.00000000000E+00  0.00000000000E+00  0.45593999997E+02  0.45594000000E+02  0.51100000000E-03 0. -1.
         11   -1    0    0    0    0 -0.00000000000E+00 -0.00000000000E+00 -0.45593999997E+02  0.45594000000E+02  0.51100000000E-03 0.  1.
    9900012    2    1    2    0    0 -0.38488444748E+02  0.10968804956E+00 -0.13106993281E+02  0.50528859779E+02  0.29999999786E+02 0.  0.
         12    1    1    2    0    0  0.38488444748E+02 -0.10968804956E+00  0.13106993281E+02  0.40659140221E+02  0.00000000000E+00 0. -1.
         11    1    3    3    0    0 -0.40482160583E+01  0.34897146077E+00  0.18443056288E+00  0.40674130881E+01  0.51100000000E-03 0. -1.
        -11    1    3    3    0    0 -0.34911225562E+02 -0.29369988826E+01 -0.22734428352E+01  0.35108235149E+02  0.51100000000E-03 0.  1.
        -12    1    3    3    0    0  0.47099687233E+00  0.26977154714E+01 -0.11017981009E+02  0.11353211542E+02  0.00000000000E+00 0.  1.
</event>
<event>
 7    1  0.6046695E-013  0.5052886E+02  0.7816164E-02  0.1300439E+00
        -11   -1    0    0    0    0  0.00000000000E+00  0.00000000000E+00  0.45593999997E+02  0.45594000000E+02  0.51100000000E-03 0. -1.
         11   -1    0    0    0    0 -0.00000000000E+00 -0.00000000000E+00 -0.45593999997E+02  0.45594000000E+02  0.51100000000E-03 0.  1.
    9900012    2    1    2    0    0 -0.19534328172E+02 -0.20408562754E+02 -0.29241521626E+02  0.50528855914E+02  0.29999988035E+02 0.  0.
         12    1    1    2    0    0  0.19534328172E+02  0.20408562754E+02  0.29241521626E+02  0.40659144086E+02  0.00000000000E+00 0. -1.
         11    1    3    3    0    0 -0.20581003524E+02 -0.12625777722E+02 -0.83310090598E+01  0.25541998382E+02  0.51100000000E-03 0. -1.
        -11    1    3    3    0    0 -0.54756951347E+00 -0.96576872501E+01 -0.20245198526E+02  0.22437442345E+02  0.51100000000E-03 0.  1.
         12    1    3    3    0    0  0.15942448652E+01  0.18749022182E+01 -0.66531404074E+00  0.25494151861E+01  0.00000000000E+00 0. -1.
</event>
<event>
 7    1  0.6046695E-013  0.5052886E+02  0.7816164E-02  0.1300439E+00
        -11   -1    0    0    0    0  0.00000000000E+00  0.00000000000E+00  0.45593999997E+02  0.45594000000E+02  0.51100000000E-03 0.  1.
         11   -1    0    0    0    0 -0.00000000000E+00 -0.00000000000E+00 -0.45593999997E+02  0.45594000000E+02  0.51100000000E-03 0. -1.
    9900012    2    1    2    0    0  0.11071462358E+01 -0.23399313239E+02  0.33232694212E+02  0.50528860837E+02  0.30000003001E+02 0.  0.
         12    1    1    2    0    0 -0.11071462358E+01  0.23399313239E+02 -0.33232694212E+02  0.40659139163E+02  0.00000000000E+00 0. -1.
         11    1    3    3    0    0 -0.38992188006E+01 -0.48990777332E+01  0.11779142887E+02  0.13339905446E+02  0.51100000000E-03 0.  1.
        -11    1    3    3    0    0  0.14293017579E+02 -0.13803614795E+02  0.12625393047E+02  0.23542104467E+02  0.51100000000E-03 0. -1.
        -12    1    3    3    0    0 -0.92866525422E+01 -0.46966207111E+01  0.88281582783E+01  0.13646850924E+02  0.00000000000E+00 0.  1.
</event>
<event>
 7    1  0.6046695E-013  0.5052885E+02  0.7816164E-02  0.1300439E+00
        -11   -1    0    0    0    0  0.00000000000E+00  0.00000000000E+00  0.45593999997E+02  0.45594000000E+02  0.51100000000E-03 0. -1.
         11   -1    0    0    0    0 -0.00000000000E+00 -0.00000000000E+00 -0.45593999997E+02  0.45594000000E+02  0.51100000000E-03 0.  1.
    9900012    2    1    2    0    0 -0.33410249388E+02  0.11831511549E+02 -0.19923275561E+02  0.50528851721E+02  0.29999975292E+02 0.  0.
         12    1    1    2    0    0  0.33410249388E+02 -0.11831511549E+02  0.19923275561E+02  0.40659148279E+02  0.00000000000E+00 0. -1.
         11    1    3    3    0    0 -0.27850324420E+02  0.88500479352E+01 -0.21191423187E+02  0.36097650002E+02  0.51100000000E-03 0. -1.
        -11    1    3    3    0    0  0.10507771604E+01 -0.42029274887E+01 -0.91309574677E+00  0.44274683760E+01  0.51100000000E-03 0.  1.
         12    1    3    3    0    0 -0.66107021287E+01  0.71843911023E+01  0.21812433731E+01  0.10003733343E+02  0.00000000000E+00 0. -1.
</event>
<event>
 7    1  0.6046695E-013  0.5052886E+02  0.7816164E-02  0.1300439E+00
        -11   -1    0    0    0    0  0.00000000000E+00  0.00000000000E+00  0.45593999997E+02  0.45594000000E+02  0.51100000000E-03 0.  1.
         11   -1    0    0    0    0 -0.00000000000E+00 -0.00000000000E+00 -0.45593999997E+02  0.45594000000E+02  0.51100000000E-03 0. -1.
    9900012    2    1    2    0    0  0.11277812098E+02 -0.38534927391E+02  0.64059263316E+01  0.50528861213E+02  0.30000004142E+02 0.  0.
         12    1    1    2    0    0 -0.11277812098E+02  0.38534927391E+02 -0.64059263316E+01  0.40659138787E+02  0.00000000000E+00 0. -1.
         11    1    3    3    0    0 -0.44069972027E+01 -0.22812084173E+02 -0.60835203628E+01  0.24017119497E+02  0.51100000000E-03 0. -1.
        -11    1    3    3    0    0  0.89570514305E+01 -0.13072875209E+02  0.65227151840E+01  0.17136938180E+02  0.51100000000E-03 0.  1.
         12    1    3    3    0    0  0.67277578706E+01 -0.26499680097E+01  0.59667315105E+01  0.93748035359E+01  0.00000000000E+00 0. -1.
</event>
<event>
 7    1  0.6046695E-013  0.5052886E+02  0.7816164E-02  0.1300439E+00
        -11   -1    0    0    0    0  0.00000000000E+00  0.00000000000E+00  0.45593999997E+02  0.45594000000E+02  0.51100000000E-03 0.  1.
         11   -1    0    0    0    0 -0.00000000000E+00 -0.00000000000E+00 -0.45593999997E+02  0.45594000000E+02  0.51100000000E-03 0. -1.
    9900012    2    1    2    0    0 -0.39628772034E+02 -0.89771033228E+01 -0.14619811584E+01  0.50528863930E+02  0.30000012403E+02 0.  0.
         12    1    1    2    0    0  0.39628772034E+02  0.89771033228E+01  0.14619811584E+01  0.40659136070E+02  0.00000000000E+00 0. -1.
         11    1    3    3    0    0 -0.18496995813E+01  0.40577171032E+01  0.11465142748E+00  0.44608969773E+01  0.51100000000E-03 0. -1.
        -11    1    3    3    0    0 -0.30973451323E+02 -0.16104132871E+02  0.60106637340E+01  0.35423521298E+02  0.51100000000E-03 0.  1.
        -12    1    3    3    0    0 -0.68056211301E+01  0.30693124452E+01 -0.75872963199E+01  0.10644445655E+02  0.00000000000E+00 0.  1.
</event>
<event>
 7    1  0.6046695E-013  0.5052887E+02  0.7816164E-02  0.1300439E+00
        -11   -1    0    0    0    0  0.00000000000E+00  0.00000000000E+00  0.45593999997E+02  0.45594000000E+02  0.51100000000E-03 0.  1.
         11   -1    0    0    0    0 -0.00000000000E+00 -0.00000000000E+00 -0.45593999997E+02  0.45594000000E+02  0.51100000000E-03 0. -1.
    9900012    2    1    2    0    0 -0.47993386635E+00  0.13874581009E+02  0.38215579852E+02  0.50528869683E+02  0.30000029890E+02 0.  0.
         12    1    1    2    0    0  0.47993386635E+00 -0.13874581009E+02 -0.38215579852E+02  0.40659130317E+02  0.00000000000E+00 0. -1.
         11    1    3    3    0    0 -0.88638406158E+00 -0.61612804638E+01  0.17380483718E+02  0.18461534827E+02  0.51100000000E-03 0. -1.
        -11    1    3    3    0    0  0.66253163443E+00  0.67270441266E+01  0.16876528169E+02  0.18179914030E+02  0.51100000000E-03 0.  1.
         12    1    3    3    0    0 -0.25608143920E+00  0.13308817346E+02  0.39585679652E+01  0.13887420826E+02  0.00000000000E+00 0. -1.
</event>
<event>
 7    1  0.6046695E-013  0.5052874E+02  0.7816164E-02  0.1300439E+00
        -11   -1    0    0    0    0  0.00000000000E+00  0.00000000000E+00  0.45593999997E+02  0.45594000000E+02  0.51100000000E-03 0.  1.
         11   -1    0    0    0    0 -0.00000000000E+00 -0.00000000000E+00 -0.45593999997E+02  0.45594000000E+02  0.51100000000E-03 0. -1.
    9900012    2    1    2    0    0  0.30628731966E+02 -0.58910616585E+01  0.26083544443E+02  0.50528743736E+02  0.29999647056E+02 0.  0.
         12    1    1    2    0    0 -0.30628731966E+02  0.58910616585E+01 -0.26083544443E+02  0.40659256264E+02  0.00000000000E+00 0. -1.
         11    1    3    3    0    0 -0.32280739924E+01  0.88302804188E+00  0.22571655037E+01  0.40367061567E+01  0.51100000000E-03 0. -1.
        -11    1    3    3    0    0  0.23950035982E+02  0.43303397761E+01  0.18905000321E+02  0.30818097013E+02  0.51100000000E-03 0.  1.
        -12    1    3    3    0    0  0.99067699761E+01 -0.11104429476E+02  0.49213786184E+01  0.15673940566E+02  0.00000000000E+00 0.  1.
</event>
<event>
 7    1  0.6046695E-013  0.5052884E+02  0.7816164E-02  0.1300439E+00
        -11   -1    0    0    0    0  0.00000000000E+00  0.00000000000E+00  0.45593999997E+02  0.45594000000E+02  0.51100000000E-03 0. -1.
         11   -1    0    0    0    0 -0.00000000000E+00 -0.00000000000E+00 -0.45593999997E+02  0.45594000000E+02  0.51100000000E-03 0.  1.
    9900012    2    1    2    0    0 -0.78134970403E+01 -0.36954266338E+01 -0.39729845937E+02  0.50528836554E+02  0.29999929188E+02 0.  0.
         12    1    1    2    0    0  0.78134970403E+01  0.36954266338E+01  0.39729845937E+02  0.40659163446E+02  0.00000000000E+00 0. -1.
         11    1    3    3    0    0 -0.56151169461E+01 -0.65690864416E+01 -0.13613376406E+02  0.16124715577E+02  0.51100000000E-03 0. -1.
        -11    1    3    3    0    0  0.82829420686E+01  0.62534196173E+01 -0.17797269389E+02  0.20602310166E+02  0.51100000000E-03 0.  1.
        -12    1    3    3    0    0 -0.10481322163E+02 -0.33797598096E+01 -0.83192001416E+01  0.13801810810E+02  0.00000000000E+00 0.  1.
</event>
<event>
 7    1  0.6046695E-013  0.5052889E+02  0.7816164E-02  0.1300439E+00
        -11   -1    0    0    0    0  0.00000000000E+00  0.00000000000E+00  0.45593999997E+02  0.45594000000E+02  0.51100000000E-03 0. -1.
         11   -1    0    0    0    0 -0.00000000000E+00 -0.00000000000E+00 -0.45593999997E+02  0.45594000000E+02  0.51100000000E-03 0.  1.
    9900012    2    1    2    0    0 -0.51624151760E+01  0.13759728801E+02 -0.37910194699E+02  0.50528886271E+02  0.30000080310E+02 0.  0.
         12    1    1    2    0    0  0.51624151760E+01 -0.13759728801E+02  0.37910194699E+02  0.40659113729E+02  0.00000000000E+00 0. -1.
         11    1    3    3    0    0 -0.16451244923E+01 -0.53737622309E+00  0.22023859511E+01  0.28010198034E+01  0.51100000000E-03 0. -1.
        -11    1    3    3    0    0 -0.68440844064E+01 -0.59343323612E+00 -0.26178903349E+02  0.27065266213E+02  0.51100000000E-03 0.  1.
        -12    1    3    3    0    0  0.33267937227E+01  0.14890538261E+02 -0.13933677301E+02  0.20662600254E+02  0.00000000000E+00 0.  1.
</event>
<event>
 7    1  0.6046695E-013  0.5052886E+02  0.7816164E-02  0.1300439E+00
        -11   -1    0    0    0    0  0.00000000000E+00  0.00000000000E+00  0.45593999997E+02  0.45594000000E+02  0.51100000000E-03 0.  1.
         11   -1    0    0    0    0 -0.00000000000E+00 -0.00000000000E+00 -0.45593999997E+02  0.45594000000E+02  0.51100000000E-03 0. -1.
    9900012    2    1    2    0    0 -0.25969798714E+02  0.15871257166E+02  0.26959941095E+02  0.50528859907E+02  0.30000000172E+02 0.  0.
         12    1    1    2    0    0  0.25969798714E+02 -0.15871257166E+02 -0.26959941095E+02  0.40659140093E+02  0.00000000000E+00 0. -1.
         11    1    3    3    0    0 -0.17964733031E+02  0.23975504275E+02  0.16176672970E+02  0.34047631147E+02  0.51100000000E-03 0. -1.
        -11    1    3    3    0    0 -0.42560919703E+01 -0.61064328821E+01  0.39273041866E+01  0.84158517002E+01  0.51100000000E-03 0.  1.
        -12    1    3    3    0    0 -0.37489737132E+01 -0.19978142265E+01  0.68559639386E+01  0.80653770595E+01  0.00000000000E+00 0.  1.
</event>
<event>
 7    1  0.6046695E-013  0.5052886E+02  0.7816164E-02  0.1300439E+00
        -11   -1    0    0    0    0  0.00000000000E+00  0.00000000000E+00  0.45593999997E+02  0.45594000000E+02  0.51100000000E-03 0. -1.
         11   -1    0    0    0    0 -0.00000000000E+00 -0.00000000000E+00 -0.45593999997E+02  0.45594000000E+02  0.51100000000E-03 0.  1.
    9900012    2    1    2    0    0  0.12932604714E+02  0.28980572775E+02 -0.25417306764E+02  0.50528863927E+02  0.30000012392E+02 0.  0.
         12    1    1    2    0    0 -0.12932604714E+02 -0.28980572775E+02  0.25417306764E+02  0.40659136073E+02  0.00000000000E+00 0. -1.
         11    1    3    3    0    0 -0.47393451245E+01 -0.30214510273E+01  0.22865149416E+00  0.56251969109E+01  0.51100000000E-03 0. -1.
        -11    1    3    3    0    0  0.12406685064E+02  0.18702749328E+02 -0.17353562452E+02  0.28370139173E+02  0.51100000000E-03 0.  1.
         12    1    3    3    0    0  0.52652647739E+01  0.13299274475E+02 -0.82923958068E+01  0.16533527842E+02  0.00000000000E+00 0. -1.
</event>
<event>
 7    1  0.6046695E-013  0.5052886E+02  0.7816164E-02  0.1300439E+00
        -11   -1    0    0    0    0  0.00000000000E+00  0.00000000000E+00  0.45593999997E+02  0.45594000000E+02  0.51100000000E-03 0.  1.
         11   -1    0    0    0    0 -0.00000000000E+00 -0.00000000000E+00 -0.45593999997E+02  0.45594000000E+02  0.51100000000E-03 0. -1.
    9900012    2    1    2    0    0 -0.18694192081E+02 -0.29628042160E+02  0.20636667445E+02  0.50528859047E+02  0.29999997559E+02 0.  0.
         12    1    1    2    0    0  0.18694192081E+02  0.29628042160E+02 -0.20636667445E+02  0.40659140953E+02  0.00000000000E+00 0. -1.
         11    1    3    3    0    0 -0.11966261045E+02 -0.23360288584E+02 -0.17216994229E+01  0.26303207700E+02  0.51100000000E-03 0. -1.
        -11    1    3    3    0    0 -0.46359880673E+01 -0.33091408340E+01  0.14127444449E+02  0.15232448435E+02  0.51100000000E-03 0.  1.
         12    1    3    3    0    0 -0.20919429681E+01 -0.29586127418E+01  0.82309224195E+01  0.89932029118E+01  0.00000000000E+00 0. -1.
</event>
<event>
 7    1  0.6046695E-013  0.5052886E+02  0.7816164E-02  0.1300439E+00
        -11   -1    0    0    0    0  0.00000000000E+00  0.00000000000E+00  0.45593999997E+02  0.45594000000E+02  0.51100000000E-03 0.  1.
         11   -1    0    0    0    0 -0.00000000000E+00 -0.00000000000E+00 -0.45593999997E+02  0.45594000000E+02  0.51100000000E-03 0. -1.
    9900012    2    1    2    0    0  0.19132443164E+02  0.35149114906E+02  0.71871651879E+01  0.50528855844E+02  0.29999987823E+02 0.  0.
         12    1    1    2    0    0 -0.19132443164E+02 -0.35149114906E+02 -0.71871651879E+01  0.40659144156E+02  0.00000000000E+00 0. -1.
         11    1    3    3    0    0  0.56994598674E+01  0.19201063140E+01  0.20271348810E+01  0.63466469198E+01  0.51100000000E-03 0. -1.
        -11    1    3    3    0    0  0.10112584056E+02  0.31240581274E+02 -0.50873748792E+01  0.33228296045E+02  0.51100000000E-03 0.  1.
        -12    1    3    3    0    0  0.33203992404E+01  0.19884273177E+01  0.10247405186E+02  0.10953912879E+02  0.00000000000E+00 0.  1.
</event>
<event>
 7    1  0.6046695E-013  0.5052886E+02  0.7816164E-02  0.1300439E+00
        -11   -1    0    0    0    0  0.00000000000E+00  0.00000000000E+00  0.45593999997E+02  0.45594000000E+02  0.51100000000E-03 0.  1.
         11   -1    0    0    0    0 -0.00000000000E+00 -0.00000000000E+00 -0.45593999997E+02  0.45594000000E+02  0.51100000000E-03 0. -1.
    9900012    2    1    2    0    0 -0.33725989588E+02  0.70315723594E+01  0.21593519429E+02  0.50528862468E+02  0.30000007956E+02 0.  0.
         12    1    1    2    0    0  0.33725989588E+02 -0.70315723594E+01 -0.21593519429E+02  0.40659137532E+02  0.00000000000E+00 0. -1.
         11    1    3    3    0    0  0.25152052029E+01  0.15830121486E+01  0.92896411095E+00  0.31137050689E+01  0.51100000000E-03 0. -1.
        -11    1    3    3    0    0 -0.33457302337E+02 -0.77748391742E+00  0.22531293185E+02  0.40344203224E+02  0.51100000000E-03 0.  1.
        -12    1    3    3    0    0 -0.27838924537E+01  0.62260441283E+01 -0.18667378664E+01  0.70709541749E+01  0.00000000000E+00 0.  1.
</event>
<event>
 7    1  0.6046695E-013  0.5052886E+02  0.7816164E-02  0.1300439E+00
        -11   -1    0    0    0    0  0.00000000000E+00  0.00000000000E+00  0.45593999997E+02  0.45594000000E+02  0.51100000000E-03 0.  1.
         11   -1    0    0    0    0 -0.00000000000E+00 -0.00000000000E+00 -0.45593999997E+02  0.45594000000E+02  0.51100000000E-03 0. -1.
    9900012    2    1    2    0    0 -0.37513156789E+01 -0.45349494507E+01  0.40230930353E+02  0.50528857204E+02  0.29999991957E+02 0.  0.
         12    1    1    2    0    0  0.37513156789E+01  0.45349494507E+01 -0.40230930353E+02  0.40659142796E+02  0.00000000000E+00 0. -1.
         11    1    3    3    0    0 -0.10750306216E+02 -0.81382565920E+01  0.92963736211E+01  0.16377511009E+02  0.51100000000E-03 0. -1.
        -11    1    3    3    0    0  0.94757135591E+01  0.43653270656E+00  0.26593589083E+02  0.28234707167E+02  0.51100000000E-03 0.  1.
         12    1    3    3    0    0 -0.24767230223E+01  0.31667744348E+01  0.43409676494E+01  0.59166390276E+01  0.00000000000E+00 0. -1.
</event>
<event>
 7    1  0.6046695E-013  0.5052887E+02  0.7816164E-02  0.1300439E+00
        -11   -1    0    0    0    0  0.00000000000E+00  0.00000000000E+00  0.45593999997E+02  0.45594000000E+02  0.51100000000E-03 0.  1.
         11   -1    0    0    0    0 -0.00000000000E+00 -0.00000000000E+00 -0.45593999997E+02  0.45594000000E+02  0.51100000000E-03 0. -1.
    9900012    2    1    2    0    0  0.27902200628E+02 -0.25870225324E+02  0.14330510550E+02  0.50528869527E+02  0.30000029414E+02 0.  0.
         12    1    1    2    0    0 -0.27902200628E+02  0.25870225324E+02 -0.14330510550E+02  0.40659130473E+02  0.00000000000E+00 0. -1.
         11    1    3    3    0    0  0.22302168078E+02 -0.76036612624E+01 -0.95563411657E+00  0.23582103435E+02  0.51100000000E-03 0. -1.
        -11    1    3    3    0    0  0.84507780421E+01 -0.83788042976E+01  0.81023752526E+01  0.14396822426E+02  0.51100000000E-03 0.  1.
         12    1    3    3    0    0 -0.28507454926E+01 -0.98877597643E+01  0.71837694140E+01  0.12549943666E+02  0.00000000000E+00 0. -1.
</event>
<event>
 7    1  0.6046695E-013  0.5052885E+02  0.7816164E-02  0.1300439E+00
        -11   -1    0    0    0    0  0.00000000000E+00  0.00000000000E+00  0.45593999997E+02  0.45594000000E+02  0.51100000000E-03 0.  1.
         11   -1    0    0    0    0 -0.00000000000E+00 -0.00000000000E+00 -0.45593999997E+02  0.45594000000E+02  0.51100000000E-03 0. -1.
    9900012    2    1    2    0    0  0.15079265509E+02  0.20823703800E+02  0.31498496921E+02  0.50528853471E+02  0.29999980610E+02 0.  0.
         12    1    1    2    0    0 -0.15079265509E+02 -0.20823703800E+02 -0.31498496921E+02  0.40659146529E+02  0.00000000000E+00 0. -1.
         11    1    3    3    0    0  0.33534102866E+00  0.97237209358E+00  0.81282645778E+01  0.81930852797E+01  0.51100000000E-03 0. -1.
        -11    1    3    3    0    0  0.16764682685E+02  0.12323188099E+02  0.36412722076E+01  0.21122841050E+02  0.51100000000E-03 0.  1.
        -12    1    3    3    0    0 -0.20207582045E+01  0.75281436066E+01  0.19728960135E+02  0.21212927141E+02  0.00000000000E+00 0.  1.
</event>
<event>
 7    1  0.6046695E-013  0.5052886E+02  0.7816164E-02  0.1300439E+00
        -11   -1    0    0    0    0  0.00000000000E+00  0.00000000000E+00  0.45593999997E+02  0.45594000000E+02  0.51100000000E-03 0.  1.
         11   -1    0    0    0    0 -0.00000000000E+00 -0.00000000000E+00 -0.45593999997E+02  0.45594000000E+02  0.51100000000E-03 0. -1.
    9900012    2    1    2    0    0  0.22209545458E+02  0.73113370013E+01  0.33263284375E+02  0.50528860245E+02  0.30000001202E+02 0.  0.
         12    1    1    2    0    0 -0.22209545458E+02 -0.73113370013E+01 -0.33263284375E+02  0.40659139755E+02  0.00000000000E+00 0. -1.
         11    1    3    3    0    0 -0.36466749593E+01 -0.44292553697E+01 -0.16243367924E+00  0.57395928732E+01  0.51100000000E-03 0. -1.
        -11    1    3    3    0    0  0.21419317848E+02  0.98500208676E+01  0.21428452918E+02  0.31858887031E+02  0.51100000000E-03 0.  1.
         12    1    3    3    0    0  0.44369025698E+01  0.18905715034E+01  0.11997265136E+02  0.12930380341E+02  0.00000000000E+00 0. -1.
</event>
<event>
 7    1  0.6046695E-013  0.5052886E+02  0.7816164E-02  0.1300439E+00
        -11   -1    0    0    0    0  0.00000000000E+00  0.00000000000E+00  0.45593999997E+02  0.45594000000E+02  0.51100000000E-03 0.  1.
         11   -1    0    0    0    0 -0.00000000000E+00 -0.00000000000E+00 -0.45593999997E+02  0.45594000000E+02  0.51100000000E-03 0. -1.
    9900012    2    1    2    0    0 -0.99371740592E+01  0.10164605309E+02  0.38093295522E+02  0.50528858431E+02  0.29999995688E+02 0.  0.
         12    1    1    2    0    0  0.99371740592E+01 -0.10164605309E+02 -0.38093295522E+02  0.40659141569E+02  0.00000000000E+00 0. -1.
         11    1    3    3    0    0 -0.17267450821E+02  0.10717417359E+02  0.16178453917E+02  0.25976340468E+02  0.51100000000E-03 0. -1.
        -11    1    3    3    0    0  0.50162308529E+01 -0.43302772416E+01  0.12517842293E+02  0.14163694747E+02  0.51100000000E-03 0.  1.
         12    1    3    3    0    0  0.23140459091E+01  0.37774651918E+01  0.93969993129E+01  0.10388823217E+02  0.00000000000E+00 0. -1.
</event>
<event>
 7    1  0.6046695E-013  0.5052886E+02  0.7816164E-02  0.1300439E+00
        -11   -1    0    0    0    0  0.00000000000E+00  0.00000000000E+00  0.45593999997E+02  0.45594000000E+02  0.51100000000E-03 0.  1.
         11   -1    0    0    0    0 -0.00000000000E+00 -0.00000000000E+00 -0.45593999997E+02  0.45594000000E+02  0.51100000000E-03 0. -1.
    9900012    2    1    2    0    0 -0.21324579356E+02  0.47231822764E+01  0.34294604873E+02  0.50528855162E+02  0.29999985751E+02 0.  0.
         12    1    1    2    0    0  0.21324579356E+02 -0.47231822764E+01 -0.34294604873E+02  0.40659144838E+02  0.00000000000E+00 0. -1.
         11    1    3    3    0    0  0.33204984976E+01  0.27627479009E+01 -0.31982268423E+00  0.43313708046E+01  0.51100000000E-03 0. -1.
        -11    1    3    3    0    0 -0.22914674063E+02  0.67702929863E+01  0.21579751495E+02  0.32196348075E+02  0.51100000000E-03 0.  1.
        -12    1    3    3    0    0 -0.17304037899E+01 -0.48098586107E+01  0.13034676063E+02  0.14001136282E+02  0.00000000000E+00 0.  1.
</event>
<event>
 7    1  0.6046695E-013  0.5052886E+02  0.7816164E-02  0.1300439E+00
        -11   -1    0    0    0    0  0.00000000000E+00  0.00000000000E+00  0.45593999997E+02  0.45594000000E+02  0.51100000000E-03 0.  1.
         11   -1    0    0    0    0 -0.00000000000E+00 -0.00000000000E+00 -0.45593999997E+02  0.45594000000E+02  0.51100000000E-03 0. -1.
    9900012    2    1    2    0    0  0.29096080452E+02 -0.16961249187E+02  0.22779374702E+02  0.50528858550E+02  0.29999996048E+02 0.  0.
         12    1    1    2    0    0 -0.29096080452E+02  0.16961249187E+02 -0.22779374702E+02  0.40659141450E+02  0.00000000000E+00 0. -1.
         11    1    3    3    0    0  0.98254753366E+01  0.31267848525E+01  0.33219327467E+01  0.10832912191E+02  0.51100000000E-03 0. -1.
        -11    1    3    3    0    0  0.14274494196E+02 -0.20166091608E+02  0.61205422943E+01  0.25453751659E+02  0.51100000000E-03 0.  1.
         12    1    3    3    0    0  0.49961109193E+01  0.78057568029E-01  0.13336899661E+02  0.14242194700E+02  0.00000000000E+00 0. -1.
</event>
<event>
 7    1  0.6046695E-013  0.5052885E+02  0.7816164E-02  0.1300439E+00
        -11   -1    0    0    0    0  0.00000000000E+00  0.00000000000E+00  0.45593999997E+02  0.45594000000E+02  0.51100000000E-03 0.  1.
         11   -1    0    0    0    0 -0.00000000000E+00 -0.00000000000E+00 -0.45593999997E+02  0.45594000000E+02  0.51100000000E-03 0. -1.
    9900012    2    1    2    0    0 -0.26835167302E+02  0.25985769380E+02  0.16055537328E+02  0.50528847361E+02  0.29999962039E+02 0.  0.
         12    1    1    2    0    0  0.26835167302E+02 -0.25985769380E+02 -0.16055537328E+02  0.40659152639E+02  0.00000000000E+00 0. -1.
         11    1    3    3    0    0 -0.17574450939E+02  0.13457482933E+01  0.50536812450E+01  0.18336086242E+02  0.51100000000E-03 0.  1.
        -11    1    3    3    0    0 -0.28236386695E+01  0.20323861185E+02  0.24713435634E+01  0.20667360936E+02  0.51100000000E-03 0. -1.
         12    1    3    3    0    0 -0.64370776929E+01  0.43161599020E+01  0.85305125199E+01  0.11525400183E+02  0.00000000000E+00 0. -1.
</event>
<event>
 7    1  0.6046695E-013  0.5052886E+02  0.7816164E-02  0.1300439E+00
        -11   -1    0    0    0    0  0.00000000000E+00  0.00000000000E+00  0.45593999997E+02  0.45594000000E+02  0.51100000000E-03 0.  1.
         11   -1    0    0    0    0 -0.00000000000E+00 -0.00000000000E+00 -0.45593999997E+02  0.45594000000E+02  0.51100000000E-03 0. -1.
    9900012    2    1    2    0    0 -0.33713139377E+02 -0.12149326919E+02 -0.19208942538E+02  0.50528863454E+02  0.30000010955E+02 0.  0.
         12    1    1    2    0    0  0.33713139377E+02  0.12149326919E+02  0.19208942538E+02  0.40659136546E+02  0.00000000000E+00 0. -1.
         11    1    3    3    0    0 -0.22713849999E+02  0.39440577192E+01 -0.35679860227E+01  0.23328203908E+02  0.51100000000E-03 0. -1.
        -11    1    3    3    0    0 -0.99017032053E+01 -0.62761176716E+01 -0.51923453788E+01  0.12821615740E+02  0.51100000000E-03 0.  1.
         12    1    3    3    0    0 -0.10975861734E+01 -0.98172669662E+01 -0.10448611137E+02  0.14379043806E+02  0.00000000000E+00 0. -1.
</event>
<event>
 7    1  0.6046695E-013  0.5052885E+02  0.7816164E-02  0.1300439E+00
        -11   -1    0    0    0    0  0.00000000000E+00  0.00000000000E+00  0.45593999997E+02  0.45594000000E+02  0.51100000000E-03 0.  1.
         11   -1    0    0    0    0 -0.00000000000E+00 -0.00000000000E+00 -0.45593999997E+02  0.45594000000E+02  0.51100000000E-03 0. -1.
    9900012    2    1    2    0    0  0.39301452558E+02 -0.36953442827E+01  0.97419958378E+01  0.50528853115E+02  0.29999979529E+02 0.  0.
         12    1    1    2    0    0 -0.39301452558E+02  0.36953442827E+01 -0.97419958378E+01  0.40659146885E+02  0.00000000000E+00 0. -1.
         11    1    3    3    0    0  0.25054571465E+02 -0.11511393311E+02  0.45669661024E+01  0.27948182533E+02  0.51100000000E-03 0. -1.
        -11    1    3    3    0    0  0.15352862941E+02  0.87847283396E+01  0.51688595752E+00  0.17696017175E+02  0.51100000000E-03 0.  1.
         12    1    3    3    0    0 -0.11059818485E+01 -0.96867931089E+00  0.46581437778E+01  0.48846534075E+01  0.00000000000E+00 0. -1.
</event>
<event>
 7    1  0.6046695E-013  0.5052886E+02  0.7816164E-02  0.1300439E+00
        -11   -1    0    0    0    0  0.00000000000E+00  0.00000000000E+00  0.45593999997E+02  0.45594000000E+02  0.51100000000E-03 0. -1.
         11   -1    0    0    0    0 -0.00000000000E+00 -0.00000000000E+00 -0.45593999997E+02  0.45594000000E+02  0.51100000000E-03 0.  1.
    9900012    2    1    2    0    0 -0.13298291113E+02  0.27013764939E+02 -0.27323576419E+02  0.50528857473E+02  0.29999992774E+02 0.  0.
         12    1    1    2    0    0  0.13298291113E+02 -0.27013764939E+02  0.27323576419E+02  0.40659142527E+02  0.00000000000E+00 0. -1.
         11    1    3    3    0    0 -0.21655191281E+01 -0.46368959628E+01 -0.28139515020E+01  0.58402568933E+01  0.51100000000E-03 0. -1.
        -11    1    3    3    0    0 -0.82192482244E+01  0.26486888494E+02 -0.10817561493E+02  0.29767951565E+02  0.51100000000E-03 0.  1.
        -12    1    3    3    0    0 -0.29135237610E+01  0.51637724078E+01 -0.13692063425E+02  0.14920649014E+02  0.00000000000E+00 0.  1.
</event>
<event>
 7    1  0.6046695E-013  0.5052885E+02  0.7816164E-02  0.1300439E+00
        -11   -1    0    0    0    0  0.00000000000E+00  0.00000000000E+00  0.45593999997E+02  0.45594000000E+02  0.51100000000E-03 0. -1.
         11   -1    0    0    0    0 -0.00000000000E+00 -0.00000000000E+00 -0.45593999997E+02  0.45594000000E+02  0.51100000000E-03 0.  1.
    9900012    2    1    2    0    0 -0.33059890253E+02 -0.28738311845E+01  0.23493634436E+02  0.50528854556E+02  0.29999983909E+02 0.  0.
         12    1    1    2    0    0  0.33059890253E+02  0.28738311845E+01 -0.23493634436E+02  0.40659145444E+02  0.00000000000E+00 0. -1.
         11    1    3    3    0    0 -0.15614446393E+02  0.58986623498E+00  0.17178772139E+02  0.23222168090E+02  0.51100000000E-03 0. -1.
        -11    1    3    3    0    0 -0.37982321935E+00  0.28729625166E+01 -0.50670709250E+01  0.58372414135E+01  0.51100000000E-03 0.  1.
        -12    1    3    3    0    0 -0.17065620641E+02 -0.63366599360E+01  0.11381933222E+02  0.21469445052E+02  0.00000000000E+00 0.  1.
</event>
<event>
 7    1  0.6046695E-013  0.5052886E+02  0.7816164E-02  0.1300439E+00
        -11   -1    0    0    0    0  0.00000000000E+00  0.00000000000E+00  0.45593999997E+02  0.45594000000E+02  0.51100000000E-03 0. -1.
         11   -1    0    0    0    0 -0.00000000000E+00 -0.00000000000E+00 -0.45593999997E+02  0.45594000000E+02  0.51100000000E-03 0.  1.
    9900012    2    1    2    0    0  0.24314551645E+02  0.20659596278E+02 -0.25202173068E+02  0.50528857517E+02  0.29999992910E+02 0.  0.
         12    1    1    2    0    0 -0.24314551645E+02 -0.20659596278E+02  0.25202173068E+02  0.40659142483E+02  0.00000000000E+00 0. -1.
         11    1    3    3    0    0  0.13194838524E+01  0.10433886794E+02  0.45326174489E+01  0.11452146195E+02  0.51100000000E-03 0. -1.
        -11    1    3    3    0    0  0.13589771658E+02  0.68930193962E+01 -0.15944370916E+02  0.22054899100E+02  0.51100000000E-03 0.  1.
         12    1    3    3    0    0  0.94052961342E+01  0.33326900884E+01 -0.13790419601E+02  0.17021812223E+02  0.00000000000E+00 0. -1.
</event>
<event>
 7    1  0.6046695E-013  0.5052886E+02  0.7816164E-02  0.1300439E+00
        -11   -1    0    0    0    0  0.00000000000E+00  0.00000000000E+00  0.45593999997E+02  0.45594000000E+02  0.51100000000E-03 0.  1.
         11   -1    0    0    0    0 -0.00000000000E+00 -0.00000000000E+00 -0.45593999997E+02  0.45594000000E+02  0.51100000000E-03 0. -1.
    9900012    2    1    2    0    0  0.19102007781E+02 -0.77380071712E+01  0.35048565507E+02  0.50528863261E+02  0.30000010369E+02 0.  0.
         12    1    1    2    0    0 -0.19102007781E+02  0.77380071712E+01 -0.35048565507E+02  0.40659136739E+02  0.00000000000E+00 0. -1.
         11    1    3    3    0    0  0.22747484678E+01  0.20154142219E+01 -0.35141121457E+01  0.46460046826E+01  0.51100000000E-03 0. -1.
        -11    1    3    3    0    0 -0.11918076081E-01 -0.34489645918E+01  0.19006660724E+02  0.19317055959E+02  0.51100000000E-03 0.  1.
         12    1    3    3    0    0  0.16839177389E+02 -0.63044568013E+01  0.19556016928E+02  0.26565802620E+02  0.00000000000E+00 0. -1.
</event>
<event>
 7    1  0.6046695E-013  0.5052886E+02  0.7816164E-02  0.1300439E+00
        -11   -1    0    0    0    0  0.00000000000E+00  0.00000000000E+00  0.45593999997E+02  0.45594000000E+02  0.51100000000E-03 0. -1.
         11   -1    0    0    0    0 -0.00000000000E+00 -0.00000000000E+00 -0.45593999997E+02  0.45594000000E+02  0.51100000000E-03 0.  1.
    9900012    2    1    2    0    0  0.30205683814E+02 -0.21417591662E+02 -0.16794902273E+02  0.50528864377E+02  0.30000013759E+02 0.  0.
         12    1    1    2    0    0 -0.30205683814E+02  0.21417591662E+02  0.16794902273E+02  0.40659135623E+02  0.00000000000E+00 0. -1.
         11    1    3    3    0    0 -0.34328108345E+01  0.45799242032E-02  0.30049306552E+01  0.45622165342E+01  0.51100000000E-03 0. -1.
        -11    1    3    3    0    0  0.20431735907E+02 -0.14990963557E+02 -0.65256469280E+01  0.26168089128E+02  0.51100000000E-03 0.  1.
         12    1    3    3    0    0  0.13206758742E+02 -0.64312080290E+01 -0.13274186001E+02  0.19798558714E+02  0.00000000000E+00 0. -1.
</event>
<event>
 7    1  0.6046695E-013  0.5052894E+02  0.7816164E-02  0.1300439E+00
        -11   -1    0    0    0    0  0.00000000000E+00  0.00000000000E+00  0.45593999997E+02  0.45594000000E+02  0.51100000000E-03 0.  1.
         11   -1    0    0    0    0 -0.00000000000E+00 -0.00000000000E+00 -0.45593999997E+02  0.45594000000E+02  0.51100000000E-03 0. -1.
    9900012    2    1    2    0    0  0.13369440499E+01 -0.32229796374E+02  0.24751002628E+02  0.50528937974E+02  0.30000237466E+02 0.  0.
         12    1    1    2    0    0 -0.13369440499E+01  0.32229796374E+02 -0.24751002628E+02  0.40659062026E+02  0.00000000000E+00 0. -1.
         11    1    3    3    0    0  0.31915561368E+01 -0.34120267832E+00 -0.38581555358E+01  0.50187462819E+01  0.51100000000E-03 0. -1.
        -11    1    3    3    0    0 -0.88528000893E+00 -0.32563974976E+02  0.29563961371E+02  0.43991180924E+02  0.51100000000E-03 0.  1.
        -12    1    3    3    0    0 -0.96933207804E+00  0.67538128003E+00 -0.95480320664E+00  0.15190107683E+01  0.00000000000E+00 0.  1.
</event>
<event>
 7    1  0.6046695E-013  0.5052886E+02  0.7816164E-02  0.1300439E+00
        -11   -1    0    0    0    0  0.00000000000E+00  0.00000000000E+00  0.45593999997E+02  0.45594000000E+02  0.51100000000E-03 0.  1.
         11   -1    0    0    0    0 -0.00000000000E+00 -0.00000000000E+00 -0.45593999997E+02  0.45594000000E+02  0.51100000000E-03 0. -1.
    9900012    2    1    2    0    0 -0.21378082303E+02  0.93633823376E+01  0.33293694374E+02  0.50528863059E+02  0.30000009754E+02 0.  0.
         12    1    1    2    0    0  0.21378082303E+02 -0.93633823376E+01 -0.33293694374E+02  0.40659136941E+02  0.00000000000E+00 0. -1.
         11    1    3    3    0    0 -0.12703405182E+02  0.11027483062E+01  0.35498355574E+02  0.37719037710E+02  0.51100000000E-03 0.  1.
        -11    1    3    3    0    0 -0.42396378123E+01  0.65582646481E+01 -0.76897644153E+00  0.78470815595E+01  0.51100000000E-03 0. -1.
        -12    1    3    3    0    0 -0.44350393088E+01  0.17023693833E+01 -0.14356847592E+01  0.49627437891E+01  0.00000000000E+00 0.  1.
</event>
<event>
 7    1  0.6046695E-013  0.5052891E+02  0.7816164E-02  0.1300439E+00
        -11   -1    0    0    0    0  0.00000000000E+00  0.00000000000E+00  0.45593999997E+02  0.45594000000E+02  0.51100000000E-03 0. -1.
         11   -1    0    0    0    0 -0.00000000000E+00 -0.00000000000E+00 -0.45593999997E+02  0.45594000000E+02  0.51100000000E-03 0.  1.
    9900012    2    1    2    0    0 -0.35683379556E+02 -0.18939214243E+02 -0.46004879399E+01  0.50528906282E+02  0.30000141134E+02 0.  0.
         12    1    1    2    0    0  0.35683379556E+02  0.18939214243E+02  0.46004879399E+01  0.40659093718E+02  0.00000000000E+00 0. -1.
         11    1    3    3    0    0 -0.30841944903E+02 -0.49824357780E+01  0.49790552675E+01  0.31636074713E+02  0.51100000000E-03 0. -1.
        -11    1    3    3    0    0 -0.45425786987E+01 -0.10863800094E+02 -0.38743335993E+01  0.12396275038E+02  0.51100000000E-03 0.  1.
         12    1    3    3    0    0 -0.29885595514E+00 -0.30929783708E+01 -0.57052096081E+01  0.64965565307E+01  0.00000000000E+00 0. -1.
</event>
<event>
 7    1  0.6046695E-013  0.5052880E+02  0.7816164E-02  0.1300439E+00
        -11   -1    0    0    0    0  0.00000000000E+00  0.00000000000E+00  0.45593999997E+02  0.45594000000E+02  0.51100000000E-03 0. -1.
         11   -1    0    0    0    0 -0.00000000000E+00 -0.00000000000E+00 -0.45593999997E+02  0.45594000000E+02  0.51100000000E-03 0.  1.
    9900012    2    1    2    0    0  0.18026359411E+02 -0.21624599921E+02 -0.29335942903E+02  0.50528800532E+02  0.29999819698E+02 0.  0.
         12    1    1    2    0    0 -0.18026359411E+02  0.21624599921E+02  0.29335942903E+02  0.40659199468E+02  0.00000000000E+00 0. -1.
         11    1    3    3    0    0  0.61265296285E+01 -0.32764038201E+01 -0.12129254463E+02  0.13978125818E+02  0.51100000000E-03 0. -1.
        -11    1    3    3    0    0 -0.93250674053E+00 -0.18518560019E+02 -0.59313323028E+01  0.19467597108E+02  0.51100000000E-03 0.  1.
        -12    1    3    3    0    0  0.12832336523E+02  0.17036391896E+00 -0.11275356137E+02  0.17083077607E+02  0.00000000000E+00 0.  1.
</event>
<event>
 7    1  0.6046695E-013  0.5052885E+02  0.7816164E-02  0.1300439E+00
        -11   -1    0    0    0    0  0.00000000000E+00  0.00000000000E+00  0.45593999997E+02  0.45594000000E+02  0.51100000000E-03 0.  1.
         11   -1    0    0    0    0 -0.00000000000E+00 -0.00000000000E+00 -0.45593999997E+02  0.45594000000E+02  0.51100000000E-03 0. -1.
    9900012    2    1    2    0    0 -0.15971571180E+02  0.13683739633E+02  0.34796988170E+02  0.50528853403E+02  0.29999980404E+02 0.  0.
         12    1    1    2    0    0  0.15971571180E+02 -0.13683739633E+02 -0.34796988170E+02  0.40659146597E+02  0.00000000000E+00 0. -1.
         11    1    3    3    0    0 -0.89886011414E+01  0.85484464972E+01  0.47603690079E+01  0.13286534588E+02  0.51100000000E-03 0. -1.
        -11    1    3    3    0    0  0.32482211874E+00 -0.67383499500E+01  0.43835276266E+01  0.80452584900E+01  0.51100000000E-03 0.  1.
        -12    1    3    3    0    0 -0.73077921574E+01  0.11873643085E+02  0.25653091535E+02  0.29197060326E+02  0.00000000000E+00 0.  1.
</event>
<event>
 7    1  0.6046695E-013  0.5052885E+02  0.7816164E-02  0.1300439E+00
        -11   -1    0    0    0    0  0.00000000000E+00  0.00000000000E+00  0.45593999997E+02  0.45594000000E+02  0.51100000000E-03 0. -1.
         11   -1    0    0    0    0 -0.00000000000E+00 -0.00000000000E+00 -0.45593999997E+02  0.45594000000E+02  0.51100000000E-03 0.  1.
    9900012    2    1    2    0    0  0.31893751868E+02 -0.16331540783E+02 -0.19215502605E+02  0.50528853760E+02  0.29999981489E+02 0.  0.
         12    1    1    2    0    0 -0.31893751868E+02  0.16331540783E+02  0.19215502605E+02  0.40659146240E+02  0.00000000000E+00 0. -1.
         11    1    3    3    0    0  0.28850175606E+01 -0.30127179220E+00 -0.15174771798E+02  0.15449523953E+02  0.51100000000E-03 0. -1.
        -11    1    3    3    0    0  0.22451751499E+02 -0.13200375735E+02  0.14286944359E+01  0.26083945885E+02  0.51100000000E-03 0.  1.
         12    1    3    3    0    0  0.65569828090E+01 -0.28298932561E+01 -0.54694252434E+01  0.89953839213E+01  0.00000000000E+00 0. -1.
</event>
<event>
 7    1  0.6046695E-013  0.5052891E+02  0.7816164E-02  0.1300439E+00
        -11   -1    0    0    0    0  0.00000000000E+00  0.00000000000E+00  0.45593999997E+02  0.45594000000E+02  0.51100000000E-03 0.  1.
         11   -1    0    0    0    0 -0.00000000000E+00 -0.00000000000E+00 -0.45593999997E+02  0.45594000000E+02  0.51100000000E-03 0. -1.
    9900012    2    1    2    0    0 -0.27349635604E+02  0.21383793520E+01  0.30009773225E+02  0.50528908484E+02  0.30000147826E+02 0.  0.
         12    1    1    2    0    0  0.27349635604E+02 -0.21383793520E+01 -0.30009773225E+02  0.40659091516E+02  0.00000000000E+00 0. -1.
         11    1    3    3    0    0 -0.22685186855E+02 -0.40381856987E+01  0.83553556369E+01  0.24509928895E+02  0.51100000000E-03 0.  1.
        -11    1    3    3    0    0 -0.62353352207E+01  0.30616813645E+01  0.21424887828E+02  0.22522857651E+02  0.51100000000E-03 0. -1.
         12    1    3    3    0    0  0.15708864719E+01  0.31148836862E+01  0.22952976069E+00  0.34961219368E+01  0.00000000000E+00 0. -1.
</event>
<event>
 7    1  0.6046695E-013  0.5052885E+02  0.7816164E-02  0.1300439E+00
        -11   -1    0    0    0    0  0.00000000000E+00  0.00000000000E+00  0.45593999997E+02  0.45594000000E+02  0.51100000000E-03 0.  1.
         11   -1    0    0    0    0 -0.00000000000E+00 -0.00000000000E+00 -0.45593999997E+02  0.45594000000E+02  0.51100000000E-03 0. -1.
    9900012    2    1    2    0    0  0.21847620844E+02  0.32572638206E+02  0.10717792828E+02  0.50528851222E+02  0.29999973775E+02 0.  0.
         12    1    1    2    0    0 -0.21847620844E+02 -0.32572638206E+02 -0.10717792828E+02  0.40659148778E+02  0.00000000000E+00 0. -1.
         11    1    3    3    0    0  0.16604960423E+02  0.90323275615E+01  0.73549989446E+01  0.20283088068E+02  0.51100000000E-03 0.  1.
        -11    1    3    3    0    0 -0.60137109274E+01  0.13277386528E+02  0.35901308593E+01  0.15011420718E+02  0.51100000000E-03 0. -1.
        -12    1    3    3    0    0  0.11256371348E+02  0.10262924116E+02 -0.22733697621E+00  0.15234342436E+02  0.00000000000E+00 0.  1.
</event>
<event>
 7    1  0.6046695E-013  0.5052887E+02  0.7816164E-02  0.1300439E+00
        -11   -1    0    0    0    0  0.00000000000E+00  0.00000000000E+00  0.45593999997E+02  0.45594000000E+02  0.51100000000E-03 0. -1.
         11   -1    0    0    0    0 -0.00000000000E+00 -0.00000000000E+00 -0.45593999997E+02  0.45594000000E+02  0.51100000000E-03 0.  1.
    9900012    2    1    2    0    0  0.27313428960E+02  0.87696193882E+01  0.28813807618E+02  0.50528866521E+02  0.30000020278E+02 0.  0.
         12    1    1    2    0    0 -0.27313428960E+02 -0.87696193882E+01 -0.28813807618E+02  0.40659133479E+02  0.00000000000E+00 0. -1.
         11    1    3    3    0    0  0.42025218345E+01  0.12500746082E+02  0.18912685611E+02  0.23056875756E+02  0.51100000000E-03 0. -1.
        -11    1    3    3    0    0  0.14617087797E+02 -0.27908908317E+01  0.67533988447E+00  0.14896456341E+02  0.51100000000E-03 0.  1.
        -12    1    3    3    0    0  0.84938193293E+01 -0.94023586176E+00  0.92257821227E+01  0.12575534424E+02  0.00000000000E+00 0.  1.
</event>
<event>
 7    1  0.6046695E-013  0.5052885E+02  0.7816164E-02  0.1300439E+00
        -11   -1    0    0    0    0  0.00000000000E+00  0.00000000000E+00  0.45593999997E+02  0.45594000000E+02  0.51100000000E-03 0.  1.
         11   -1    0    0    0    0 -0.00000000000E+00 -0.00000000000E+00 -0.45593999997E+02  0.45594000000E+02  0.51100000000E-03 0. -1.
    9900012    2    1    2    0    0 -0.31126184710E+02 -0.25994482808E+02  0.29348899648E+01  0.50528854779E+02  0.29999984586E+02 0.  0.
         12    1    1    2    0    0  0.31126184710E+02  0.25994482808E+02 -0.29348899648E+01  0.40659145221E+02  0.00000000000E+00 0. -1.
         11    1    3    3    0    0 -0.71117392129E+01  0.54421243675E+01  0.41641300012E+01  0.98759066010E+01  0.51100000000E-03 0. -1.
        -11    1    3    3    0    0 -0.59025265968E+01 -0.14987675233E+02 -0.15670988674E+01  0.16184128900E+02  0.51100000000E-03 0.  1.
        -12    1    3    3    0    0 -0.18111918900E+02 -0.16448931942E+02  0.33785883092E+00  0.24468819278E+02  0.00000000000E+00 0.  1.
</event>
<event>
 7    1  0.6046695E-013  0.5052886E+02  0.7816164E-02  0.1300439E+00
        -11   -1    0    0    0    0  0.00000000000E+00  0.00000000000E+00  0.45593999997E+02  0.45594000000E+02  0.51100000000E-03 0. -1.
         11   -1    0    0    0    0 -0.00000000000E+00 -0.00000000000E+00 -0.45593999997E+02  0.45594000000E+02  0.51100000000E-03 0.  1.
    9900012    2    1    2    0    0 -0.39692130632E+02  0.41809064488E+01  0.77601994837E+01  0.50528857008E+02  0.29999991362E+02 0.  0.
         12    1    1    2    0    0  0.39692130632E+02 -0.41809064488E+01 -0.77601994837E+01  0.40659142992E+02  0.00000000000E+00 0. -1.
         11    1    3    3    0    0  0.10250220599E+01 -0.35131851924E+01  0.76201697958E+00  0.37381560371E+01  0.51100000000E-03 0. -1.
        -11    1    3    3    0    0 -0.41356780558E+02  0.10888038926E+02  0.52307404548E+01  0.43084722765E+02  0.51100000000E-03 0.  1.
        -12    1    3    3    0    0  0.63962786634E+00 -0.31939472848E+01  0.17674420493E+01  0.37059782059E+01  0.00000000000E+00 0.  1.
</event>
<event>
 7    1  0.6046695E-013  0.5052886E+02  0.7816164E-02  0.1300439E+00
        -11   -1    0    0    0    0  0.00000000000E+00  0.00000000000E+00  0.45593999997E+02  0.45594000000E+02  0.51100000000E-03 0.  1.
         11   -1    0    0    0    0 -0.00000000000E+00 -0.00000000000E+00 -0.45593999997E+02  0.45594000000E+02  0.51100000000E-03 0. -1.
    9900012    2    1    2    0    0 -0.42084627001E+01  0.34795837704E+02  0.20608347061E+02  0.50528862670E+02  0.30000008572E+02 0.  0.
         12    1    1    2    0    0  0.42084627001E+01 -0.34795837704E+02 -0.20608347061E+02  0.40659137330E+02  0.00000000000E+00 0. -1.
         11    1    3    3    0    0  0.85318217329E+01  0.92589786824E+01  0.34546708481E+01  0.13055857661E+02  0.51100000000E-03 0.  1.
        -11    1    3    3    0    0 -0.12289368659E+02  0.18973348768E+02  0.42680955276E+01  0.23005068685E+02  0.51100000000E-03 0. -1.
         12    1    3    3    0    0 -0.45091577415E+00  0.65635102529E+01  0.12885580686E+02  0.14467936324E+02  0.00000000000E+00 0. -1.
</event>
<event>
 7    1  0.6046695E-013  0.5052888E+02  0.7816164E-02  0.1300439E+00
        -11   -1    0    0    0    0  0.00000000000E+00  0.00000000000E+00  0.45593999997E+02  0.45594000000E+02  0.51100000000E-03 0.  1.
         11   -1    0    0    0    0 -0.00000000000E+00 -0.00000000000E+00 -0.45593999997E+02  0.45594000000E+02  0.51100000000E-03 0. -1.
    9900012    2    1    2    0    0  0.16899743146E+02  0.14641376909E+01  0.36951578947E+02  0.50528877971E+02  0.30000055079E+02 0.  0.
         12    1    1    2    0    0 -0.16899743146E+02 -0.14641376909E+01 -0.36951578947E+02  0.40659122029E+02  0.00000000000E+00 0. -1.
         11    1    3    3    0    0  0.12076136772E+02 -0.83741942220E+01  0.57096641335E+01  0.15765800740E+02  0.51100000000E-03 0. -1.
        -11    1    3    3    0    0  0.72540950523E+01  0.94741450421E+01  0.20288170285E+02  0.23537017081E+02  0.51100000000E-03 0.  1.
        -12    1    3    3    0    0 -0.24304886783E+01  0.36418687080E+00  0.10953744528E+02  0.11226060149E+02  0.00000000000E+00 0.  1.
</event>
<event>
 7    1  0.6046695E-013  0.5052885E+02  0.7816164E-02  0.1300439E+00
        -11   -1    0    0    0    0  0.00000000000E+00  0.00000000000E+00  0.45593999997E+02  0.45594000000E+02  0.51100000000E-03 0.  1.
         11   -1    0    0    0    0 -0.00000000000E+00 -0.00000000000E+00 -0.45593999997E+02  0.45594000000E+02  0.51100000000E-03 0. -1.
    9900012    2    1    2    0    0 -0.21414935840E+02 -0.68084523851E+01  0.33885282207E+02  0.50528845420E+02  0.29999956138E+02 0.  0.
         12    1    1    2    0    0  0.21414935840E+02  0.68084523851E+01 -0.33885282207E+02  0.40659154580E+02  0.00000000000E+00 0. -1.
         11    1    3    3    0    0 -0.40218686381E+01  0.17301484722E+01  0.26986550371E+02  0.27339399084E+02  0.51100000000E-03 0. -1.
        -11    1    3    3    0    0 -0.16124606819E+02 -0.99918325212E+01  0.83990722039E+01  0.20745700189E+02  0.51100000000E-03 0.  1.
         12    1    3    3    0    0 -0.12684603827E+01  0.14532316639E+01 -0.15003403674E+01  0.24437461467E+01  0.00000000000E+00 0. -1.
</event>
<event>
 7    1  0.6046695E-013  0.5052885E+02  0.7816164E-02  0.1300439E+00
        -11   -1    0    0    0    0  0.00000000000E+00  0.00000000000E+00  0.45593999997E+02  0.45594000000E+02  0.51100000000E-03 0.  1.
         11   -1    0    0    0    0 -0.00000000000E+00 -0.00000000000E+00 -0.45593999997E+02  0.45594000000E+02  0.51100000000E-03 0. -1.
    9900012    2    1    2    0    0  0.11511790163E+02 -0.20813576470E+01  0.38939866806E+02  0.50528848640E+02  0.29999965927E+02 0.  0.
         12    1    1    2    0    0 -0.11511790163E+02  0.20813576470E+01 -0.38939866806E+02  0.40659151360E+02  0.00000000000E+00 0. -1.
         11    1    3    3    0    0 -0.32843464974E+01  0.51063975074E+01  0.68826661746E+01  0.91778712864E+01  0.51100000000E-03 0. -1.
        -11    1    3    3    0    0  0.16229469991E+02 -0.99112919848E+01  0.15565811582E+02  0.24574863082E+02  0.51100000000E-03 0.  1.
        -12    1    3    3    0    0 -0.14333333308E+01  0.27235368303E+01  0.16491389049E+02  0.16776114272E+02  0.00000000000E+00 0.  1.
</event>
<event>
 7    1  0.6046695E-013  0.5052887E+02  0.7816164E-02  0.1300439E+00
        -11   -1    0    0    0    0  0.00000000000E+00  0.00000000000E+00  0.45593999997E+02  0.45594000000E+02  0.51100000000E-03 0.  1.
         11   -1    0    0    0    0 -0.00000000000E+00 -0.00000000000E+00 -0.45593999997E+02  0.45594000000E+02  0.51100000000E-03 0. -1.
    9900012    2    1    2    0    0 -0.48750789933E+00 -0.20408143215E+02  0.35162972488E+02  0.50528873010E+02  0.30000040001E+02 0.  0.
         12    1    1    2    0    0  0.48750789933E+00  0.20408143215E+02 -0.35162972488E+02  0.40659126990E+02  0.00000000000E+00 0. -1.
         11    1    3    3    0    0  0.62382804082E+00  0.39997299017E+01  0.80163444329E+01  0.89804665268E+01  0.51100000000E-03 0. -1.
        -11    1    3    3    0    0 -0.23046962588E+01 -0.10448714351E+02 -0.33124717024E+00  0.10704997962E+02  0.51100000000E-03 0.  1.
        -12    1    3    3    0    0  0.11933603186E+01 -0.13959158766E+02  0.27477875225E+02  0.30843408521E+02  0.00000000000E+00 0.  1.
</event>
<event>
 7    1  0.6046695E-013  0.5052886E+02  0.7816164E-02  0.1300439E+00
        -11   -1    0    0    0    0  0.00000000000E+00  0.00000000000E+00  0.45593999997E+02  0.45594000000E+02  0.51100000000E-03 0. -1.
         11   -1    0    0    0    0 -0.00000000000E+00 -0.00000000000E+00 -0.45593999997E+02  0.45594000000E+02  0.51100000000E-03 0.  1.
    9900012    2    1    2    0    0 -0.39455366936E+02  0.73072772099E+01  0.65607267224E+01  0.50528863076E+02  0.30000009807E+02 0.  0.
         12    1    1    2    0    0  0.39455366936E+02 -0.73072772099E+01 -0.65607267224E+01  0.40659136924E+02  0.00000000000E+00 0. -1.
         11    1    3    3    0    0 -0.18289607872E+02  0.45547373996E+01  0.15024262919E+02  0.24103606896E+02  0.51100000000E-03 0. -1.
        -11    1    3    3    0    0 -0.20521222991E+02 -0.13468015682E+01 -0.53861864801E+01  0.21259009210E+02  0.51100000000E-03 0.  1.
         12    1    3    3    0    0 -0.64453607212E+00  0.40993413785E+01 -0.30773497160E+01  0.51662469705E+01  0.00000000000E+00 0. -1.
</event>
<event>
 7    1  0.6046695E-013  0.5052884E+02  0.7816164E-02  0.1300439E+00
        -11   -1    0    0    0    0  0.00000000000E+00  0.00000000000E+00  0.45593999997E+02  0.45594000000E+02  0.51100000000E-03 0. -1.
         11   -1    0    0    0    0 -0.00000000000E+00 -0.00000000000E+00 -0.45593999997E+02  0.45594000000E+02  0.51100000000E-03 0.  1.
    9900012    2    1    2    0    0 -0.84554397507E+01  0.19106911867E+02 -0.34879774554E+02  0.50528840941E+02  0.29999942524E+02 0.  0.
         12    1    1    2    0    0  0.84554397507E+01 -0.19106911867E+02  0.34879774554E+02  0.40659159059E+02  0.00000000000E+00 0. -1.
         11    1    3    3    0    0 -0.56987250163E+01  0.22302260508E+01 -0.39540852439E+01  0.72858881014E+01  0.51100000000E-03 0. -1.
        -11    1    3    3    0    0  0.91026864173E+01  0.12903809062E+02 -0.24586724961E+02  0.29221126482E+02  0.51100000000E-03 0.  1.
        -12    1    3    3    0    0 -0.11859401152E+02  0.39728767543E+01 -0.63389643491E+01  0.14021826358E+02  0.00000000000E+00 0.  1.
</event>
<event>
 7    1  0.6046695E-013  0.5052886E+02  0.7816164E-02  0.1300439E+00
        -11   -1    0    0    0    0  0.00000000000E+00  0.00000000000E+00  0.45593999997E+02  0.45594000000E+02  0.51100000000E-03 0.  1.
         11   -1    0    0    0    0 -0.00000000000E+00 -0.00000000000E+00 -0.45593999997E+02  0.45594000000E+02  0.51100000000E-03 0. -1.
    9900012    2    1    2    0    0 -0.13467211076E+02  0.34026298574E+02  0.17720353956E+02  0.50528859415E+02  0.29999998677E+02 0.  0.
         12    1    1    2    0    0  0.13467211076E+02 -0.34026298574E+02 -0.17720353956E+02  0.40659140585E+02  0.00000000000E+00 0. -1.
         11    1    3    3    0    0 -0.46268922995E+01 -0.14012002617E+01  0.12007092773E+01  0.49812847293E+01  0.51100000000E-03 0. -1.
        -11    1    3    3    0    0 -0.37317473189E+01  0.36827056338E+02  0.15613245426E+02  0.40173765688E+02  0.51100000000E-03 0.  1.
        -12    1    3    3    0    0 -0.51085714572E+01 -0.13995575021E+01  0.90639925311E+00  0.53738089975E+01  0.00000000000E+00 0.  1.
</event>
<event>
 7    1  0.6775606E-013  0.5052887E+02  0.7816164E-02  0.1300439E+00
        -11   -1    0    0    0    0  0.00000000000E+00  0.00000000000E+00  0.45593999997E+02  0.45594000000E+02  0.51100000000E-03 0.  1.
         11   -1    0    0    0    0 -0.00000000000E+00 -0.00000000000E+00 -0.45593999997E+02  0.45594000000E+02  0.51100000000E-03 0. -1.
    9900012    2    1    2    0    0  0.25272127795E+02  0.18475422119E+02  0.25945007374E+02  0.50528867282E+02  0.30000022590E+02 0.  0.
         12    1    1    2    0    0 -0.25272127795E+02 -0.18475422119E+02 -0.25945007374E+02  0.40659132718E+02  0.00000000000E+00 0. -1.
         11    1    3    3    0    0  0.21896812571E+02  0.16027147640E+02  0.89327991275E+01  0.28568072437E+02  0.51100000000E-03 0. -1.
        -11    1    3    3    0    0  0.64741185726E+01  0.49590878516E+01  0.15819663312E+02  0.17797991774E+02  0.51100000000E-03 0.  1.
         12    1    3    3    0    0 -0.30988033488E+01 -0.25108133731E+01  0.11925449346E+01  0.41628030713E+01  0.00000000000E+00 0. -1.
</event>
<event>
 7    1  0.6046695E-013  0.5052887E+02  0.7816164E-02  0.1300439E+00
        -11   -1    0    0    0    0  0.00000000000E+00  0.00000000000E+00  0.45593999997E+02  0.45594000000E+02  0.51100000000E-03 0.  1.
         11   -1    0    0    0    0 -0.00000000000E+00 -0.00000000000E+00 -0.45593999997E+02  0.45594000000E+02  0.51100000000E-03 0. -1.
    9900012    2    1    2    0    0  0.40032554338E+02  0.40623451273E+01  0.58358198322E+01  0.50528870055E+02  0.30000031019E+02 0.  0.
         12    1    1    2    0    0 -0.40032554338E+02 -0.40623451273E+01 -0.58358198322E+01  0.40659129945E+02  0.00000000000E+00 0. -1.
         11    1    3    3    0    0  0.12272112321E+02  0.95658485615E+01  0.25700437199E+01  0.15770710970E+02  0.51100000000E-03 0. -1.
        -11    1    3    3    0    0  0.35467328904E+01 -0.93166960099E+01 -0.38105992832E+00  0.99762390542E+01  0.51100000000E-03 0.  1.
        -12    1    3    3    0    0  0.24213709127E+02  0.38131925757E+01  0.36468360406E+01  0.24781920031E+02  0.00000000000E+00 0.  1.
</event>
<event>
 7    1  0.6046695E-013  0.5052887E+02  0.7816164E-02  0.1300439E+00
        -11   -1    0    0    0    0  0.00000000000E+00  0.00000000000E+00  0.45593999997E+02  0.45594000000E+02  0.51100000000E-03 0. -1.
         11   -1    0    0    0    0 -0.00000000000E+00 -0.00000000000E+00 -0.45593999997E+02  0.45594000000E+02  0.51100000000E-03 0.  1.
    9900012    2    1    2    0    0 -0.37373834094E+01  0.17979557743E+02 -0.36275783771E+02  0.50528867944E+02  0.30000024602E+02 0.  0.
         12    1    1    2    0    0  0.37373834094E+01 -0.17979557743E+02  0.36275783771E+02  0.40659132056E+02  0.00000000000E+00 0. -1.
         11    1    3    3    0    0  0.11254710792E+01  0.89929758680E+01  0.16405676679E+01  0.92104159866E+01  0.51100000000E-03 0. -1.
        -11    1    3    3    0    0 -0.63318636276E+01  0.11104583863E+02 -0.24267819645E+02  0.27428659288E+02  0.51100000000E-03 0.  1.
        -12    1    3    3    0    0  0.14690091390E+01 -0.21180019873E+01 -0.13648531794E+02  0.13889792669E+02  0.00000000000E+00 0.  1.
</event>
<event>
 7    1  0.6046695E-013  0.5052886E+02  0.7816164E-02  0.1300439E+00
        -11   -1    0    0    0    0  0.00000000000E+00  0.00000000000E+00  0.45593999997E+02  0.45594000000E+02  0.51100000000E-03 0.  1.
         11   -1    0    0    0    0 -0.00000000000E+00 -0.00000000000E+00 -0.45593999997E+02  0.45594000000E+02  0.51100000000E-03 0. -1.
    9900012    2    1    2    0    0 -0.39799166739E+02 -0.81368691099E+01 -0.17271942872E+01  0.50528861886E+02  0.30000006190E+02 0.  0.
         12    1    1    2    0    0  0.39799166739E+02  0.81368691099E+01  0.17271942872E+01  0.40659138114E+02  0.00000000000E+00 0. -1.
         11    1    3    3    0    0 -0.11037805429E+02  0.99351129301E+01 -0.56585506705E+01  0.15892099093E+02  0.51100000000E-03 0. -1.
        -11    1    3    3    0    0 -0.18348101227E+02 -0.10111953056E+02 -0.92175819187E-02  0.20950047696E+02  0.51100000000E-03 0.  1.
         12    1    3    3    0    0 -0.10413260083E+02 -0.79600289843E+01  0.39405739652E+01  0.13686715098E+02  0.00000000000E+00 0. -1.
</event>
<event>
 7    1  0.6046695E-013  0.5052889E+02  0.7816164E-02  0.1300439E+00
        -11   -1    0    0    0    0  0.00000000000E+00  0.00000000000E+00  0.45593999997E+02  0.45594000000E+02  0.51100000000E-03 0. -1.
         11   -1    0    0    0    0 -0.00000000000E+00 -0.00000000000E+00 -0.45593999997E+02  0.45594000000E+02  0.51100000000E-03 0.  1.
    9900012    2    1    2    0    0 -0.26475694979E+02  0.29132761022E+02  0.10172650480E+02  0.50528892691E+02  0.30000099823E+02 0.  0.
         12    1    1    2    0    0  0.26475694979E+02 -0.29132761022E+02 -0.10172650480E+02  0.40659107309E+02  0.00000000000E+00 0. -1.
         11    1    3    3    0    0 -0.18014555835E+02  0.12182750512E+02  0.16342001398E+02  0.27203026338E+02  0.51100000000E-03 0. -1.
        -11    1    3    3    0    0 -0.56325388428E+01  0.18048051821E+02 -0.33839643608E+01  0.19207000895E+02  0.51100000000E-03 0.  1.
        -12    1    3    3    0    0 -0.28286003014E+01 -0.10980413112E+01 -0.27853865573E+01  0.41188654578E+01  0.00000000000E+00 0.  1.
</event>
<event>
 7    1  0.6046695E-013  0.5052886E+02  0.7816164E-02  0.1300439E+00
        -11   -1    0    0    0    0  0.00000000000E+00  0.00000000000E+00  0.45593999997E+02  0.45594000000E+02  0.51100000000E-03 0. -1.
         11   -1    0    0    0    0 -0.00000000000E+00 -0.00000000000E+00 -0.45593999997E+02  0.45594000000E+02  0.51100000000E-03 0.  1.
    9900012    2    1    2    0    0  0.14794116089E+02  0.31288683186E+02 -0.21338178354E+02  0.50528862997E+02  0.30000009565E+02 0.  0.
         12    1    1    2    0    0 -0.14794116089E+02 -0.31288683186E+02  0.21338178354E+02  0.40659137003E+02  0.00000000000E+00 0. -1.
         11    1    3    3    0    0  0.14757369194E+02  0.24291692032E+01 -0.85244761181E+01  0.17214746640E+02  0.51100000000E-03 0. -1.
        -11    1    3    3    0    0 -0.43797582500E+01  0.15138421832E+02 -0.34715102227E+01  0.16137084042E+02  0.51100000000E-03 0.  1.
        -12    1    3    3    0    0  0.44165051454E+01  0.13721092151E+02 -0.93421920132E+01  0.17177032314E+02  0.00000000000E+00 0.  1.
</event>
<event>
 7    1  0.6046695E-013  0.5052886E+02  0.7816164E-02  0.1300439E+00
        -11   -1    0    0    0    0  0.00000000000E+00  0.00000000000E+00  0.45593999997E+02  0.45594000000E+02  0.51100000000E-03 0. -1.
         11   -1    0    0    0    0 -0.00000000000E+00 -0.00000000000E+00 -0.45593999997E+02  0.45594000000E+02  0.51100000000E-03 0.  1.
    9900012    2    1    2    0    0 -0.18776742331E+02 -0.26732550800E+02 -0.24206817159E+02  0.50528864227E+02  0.30000013305E+02 0.  0.
         12    1    1    2    0    0  0.18776742331E+02  0.26732550800E+02  0.24206817159E+02  0.40659135773E+02  0.00000000000E+00 0. -1.
         11    1    3    3    0    0 -0.20036330971E+02 -0.17243181681E+02 -0.38188091961E+01  0.26708896967E+02  0.51100000000E-03 0. -1.
        -11    1    3    3    0    0  0.20186860881E+01  0.67207207717E+00 -0.35559836578E+01  0.41438863927E+01  0.51100000000E-03 0.  1.
         12    1    3    3    0    0 -0.75909744854E+00 -0.10161441196E+02 -0.16832024305E+02  0.19676080868E+02  0.00000000000E+00 0. -1.
</event>
<event>
 7    1  0.6046695E-013  0.5052887E+02  0.7816164E-02  0.1300439E+00
        -11   -1    0    0    0    0  0.00000000000E+00  0.00000000000E+00  0.45593999997E+02  0.45594000000E+02  0.51100000000E-03 0.  1.
         11   -1    0    0    0    0 -0.00000000000E+00 -0.00000000000E+00 -0.45593999997E+02  0.45594000000E+02  0.51100000000E-03 0. -1.
    9900012    2    1    2    0    0 -0.58432680154E+01 -0.18175617280E+02  0.35898024333E+02  0.50528868238E+02  0.30000025497E+02 0.  0.
         12    1    1    2    0    0  0.58432680154E+01  0.18175617280E+02 -0.35898024333E+02  0.40659131762E+02  0.00000000000E+00 0. -1.
         11    1    3    3    0    0  0.33610318322E+01 -0.22909472803E+01 -0.42853771266E+01  0.59084204147E+01  0.51100000000E-03 0. -1.
        -11    1    3    3    0    0 -0.49824011845E+01 -0.57474529260E+01  0.10458795469E+02  0.12932282847E+02  0.51100000000E-03 0.  1.
         12    1    3    3    0    0 -0.42218986631E+01 -0.10137217074E+02  0.29724605990E+02  0.31688164977E+02  0.00000000000E+00 0. -1.
</event>
<event>
 7    1  0.6046695E-013  0.5052886E+02  0.7816164E-02  0.1300439E+00
        -11   -1    0    0    0    0  0.00000000000E+00  0.00000000000E+00  0.45593999997E+02  0.45594000000E+02  0.51100000000E-03 0. -1.
         11   -1    0    0    0    0 -0.00000000000E+00 -0.00000000000E+00 -0.45593999997E+02  0.45594000000E+02  0.51100000000E-03 0.  1.
    9900012    2    1    2    0    0  0.15946142306E+02  0.17069622369E+02 -0.33279332871E+02  0.50528862545E+02  0.30000008191E+02 0.  0.
         12    1    1    2    0    0 -0.15946142306E+02 -0.17069622369E+02  0.33279332871E+02  0.40659137455E+02  0.00000000000E+00 0. -1.
         11    1    3    3    0    0  0.20833513554E+02  0.63709342260E+01 -0.17394336389E+02  0.27878074335E+02  0.51100000000E-03 0. -1.
        -11    1    3    3    0    0 -0.21583493884E+01 -0.18215874993E+01 -0.53985329124E+01  0.60926850376E+01  0.51100000000E-03 0.  1.
         12    1    3    3    0    0 -0.27290218605E+01  0.12520275642E+02 -0.10486463570E+02  0.16558103172E+02  0.00000000000E+00 0. -1.
</event>
<event>
 7    1  0.6046695E-013  0.5052887E+02  0.7816164E-02  0.1300439E+00
        -11   -1    0    0    0    0  0.00000000000E+00  0.00000000000E+00  0.45593999997E+02  0.45594000000E+02  0.51100000000E-03 0. -1.
         11   -1    0    0    0    0 -0.00000000000E+00 -0.00000000000E+00 -0.45593999997E+02  0.45594000000E+02  0.51100000000E-03 0.  1.
    9900012    2    1    2    0    0  0.10767235411E+02  0.19475477448E+02 -0.34028482384E+02  0.50528865803E+02  0.30000018095E+02 0.  0.
         12    1    1    2    0    0 -0.10767235411E+02 -0.19475477448E+02  0.34028482384E+02  0.40659134197E+02  0.00000000000E+00 0. -1.
         11    1    3    3    0    0  0.95958053620E+01 -0.11210216159E+01 -0.27074673076E+02  0.28746723160E+02  0.51100000000E-03 0. -1.
        -11    1    3    3    0    0  0.86743969012E+00  0.91063679742E+01 -0.31642290962E+01  0.96793974674E+01  0.51100000000E-03 0.  1.
         12    1    3    3    0    0  0.30399035931E+00  0.11490131090E+02 -0.37895802126E+01  0.12102745176E+02  0.00000000000E+00 0. -1.
</event>
<event>
 7    1  0.6046695E-013  0.5052884E+02  0.7816164E-02  0.1300439E+00
        -11   -1    0    0    0    0  0.00000000000E+00  0.00000000000E+00  0.45593999997E+02  0.45594000000E+02  0.51100000000E-03 0.  1.
         11   -1    0    0    0    0 -0.00000000000E+00 -0.00000000000E+00 -0.45593999997E+02  0.45594000000E+02  0.51100000000E-03 0. -1.
    9900012    2    1    2    0    0 -0.16995934475E+01  0.18584538588E+02  0.36123312798E+02  0.50528838426E+02  0.29999934878E+02 0.  0.
         12    1    1    2    0    0  0.16995934475E+01 -0.18584538588E+02 -0.36123312798E+02  0.40659161574E+02  0.00000000000E+00 0. -1.
         11    1    3    3    0    0  0.31841928586E+01  0.46118506784E+01  0.51998315590E+01  0.76450310231E+01  0.51100000000E-03 0. -1.
        -11    1    3    3    0    0 -0.15832683547E+01 -0.32682109880E+00  0.27841262609E+02  0.27888159757E+02  0.51100000000E-03 0.  1.
        -12    1    3    3    0    0 -0.33005179514E+01  0.14299509008E+02  0.30822186306E+01  0.14995647646E+02  0.00000000000E+00 0.  1.
</event>
<event>
 7    1  0.6046695E-013  0.5052885E+02  0.7816164E-02  0.1300439E+00
        -11   -1    0    0    0    0  0.00000000000E+00  0.00000000000E+00  0.45593999997E+02  0.45594000000E+02  0.51100000000E-03 0.  1.
         11   -1    0    0    0    0 -0.00000000000E+00 -0.00000000000E+00 -0.45593999997E+02  0.45594000000E+02  0.51100000000E-03 0. -1.
    9900012    2    1    2    0    0  0.62904960586E+01 -0.18762637762E+01  0.40125749911E+02  0.50528849587E+02  0.29999968803E+02 0.  0.
         12    1    1    2    0    0 -0.62904960586E+01  0.18762637762E+01 -0.40125749911E+02  0.40659150413E+02  0.00000000000E+00 0. -1.
         11    1    3    3    0    0  0.20003793394E+01 -0.49570882119E+01  0.35139240309E+02  0.35543500823E+02  0.51100000000E-03 0. -1.
        -11    1    3    3    0    0 -0.25387553952E+01 -0.37020328247E+01  0.12414119374E+01  0.46574059144E+01  0.51100000000E-03 0.  1.
         12    1    3    3    0    0  0.68288721144E+01  0.67828572604E+01  0.37450976648E+01  0.10327942849E+02  0.00000000000E+00 0. -1.
</event>
<event>
 7    1  0.6046695E-013  0.5052883E+02  0.7816164E-02  0.1300439E+00
        -11   -1    0    0    0    0  0.00000000000E+00  0.00000000000E+00  0.45593999997E+02  0.45594000000E+02  0.51100000000E-03 0. -1.
         11   -1    0    0    0    0 -0.00000000000E+00 -0.00000000000E+00 -0.45593999997E+02  0.45594000000E+02  0.51100000000E-03 0.  1.
    9900012    2    1    2    0    0  0.38666378719E+02  0.84104195682E+01 -0.93457956282E+01  0.50528832565E+02  0.29999917065E+02 0.  0.
         12    1    1    2    0    0 -0.38666378719E+02 -0.84104195682E+01  0.93457956282E+01  0.40659167435E+02  0.00000000000E+00 0. -1.
         11    1    3    3    0    0  0.92500352937E+01 -0.48960177692E+01  0.22595245690E+01  0.10706988114E+02  0.51100000000E-03 0. -1.
        -11    1    3    3    0    0  0.31401047644E+02  0.87869419581E+01 -0.76402474159E+01  0.33490439277E+02  0.51100000000E-03 0.  1.
         12    1    3    3    0    0 -0.19847042188E+01  0.45194953793E+01 -0.39650727813E+01  0.63314051742E+01  0.00000000000E+00 0. -1.
</event>
<event>
 7    1  0.6046695E-013  0.5052884E+02  0.7816164E-02  0.1300439E+00
        -11   -1    0    0    0    0  0.00000000000E+00  0.00000000000E+00  0.45593999997E+02  0.45594000000E+02  0.51100000000E-03 0.  1.
         11   -1    0    0    0    0 -0.00000000000E+00 -0.00000000000E+00 -0.45593999997E+02  0.45594000000E+02  0.51100000000E-03 0. -1.
    9900012    2    1    2    0    0  0.12324895665E+02 -0.38603799749E+02  0.33182550785E+01  0.50528840823E+02  0.29999942166E+02 0.  0.
         12    1    1    2    0    0 -0.12324895665E+02  0.38603799749E+02 -0.33182550785E+01  0.40659159177E+02  0.00000000000E+00 0. -1.
         11    1    3    3    0    0  0.11296338523E+01 -0.12417379259E+02 -0.12098969011E+02  0.17373900877E+02  0.51100000000E-03 0. -1.
        -11    1    3    3    0    0  0.77431937692E+01 -0.19672890745E+02  0.77470193043E+01  0.22516571417E+02  0.51100000000E-03 0.  1.
         12    1    3    3    0    0  0.34520680434E+01 -0.65135297446E+01  0.76702047852E+01  0.10638368529E+02  0.00000000000E+00 0. -1.
</event>
<event>
 7    1  0.6046695E-013  0.5052886E+02  0.7816164E-02  0.1300439E+00
        -11   -1    0    0    0    0  0.00000000000E+00  0.00000000000E+00  0.45593999997E+02  0.45594000000E+02  0.51100000000E-03 0. -1.
         11   -1    0    0    0    0 -0.00000000000E+00 -0.00000000000E+00 -0.45593999997E+02  0.45594000000E+02  0.51100000000E-03 0.  1.
    9900012    2    1    2    0    0 -0.89666712595E+01 -0.12551198060E+02 -0.37619569369E+02  0.50528858768E+02  0.29999996712E+02 0.  0.
         12    1    1    2    0    0  0.89666712595E+01  0.12551198060E+02  0.37619569369E+02  0.40659141232E+02  0.00000000000E+00 0. -1.
         11    1    3    3    0    0  0.30604482687E+01 -0.14505563975E+02 -0.96646008800E+01  0.17696955678E+02  0.51100000000E-03 0. -1.
        -11    1    3    3    0    0 -0.21611976869E+01  0.60955980866E+01 -0.11770922448E+02  0.13430625712E+02  0.51100000000E-03 0.  1.
         12    1    3    3    0    0 -0.98659218413E+01 -0.41412321719E+01 -0.16184046041E+02  0.19401277379E+02  0.00000000000E+00 0. -1.
</event>
<event>
 7    1  0.6046695E-013  0.5052886E+02  0.7816164E-02  0.1300439E+00
        -11   -1    0    0    0    0  0.00000000000E+00  0.00000000000E+00  0.45593999997E+02  0.45594000000E+02  0.51100000000E-03 0.  1.
         11   -1    0    0    0    0 -0.00000000000E+00 -0.00000000000E+00 -0.45593999997E+02  0.45594000000E+02  0.51100000000E-03 0. -1.
    9900012    2    1    2    0    0  0.20296526785E+02  0.35107711377E+02 -0.29436442711E+01  0.50528862783E+02  0.30000008914E+02 0.  0.
         12    1    1    2    0    0 -0.20296526785E+02 -0.35107711377E+02  0.29436442711E+01  0.40659137217E+02  0.00000000000E+00 0. -1.
         11    1    3    3    0    0  0.10981829498E+01  0.96645308573E+01 -0.38312647505E+01  0.10454078263E+02  0.51100000000E-03 0. -1.
        -11    1    3    3    0    0  0.20115361935E+02  0.11731769429E+02  0.79730366875E+01  0.24613644874E+02  0.51100000000E-03 0.  1.
        -12    1    3    3    0    0 -0.91701809993E+00  0.13711411091E+02 -0.70854162081E+01  0.15461139646E+02  0.00000000000E+00 0.  1.
</event>
<event>
 7    1  0.6143418E-013  0.5052886E+02  0.7816164E-02  0.1300439E+00
        -11   -1    0    0    0    0  0.00000000000E+00  0.00000000000E+00  0.45593999997E+02  0.45594000000E+02  0.51100000000E-03 0. -1.
         11   -1    0    0    0    0 -0.00000000000E+00 -0.00000000000E+00 -0.45593999997E+02  0.45594000000E+02  0.51100000000E-03 0.  1.
    9900012    2    1    2    0    0 -0.21054322850E+02 -0.76502264042E+01 -0.33931626166E+02  0.50528859220E+02  0.29999998086E+02 0.  0.
         12    1    1    2    0    0  0.21054322850E+02  0.76502264042E+01  0.33931626166E+02  0.40659140780E+02  0.00000000000E+00 0. -1.
         11    1    3    3    0    0  0.31294071143E+01  0.17778919648E+01  0.25744710694E+01  0.44251542655E+01  0.51100000000E-03 0. -1.
        -11    1    3    3    0    0 -0.15834590204E+02 -0.12065213143E+01 -0.16375348093E+02  0.22811005372E+02  0.51100000000E-03 0.  1.
         12    1    3    3    0    0 -0.83491397602E+01 -0.82215970548E+01 -0.20130749142E+02  0.23292699583E+02  0.00000000000E+00 0. -1.
</event>
<event>
 7    1  0.6046695E-013  0.5052885E+02  0.7816164E-02  0.1300439E+00
        -11   -1    0    0    0    0  0.00000000000E+00  0.00000000000E+00  0.45593999997E+02  0.45594000000E+02  0.51100000000E-03 0. -1.
         11   -1    0    0    0    0 -0.00000000000E+00 -0.00000000000E+00 -0.45593999997E+02  0.45594000000E+02  0.51100000000E-03 0.  1.
    9900012    2    1    2    0    0 -0.39652790417E+02 -0.65464349599E+00 -0.89662733531E+01  0.50528850921E+02  0.29999972859E+02 0.  0.
         12    1    1    2    0    0  0.39652790417E+02  0.65464349599E+00  0.89662733531E+01  0.40659149079E+02  0.00000000000E+00 0. -1.
         11    1    3    3    0    0 -0.10233650635E+02  0.98734952527E+01 -0.20491971156E+01  0.14367070784E+02  0.51100000000E-03 0. -1.
        -11    1    3    3    0    0 -0.61897941044E+01 -0.92998428679E+01  0.18094138504E+01  0.11317005221E+02  0.51100000000E-03 0.  1.
        -12    1    3    3    0    0 -0.23229345678E+02 -0.12282958807E+01 -0.87264900879E+01  0.24844774916E+02  0.00000000000E+00 0.  1.
</event>
<event>
 7    1  0.6046695E-013  0.5052886E+02  0.7816164E-02  0.1300439E+00
        -11   -1    0    0    0    0  0.00000000000E+00  0.00000000000E+00  0.45593999997E+02  0.45594000000E+02  0.51100000000E-03 0.  1.
         11   -1    0    0    0    0 -0.00000000000E+00 -0.00000000000E+00 -0.45593999997E+02  0.45594000000E+02  0.51100000000E-03 0. -1.
    9900012    2    1    2    0    0 -0.14707933761E+02 -0.17499160765E+02  0.33624714918E+02  0.50528863311E+02  0.30000010519E+02 0.  0.
         12    1    1    2    0    0  0.14707933761E+02  0.17499160765E+02 -0.33624714918E+02  0.40659136689E+02  0.00000000000E+00 0. -1.
         11    1    3    3    0    0 -0.16133598653E+02 -0.70888969366E+00  0.78848286354E+01  0.17971256299E+02  0.51100000000E-03 0. -1.
        -11    1    3    3    0    0 -0.18566507916E+01 -0.46487257908E+01  0.15656492063E+02  0.16437260953E+02  0.51100000000E-03 0.  1.
         12    1    3    3    0    0  0.32823156844E+01 -0.12141545281E+02  0.10083394219E+02  0.16120346058E+02  0.00000000000E+00 0. -1.
</event>
<event>
 7    1  0.6046695E-013  0.5052885E+02  0.7816164E-02  0.1300439E+00
        -11   -1    0    0    0    0  0.00000000000E+00  0.00000000000E+00  0.45593999997E+02  0.45594000000E+02  0.51100000000E-03 0. -1.
         11   -1    0    0    0    0 -0.00000000000E+00 -0.00000000000E+00 -0.45593999997E+02  0.45594000000E+02  0.51100000000E-03 0.  1.
    9900012    2    1    2    0    0 -0.28313513593E+02 -0.15536150924E+02 -0.24700998566E+02  0.50528851366E+02  0.29999974212E+02 0.  0.
         12    1    1    2    0    0  0.28313513593E+02  0.15536150924E+02  0.24700998566E+02  0.40659148634E+02  0.00000000000E+00 0. -1.
         11    1    3    3    0    0 -0.53223750629E+01  0.39649780463E+01 -0.18467312212E+02  0.19623719011E+02  0.51100000000E-03 0.  1.
        -11    1    3    3    0    0 -0.13740993445E+02 -0.12053041376E+02 -0.24538216452E+01  0.18442124286E+02  0.51100000000E-03 0. -1.
        -12    1    3    3    0    0 -0.92501450844E+01 -0.74480875946E+01 -0.37798647083E+01  0.12463008068E+02  0.00000000000E+00 0.  1.
</event>
<event>
 7    1  0.6046695E-013  0.5052886E+02  0.7816164E-02  0.1300439E+00
        -11   -1    0    0    0    0  0.00000000000E+00  0.00000000000E+00  0.45593999997E+02  0.45594000000E+02  0.51100000000E-03 0.  1.
         11   -1    0    0    0    0 -0.00000000000E+00 -0.00000000000E+00 -0.45593999997E+02  0.45594000000E+02  0.51100000000E-03 0. -1.
    9900012    2    1    2    0    0 -0.63227784979E+01  0.16049361954E+02  0.36818555727E+02  0.50528860893E+02  0.30000003170E+02 0.  0.
         12    1    1    2    0    0  0.63227784979E+01 -0.16049361954E+02 -0.36818555727E+02  0.40659139107E+02  0.00000000000E+00 0. -1.
         11    1    3    3    0    0  0.59562200427E+01  0.16538936331E+01  0.25490190966E+02  0.26229025088E+02  0.51100000000E-03 0.  1.
        -11    1    3    3    0    0 -0.86409604368E+01  0.12039038634E+02  0.33089996044E+01  0.15184008928E+02  0.51100000000E-03 0. -1.
         12    1    3    3    0    0 -0.36380381037E+01  0.23564296872E+01  0.80193651572E+01  0.91158268763E+01  0.00000000000E+00 0. -1.
</event>
<event>
 7    1  0.6046695E-013  0.5052886E+02  0.7816164E-02  0.1300439E+00
        -11   -1    0    0    0    0  0.00000000000E+00  0.00000000000E+00  0.45593999997E+02  0.45594000000E+02  0.51100000000E-03 0.  1.
         11   -1    0    0    0    0 -0.00000000000E+00 -0.00000000000E+00 -0.45593999997E+02  0.45594000000E+02  0.51100000000E-03 0. -1.
    9900012    2    1    2    0    0  0.22897017668E+02  0.32685800244E+02 -0.77801458613E+01  0.50528860495E+02  0.30000001960E+02 0.  0.
         12    1    1    2    0    0 -0.22897017668E+02 -0.32685800244E+02  0.77801458613E+01  0.40659139505E+02  0.00000000000E+00 0. -1.
         11    1    3    3    0    0 -0.35521580722E+01  0.52440472701E+01 -0.15494477227E+01  0.65206324269E+01  0.51100000000E-03 0. -1.
        -11    1    3    3    0    0 -0.12058065696E+01  0.95241903877E+01  0.24976438151E+01  0.99197982294E+01  0.51100000000E-03 0.  1.
        -12    1    3    3    0    0  0.27654982310E+02  0.17917562586E+02 -0.87283419537E+01  0.34088429838E+02  0.00000000000E+00 0.  1.
</event>
<event>
 7    1  0.6046695E-013  0.5052885E+02  0.7816164E-02  0.1300439E+00
        -11   -1    0    0    0    0  0.00000000000E+00  0.00000000000E+00  0.45593999997E+02  0.45594000000E+02  0.51100000000E-03 0.  1.
         11   -1    0    0    0    0 -0.00000000000E+00 -0.00000000000E+00 -0.45593999997E+02  0.45594000000E+02  0.51100000000E-03 0. -1.
    9900012    2    1    2    0    0  0.36950024761E+02  0.20800849323E+01  0.16838498138E+02  0.50528854624E+02  0.29999984116E+02 0.  0.
         12    1    1    2    0    0 -0.36950024761E+02 -0.20800849323E+01 -0.16838498138E+02  0.40659145376E+02  0.00000000000E+00 0. -1.
         11    1    3    3    0    0 -0.19447456426E+00  0.29513528771E+01  0.97004573970E+01  0.10141359777E+02  0.51100000000E-03 0.  1.
        -11    1    3    3    0    0  0.15265498856E+02 -0.79476590023E+00 -0.40502305587E+01  0.15813648409E+02  0.51100000000E-03 0. -1.
        -12    1    3    3    0    0  0.21879000469E+02 -0.76502044538E-01  0.11188271299E+02  0.24573846438E+02  0.00000000000E+00 0.  1.
</event>
<event>
 7    1  0.6046695E-013  0.5052886E+02  0.7816164E-02  0.1300439E+00
        -11   -1    0    0    0    0  0.00000000000E+00  0.00000000000E+00  0.45593999997E+02  0.45594000000E+02  0.51100000000E-03 0.  1.
         11   -1    0    0    0    0 -0.00000000000E+00 -0.00000000000E+00 -0.45593999997E+02  0.45594000000E+02  0.51100000000E-03 0. -1.
    9900012    2    1    2    0    0 -0.29997158404E+02 -0.66260094006E+01  0.26635173938E+02  0.50528855843E+02  0.29999987820E+02 0.  0.
         12    1    1    2    0    0  0.29997158404E+02  0.66260094006E+01 -0.26635173938E+02  0.40659144157E+02  0.00000000000E+00 0. -1.
         11    1    3    3    0    0 -0.95634013203E+01  0.89392412704E+01  0.77063307039E+01  0.15190662016E+02  0.51100000000E-03 0. -1.
        -11    1    3    3    0    0 -0.20890356515E+02 -0.10942061386E+02  0.10717316854E+02  0.25903601748E+02  0.51100000000E-03 0.  1.
        -12    1    3    3    0    0  0.45659943191E+00 -0.46231892845E+01  0.82115263802E+01  0.94345920789E+01  0.00000000000E+00 0.  1.
</event>
<event>
 7    1  0.6046695E-013  0.5052886E+02  0.7816164E-02  0.1300439E+00
        -11   -1    0    0    0    0  0.00000000000E+00  0.00000000000E+00  0.45593999997E+02  0.45594000000E+02  0.51100000000E-03 0. -1.
         11   -1    0    0    0    0 -0.00000000000E+00 -0.00000000000E+00 -0.45593999997E+02  0.45594000000E+02  0.51100000000E-03 0.  1.
    9900012    2    1    2    0    0 -0.23343669838E+02 -0.30987006529E+01 -0.33145688364E+02  0.50528861736E+02  0.30000005732E+02 0.  0.
         12    1    1    2    0    0  0.23343669838E+02  0.30987006529E+01  0.33145688364E+02  0.40659138264E+02  0.00000000000E+00 0. -1.
         11    1    3    3    0    0 -0.13583876352E+02 -0.12483100412E+02 -0.78225724826E+01  0.20038516241E+02  0.51100000000E-03 0. -1.
        -11    1    3    3    0    0  0.22240720877E+00  0.62197036878E+01 -0.12249197629E+02  0.13739615051E+02  0.51100000000E-03 0.  1.
        -12    1    3    3    0    0 -0.99822006945E+01  0.31646960709E+01 -0.13073918252E+02  0.16750730444E+02  0.00000000000E+00 0.  1.
</event>
<event>
 7    1  0.6046695E-013  0.5052886E+02  0.7816164E-02  0.1300439E+00
        -11   -1    0    0    0    0  0.00000000000E+00  0.00000000000E+00  0.45593999997E+02  0.45594000000E+02  0.51100000000E-03 0. -1.
         11   -1    0    0    0    0 -0.00000000000E+00 -0.00000000000E+00 -0.45593999997E+02  0.45594000000E+02  0.51100000000E-03 0.  1.
    9900012    2    1    2    0    0  0.13784860564E+02 -0.31250183758E+02 -0.22058318266E+02  0.50528858710E+02  0.29999996536E+02 0.  0.
         12    1    1    2    0    0 -0.13784860564E+02  0.31250183758E+02  0.22058318266E+02  0.40659141290E+02  0.00000000000E+00 0. -1.
         11    1    3    3    0    0 -0.15195558171E+01 -0.18390591264E+02 -0.27696877028E+01  0.18659958927E+02  0.51100000000E-03 0. -1.
        -11    1    3    3    0    0  0.83397283409E+01 -0.90026991200E+01 -0.20423752348E+02  0.23827071169E+02  0.51100000000E-03 0.  1.
         12    1    3    3    0    0  0.69646880407E+01 -0.38568933735E+01  0.11351217848E+01  0.80418286145E+01  0.00000000000E+00 0. -1.
</event>
<event>
 7    1  0.6046695E-013  0.5052887E+02  0.7816164E-02  0.1300439E+00
        -11   -1    0    0    0    0  0.00000000000E+00  0.00000000000E+00  0.45593999997E+02  0.45594000000E+02  0.51100000000E-03 0. -1.
         11   -1    0    0    0    0 -0.00000000000E+00 -0.00000000000E+00 -0.45593999997E+02  0.45594000000E+02  0.51100000000E-03 0.  1.
    9900012    2    1    2    0    0 -0.40049336789E+02  0.55246517698E+01  0.43236586183E+01  0.50528865992E+02  0.30000018670E+02 0.  0.
         12    1    1    2    0    0  0.40049336789E+02 -0.55246517698E+01 -0.43236586183E+01  0.40659134008E+02  0.00000000000E+00 0. -1.
         11    1    3    3    0    0 -0.15254603892E+01  0.83281920285E+01 -0.28306804137E+01  0.89274052069E+01  0.51100000000E-03 0. -1.
        -11    1    3    3    0    0 -0.30810738154E+02  0.10646281141E+01  0.10166348578E+02  0.32462126582E+02  0.51100000000E-03 0.  1.
        -12    1    3    3    0    0 -0.77131382463E+01 -0.38681683728E+01 -0.30120095458E+01  0.91393342028E+01  0.00000000000E+00 0.  1.
</event>
<event>
 7    1  0.6046695E-013  0.5052886E+02  0.7816164E-02  0.1300439E+00
        -11   -1    0    0    0    0  0.00000000000E+00  0.00000000000E+00  0.45593999997E+02  0.45594000000E+02  0.51100000000E-03 0.  1.
         11   -1    0    0    0    0 -0.00000000000E+00 -0.00000000000E+00 -0.45593999997E+02  0.45594000000E+02  0.51100000000E-03 0. -1.
    9900012    2    1    2    0    0  0.21492611249E+02 -0.33143401272E+02  0.96305812406E+01  0.50528862266E+02  0.30000007345E+02 0.  0.
         12    1    1    2    0    0 -0.21492611249E+02  0.33143401272E+02 -0.96305812406E+01  0.40659137734E+02  0.00000000000E+00 0. -1.
         11    1    3    3    0    0  0.21814409083E+01 -0.11634106425E+02  0.29756548656E+01  0.12205148049E+02  0.51100000000E-03 0.  1.
        -11    1    3    3    0    0 -0.47258770877E+00  0.18553373518E+01 -0.51629907687E+01  0.55065497156E+01  0.51100000000E-03 0. -1.
        -12    1    3    3    0    0  0.19783758050E+02 -0.23364632199E+02  0.11817917144E+02  0.32817164502E+02  0.00000000000E+00 0.  1.
</event>
<event>
 7    1  0.6046695E-013  0.5052888E+02  0.7816164E-02  0.1300439E+00
        -11   -1    0    0    0    0  0.00000000000E+00  0.00000000000E+00  0.45593999997E+02  0.45594000000E+02  0.51100000000E-03 0. -1.
         11   -1    0    0    0    0 -0.00000000000E+00 -0.00000000000E+00 -0.45593999997E+02  0.45594000000E+02  0.51100000000E-03 0.  1.
    9900012    2    1    2    0    0  0.18360095130E+02  0.35276330182E+02 -0.84647249279E+01  0.50528878853E+02  0.30000057762E+02 0.  0.
         12    1    1    2    0    0 -0.18360095130E+02 -0.35276330182E+02  0.84647249279E+01  0.40659121147E+02  0.00000000000E+00 0. -1.
         11    1    3    3    0    0 -0.73521978605E+01  0.56586402528E+01 -0.26160409176E+01  0.96394342797E+01  0.51100000000E-03 0. -1.
        -11    1    3    3    0    0  0.14276817586E+02  0.10566592119E+02 -0.57507789723E+01  0.18669543338E+02  0.51100000000E-03 0.  1.
        -12    1    3    3    0    0  0.11435475404E+02  0.19051097811E+02 -0.97905037907E-01  0.22219901236E+02  0.00000000000E+00 0.  1.
</event>
<event>
 7    1  0.6046695E-013  0.5052886E+02  0.7816164E-02  0.1300439E+00
        -11   -1    0    0    0    0  0.00000000000E+00  0.00000000000E+00  0.45593999997E+02  0.45594000000E+02  0.51100000000E-03 0.  1.
         11   -1    0    0    0    0 -0.00000000000E+00 -0.00000000000E+00 -0.45593999997E+02  0.45594000000E+02  0.51100000000E-03 0. -1.
    9900012    2    1    2    0    0 -0.16982887385E+02  0.17286176638E+02  0.32648667508E+02  0.50528857648E+02  0.29999993308E+02 0.  0.
         12    1    1    2    0    0  0.16982887385E+02 -0.17286176638E+02 -0.32648667508E+02  0.40659142352E+02  0.00000000000E+00 0. -1.
         11    1    3    3    0    0  0.28730671962E+01 -0.16104303581E+01 -0.58429205549E+00  0.33450558320E+01  0.51100000000E-03 0. -1.
        -11    1    3    3    0    0 -0.14604852578E+02  0.17677940411E+01  0.20377826759E+02  0.25133297402E+02  0.51100000000E-03 0.  1.
        -12    1    3    3    0    0 -0.52511020037E+01  0.17128812955E+02  0.12855132804E+02  0.22050504414E+02  0.00000000000E+00 0.  1.
</event>
<event>
 7    1  0.6208976E-013  0.5052884E+02  0.7816164E-02  0.1300439E+00
        -11   -1    0    0    0    0  0.00000000000E+00  0.00000000000E+00  0.45593999997E+02  0.45594000000E+02  0.51100000000E-03 0.  1.
         11   -1    0    0    0    0 -0.00000000000E+00 -0.00000000000E+00 -0.45593999997E+02  0.45594000000E+02  0.51100000000E-03 0. -1.
    9900012    2    1    2    0    0  0.35840953441E+02  0.11787729738E+02  0.15153958846E+02  0.50528843778E+02  0.29999951149E+02 0.  0.
         12    1    1    2    0    0 -0.35840953441E+02 -0.11787729738E+02 -0.15153958846E+02  0.40659156222E+02  0.00000000000E+00 0. -1.
         11    1    3    3    0    0 -0.33217431697E+01 -0.14431832090E+01  0.31242623187E+01  0.47830712683E+01  0.51100000000E-03 0. -1.
        -11    1    3    3    0    0  0.25357793037E+02  0.15781276693E+02  0.10336465129E+02  0.31605519666E+02  0.51100000000E-03 0.  1.
         12    1    3    3    0    0  0.13804903574E+02 -0.25503637460E+01  0.16932313989E+01  0.14140252844E+02  0.00000000000E+00 0. -1.
</event>
<event>
 7    1  0.6046695E-013  0.5052886E+02  0.7816164E-02  0.1300439E+00
        -11   -1    0    0    0    0  0.00000000000E+00  0.00000000000E+00  0.45593999997E+02  0.45594000000E+02  0.51100000000E-03 0. -1.
         11   -1    0    0    0    0 -0.00000000000E+00 -0.00000000000E+00 -0.45593999997E+02  0.45594000000E+02  0.51100000000E-03 0.  1.
    9900012    2    1    2    0    0  0.29851631450E+02  0.15173456328E+02 -0.23061044726E+02  0.50528862514E+02  0.30000008099E+02 0.  0.
         12    1    1    2    0    0 -0.29851631450E+02 -0.15173456328E+02  0.23061044726E+02  0.40659137486E+02  0.00000000000E+00 0. -1.
         11    1    3    3    0    0  0.95298438618E+01  0.16333565185E+02 -0.42134540467E+00  0.18915094710E+02  0.51100000000E-03 0. -1.
        -11    1    3    3    0    0  0.12333593308E+02  0.34411127094E+01 -0.14117858800E+02  0.19059714529E+02  0.51100000000E-03 0.  1.
         12    1    3    3    0    0  0.79881942801E+01 -0.46012215661E+01 -0.85218405218E+01  0.12554053275E+02  0.00000000000E+00 0. -1.
</event>
<event>
 7    1  0.6046695E-013  0.5052886E+02  0.7816164E-02  0.1300439E+00
        -11   -1    0    0    0    0  0.00000000000E+00  0.00000000000E+00  0.45593999997E+02  0.45594000000E+02  0.51100000000E-03 0.  1.
         11   -1    0    0    0    0 -0.00000000000E+00 -0.00000000000E+00 -0.45593999997E+02  0.45594000000E+02  0.51100000000E-03 0. -1.
    9900012    2    1    2    0    0 -0.34717452901E+02 -0.10159777786E+01  0.21138406832E+02  0.50528856008E+02  0.29999988321E+02 0.  0.
         12    1    1    2    0    0  0.34717452901E+02  0.10159777786E+01 -0.21138406832E+02  0.40659143992E+02  0.00000000000E+00 0. -1.
         11    1    3    3    0    0 -0.34675102025E+02 -0.22592922520E+01  0.59397093011E+01  0.35252620453E+02  0.51100000000E-03 0. -1.
        -11    1    3    3    0    0 -0.44376529562E+00  0.87715125159E+00  0.10625559273E+02  0.10670933984E+02  0.51100000000E-03 0.  1.
         12    1    3    3    0    0  0.40141441984E+00  0.36616322172E+00  0.45731382573E+01  0.46053015713E+01  0.00000000000E+00 0. -1.
</event>
<event>
 7    1  0.6046695E-013  0.5052886E+02  0.7816164E-02  0.1300439E+00
        -11   -1    0    0    0    0  0.00000000000E+00  0.00000000000E+00  0.45593999997E+02  0.45594000000E+02  0.51100000000E-03 0. -1.
         11   -1    0    0    0    0 -0.00000000000E+00 -0.00000000000E+00 -0.45593999997E+02  0.45594000000E+02  0.51100000000E-03 0.  1.
    9900012    2    1    2    0    0 -0.28560354205E+02 -0.61244593673E-01 -0.28939039672E+02  0.50528860802E+02  0.30000002892E+02 0.  0.
         12    1    1    2    0    0  0.28560354205E+02  0.61244593673E-01  0.28939039672E+02  0.40659139198E+02  0.00000000000E+00 0. -1.
         11    1    3    3    0    0 -0.17844867888E+02  0.68655842844E+01 -0.29794053723E+01  0.19350772960E+02  0.51100000000E-03 0. -1.
        -11    1    3    3    0    0 -0.23370020886E+01 -0.87117934701E+00 -0.17891642374E+02  0.18064645009E+02  0.51100000000E-03 0.  1.
        -12    1    3    3    0    0 -0.83784842287E+01 -0.60556495310E+01 -0.80679919259E+01  0.13113442833E+02  0.00000000000E+00 0.  1.
</event>
<event>
 7    1  0.6046695E-013  0.5052886E+02  0.7816164E-02  0.1300439E+00
        -11   -1    0    0    0    0  0.00000000000E+00  0.00000000000E+00  0.45593999997E+02  0.45594000000E+02  0.51100000000E-03 0.  1.
         11   -1    0    0    0    0 -0.00000000000E+00 -0.00000000000E+00 -0.45593999997E+02  0.45594000000E+02  0.51100000000E-03 0. -1.
    9900012    2    1    2    0    0 -0.28695262790E+02  0.28733760070E+02 -0.20293483125E+01  0.50528864140E+02  0.30000013039E+02 0.  0.
         12    1    1    2    0    0  0.28695262790E+02 -0.28733760070E+02  0.20293483125E+01  0.40659135860E+02  0.00000000000E+00 0. -1.
         11    1    3    3    0    0 -0.11295632126E+02 -0.39330415480E+01 -0.31125436353E+01  0.12359128168E+02  0.51100000000E-03 0. -1.
        -11    1    3    3    0    0 -0.86462866726E+01  0.18436017253E+02  0.50884510445E+01  0.20988981387E+02  0.51100000000E-03 0.  1.
        -12    1    3    3    0    0 -0.87533439914E+01  0.14230784365E+02 -0.40052557218E+01  0.17180754584E+02  0.00000000000E+00 0.  1.
</event>
<event>
 7    1  0.6046695E-013  0.5052886E+02  0.7816164E-02  0.1300439E+00
        -11   -1    0    0    0    0  0.00000000000E+00  0.00000000000E+00  0.45593999997E+02  0.45594000000E+02  0.51100000000E-03 0.  1.
         11   -1    0    0    0    0 -0.00000000000E+00 -0.00000000000E+00 -0.45593999997E+02  0.45594000000E+02  0.51100000000E-03 0. -1.
    9900012    2    1    2    0    0 -0.23008646757E+02 -0.85895647497E+01  0.32403501219E+02  0.50528864010E+02  0.30000012645E+02 0.  0.
         12    1    1    2    0    0  0.23008646757E+02  0.85895647497E+01 -0.32403501219E+02  0.40659135990E+02  0.00000000000E+00 0. -1.
         11    1    3    3    0    0 -0.14337844720E+02 -0.16606483768E+02  0.19122574489E+02  0.29103641519E+02  0.51100000000E-03 0. -1.
        -11    1    3    3    0    0 -0.11113575449E+02  0.76637431311E+01  0.82490147058E+01  0.15820580328E+02  0.51100000000E-03 0.  1.
         12    1    3    3    0    0  0.24427734121E+01  0.35317588694E+00  0.50319120242E+01  0.56046421625E+01  0.00000000000E+00 0. -1.
</event>
<event>
 7    1  0.6046695E-013  0.5052887E+02  0.7816164E-02  0.1300439E+00
        -11   -1    0    0    0    0  0.00000000000E+00  0.00000000000E+00  0.45593999997E+02  0.45594000000E+02  0.51100000000E-03 0.  1.
         11   -1    0    0    0    0 -0.00000000000E+00 -0.00000000000E+00 -0.45593999997E+02  0.45594000000E+02  0.51100000000E-03 0. -1.
    9900012    2    1    2    0    0  0.27081449357E+01 -0.37501079650E+02  0.15475795080E+02  0.50528865020E+02  0.30000015715E+02 0.  0.
         12    1    1    2    0    0 -0.27081449357E+01  0.37501079650E+02 -0.15475795080E+02  0.40659134980E+02  0.00000000000E+00 0. -1.
         11    1    3    3    0    0  0.87483047825E+01 -0.86419281085E+01 -0.46371734260E+01  0.13142265240E+02  0.51100000000E-03 0. -1.
        -11    1    3    3    0    0 -0.29014842795E+01 -0.68430688476E+01  0.11170329234E+02  0.13417244789E+02  0.51100000000E-03 0.  1.
        -12    1    3    3    0    0 -0.31386755673E+01 -0.22016082694E+02  0.89426392722E+01  0.23969354991E+02  0.00000000000E+00 0.  1.
</event>
<event>
 7    1  0.6046695E-013  0.5052886E+02  0.7816164E-02  0.1300439E+00
        -11   -1    0    0    0    0  0.00000000000E+00  0.00000000000E+00  0.45593999997E+02  0.45594000000E+02  0.51100000000E-03 0.  1.
         11   -1    0    0    0    0 -0.00000000000E+00 -0.00000000000E+00 -0.45593999997E+02  0.45594000000E+02  0.51100000000E-03 0. -1.
    9900012    2    1    2    0    0  0.17541118517E+01 -0.35362459201E+02  0.19989623725E+02  0.50528862211E+02  0.30000007175E+02 0.  0.
         12    1    1    2    0    0 -0.17541118517E+01  0.35362459201E+02 -0.19989623725E+02  0.40659137789E+02  0.00000000000E+00 0. -1.
         11    1    3    3    0    0 -0.14477139827E+01 -0.58529275710E+00  0.63118955605E+01  0.65021895708E+01  0.51100000000E-03 0. -1.
        -11    1    3    3    0    0 -0.28590758969E+01 -0.35402067828E+02  0.99537874923E+01  0.36885750734E+02  0.51100000000E-03 0.  1.
        -12    1    3    3    0    0  0.60609017312E+01  0.62490138466E+00  0.37239406725E+01  0.71409219061E+01  0.00000000000E+00 0.  1.
</event>
<event>
 7    1  0.6046695E-013  0.5052886E+02  0.7816164E-02  0.1300439E+00
        -11   -1    0    0    0    0  0.00000000000E+00  0.00000000000E+00  0.45593999997E+02  0.45594000000E+02  0.51100000000E-03 0.  1.
         11   -1    0    0    0    0 -0.00000000000E+00 -0.00000000000E+00 -0.45593999997E+02  0.45594000000E+02  0.51100000000E-03 0. -1.
    9900012    2    1    2    0    0  0.10713973397E+02 -0.36779140421E+02  0.13626123133E+02  0.50528860466E+02  0.30000001873E+02 0.  0.
         12    1    1    2    0    0 -0.10713973397E+02  0.36779140421E+02 -0.13626123133E+02  0.40659139534E+02  0.00000000000E+00 0. -1.
         11    1    3    3    0    0 -0.81131119933E+01 -0.61662628399E+01  0.19203674044E+00  0.10192264812E+02  0.51100000000E-03 0. -1.
        -11    1    3    3    0    0  0.82421547567E+01 -0.60344751218E+01  0.81295155386E+01  0.13055153319E+02  0.51100000000E-03 0.  1.
         12    1    3    3    0    0  0.10584930633E+02 -0.24578402459E+02  0.53045708535E+01  0.27281442335E+02  0.00000000000E+00 0. -1.
</event>
<event>
 7    1  0.6046695E-013  0.5052883E+02  0.7816164E-02  0.1300439E+00
        -11   -1    0    0    0    0  0.00000000000E+00  0.00000000000E+00  0.45593999997E+02  0.45594000000E+02  0.51100000000E-03 0.  1.
         11   -1    0    0    0    0 -0.00000000000E+00 -0.00000000000E+00 -0.45593999997E+02  0.45594000000E+02  0.51100000000E-03 0. -1.
    9900012    2    1    2    0    0 -0.32525457062E+02  0.79612890407E+01  0.23062528688E+02  0.50528834861E+02  0.29999924045E+02 0.  0.
         12    1    1    2    0    0  0.32525457062E+02 -0.79612890407E+01 -0.23062528688E+02  0.40659165139E+02  0.00000000000E+00 0. -1.
         11    1    3    3    0    0 -0.12064213559E+02  0.67572105538E+01 -0.25472871571E+01  0.14060363273E+02  0.51100000000E-03 0. -1.
        -11    1    3    3    0    0 -0.61095954033E+01 -0.70644885806E+01  0.80599046232E+01  0.12336783118E+02  0.51100000000E-03 0.  1.
         12    1    3    3    0    0 -0.14351648100E+02  0.82685670675E+01  0.17549911221E+02  0.24131688470E+02  0.00000000000E+00 0. -1.
</event>
<event>
 7    1  0.6046695E-013  0.5052885E+02  0.7816164E-02  0.1300439E+00
        -11   -1    0    0    0    0  0.00000000000E+00  0.00000000000E+00  0.45593999997E+02  0.45594000000E+02  0.51100000000E-03 0. -1.
         11   -1    0    0    0    0 -0.00000000000E+00 -0.00000000000E+00 -0.45593999997E+02  0.45594000000E+02  0.51100000000E-03 0.  1.
    9900012    2    1    2    0    0 -0.27420950720E+02 -0.58573697735E+01 -0.29443997246E+02  0.50528852286E+02  0.29999977007E+02 0.  0.
         12    1    1    2    0    0  0.27420950720E+02  0.58573697735E+01  0.29443997246E+02  0.40659147714E+02  0.00000000000E+00 0. -1.
         11    1    3    3    0    0 -0.74810648906E+01 -0.87439457980E+01 -0.82269810699E+01  0.14145887664E+02  0.51100000000E-03 0. -1.
        -11    1    3    3    0    0 -0.15361346697E+02  0.37140847394E+01 -0.25538458175E+02  0.30032952636E+02  0.51100000000E-03 0.  1.
        -12    1    3    3    0    0 -0.45785391327E+01 -0.82750871487E+00  0.43214419996E+01  0.63500119858E+01  0.00000000000E+00 0.  1.
</event>
<event>
 7    1  0.6046695E-013  0.5052885E+02  0.7816164E-02  0.1300439E+00
        -11   -1    0    0    0    0  0.00000000000E+00  0.00000000000E+00  0.45593999997E+02  0.45594000000E+02  0.51100000000E-03 0.  1.
         11   -1    0    0    0    0 -0.00000000000E+00 -0.00000000000E+00 -0.45593999997E+02  0.45594000000E+02  0.51100000000E-03 0. -1.
    9900012    2    1    2    0    0  0.50215162140E+01  0.20219356976E+02  0.34916014677E+02  0.50528854626E+02  0.29999984123E+02 0.  0.
         12    1    1    2    0    0 -0.50215162140E+01 -0.20219356976E+02 -0.34916014677E+02  0.40659145374E+02  0.00000000000E+00 0. -1.
         11    1    3    3    0    0  0.10138868115E+02  0.18933623900E+02  0.26211991200E+02  0.33887272589E+02  0.51100000000E-03 0.  1.
        -11    1    3    3    0    0 -0.42014832794E+01  0.60815933964E+01  0.91420695977E+00  0.74480879837E+01  0.51100000000E-03 0. -1.
         12    1    3    3    0    0 -0.91586862117E+00 -0.47958603203E+01  0.77898165170E+01  0.91934940535E+01  0.00000000000E+00 0. -1.
</event>
<event>
 7    1  0.6046695E-013  0.5052887E+02  0.7816164E-02  0.1300439E+00
        -11   -1    0    0    0    0  0.00000000000E+00  0.00000000000E+00  0.45593999997E+02  0.45594000000E+02  0.51100000000E-03 0.  1.
         11   -1    0    0    0    0 -0.00000000000E+00 -0.00000000000E+00 -0.45593999997E+02  0.45594000000E+02  0.51100000000E-03 0. -1.
    9900012    2    1    2    0    0  0.39706285699E+02  0.87054636545E+01 -0.88931264347E+00  0.50528866974E+02  0.30000021653E+02 0.  0.
         12    1    1    2    0    0 -0.39706285699E+02 -0.87054636545E+01  0.88931264347E+00  0.40659133026E+02  0.00000000000E+00 0. -1.
         11    1    3    3    0    0  0.82736042817E+01  0.10469172411E+02  0.17320171660E+00  0.13344890328E+02  0.51100000000E-03 0.  1.
        -11    1    3    3    0    0  0.19463419523E+02 -0.10481524037E+02 -0.27665151939E+01  0.22278704008E+02  0.51100000000E-03 0. -1.
         12    1    3    3    0    0  0.11969261894E+02  0.87178152805E+01  0.17040008338E+01  0.14905272638E+02  0.00000000000E+00 0. -1.
</event>
<event>
 7    1  0.6046695E-013  0.5052887E+02  0.7816164E-02  0.1300439E+00
        -11   -1    0    0    0    0  0.00000000000E+00  0.00000000000E+00  0.45593999997E+02  0.45594000000E+02  0.51100000000E-03 0. -1.
         11   -1    0    0    0    0 -0.00000000000E+00 -0.00000000000E+00 -0.45593999997E+02  0.45594000000E+02  0.51100000000E-03 0.  1.
    9900012    2    1    2    0    0  0.23015676664E+02  0.24741162856E+02 -0.22612357016E+02  0.50528865705E+02  0.30000017798E+02 0.  0.
         12    1    1    2    0    0 -0.23015676664E+02 -0.24741162856E+02  0.22612357016E+02  0.40659134295E+02  0.00000000000E+00 0. -1.
         11    1    3    3    0    0  0.11187817470E+02  0.44385920965E+01  0.53292618844E+01  0.13163183203E+02  0.51100000000E-03 0. -1.
        -11    1    3    3    0    0  0.92130053521E+01  0.94343438811E+01 -0.11576164008E+02  0.17546905297E+02  0.51100000000E-03 0.  1.
         12    1    3    3    0    0  0.26148538421E+01  0.10868226879E+02 -0.16365454892E+02  0.19818777206E+02  0.00000000000E+00 0. -1.
</event>
<event>
 7    1  0.6046695E-013  0.5052887E+02  0.7816164E-02  0.1300439E+00
        -11   -1    0    0    0    0  0.00000000000E+00  0.00000000000E+00  0.45593999997E+02  0.45594000000E+02  0.51100000000E-03 0. -1.
         11   -1    0    0    0    0 -0.00000000000E+00 -0.00000000000E+00 -0.45593999997E+02  0.45594000000E+02  0.51100000000E-03 0.  1.
    9900012    2    1    2    0    0  0.20507889535E+02 -0.21976796833E+02 -0.27379042353E+02  0.50528867048E+02  0.30000021881E+02 0.  0.
         12    1    1    2    0    0 -0.20507889535E+02  0.21976796833E+02  0.27379042353E+02  0.40659132952E+02  0.00000000000E+00 0. -1.
         11    1    3    3    0    0 -0.19082114014E+01 -0.45436895404E+01 -0.51218697806E+01  0.71077377345E+01  0.51100000000E-03 0.  1.
        -11    1    3    3    0    0  0.64672783442E+01  0.54565142268E+01 -0.13732493806E+01  0.85723422010E+01  0.51100000000E-03 0. -1.
        -12    1    3    3    0    0  0.15948822592E+02 -0.22889621519E+02 -0.20883923192E+02  0.34848787113E+02  0.00000000000E+00 0.  1.
</event>
<event>
 7    1  0.6046695E-013  0.5052886E+02  0.7816164E-02  0.1300439E+00
        -11   -1    0    0    0    0  0.00000000000E+00  0.00000000000E+00  0.45593999997E+02  0.45594000000E+02  0.51100000000E-03 0. -1.
         11   -1    0    0    0    0 -0.00000000000E+00 -0.00000000000E+00 -0.45593999997E+02  0.45594000000E+02  0.51100000000E-03 0.  1.
    9900012    2    1    2    0    0  0.40555824690E+02 -0.24315204863E+01  0.15741827476E+01  0.50528864994E+02  0.30000015635E+02 0.  0.
         12    1    1    2    0    0 -0.40555824690E+02  0.24315204863E+01 -0.15741827476E+01  0.40659135006E+02  0.00000000000E+00 0. -1.
         11    1    3    3    0    0  0.63720493399E+01 -0.81589560509E+01  0.36475788219E+01  0.10976174568E+02  0.51100000000E-03 0. -1.
        -11    1    3    3    0    0  0.27047796837E+02 -0.28128481427E+01 -0.58205673336E+01  0.27809610438E+02  0.51100000000E-03 0.  1.
        -12    1    3    3    0    0  0.71359785131E+01  0.85402837073E+01  0.37471712593E+01  0.11743079987E+02  0.00000000000E+00 0.  1.
</event>
<event>
 7    1  0.6046695E-013  0.5052886E+02  0.7816164E-02  0.1300439E+00
        -11   -1    0    0    0    0  0.00000000000E+00  0.00000000000E+00  0.45593999997E+02  0.45594000000E+02  0.51100000000E-03 0.  1.
         11   -1    0    0    0    0 -0.00000000000E+00 -0.00000000000E+00 -0.45593999997E+02  0.45594000000E+02  0.51100000000E-03 0. -1.
    9900012    2    1    2    0    0 -0.40645490552E+02  0.84262295174E+00  0.63223210817E+00  0.50528860399E+02  0.30000001668E+02 0.  0.
         12    1    1    2    0    0  0.40645490552E+02 -0.84262295174E+00 -0.63223210817E+00  0.40659139601E+02  0.00000000000E+00 0. -1.
         11    1    3    3    0    0 -0.20361147461E+02 -0.44129122037E+00 -0.14054300668E+02  0.24744583880E+02  0.51100000000E-03 0. -1.
        -11    1    3    3    0    0 -0.54694054111E+01 -0.11655005121E+00  0.74341786718E+01  0.92301133390E+01  0.51100000000E-03 0.  1.
         12    1    3    3    0    0 -0.14814937680E+02  0.14004642233E+01  0.72523541046E+01  0.16554163179E+02  0.00000000000E+00 0. -1.
</event>
<event>
 7    1  0.6046695E-013  0.5052884E+02  0.7816164E-02  0.1300439E+00
        -11   -1    0    0    0    0  0.00000000000E+00  0.00000000000E+00  0.45593999997E+02  0.45594000000E+02  0.51100000000E-03 0. -1.
         11   -1    0    0    0    0 -0.00000000000E+00 -0.00000000000E+00 -0.45593999997E+02  0.45594000000E+02  0.51100000000E-03 0.  1.
    9900012    2    1    2    0    0 -0.96027125794E+01  0.37359099494E+02  0.12855062161E+02  0.50528843257E+02  0.29999949564E+02 0.  0.
         12    1    1    2    0    0  0.96027125794E+01 -0.37359099494E+02 -0.12855062161E+02  0.40659156743E+02  0.00000000000E+00 0. -1.
         11    1    3    3    0    0 -0.48967535468E+01  0.65591523812E+01  0.73062558198E+01  0.10971875392E+02  0.51100000000E-03 0. -1.
        -11    1    3    3    0    0  0.93738642008E+01  0.11919634659E+02 -0.73196065819E+00  0.15181659564E+02  0.51100000000E-03 0.  1.
        -12    1    3    3    0    0 -0.14079823233E+02  0.18880312454E+02  0.62807669998E+01  0.24375308301E+02  0.00000000000E+00 0.  1.
</event>
<event>
 7    1  0.6046695E-013  0.5052885E+02  0.7816164E-02  0.1300439E+00
        -11   -1    0    0    0    0  0.00000000000E+00  0.00000000000E+00  0.45593999997E+02  0.45594000000E+02  0.51100000000E-03 0. -1.
         11   -1    0    0    0    0 -0.00000000000E+00 -0.00000000000E+00 -0.45593999997E+02  0.45594000000E+02  0.51100000000E-03 0.  1.
    9900012    2    1    2    0    0 -0.40534966074E+02  0.76954093239E+00  0.30807618219E+01  0.50528846525E+02  0.29999959498E+02 0.  0.
         12    1    1    2    0    0  0.40534966074E+02 -0.76954093239E+00 -0.30807618219E+01  0.40659153475E+02  0.00000000000E+00 0. -1.
         11    1    3    3    0    0 -0.15518946941E+02 -0.84082323020E+01  0.81459760176E+01  0.19439470418E+02  0.51100000000E-03 0.  1.
        -11    1    3    3    0    0 -0.34160766293E+01  0.97542552252E+00 -0.70549710814E+01  0.78989652302E+01  0.51100000000E-03 0. -1.
         12    1    3    3    0    0 -0.21599942504E+02  0.82023477119E+01  0.19897568858E+01  0.23190410877E+02  0.00000000000E+00 0. -1.
</event>
<event>
 7    1  0.6046695E-013  0.5052886E+02  0.7816164E-02  0.1300439E+00
        -11   -1    0    0    0    0  0.00000000000E+00  0.00000000000E+00  0.45593999997E+02  0.45594000000E+02  0.51100000000E-03 0. -1.
         11   -1    0    0    0    0 -0.00000000000E+00 -0.00000000000E+00 -0.45593999997E+02  0.45594000000E+02  0.51100000000E-03 0.  1.
    9900012    2    1    2    0    0  0.59792966881E+01 -0.18716202353E+02 -0.35596591861E+02  0.50528861156E+02  0.30000003970E+02 0.  0.
         12    1    1    2    0    0 -0.59792966881E+01  0.18716202353E+02  0.35596591861E+02  0.40659138844E+02  0.00000000000E+00 0. -1.
         11    1    3    3    0    0  0.40025336857E+01  0.51796292991E+01 -0.19689117739E+01  0.68356016133E+01  0.51100000000E-03 0. -1.
        -11    1    3    3    0    0  0.29883738076E+01 -0.12253961834E+02 -0.28027660339E+02  0.30734991508E+02  0.51100000000E-03 0.  1.
         12    1    3    3    0    0 -0.10116108053E+01 -0.11641869818E+02 -0.56000197484E+01  0.12958268035E+02  0.00000000000E+00 0. -1.
</event>
<event>
 7    1  0.6046695E-013  0.5052886E+02  0.7816164E-02  0.1300439E+00
        -11   -1    0    0    0    0  0.00000000000E+00  0.00000000000E+00  0.45593999997E+02  0.45594000000E+02  0.51100000000E-03 0.  1.
         11   -1    0    0    0    0 -0.00000000000E+00 -0.00000000000E+00 -0.45593999997E+02  0.45594000000E+02  0.51100000000E-03 0. -1.
    9900012    2    1    2    0    0  0.68000213958E+01 -0.31083647787E+02  0.25312690719E+02  0.50528858812E+02  0.29999996844E+02 0.  0.
         12    1    1    2    0    0 -0.68000213958E+01  0.31083647787E+02 -0.25312690719E+02  0.40659141188E+02  0.00000000000E+00 0. -1.
         11    1    3    3    0    0  0.95993193498E+01 -0.80747077743E+01  0.19749355475E+02  0.23396257811E+02  0.51100000000E-03 0. -1.
        -11    1    3    3    0    0 -0.66831171363E+01 -0.21259567195E+02  0.49586606752E+01  0.22830277439E+02  0.51100000000E-03 0.  1.
        -12    1    3    3    0    0  0.38838191822E+01 -0.17493728174E+01  0.60467456829E+00  0.43023235615E+01  0.00000000000E+00 0.  1.
</event>
<event>
 7    1  0.6046695E-013  0.5052886E+02  0.7816164E-02  0.1300439E+00
        -11   -1    0    0    0    0  0.00000000000E+00  0.00000000000E+00  0.45593999997E+02  0.45594000000E+02  0.51100000000E-03 0.  1.
         11   -1    0    0    0    0 -0.00000000000E+00 -0.00000000000E+00 -0.45593999997E+02  0.45594000000E+02  0.51100000000E-03 0. -1.
    9900012    2    1    2    0    0  0.18469416088E+02 -0.16901963066E+02  0.32037013554E+02  0.50528856827E+02  0.29999990811E+02 0.  0.
         12    1    1    2    0    0 -0.18469416088E+02  0.16901963066E+02 -0.32037013554E+02  0.40659143173E+02  0.00000000000E+00 0. -1.
         11    1    3    3    0    0 -0.11371136218E+01 -0.43736069763E+01  0.72924789641E+00  0.45774739898E+01  0.51100000000E-03 0. -1.
        -11    1    3    3    0    0  0.15444738351E+02  0.40122386584E+01  0.19547986329E+02  0.25234139010E+02  0.51100000000E-03 0.  1.
        -12    1    3    3    0    0  0.41617913587E+01 -0.16540594748E+02  0.11759779329E+02  0.20717243827E+02  0.00000000000E+00 0.  1.
</event>
<event>
 7    1  0.6046695E-013  0.5052886E+02  0.7816164E-02  0.1300439E+00
        -11   -1    0    0    0    0  0.00000000000E+00  0.00000000000E+00  0.45593999997E+02  0.45594000000E+02  0.51100000000E-03 0.  1.
         11   -1    0    0    0    0 -0.00000000000E+00 -0.00000000000E+00 -0.45593999997E+02  0.45594000000E+02  0.51100000000E-03 0. -1.
    9900012    2    1    2    0    0 -0.19330633324E+02  0.24226123245E+02  0.26317049786E+02  0.50528861524E+02  0.30000005088E+02 0.  0.
         12    1    1    2    0    0  0.19330633324E+02 -0.24226123245E+02 -0.26317049786E+02  0.40659138476E+02  0.00000000000E+00 0. -1.
         11    1    3    3    0    0 -0.30774876449E+01 -0.30548712081E+01 -0.76823030116E+00  0.44037877287E+01  0.51100000000E-03 0. -1.
        -11    1    3    3    0    0 -0.10436971010E+02  0.20878343235E+02  0.29039016816E+02  0.37257215113E+02  0.51100000000E-03 0.  1.
        -12    1    3    3    0    0 -0.58161746689E+01  0.64026512183E+01 -0.19537367283E+01  0.88678586821E+01  0.00000000000E+00 0.  1.
</event>
<event>
 7    1  0.6046695E-013  0.5052885E+02  0.7816164E-02  0.1300439E+00
        -11   -1    0    0    0    0  0.00000000000E+00  0.00000000000E+00  0.45593999997E+02  0.45594000000E+02  0.51100000000E-03 0.  1.
         11   -1    0    0    0    0 -0.00000000000E+00 -0.00000000000E+00 -0.45593999997E+02  0.45594000000E+02  0.51100000000E-03 0. -1.
    9900012    2    1    2    0    0  0.93156369787E+01 -0.22023745290E+02  0.32883732290E+02  0.50528852219E+02  0.29999976806E+02 0.  0.
         12    1    1    2    0    0 -0.93156369787E+01  0.22023745290E+02 -0.32883732290E+02  0.40659147781E+02  0.00000000000E+00 0. -1.
         11    1    3    3    0    0 -0.15689868506E+01 -0.36894295351E+01 -0.36356392339E+01  0.54121606529E+01  0.51100000000E-03 0. -1.
        -11    1    3    3    0    0  0.11637419747E+02 -0.55901055604E+01  0.12801508240E+02  0.18181238462E+02  0.51100000000E-03 0.  1.
         12    1    3    3    0    0 -0.75279591721E+00 -0.12744210195E+02  0.23717863284E+02  0.26935453104E+02  0.00000000000E+00 0. -1.
</event>
<event>
 7    1  0.6046695E-013  0.5052886E+02  0.7816164E-02  0.1300439E+00
        -11   -1    0    0    0    0  0.00000000000E+00  0.00000000000E+00  0.45593999997E+02  0.45594000000E+02  0.51100000000E-03 0.  1.
         11   -1    0    0    0    0 -0.00000000000E+00 -0.00000000000E+00 -0.45593999997E+02  0.45594000000E+02  0.51100000000E-03 0. -1.
    9900012    2    1    2    0    0  0.28290961056E+02  0.65572734840E+01  0.28456798087E+02  0.50528859941E+02  0.30000000276E+02 0.  0.
         12    1    1    2    0    0 -0.28290961056E+02 -0.65572734840E+01 -0.28456798087E+02  0.40659140059E+02  0.00000000000E+00 0. -1.
         11    1    3    3    0    0 -0.16523904646E+01 -0.14232423678E+01 -0.18813484935E+01  0.28801884487E+01  0.51100000000E-03 0. -1.
        -11    1    3    3    0    0  0.28932368939E+02  0.10890620879E+02  0.31701750978E+02  0.44279663626E+02  0.51100000000E-03 0.  1.
        -12    1    3    3    0    0  0.10109825813E+01 -0.29101050271E+01 -0.13636043973E+01  0.33690078660E+01  0.00000000000E+00 0.  1.
</event>
<event>
 7    1  0.6046695E-013  0.5052886E+02  0.7816164E-02  0.1300439E+00
        -11   -1    0    0    0    0  0.00000000000E+00  0.00000000000E+00  0.45593999997E+02  0.45594000000E+02  0.51100000000E-03 0.  1.
         11   -1    0    0    0    0 -0.00000000000E+00 -0.00000000000E+00 -0.45593999997E+02  0.45594000000E+02  0.51100000000E-03 0. -1.
    9900012    2    1    2    0    0 -0.11416471388E+01  0.13734297633E+01  0.40619893770E+02  0.50528862805E+02  0.30000008984E+02 0.  0.
         12    1    1    2    0    0  0.11416471388E+01 -0.13734297633E+01 -0.40619893770E+02  0.40659137195E+02  0.00000000000E+00 0. -1.
         11    1    3    3    0    0 -0.13465811300E+02  0.29035707775E+01  0.19757615437E+02  0.24085725342E+02  0.51100000000E-03 0. -1.
        -11    1    3    3    0    0  0.12207310946E+02 -0.92282680317E+00  0.10691461697E+02  0.16253535102E+02  0.51100000000E-03 0.  1.
        -12    1    3    3    0    0  0.11685321524E+00 -0.60731421100E+00  0.10170816636E+02  0.10189602361E+02  0.00000000000E+00 0.  1.
</event>
<event>
 7    1  0.6046695E-013  0.5052886E+02  0.7816164E-02  0.1300439E+00
        -11   -1    0    0    0    0  0.00000000000E+00  0.00000000000E+00  0.45593999997E+02  0.45594000000E+02  0.51100000000E-03 0.  1.
         11   -1    0    0    0    0 -0.00000000000E+00 -0.00000000000E+00 -0.45593999997E+02  0.45594000000E+02  0.51100000000E-03 0. -1.
    9900012    2    1    2    0    0  0.95016387103E+01  0.42556840367E+01  0.39303608581E+02  0.50528860409E+02  0.30000001698E+02 0.  0.
         12    1    1    2    0    0 -0.95016387103E+01 -0.42556840367E+01 -0.39303608581E+02  0.40659139591E+02  0.00000000000E+00 0. -1.
         11    1    3    3    0    0  0.80404864081E+01 -0.86757157110E+01  0.66759953755E+01  0.13582576313E+02  0.51100000000E-03 0. -1.
        -11    1    3    3    0    0  0.31250052655E+01  0.99254363326E+01  0.31733626512E+02  0.33396152416E+02  0.51100000000E-03 0.  1.
         12    1    3    3    0    0 -0.16638529633E+01  0.30059634152E+01  0.89398669376E+00  0.35501316800E+01  0.00000000000E+00 0. -1.
</event>
<event>
 7    1  0.6046695E-013  0.5052887E+02  0.7816164E-02  0.1300439E+00
        -11   -1    0    0    0    0  0.00000000000E+00  0.00000000000E+00  0.45593999997E+02  0.45594000000E+02  0.51100000000E-03 0.  1.
         11   -1    0    0    0    0 -0.00000000000E+00 -0.00000000000E+00 -0.45593999997E+02  0.45594000000E+02  0.51100000000E-03 0. -1.
    9900012    2    1    2    0    0 -0.12072859866E+02 -0.20200577127E+02  0.33156417069E+02  0.50528865055E+02  0.30000015821E+02 0.  0.
         12    1    1    2    0    0  0.12072859866E+02  0.20200577127E+02 -0.33156417069E+02  0.40659134945E+02  0.00000000000E+00 0. -1.
         11    1    3    3    0    0 -0.61011830738E+01 -0.87869613191E+01 -0.24026016869E+01  0.10963923534E+02  0.51100000000E-03 0. -1.
        -11    1    3    3    0    0  0.14667155448E+01  0.18776342465E+00  0.13321731621E+02  0.13403545920E+02  0.51100000000E-03 0.  1.
         12    1    3    3    0    0 -0.74383923373E+01 -0.11601379233E+02  0.22237287135E+02  0.26161395601E+02  0.00000000000E+00 0. -1.
</event>
<event>
 7    1  0.6046695E-013  0.5052886E+02  0.7816164E-02  0.1300439E+00
        -11   -1    0    0    0    0  0.00000000000E+00  0.00000000000E+00  0.45593999997E+02  0.45594000000E+02  0.51100000000E-03 0. -1.
         11   -1    0    0    0    0 -0.00000000000E+00 -0.00000000000E+00 -0.45593999997E+02  0.45594000000E+02  0.51100000000E-03 0.  1.
    9900012    2    1    2    0    0  0.12138806329E+02 -0.38374418455E+02 -0.57636168095E+01  0.50528857244E+02  0.29999992080E+02 0.  0.
         12    1    1    2    0    0 -0.12138806329E+02  0.38374418455E+02  0.57636168095E+01  0.40659142756E+02  0.00000000000E+00 0. -1.
         11    1    3    3    0    0  0.21871412722E+01  0.65528594569E+00  0.38002893078E+01  0.44334169327E+01  0.51100000000E-03 0. -1.
        -11    1    3    3    0    0  0.55124432849E+00 -0.32496730365E+02 -0.11518578037E+02  0.34482154732E+02  0.51100000000E-03 0.  1.
        -12    1    3    3    0    0  0.94004207288E+01 -0.65329740362E+01  0.19546719200E+01  0.11613285579E+02  0.00000000000E+00 0.  1.
</event>
<event>
 7    1  0.6046695E-013  0.5052879E+02  0.7816164E-02  0.1300439E+00
        -11   -1    0    0    0    0  0.00000000000E+00  0.00000000000E+00  0.45593999997E+02  0.45594000000E+02  0.51100000000E-03 0.  1.
         11   -1    0    0    0    0 -0.00000000000E+00 -0.00000000000E+00 -0.45593999997E+02  0.45594000000E+02  0.51100000000E-03 0. -1.
    9900012    2    1    2    0    0  0.12838707491E+02 -0.29066970070E+02  0.25366315573E+02  0.50528792865E+02  0.29999796391E+02 0.  0.
         12    1    1    2    0    0 -0.12838707491E+02  0.29066970070E+02 -0.25366315573E+02  0.40659207135E+02  0.00000000000E+00 0. -1.
         11    1    3    3    0    0 -0.21046368697E+01 -0.91742204551E+00  0.86207205464E+01  0.89212097029E+01  0.51100000000E-03 0. -1.
        -11    1    3    3    0    0  0.28768062735E+01 -0.95906666236E+01 -0.44524020241E+01  0.10958137828E+02  0.51100000000E-03 0.  1.
        -12    1    3    3    0    0  0.12066538087E+02 -0.18558881401E+02  0.21197997051E+02  0.30649445333E+02  0.00000000000E+00 0.  1.
</event>
<event>
 7    1  0.6046695E-013  0.5052885E+02  0.7816164E-02  0.1300439E+00
        -11   -1    0    0    0    0  0.00000000000E+00  0.00000000000E+00  0.45593999997E+02  0.45594000000E+02  0.51100000000E-03 0. -1.
         11   -1    0    0    0    0 -0.00000000000E+00 -0.00000000000E+00 -0.45593999997E+02  0.45594000000E+02  0.51100000000E-03 0.  1.
    9900012    2    1    2    0    0 -0.12618708029E+01  0.10266046580E+02 -0.39321526200E+02  0.50528850316E+02  0.29999971021E+02 0.  0.
         12    1    1    2    0    0  0.12618708029E+01 -0.10266046580E+02  0.39321526200E+02  0.40659149684E+02  0.00000000000E+00 0. -1.
         11    1    3    3    0    0  0.41721996000E+01 -0.69807523408E+01 -0.13428650730E+02  0.15699261557E+02  0.51100000000E-03 0. -1.
        -11    1    3    3    0    0 -0.99904119176E+01  0.13774210230E+02 -0.15778904807E+02  0.23205840534E+02  0.51100000000E-03 0.  1.
         12    1    3    3    0    0  0.45563415147E+01  0.34725886908E+01 -0.10113970663E+02  0.11623748225E+02  0.00000000000E+00 0. -1.
</event>
<event>
 7    1  0.6046695E-013  0.5052887E+02  0.7816164E-02  0.1300439E+00
        -11   -1    0    0    0    0  0.00000000000E+00  0.00000000000E+00  0.45593999997E+02  0.45594000000E+02  0.51100000000E-03 0. -1.
         11   -1    0    0    0    0 -0.00000000000E+00 -0.00000000000E+00 -0.45593999997E+02  0.45594000000E+02  0.51100000000E-03 0.  1.
    9900012    2    1    2    0    0  0.35898540001E+02  0.55660161925E+00 -0.19082708796E+02  0.50528871203E+02  0.30000034508E+02 0.  0.
         12    1    1    2    0    0 -0.35898540001E+02 -0.55660161925E+00  0.19082708796E+02  0.40659128797E+02  0.00000000000E+00 0. -1.
         11    1    3    3    0    0  0.57103626231E+01 -0.40476927958E+01  0.32388687928E+01  0.77124788216E+01  0.51100000000E-03 0. -1.
        -11    1    3    3    0    0  0.31279052608E+02  0.73508561037E+01 -0.23314681221E+02  0.39698722626E+02  0.51100000000E-03 0.  1.
        -12    1    3    3    0    0 -0.10908752297E+01 -0.27465616887E+01  0.99310363214E+00  0.31176697549E+01  0.00000000000E+00 0.  1.
</event>
<event>
 7    1  0.6046695E-013  0.5052885E+02  0.7816164E-02  0.1300439E+00
        -11   -1    0    0    0    0  0.00000000000E+00  0.00000000000E+00  0.45593999997E+02  0.45594000000E+02  0.51100000000E-03 0.  1.
         11   -1    0    0    0    0 -0.00000000000E+00 -0.00000000000E+00 -0.45593999997E+02  0.45594000000E+02  0.51100000000E-03 0. -1.
    9900012    2    1    2    0    0 -0.18360789053E+01  0.34752587581E+02  0.21025062231E+02  0.50528846404E+02  0.29999959130E+02 0.  0.
         12    1    1    2    0    0  0.18360789053E+01 -0.34752587581E+02 -0.21025062231E+02  0.40659153596E+02  0.00000000000E+00 0. -1.
         11    1    3    3    0    0  0.60609443984E+01  0.35815478821E+02  0.17918598440E+02  0.40503823776E+02  0.51100000000E-03 0.  1.
        -11    1    3    3    0    0 -0.64887362893E+01  0.14418825147E+01  0.19459521340E+01  0.69259983964E+01  0.51100000000E-03 0. -1.
        -12    1    3    3    0    0 -0.14082870145E+01 -0.25047737552E+01  0.11605116573E+01  0.30990242314E+01  0.00000000000E+00 0.  1.
</event>
<event>
 7    1  0.6046695E-013  0.5052886E+02  0.7816164E-02  0.1300439E+00
        -11   -1    0    0    0    0  0.00000000000E+00  0.00000000000E+00  0.45593999997E+02  0.45594000000E+02  0.51100000000E-03 0. -1.
         11   -1    0    0    0    0 -0.00000000000E+00 -0.00000000000E+00 -0.45593999997E+02  0.45594000000E+02  0.51100000000E-03 0.  1.
    9900012    2    1    2    0    0 -0.19608739629E+02 -0.35320381179E+02  0.45971623726E+01  0.50528857137E+02  0.29999991755E+02 0.  0.
         12    1    1    2    0    0  0.19608739629E+02  0.35320381179E+02 -0.45971623726E+01  0.40659142863E+02  0.00000000000E+00 0. -1.
         11    1    3    3    0    0  0.13024950711E+00 -0.99790175947E+01  0.13767792649E+02  0.17004407422E+02  0.51100000000E-03 0. -1.
        -11    1    3    3    0    0 -0.84266701997E+01 -0.12103319595E+02 -0.54183385646E+01  0.15711699747E+02  0.51100000000E-03 0.  1.
         12    1    3    3    0    0 -0.11312318936E+02 -0.13238043989E+02 -0.37522917114E+01  0.17812749969E+02  0.00000000000E+00 0. -1.
</event>
<event>
 7    1  0.6046695E-013  0.5052886E+02  0.7816164E-02  0.1300439E+00
        -11   -1    0    0    0    0  0.00000000000E+00  0.00000000000E+00  0.45593999997E+02  0.45594000000E+02  0.51100000000E-03 0. -1.
         11   -1    0    0    0    0 -0.00000000000E+00 -0.00000000000E+00 -0.45593999997E+02  0.45594000000E+02  0.51100000000E-03 0.  1.
    9900012    2    1    2    0    0  0.27743048439E+02 -0.20064503052E+02 -0.21929531844E+02  0.50528863434E+02  0.30000010893E+02 0.  0.
         12    1    1    2    0    0 -0.27743048439E+02  0.20064503052E+02  0.21929531844E+02  0.40659136566E+02  0.00000000000E+00 0. -1.
         11    1    3    3    0    0  0.13611506088E+02  0.61785534606E+00 -0.27485890101E+00  0.13628293763E+02  0.51100000000E-03 0. -1.
        -11    1    3    3    0    0  0.95704638336E+01 -0.22115003345E+02 -0.21205172563E+02  0.32098699267E+02  0.51100000000E-03 0.  1.
        -12    1    3    3    0    0  0.45610785169E+01  0.14326449468E+01 -0.44950038066E+00  0.48018704036E+01  0.00000000000E+00 0.  1.
</event>
<event>
 7    1  0.6046695E-013  0.5052886E+02  0.7816164E-02  0.1300439E+00
        -11   -1    0    0    0    0  0.00000000000E+00  0.00000000000E+00  0.45593999997E+02  0.45594000000E+02  0.51100000000E-03 0. -1.
         11   -1    0    0    0    0 -0.00000000000E+00 -0.00000000000E+00 -0.45593999997E+02  0.45594000000E+02  0.51100000000E-03 0.  1.
    9900012    2    1    2    0    0  0.33329556156E+02 -0.20512688800E+02 -0.11024350086E+02  0.50528855762E+02  0.29999987574E+02 0.  0.
         12    1    1    2    0    0 -0.33329556156E+02  0.20512688800E+02  0.11024350086E+02  0.40659144238E+02  0.00000000000E+00 0. -1.
         11    1    3    3    0    0  0.11416175884E+02  0.54389090299E+01 -0.45819181620E+00  0.12653882537E+02  0.51100000000E-03 0. -1.
        -11    1    3    3    0    0  0.65257031123E+01 -0.14698721274E+02 -0.59969544187E-02  0.16082202723E+02  0.51100000000E-03 0.  1.
        -12    1    3    3    0    0  0.15387677160E+02 -0.11252876556E+02 -0.10560161316E+02  0.21792770502E+02  0.00000000000E+00 0.  1.
</event>
<event>
 7    1  0.6046695E-013  0.5052887E+02  0.7816164E-02  0.1300439E+00
        -11   -1    0    0    0    0  0.00000000000E+00  0.00000000000E+00  0.45593999997E+02  0.45594000000E+02  0.51100000000E-03 0. -1.
         11   -1    0    0    0    0 -0.00000000000E+00 -0.00000000000E+00 -0.45593999997E+02  0.45594000000E+02  0.51100000000E-03 0.  1.
    9900012    2    1    2    0    0  0.23146934379E+02  0.10335985236E+02 -0.31789180301E+02  0.50528866387E+02  0.30000019870E+02 0.  0.
         12    1    1    2    0    0 -0.23146934379E+02 -0.10335985236E+02  0.31789180301E+02  0.40659133613E+02  0.00000000000E+00 0. -1.
         11    1    3    3    0    0  0.34250397822E+01  0.11844637574E+02 -0.88674553717E+01  0.15187432364E+02  0.51100000000E-03 0. -1.
        -11    1    3    3    0    0  0.56427397013E+01 -0.82949053468E+01 -0.40019878347E+01  0.10801012589E+02  0.51100000000E-03 0.  1.
         12    1    3    3    0    0  0.14079154895E+02  0.67862530085E+01 -0.18919737095E+02  0.24540421435E+02  0.00000000000E+00 0. -1.
</event>
<event>
 7    1  0.6046695E-013  0.5052883E+02  0.7816164E-02  0.1300439E+00
        -11   -1    0    0    0    0  0.00000000000E+00  0.00000000000E+00  0.45593999997E+02  0.45594000000E+02  0.51100000000E-03 0.  1.
         11   -1    0    0    0    0 -0.00000000000E+00 -0.00000000000E+00 -0.45593999997E+02  0.45594000000E+02  0.51100000000E-03 0. -1.
    9900012    2    1    2    0    0 -0.71011870108E+01  0.37809590261E+02 -0.13159652523E+02  0.50528826039E+02  0.29999897228E+02 0.  0.
         12    1    1    2    0    0  0.71011870108E+01 -0.37809590261E+02  0.13159652523E+02  0.40659173961E+02  0.00000000000E+00 0. -1.
         11    1    3    3    0    0  0.32626771010E+01 -0.13927908193E+00 -0.10316761789E+02  0.10821276940E+02  0.51100000000E-03 0. -1.
        -11    1    3    3    0    0 -0.47677624896E+01  0.23326597933E+02 -0.79380489805E-01  0.23808990567E+02  0.51100000000E-03 0.  1.
         12    1    3    3    0    0 -0.55961016221E+01  0.14622271410E+02 -0.27635102442E+01  0.15898558533E+02  0.00000000000E+00 0. -1.
</event>
<event>
 7    1  0.6046695E-013  0.5052886E+02  0.7816164E-02  0.1300439E+00
        -11   -1    0    0    0    0  0.00000000000E+00  0.00000000000E+00  0.45593999997E+02  0.45594000000E+02  0.51100000000E-03 0. -1.
         11   -1    0    0    0    0 -0.00000000000E+00 -0.00000000000E+00 -0.45593999997E+02  0.45594000000E+02  0.51100000000E-03 0.  1.
    9900012    2    1    2    0    0  0.11702248416E+02 -0.20460521311E+02 -0.33129899538E+02  0.50528858424E+02  0.29999995665E+02 0.  0.
         12    1    1    2    0    0 -0.11702248416E+02  0.20460521311E+02  0.33129899538E+02  0.40659141576E+02  0.00000000000E+00 0. -1.
         11    1    3    3    0    0  0.13843360666E+00  0.54727153304E+00  0.41661244371E+01  0.42041958899E+01  0.51100000000E-03 0. -1.
        -11    1    3    3    0    0  0.36957062475E+01 -0.17694021701E+02 -0.30321197785E+02  0.35300307137E+02  0.51100000000E-03 0.  1.
        -12    1    3    3    0    0  0.78681085614E+01 -0.33137711423E+01 -0.69748261907E+01  0.11024355396E+02  0.00000000000E+00 0.  1.
</event>
<event>
 7    1  0.6046695E-013  0.5052885E+02  0.7816164E-02  0.1300439E+00
        -11   -1    0    0    0    0  0.00000000000E+00  0.00000000000E+00  0.45593999997E+02  0.45594000000E+02  0.51100000000E-03 0. -1.
         11   -1    0    0    0    0 -0.00000000000E+00 -0.00000000000E+00 -0.45593999997E+02  0.45594000000E+02  0.51100000000E-03 0.  1.
    9900012    2    1    2    0    0 -0.24250337141E+02  0.52646672100E+01 -0.32208240472E+02  0.50528851871E+02  0.29999975747E+02 0.  0.
         12    1    1    2    0    0  0.24250337141E+02 -0.52646672100E+01  0.32208240472E+02  0.40659148129E+02  0.00000000000E+00 0. -1.
         11    1    3    3    0    0 -0.14586201312E+02  0.65860772325E+01 -0.36082212874E+00  0.16008243966E+02  0.51100000000E-03 0.  1.
        -11    1    3    3    0    0  0.16222898990E+01 -0.12644395633E+00 -0.72600641179E+01  0.74401843961E+01  0.51100000000E-03 0. -1.
        -12    1    3    3    0    0 -0.11286425728E+02 -0.11949660661E+01 -0.24587354225E+02  0.27080423509E+02  0.00000000000E+00 0.  1.
</event>
<event>
 7    1  0.6046695E-013  0.5052883E+02  0.7816164E-02  0.1300439E+00
        -11   -1    0    0    0    0  0.00000000000E+00  0.00000000000E+00  0.45593999997E+02  0.45594000000E+02  0.51100000000E-03 0.  1.
         11   -1    0    0    0    0 -0.00000000000E+00 -0.00000000000E+00 -0.45593999997E+02  0.45594000000E+02  0.51100000000E-03 0. -1.
    9900012    2    1    2    0    0  0.25617532588E+02 -0.30713538716E+02  0.73204015915E+01  0.50528834787E+02  0.29999923819E+02 0.  0.
         12    1    1    2    0    0 -0.25617532588E+02  0.30713538716E+02 -0.73204015915E+01  0.40659165213E+02  0.00000000000E+00 0. -1.
         11    1    3    3    0    0 -0.30578355406E+01  0.10885039207E+01 -0.32251896929E+01  0.45757018910E+01  0.51100000000E-03 0. -1.
        -11    1    3    3    0    0  0.27835899507E+02 -0.31502630579E+02  0.74016870184E+01  0.42685337129E+02  0.51100000000E-03 0.  1.
        -12    1    3    3    0    0  0.83946862113E+00 -0.29941205714E+00  0.31439042660E+01  0.32677957677E+01  0.00000000000E+00 0.  1.
</event>
<event>
 7    1  0.6046695E-013  0.5052886E+02  0.7816164E-02  0.1300439E+00
        -11   -1    0    0    0    0  0.00000000000E+00  0.00000000000E+00  0.45593999997E+02  0.45594000000E+02  0.51100000000E-03 0.  1.
         11   -1    0    0    0    0 -0.00000000000E+00 -0.00000000000E+00 -0.45593999997E+02  0.45594000000E+02  0.51100000000E-03 0. -1.
    9900012    2    1    2    0    0 -0.23765820907E+01 -0.38107144278E+02  0.13977236433E+02  0.50528859259E+02  0.29999998204E+02 0.  0.
         12    1    1    2    0    0  0.23765820907E+01  0.38107144278E+02 -0.13977236433E+02  0.40659140741E+02  0.00000000000E+00 0. -1.
         11    1    3    3    0    0 -0.44584663530E+01 -0.25635789249E+02  0.99310750201E+01  0.27851353000E+02  0.51100000000E-03 0. -1.
        -11    1    3    3    0    0  0.99775493126E+01 -0.48497791522E+01  0.37121311702E+01  0.11698365963E+02  0.51100000000E-03 0.  1.
         12    1    3    3    0    0 -0.78956650504E+01 -0.76215758772E+01  0.33403024231E+00  0.10979140296E+02  0.00000000000E+00 0. -1.
</event>
<event>
 7    1  0.6046695E-013  0.5052890E+02  0.7816164E-02  0.1300439E+00
        -11   -1    0    0    0    0  0.00000000000E+00  0.00000000000E+00  0.45593999997E+02  0.45594000000E+02  0.51100000000E-03 0.  1.
         11   -1    0    0    0    0 -0.00000000000E+00 -0.00000000000E+00 -0.45593999997E+02  0.45594000000E+02  0.51100000000E-03 0. -1.
    9900012    2    1    2    0    0 -0.37449118427E+02  0.96129849923E+01  0.12582400580E+02  0.50528895783E+02  0.30000109221E+02 0.  0.
         12    1    1    2    0    0  0.37449118427E+02 -0.96129849923E+01 -0.12582400580E+02  0.40659104217E+02  0.00000000000E+00 0. -1.
         11    1    3    3    0    0 -0.11330508902E+02 -0.81263547092E+01  0.29480056980E+01  0.14251624844E+02  0.51100000000E-03 0. -1.
        -11    1    3    3    0    0 -0.27030682510E+02  0.19072975163E+02  0.81231591406E+01  0.34064965774E+02  0.51100000000E-03 0.  1.
        -12    1    3    3    0    0  0.91207298500E+00 -0.13336354615E+01  0.15112357415E+01  0.22123051644E+01  0.00000000000E+00 0.  1.
</event>
<event>
 7    1  0.6046695E-013  0.5052886E+02  0.7816164E-02  0.1300439E+00
        -11   -1    0    0    0    0  0.00000000000E+00  0.00000000000E+00  0.45593999997E+02  0.45594000000E+02  0.51100000000E-03 0. -1.
         11   -1    0    0    0    0 -0.00000000000E+00 -0.00000000000E+00 -0.45593999997E+02  0.45594000000E+02  0.51100000000E-03 0.  1.
    9900012    2    1    2    0    0 -0.35517649873E+02 -0.61755114979E+01 -0.18802267496E+02  0.50528860096E+02  0.30000000749E+02 0.  0.
         12    1    1    2    0    0  0.35517649873E+02  0.61755114979E+01  0.18802267496E+02  0.40659139904E+02  0.00000000000E+00 0. -1.
         11    1    3    3    0    0 -0.17787073300E+02 -0.89549217844E+01 -0.14159108818E+01  0.19964353348E+02  0.51100000000E-03 0. -1.
        -11    1    3    3    0    0 -0.12185065248E+02  0.96207619249E+01 -0.14640797767E+02  0.21339818055E+02  0.51100000000E-03 0.  1.
        -12    1    3    3    0    0 -0.55455113253E+01 -0.68413516385E+01 -0.27455588468E+01  0.92246886929E+01  0.00000000000E+00 0.  1.
</event>
<event>
 7    1  0.6046695E-013  0.5052886E+02  0.7816164E-02  0.1300439E+00
        -11   -1    0    0    0    0  0.00000000000E+00  0.00000000000E+00  0.45593999997E+02  0.45594000000E+02  0.51100000000E-03 0.  1.
         11   -1    0    0    0    0 -0.00000000000E+00 -0.00000000000E+00 -0.45593999997E+02  0.45594000000E+02  0.51100000000E-03 0. -1.
    9900012    2    1    2    0    0  0.38544982158E+02  0.47886217284E+01 -0.12021626489E+02  0.50528855259E+02  0.29999986045E+02 0.  0.
         12    1    1    2    0    0 -0.38544982158E+02 -0.47886217284E+01  0.12021626489E+02  0.40659144741E+02  0.00000000000E+00 0. -1.
         11    1    3    3    0    0  0.19839376484E+02 -0.23939147892E+01 -0.10950267668E+02  0.22786839394E+02  0.51100000000E-03 0. -1.
        -11    1    3    3    0    0 -0.30716492186E+01 -0.21731223853E+01  0.11547854430E+01  0.39358632476E+01  0.51100000000E-03 0.  1.
        -12    1    3    3    0    0  0.21777254893E+02  0.93556589029E+01 -0.22261442640E+01  0.23806152618E+02  0.00000000000E+00 0.  1.
</event>
<event>
 7    1  0.6046695E-013  0.5052886E+02  0.7816164E-02  0.1300439E+00
        -11   -1    0    0    0    0  0.00000000000E+00  0.00000000000E+00  0.45593999997E+02  0.45594000000E+02  0.51100000000E-03 0.  1.
         11   -1    0    0    0    0 -0.00000000000E+00 -0.00000000000E+00 -0.45593999997E+02  0.45594000000E+02  0.51100000000E-03 0. -1.
    9900012    2    1    2    0    0 -0.27938439331E+02 -0.16141998581E+02 -0.24739538455E+02  0.50528864823E+02  0.30000015115E+02 0.  0.
         12    1    1    2    0    0  0.27938439331E+02  0.16141998581E+02  0.24739538455E+02  0.40659135177E+02  0.00000000000E+00 0. -1.
         11    1    3    3    0    0 -0.21379798037E+01 -0.12767842169E+02 -0.14758452306E+02  0.19631624131E+02  0.51100000000E-03 0. -1.
        -11    1    3    3    0    0 -0.22951100145E+02 -0.72217193279E+01 -0.10132797373E+02  0.26107083537E+02  0.51100000000E-03 0.  1.
         12    1    3    3    0    0 -0.28493593819E+01  0.38475629157E+01  0.15171122480E+00  0.47901571553E+01  0.00000000000E+00 0. -1.
</event>
<event>
 7    1  0.6046695E-013  0.5052884E+02  0.7816164E-02  0.1300439E+00
        -11   -1    0    0    0    0  0.00000000000E+00  0.00000000000E+00  0.45593999997E+02  0.45594000000E+02  0.51100000000E-03 0.  1.
         11   -1    0    0    0    0 -0.00000000000E+00 -0.00000000000E+00 -0.45593999997E+02  0.45594000000E+02  0.51100000000E-03 0. -1.
    9900012    2    1    2    0    0  0.12974471182E+02  0.35055768260E+02  0.15997603450E+02  0.50528842275E+02  0.29999946578E+02 0.  0.
         12    1    1    2    0    0 -0.12974471182E+02 -0.35055768260E+02 -0.15997603450E+02  0.40659157725E+02  0.00000000000E+00 0. -1.
         11    1    3    3    0    0  0.15175414300E+02  0.12339273354E+02 -0.31832595710E+00  0.19561497841E+02  0.51100000000E-03 0. -1.
        -11    1    3    3    0    0 -0.97581493346E-01  0.23614751932E+02  0.16274734621E+02  0.28679836440E+02  0.51100000000E-03 0.  1.
         12    1    3    3    0    0 -0.21033616248E+01 -0.89825702656E+00  0.41194786239E-01  0.22875079936E+01  0.00000000000E+00 0. -1.
</event>
<event>
 7    1  0.6046695E-013  0.5052886E+02  0.7816164E-02  0.1300439E+00
        -11   -1    0    0    0    0  0.00000000000E+00  0.00000000000E+00  0.45593999997E+02  0.45594000000E+02  0.51100000000E-03 0. -1.
         11   -1    0    0    0    0 -0.00000000000E+00 -0.00000000000E+00 -0.45593999997E+02  0.45594000000E+02  0.51100000000E-03 0.  1.
    9900012    2    1    2    0    0 -0.15180138591E+02  0.35013963136E+02 -0.14026806650E+02  0.50528861705E+02  0.30000005638E+02 0.  0.
         12    1    1    2    0    0  0.15180138591E+02 -0.35013963136E+02  0.14026806650E+02  0.40659138295E+02  0.00000000000E+00 0. -1.
         11    1    3    3    0    0 -0.13456587733E+02  0.17464451061E+01 -0.31466621790E+01  0.13929512090E+02  0.51100000000E-03 0. -1.
        -11    1    3    3    0    0  0.23558426348E+01  0.28298200774E+02 -0.76727544965E+01  0.29414440729E+02  0.51100000000E-03 0.  1.
         12    1    3    3    0    0 -0.40793934923E+01  0.49693172557E+01 -0.32073899745E+01  0.71849088861E+01  0.00000000000E+00 0. -1.
</event>
<event>
 7    1  0.6046695E-013  0.5052886E+02  0.7816164E-02  0.1300439E+00
        -11   -1    0    0    0    0  0.00000000000E+00  0.00000000000E+00  0.45593999997E+02  0.45594000000E+02  0.51100000000E-03 0. -1.
         11   -1    0    0    0    0 -0.00000000000E+00 -0.00000000000E+00 -0.45593999997E+02  0.45594000000E+02  0.51100000000E-03 0.  1.
    9900012    2    1    2    0    0 -0.15239686345E+02 -0.20413621456E+02 -0.31689146461E+02  0.50528856080E+02  0.29999988541E+02 0.  0.
         12    1    1    2    0    0  0.15239686345E+02  0.20413621456E+02  0.31689146461E+02  0.40659143920E+02  0.00000000000E+00 0. -1.
         11    1    3    3    0    0  0.24636428110E+01 -0.17599310210E+02 -0.14665034837E+02  0.23040583821E+02  0.51100000000E-03 0. -1.
        -11    1    3    3    0    0 -0.10595022138E+02 -0.13818728758E+01 -0.17184391836E+02  0.20235300586E+02  0.51100000000E-03 0.  1.
        -12    1    3    3    0    0 -0.71083070182E+01 -0.14324383701E+01  0.16028021207E+00  0.72529716734E+01  0.00000000000E+00 0.  1.
</event>
<event>
 7    1  0.6046695E-013  0.5052888E+02  0.7816164E-02  0.1300439E+00
        -11   -1    0    0    0    0  0.00000000000E+00  0.00000000000E+00  0.45593999997E+02  0.45594000000E+02  0.51100000000E-03 0.  1.
         11   -1    0    0    0    0 -0.00000000000E+00 -0.00000000000E+00 -0.45593999997E+02  0.45594000000E+02  0.51100000000E-03 0. -1.
    9900012    2    1    2    0    0 -0.30946105955E+01  0.30804056603E+02  0.26357111977E+02  0.50528882084E+02  0.30000067582E+02 0.  0.
         12    1    1    2    0    0  0.30946105955E+01 -0.30804056603E+02 -0.26357111977E+02  0.40659117916E+02  0.00000000000E+00 0. -1.
         11    1    3    3    0    0 -0.13389688751E+02  0.11103936888E+02  0.50672230139E+01  0.18117889739E+02  0.51100000000E-03 0. -1.
        -11    1    3    3    0    0  0.74840634658E+01  0.20226395048E+02  0.19109290923E+02  0.28814636254E+02  0.51100000000E-03 0.  1.
         12    1    3    3    0    0  0.28110146900E+01 -0.52627533350E+00  0.21805980402E+01  0.35963560901E+01  0.00000000000E+00 0. -1.
</event>
<event>
 7    1  0.6046695E-013  0.5052886E+02  0.7816164E-02  0.1300439E+00
        -11   -1    0    0    0    0  0.00000000000E+00  0.00000000000E+00  0.45593999997E+02  0.45594000000E+02  0.51100000000E-03 0. -1.
         11   -1    0    0    0    0 -0.00000000000E+00 -0.00000000000E+00 -0.45593999997E+02  0.45594000000E+02  0.51100000000E-03 0.  1.
    9900012    2    1    2    0    0  0.33403826966E+02 -0.18852822596E+02 -0.13487816173E+02  0.50528858827E+02  0.29999996890E+02 0.  0.
         12    1    1    2    0    0 -0.33403826966E+02  0.18852822596E+02  0.13487816173E+02  0.40659141173E+02  0.00000000000E+00 0. -1.
         11    1    3    3    0    0  0.10535005195E+02 -0.20142596233E+02 -0.33666087704E+00  0.22733760319E+02  0.51100000000E-03 0. -1.
        -11    1    3    3    0    0  0.13053747319E+02 -0.35117263949E+01 -0.64554780352E+01  0.14980178178E+02  0.51100000000E-03 0.  1.
         12    1    3    3    0    0  0.98150744525E+01  0.48015000317E+01 -0.66956772608E+01  0.12814920329E+02  0.00000000000E+00 0. -1.
</event>
<event>
 7    1  0.6046695E-013  0.5052886E+02  0.7816164E-02  0.1300439E+00
        -11   -1    0    0    0    0  0.00000000000E+00  0.00000000000E+00  0.45593999997E+02  0.45594000000E+02  0.51100000000E-03 0.  1.
         11   -1    0    0    0    0 -0.00000000000E+00 -0.00000000000E+00 -0.45593999997E+02  0.45594000000E+02  0.51100000000E-03 0. -1.
    9900012    2    1    2    0    0  0.20347605626E+02 -0.28270615035E+02  0.20974104696E+02  0.50528858384E+02  0.29999995545E+02 0.  0.
         12    1    1    2    0    0 -0.20347605626E+02  0.28270615035E+02 -0.20974104696E+02  0.40659141616E+02  0.00000000000E+00 0. -1.
         11    1    3    3    0    0  0.46186596553E+01  0.32416756199E+01 -0.24814974014E-01  0.56427913200E+01  0.51100000000E-03 0. -1.
        -11    1    3    3    0    0  0.95428616188E+00 -0.12583721714E+02  0.15967585483E+02  0.20352506005E+02  0.51100000000E-03 0.  1.
        -12    1    3    3    0    0  0.14774659808E+02 -0.18928568940E+02  0.50313341870E+01  0.24533561060E+02  0.00000000000E+00 0.  1.
</event>
<event>
 7    1  0.6046695E-013  0.5052886E+02  0.7816164E-02  0.1300439E+00
        -11   -1    0    0    0    0  0.00000000000E+00  0.00000000000E+00  0.45593999997E+02  0.45594000000E+02  0.51100000000E-03 0. -1.
         11   -1    0    0    0    0 -0.00000000000E+00 -0.00000000000E+00 -0.45593999997E+02  0.45594000000E+02  0.51100000000E-03 0.  1.
    9900012    2    1    2    0    0 -0.20588735623E+02 -0.13340006511E+02 -0.32423975823E+02  0.50528855685E+02  0.29999987340E+02 0.  0.
         12    1    1    2    0    0  0.20588735623E+02  0.13340006511E+02  0.32423975823E+02  0.40659144315E+02  0.00000000000E+00 0. -1.
         11    1    3    3    0    0  0.34208095347E+01 -0.28962593482E+00 -0.39841908497E+01  0.52592393027E+01  0.51100000000E-03 0. -1.
        -11    1    3    3    0    0 -0.22254877438E+02 -0.57274730640E+01 -0.29785691783E+02  0.37620087091E+02  0.51100000000E-03 0.  1.
        -12    1    3    3    0    0 -0.17546677198E+01 -0.73229075121E+01  0.13459068097E+01  0.76495292913E+01  0.00000000000E+00 0.  1.
</event>
<event>
 7    1  0.6046695E-013  0.5052884E+02  0.7816164E-02  0.1300439E+00
        -11   -1    0    0    0    0  0.00000000000E+00  0.00000000000E+00  0.45593999997E+02  0.45594000000E+02  0.51100000000E-03 0.  1.
         11   -1    0    0    0    0 -0.00000000000E+00 -0.00000000000E+00 -0.45593999997E+02  0.45594000000E+02  0.51100000000E-03 0. -1.
    9900012    2    1    2    0    0 -0.25953638843E+02 -0.22539668575E+02  0.21714961832E+02  0.50528836261E+02  0.29999928298E+02 0.  0.
         12    1    1    2    0    0  0.25953638843E+02  0.22539668575E+02 -0.21714961832E+02  0.40659163739E+02  0.00000000000E+00 0. -1.
         11    1    3    3    0    0 -0.14527954494E+02 -0.10143557238E+02 -0.14570648565E+01  0.17778533502E+02  0.51100000000E-03 0. -1.
        -11    1    3    3    0    0 -0.25475576962E+00  0.19079575591E+01  0.10352976297E+02  0.10530399851E+02  0.51100000000E-03 0.  1.
         12    1    3    3    0    0 -0.11170928579E+02 -0.14304068896E+02  0.12819050391E+02  0.22219902908E+02  0.00000000000E+00 0. -1.
</event>
<event>
 7    1  0.6046695E-013  0.5052886E+02  0.7816164E-02  0.1300439E+00
        -11   -1    0    0    0    0  0.00000000000E+00  0.00000000000E+00  0.45593999997E+02  0.45594000000E+02  0.51100000000E-03 0.  1.
         11   -1    0    0    0    0 -0.00000000000E+00 -0.00000000000E+00 -0.45593999997E+02  0.45594000000E+02  0.51100000000E-03 0. -1.
    9900012    2    1    2    0    0 -0.30977135479E+02  0.72964479287E+01  0.25305035740E+02  0.50528857010E+02  0.29999991369E+02 0.  0.
         12    1    1    2    0    0  0.30977135479E+02 -0.72964479287E+01 -0.25305035740E+02  0.40659142990E+02  0.00000000000E+00 0. -1.
         11    1    3    3    0    0 -0.79929373129E+01  0.83859677172E+01  0.10376465354E+02  0.15552573258E+02  0.51100000000E-03 0. -1.
        -11    1    3    3    0    0 -0.17733340182E+02 -0.58293401168E+01  0.19146692741E+02  0.26740388991E+02  0.51100000000E-03 0.  1.
         12    1    3    3    0    0 -0.52508579842E+01  0.47398203282E+01 -0.42181223556E+01  0.82358947614E+01  0.00000000000E+00 0. -1.
</event>
<event>
 7    1  0.6046695E-013  0.5052886E+02  0.7816164E-02  0.1300439E+00
        -11   -1    0    0    0    0  0.00000000000E+00  0.00000000000E+00  0.45593999997E+02  0.45594000000E+02  0.51100000000E-03 0. -1.
         11   -1    0    0    0    0 -0.00000000000E+00 -0.00000000000E+00 -0.45593999997E+02  0.45594000000E+02  0.51100000000E-03 0.  1.
    9900012    2    1    2    0    0 -0.34215379321E+02 -0.21958275612E+02 -0.55494753605E+00  0.50528855682E+02  0.29999987331E+02 0.  0.
         12    1    1    2    0    0  0.34215379321E+02  0.21958275612E+02  0.55494753605E+00  0.40659144318E+02  0.00000000000E+00 0. -1.
         11    1    3    3    0    0 -0.20605249523E+02 -0.22300307718E+01  0.45908689894E+01  0.21227939691E+02  0.51100000000E-03 0. -1.
        -11    1    3    3    0    0 -0.10497198435E+02 -0.21676265520E+02 -0.15072775225E+01  0.24131380973E+02  0.51100000000E-03 0.  1.
        -12    1    3    3    0    0 -0.31129313624E+01  0.19480206796E+01 -0.36385390030E+01  0.51695350188E+01  0.00000000000E+00 0.  1.
</event>
<event>
 7    1  0.6046695E-013  0.5052886E+02  0.7816164E-02  0.1300439E+00
        -11   -1    0    0    0    0  0.00000000000E+00  0.00000000000E+00  0.45593999997E+02  0.45594000000E+02  0.51100000000E-03 0. -1.
         11   -1    0    0    0    0 -0.00000000000E+00 -0.00000000000E+00 -0.45593999997E+02  0.45594000000E+02  0.51100000000E-03 0.  1.
    9900012    2    1    2    0    0  0.18097755309E+02 -0.36257585843E+02  0.33203554257E+01  0.50528855413E+02  0.29999986512E+02 0.  0.
         12    1    1    2    0    0 -0.18097755309E+02  0.36257585843E+02 -0.33203554257E+01  0.40659144587E+02  0.00000000000E+00 0. -1.
         11    1    3    3    0    0  0.14579202385E+02 -0.70488114870E+01  0.68077576466E+01  0.17566571948E+02  0.51100000000E-03 0. -1.
        -11    1    3    3    0    0  0.81462843778E+01 -0.20438946155E+02 -0.58536854665E+01  0.22767918282E+02  0.51100000000E-03 0.  1.
        -12    1    3    3    0    0 -0.46277314534E+01 -0.87698282013E+01  0.23662832455E+01  0.10194365183E+02  0.00000000000E+00 0.  1.
</event>
<event>
 7    1  0.6046695E-013  0.5052888E+02  0.7816164E-02  0.1300439E+00
        -11   -1    0    0    0    0  0.00000000000E+00  0.00000000000E+00  0.45593999997E+02  0.45594000000E+02  0.51100000000E-03 0. -1.
         11   -1    0    0    0    0 -0.00000000000E+00 -0.00000000000E+00 -0.45593999997E+02  0.45594000000E+02  0.51100000000E-03 0.  1.
    9900012    2    1    2    0    0  0.11469094124E+02  0.36167502676E+02 -0.14612862760E+02  0.50528878909E+02  0.30000057932E+02 0.  0.
         12    1    1    2    0    0 -0.11469094124E+02 -0.36167502676E+02  0.14612862760E+02  0.40659121091E+02  0.00000000000E+00 0. -1.
         11    1    3    3    0    0 -0.21544302877E+01  0.24517654771E+00  0.59513702696E+00  0.22485261275E+01  0.51100000000E-03 0. -1.
        -11    1    3    3    0    0  0.19488984006E+02  0.28423028799E+02 -0.17256389876E+02  0.38541822161E+02  0.51100000000E-03 0.  1.
        -12    1    3    3    0    0 -0.58654595950E+01  0.74992973294E+01  0.20483900883E+01  0.97385306206E+01  0.00000000000E+00 0.  1.
</event>
<event>
 7    1  0.6046695E-013  0.5052886E+02  0.7816164E-02  0.1300439E+00
        -11   -1    0    0    0    0  0.00000000000E+00  0.00000000000E+00  0.45593999997E+02  0.45594000000E+02  0.51100000000E-03 0. -1.
         11   -1    0    0    0    0 -0.00000000000E+00 -0.00000000000E+00 -0.45593999997E+02  0.45594000000E+02  0.51100000000E-03 0.  1.
    9900012    2    1    2    0    0 -0.16790437340E+02  0.33767409285E+02 -0.15198990111E+02  0.50528855687E+02  0.29999987345E+02 0.  0.
         12    1    1    2    0    0  0.16790437340E+02 -0.33767409285E+02  0.15198990111E+02  0.40659144313E+02  0.00000000000E+00 0. -1.
         11    1    3    3    0    0 -0.94774336916E+01 -0.28837176452E+01 -0.23209718521E+01  0.10174698395E+02  0.51100000000E-03 0. -1.
        -11    1    3    3    0    0 -0.34496055391E+01  0.16446722050E+02 -0.10075612167E+02  0.19593682792E+02  0.51100000000E-03 0.  1.
         12    1    3    3    0    0 -0.38633981088E+01  0.20204404880E+02 -0.28024060924E+01  0.20760474499E+02  0.00000000000E+00 0. -1.
</event>
<event>
 7    1  0.6046695E-013  0.5052886E+02  0.7816164E-02  0.1300439E+00
        -11   -1    0    0    0    0  0.00000000000E+00  0.00000000000E+00  0.45593999997E+02  0.45594000000E+02  0.51100000000E-03 0. -1.
         11   -1    0    0    0    0 -0.00000000000E+00 -0.00000000000E+00 -0.45593999997E+02  0.45594000000E+02  0.51100000000E-03 0.  1.
    9900012    2    1    2    0    0  0.27354509989E+02  0.26476321563E+02  0.14279386976E+02  0.50528859421E+02  0.29999998696E+02 0.  0.
         12    1    1    2    0    0 -0.27354509989E+02 -0.26476321563E+02 -0.14279386976E+02  0.40659140579E+02  0.00000000000E+00 0. -1.
         11    1    3    3    0    0  0.56212609652E+01  0.11014975294E+02  0.71364859554E+01  0.14277874058E+02  0.51100000000E-03 0. -1.
        -11    1    3    3    0    0  0.12616691272E+02  0.35993327869E+01 -0.76701346363E+01  0.15197600494E+02  0.51100000000E-03 0.  1.
        -12    1    3    3    0    0  0.91165577510E+01  0.11862013482E+02  0.14813035657E+02  0.21053384869E+02  0.00000000000E+00 0.  1.
</event>
<event>
 7    1  0.6046695E-013  0.5052889E+02  0.7816164E-02  0.1300439E+00
        -11   -1    0    0    0    0  0.00000000000E+00  0.00000000000E+00  0.45593999997E+02  0.45594000000E+02  0.51100000000E-03 0.  1.
         11   -1    0    0    0    0 -0.00000000000E+00 -0.00000000000E+00 -0.45593999997E+02  0.45594000000E+02  0.51100000000E-03 0. -1.
    9900012    2    1    2    0    0  0.77162547747E+01  0.16764142486E+02  0.36229634297E+02  0.50528887094E+02  0.30000082810E+02 0.  0.
         12    1    1    2    0    0 -0.77162547747E+01 -0.16764142486E+02 -0.36229634297E+02  0.40659112906E+02  0.00000000000E+00 0. -1.
         11    1    3    3    0    0  0.17497797536E+02  0.61437394033E+01  0.14746168155E+02  0.23693204258E+02  0.51100000000E-03 0. -1.
        -11    1    3    3    0    0 -0.47817788150E+01  0.75323924413E+01  0.17770397906E+02  0.19884400582E+02  0.51100000000E-03 0.  1.
         12    1    3    3    0    0 -0.49997639466E+01  0.30880106419E+01  0.37130682360E+01  0.69512822537E+01  0.00000000000E+00 0. -1.
</event>
<event>
 7    1  0.6046695E-013  0.5052886E+02  0.7816164E-02  0.1300439E+00
        -11   -1    0    0    0    0  0.00000000000E+00  0.00000000000E+00  0.45593999997E+02  0.45594000000E+02  0.51100000000E-03 0.  1.
         11   -1    0    0    0    0 -0.00000000000E+00 -0.00000000000E+00 -0.45593999997E+02  0.45594000000E+02  0.51100000000E-03 0. -1.
    9900012    2    1    2    0    0  0.33344364690E+02  0.16534664881E+02  0.16368381720E+02  0.50528859338E+02  0.29999998443E+02 0.  0.
         12    1    1    2    0    0 -0.33344364690E+02 -0.16534664881E+02 -0.16368381720E+02  0.40659140662E+02  0.00000000000E+00 0. -1.
         11    1    3    3    0    0  0.40936142477E+01 -0.32994660021E+01 -0.47657901510E+01  0.70962602498E+01  0.51100000000E-03 0. -1.
        -11    1    3    3    0    0  0.22846707873E+02  0.12390160682E+02  0.83215269003E+01  0.27289850725E+02  0.51100000000E-03 0.  1.
        -12    1    3    3    0    0  0.64040425688E+01  0.74439702007E+01  0.12812644971E+02  0.16142748363E+02  0.00000000000E+00 0.  1.
</event>
<event>
 7    1  0.6046695E-013  0.5052886E+02  0.7816164E-02  0.1300439E+00
        -11   -1    0    0    0    0  0.00000000000E+00  0.00000000000E+00  0.45593999997E+02  0.45594000000E+02  0.51100000000E-03 0.  1.
         11   -1    0    0    0    0 -0.00000000000E+00 -0.00000000000E+00 -0.45593999997E+02  0.45594000000E+02  0.51100000000E-03 0. -1.
    9900012    2    1    2    0    0 -0.22380470557E+02  0.24883512073E+02  0.23088759180E+02  0.50528862824E+02  0.30000009040E+02 0.  0.
         12    1    1    2    0    0  0.22380470557E+02 -0.24883512073E+02 -0.23088759180E+02  0.40659137176E+02  0.00000000000E+00 0. -1.
         11    1    3    3    0    0 -0.24033798122E+02  0.21620349471E+02  0.20610039072E+02  0.38338449033E+02  0.51100000000E-03 0.  1.
        -11    1    3    3    0    0  0.57733660117E+01  0.44898042976E+01  0.18061198923E+00  0.73159222718E+01  0.51100000000E-03 0. -1.
         12    1    3    3    0    0 -0.41200384463E+01 -0.12266416959E+01  0.22981081185E+01  0.48744915195E+01  0.00000000000E+00 0. -1.
</event>
<event>
 7    1  0.6046695E-013  0.5052889E+02  0.7816164E-02  0.1300439E+00
        -11   -1    0    0    0    0  0.00000000000E+00  0.00000000000E+00  0.45593999997E+02  0.45594000000E+02  0.51100000000E-03 0. -1.
         11   -1    0    0    0    0 -0.00000000000E+00 -0.00000000000E+00 -0.45593999997E+02  0.45594000000E+02  0.51100000000E-03 0.  1.
    9900012    2    1    2    0    0 -0.36349086511E+02  0.16220289096E+02 -0.82951445385E+01  0.50528889194E+02  0.30000089195E+02 0.  0.
         12    1    1    2    0    0  0.36349086511E+02 -0.16220289096E+02  0.82951445385E+01  0.40659110806E+02  0.00000000000E+00 0. -1.
         11    1    3    3    0    0  0.90570090262E+00  0.21061023264E+01 -0.52811949567E+01  0.57573415363E+01  0.51100000000E-03 0. -1.
        -11    1    3    3    0    0 -0.24812752455E+02  0.10616822985E+02 -0.11471998411E+02  0.29325694578E+02  0.51100000000E-03 0.  1.
        -12    1    3    3    0    0 -0.12442034959E+02  0.34973637847E+01  0.84580488294E+01  0.15445853080E+02  0.00000000000E+00 0.  1.
</event>
<event>
 7    1  0.6046695E-013  0.5052886E+02  0.7816164E-02  0.1300439E+00
        -11   -1    0    0    0    0  0.00000000000E+00  0.00000000000E+00  0.45593999997E+02  0.45594000000E+02  0.51100000000E-03 0. -1.
         11   -1    0    0    0    0 -0.00000000000E+00 -0.00000000000E+00 -0.45593999997E+02  0.45594000000E+02  0.51100000000E-03 0.  1.
    9900012    2    1    2    0    0  0.16004070487E+02 -0.37098202124E+02 -0.45561824723E+01  0.50528859924E+02  0.30000000225E+02 0.  0.
         12    1    1    2    0    0 -0.16004070487E+02  0.37098202124E+02  0.45561824723E+01  0.40659140076E+02  0.00000000000E+00 0. -1.
         11    1    3    3    0    0  0.41326817009E+01 -0.76763573127E+01  0.11857953519E+02  0.14717900039E+02  0.51100000000E-03 0. -1.
        -11    1    3    3    0    0  0.80093374775E+01 -0.21287257193E+02 -0.12876139654E+02  0.26136024531E+02  0.51100000000E-03 0.  1.
         12    1    3    3    0    0  0.38620513086E+01 -0.81345876189E+01 -0.35379963369E+01  0.96749353548E+01  0.00000000000E+00 0. -1.
</event>
<event>
 7    1  0.6046695E-013  0.5052886E+02  0.7816164E-02  0.1300439E+00
        -11   -1    0    0    0    0  0.00000000000E+00  0.00000000000E+00  0.45593999997E+02  0.45594000000E+02  0.51100000000E-03 0.  1.
         11   -1    0    0    0    0 -0.00000000000E+00 -0.00000000000E+00 -0.45593999997E+02  0.45594000000E+02  0.51100000000E-03 0. -1.
    9900012    2    1    2    0    0  0.12700043970E+02 -0.95976119310E+01  0.37413370548E+02  0.50528861207E+02  0.30000004125E+02 0.  0.
         12    1    1    2    0    0 -0.12700043970E+02  0.95976119310E+01 -0.37413370548E+02  0.40659138793E+02  0.00000000000E+00 0. -1.
         11    1    3    3    0    0  0.19557520569E+01 -0.13865291017E+01  0.13007886862E+01  0.27275411133E+01  0.51100000000E-03 0.  1.
        -11    1    3    3    0    0  0.94745636939E+01 -0.44388726540E+00 -0.12966365247E+01  0.95731739581E+01  0.51100000000E-03 0. -1.
        -12    1    3    3    0    0  0.12697282193E+01 -0.77671955639E+01  0.37409218386E+02  0.38228146136E+02  0.00000000000E+00 0.  1.
</event>
<event>
 7    1  0.6046695E-013  0.5052886E+02  0.7816164E-02  0.1300439E+00
        -11   -1    0    0    0    0  0.00000000000E+00  0.00000000000E+00  0.45593999997E+02  0.45594000000E+02  0.51100000000E-03 0.  1.
         11   -1    0    0    0    0 -0.00000000000E+00 -0.00000000000E+00 -0.45593999997E+02  0.45594000000E+02  0.51100000000E-03 0. -1.
    9900012    2    1    2    0    0  0.13271770219E+02  0.34559626385E+02  0.16812437039E+02  0.50528859579E+02  0.29999999175E+02 0.  0.
         12    1    1    2    0    0 -0.13271770219E+02 -0.34559626385E+02 -0.16812437039E+02  0.40659140421E+02  0.00000000000E+00 0. -1.
         11    1    3    3    0    0  0.12049135785E+02  0.31085818553E+02  0.42101887708E+01  0.33604099125E+02  0.51100000000E-03 0.  1.
        -11    1    3    3    0    0  0.17681506724E+01 -0.28276865560E+01  0.91064860099E+01  0.96979511119E+01  0.51100000000E-03 0. -1.
        -12    1    3    3    0    0 -0.54551623878E+00  0.63014943886E+01  0.34957622579E+01  0.72268093416E+01  0.00000000000E+00 0.  1.
</event>
<event>
 7    1  0.6046695E-013  0.5052886E+02  0.7816164E-02  0.1300439E+00
        -11   -1    0    0    0    0  0.00000000000E+00  0.00000000000E+00  0.45593999997E+02  0.45594000000E+02  0.51100000000E-03 0.  1.
         11   -1    0    0    0    0 -0.00000000000E+00 -0.00000000000E+00 -0.45593999997E+02  0.45594000000E+02  0.51100000000E-03 0. -1.
    9900012    2    1    2    0    0  0.69240976493E+01  0.73806677139E+01  0.39379538903E+02  0.50528862425E+02  0.30000007826E+02 0.  0.
         12    1    1    2    0    0 -0.69240976493E+01 -0.73806677139E+01 -0.39379538903E+02  0.40659137575E+02  0.00000000000E+00 0. -1.
         11    1    3    3    0    0 -0.18086397677E+01 -0.65749801468E+01  0.24433531868E+02  0.25367282503E+02  0.51100000000E-03 0. -1.
        -11    1    3    3    0    0  0.80047631500E+01  0.21390760939E+01  0.74983187430E+01  0.11174822766E+02  0.51100000000E-03 0.  1.
         12    1    3    3    0    0  0.72797426698E+00  0.11816571767E+02  0.74476882914E+01  0.13986757156E+02  0.00000000000E+00 0. -1.
</event>
<event>
 7    1  0.6046695E-013  0.5052887E+02  0.7816164E-02  0.1300439E+00
        -11   -1    0    0    0    0  0.00000000000E+00  0.00000000000E+00  0.45593999997E+02  0.45594000000E+02  0.51100000000E-03 0. -1.
         11   -1    0    0    0    0 -0.00000000000E+00 -0.00000000000E+00 -0.45593999997E+02  0.45594000000E+02  0.51100000000E-03 0.  1.
    9900012    2    1    2    0    0 -0.39916293601E+02 -0.74591134978E+01 -0.20532179468E+01  0.50528873436E+02  0.30000041295E+02 0.  0.
         12    1    1    2    0    0  0.39916293601E+02  0.74591134978E+01  0.20532179468E+01  0.40659126564E+02  0.00000000000E+00 0. -1.
         11    1    3    3    0    0 -0.17460946954E+02 -0.41460643669E+01  0.10079989269E+02  0.20583505585E+02  0.51100000000E-03 0. -1.
        -11    1    3    3    0    0 -0.54064444487E+01 -0.34491289914E+01 -0.11156068590E+02  0.12867944631E+02  0.51100000000E-03 0.  1.
         12    1    3    3    0    0 -0.17048902199E+02  0.13607986050E+00 -0.97713862581E+00  0.17077423219E+02  0.00000000000E+00 0. -1.
</event>
<event>
 7    1  0.6046695E-013  0.5052886E+02  0.7816164E-02  0.1300439E+00
        -11   -1    0    0    0    0  0.00000000000E+00  0.00000000000E+00  0.45593999997E+02  0.45594000000E+02  0.51100000000E-03 0.  1.
         11   -1    0    0    0    0 -0.00000000000E+00 -0.00000000000E+00 -0.45593999997E+02  0.45594000000E+02  0.51100000000E-03 0. -1.
    9900012    2    1    2    0    0 -0.29843798862E+02 -0.27500952789E+02  0.24921720589E+01  0.50528860112E+02  0.30000000797E+02 0.  0.
         12    1    1    2    0    0  0.29843798862E+02  0.27500952789E+02 -0.24921720589E+01  0.40659139888E+02  0.00000000000E+00 0. -1.
         11    1    3    3    0    0 -0.84909458974E+01 -0.18435017574E+00  0.66106151066E+00  0.85186354425E+01  0.51100000000E-03 0. -1.
        -11    1    3    3    0    0 -0.45339320139E+00 -0.15235845673E+02 -0.63632449346E+01  0.16517489068E+02  0.51100000000E-03 0.  1.
        -12    1    3    3    0    0 -0.20899459764E+02 -0.12080756940E+02  0.81943554829E+01  0.25492735601E+02  0.00000000000E+00 0.  1.
</event>
<event>
 7    1  0.6046695E-013  0.5052884E+02  0.7816164E-02  0.1300439E+00
        -11   -1    0    0    0    0  0.00000000000E+00  0.00000000000E+00  0.45593999997E+02  0.45594000000E+02  0.51100000000E-03 0.  1.
         11   -1    0    0    0    0 -0.00000000000E+00 -0.00000000000E+00 -0.45593999997E+02  0.45594000000E+02  0.51100000000E-03 0. -1.
    9900012    2    1    2    0    0  0.28850761038E+02 -0.16735354064E+02  0.23253569523E+02  0.50528843790E+02  0.29999951185E+02 0.  0.
         12    1    1    2    0    0 -0.28850761038E+02  0.16735354064E+02 -0.23253569523E+02  0.40659156210E+02  0.00000000000E+00 0. -1.
         11    1    3    3    0    0  0.14158574118E+02 -0.22372871059E+01 -0.24729374389E+01  0.14545999260E+02  0.51100000000E-03 0. -1.
        -11    1    3    3    0    0  0.12673619799E+02 -0.28839461677E+01  0.16551016896E+02  0.21044570437E+02  0.51100000000E-03 0.  1.
         12    1    3    3    0    0  0.20185671217E+01 -0.11614120790E+02  0.91754900657E+01  0.14938274094E+02  0.00000000000E+00 0. -1.
</event>
<event>
 7    1  0.6046695E-013  0.5052890E+02  0.7816164E-02  0.1300439E+00
        -11   -1    0    0    0    0  0.00000000000E+00  0.00000000000E+00  0.45593999997E+02  0.45594000000E+02  0.51100000000E-03 0.  1.
         11   -1    0    0    0    0 -0.00000000000E+00 -0.00000000000E+00 -0.45593999997E+02  0.45594000000E+02  0.51100000000E-03 0. -1.
    9900012    2    1    2    0    0  0.17420505310E+02  0.11616176833E+02  0.34853304583E+02  0.50528900037E+02  0.30000122152E+02 0.  0.
         12    1    1    2    0    0 -0.17420505310E+02 -0.11616176833E+02 -0.34853304583E+02  0.40659099963E+02  0.00000000000E+00 0. -1.
         11    1    3    3    0    0  0.54603579503E+01 -0.90799098534E+01  0.11943917768E+02  0.15966134279E+02  0.51100000000E-03 0. -1.
        -11    1    3    3    0    0  0.31868290198E+01  0.73912661312E+01  0.14398456476E+02  0.16495521919E+02  0.51100000000E-03 0.  1.
         12    1    3    3    0    0  0.87733183401E+01  0.13304820556E+02  0.85109303380E+01  0.18067243839E+02  0.00000000000E+00 0. -1.
</event>
<event>
 7    1  0.6046695E-013  0.5052885E+02  0.7816164E-02  0.1300439E+00
        -11   -1    0    0    0    0  0.00000000000E+00  0.00000000000E+00  0.45593999997E+02  0.45594000000E+02  0.51100000000E-03 0. -1.
         11   -1    0    0    0    0 -0.00000000000E+00 -0.00000000000E+00 -0.45593999997E+02  0.45594000000E+02  0.51100000000E-03 0.  1.
    9900012    2    1    2    0    0  0.32033425324E+02  0.20293023380E+02 -0.14670345964E+02  0.50528853592E+02  0.29999980979E+02 0.  0.
         12    1    1    2    0    0 -0.32033425324E+02 -0.20293023380E+02  0.14670345964E+02  0.40659146408E+02  0.00000000000E+00 0. -1.
         11    1    3    3    0    0  0.10496753605E+02  0.16806092089E+00 -0.72685497830E+01  0.12768786040E+02  0.51100000000E-03 0. -1.
        -11    1    3    3    0    0  0.11572221901E+02  0.77301755446E+01  0.76349905611E+01  0.15873405898E+02  0.51100000000E-03 0.  1.
        -12    1    3    3    0    0  0.99644498180E+01  0.12394786915E+02 -0.15036786742E+02  0.21886661654E+02  0.00000000000E+00 0.  1.
</event>
<event>
 7    1  0.6046695E-013  0.5052886E+02  0.7816164E-02  0.1300439E+00
        -11   -1    0    0    0    0  0.00000000000E+00  0.00000000000E+00  0.45593999997E+02  0.45594000000E+02  0.51100000000E-03 0.  1.
         11   -1    0    0    0    0 -0.00000000000E+00 -0.00000000000E+00 -0.45593999997E+02  0.45594000000E+02  0.51100000000E-03 0. -1.
    9900012    2    1    2    0    0  0.22553858576E+01  0.40248629158E+02  0.53034550447E+01  0.50528861422E+02  0.30000004779E+02 0.  0.
         12    1    1    2    0    0 -0.22553858576E+01 -0.40248629158E+02 -0.53034550447E+01  0.40659138578E+02  0.00000000000E+00 0. -1.
         11    1    3    3    0    0  0.65908095998E+01  0.13664151398E+02 -0.48122648600E+01  0.15915580352E+02  0.51100000000E-03 0. -1.
        -11    1    3    3    0    0  0.36422648633E+01  0.19614414884E+02  0.12776878360E+02  0.23690504120E+02  0.51100000000E-03 0.  1.
        -12    1    3    3    0    0 -0.79776886054E+01  0.69700628761E+01 -0.26611584548E+01  0.10922776950E+02  0.00000000000E+00 0.  1.
</event>
<event>
 7    1  0.6046695E-013  0.5052886E+02  0.7816164E-02  0.1300439E+00
        -11   -1    0    0    0    0  0.00000000000E+00  0.00000000000E+00  0.45593999997E+02  0.45594000000E+02  0.51100000000E-03 0. -1.
         11   -1    0    0    0    0 -0.00000000000E+00 -0.00000000000E+00 -0.45593999997E+02  0.45594000000E+02  0.51100000000E-03 0.  1.
    9900012    2    1    2    0    0 -0.28707604978E+02  0.27698099953E+02 -0.78647718701E+01  0.50528856365E+02  0.29999989408E+02 0.  0.
         12    1    1    2    0    0  0.28707604978E+02 -0.27698099953E+02  0.78647718701E+01  0.40659143635E+02  0.00000000000E+00 0. -1.
         11    1    3    3    0    0 -0.10602689756E+02  0.27035009695E+02  0.28682070501E-01  0.29039793425E+02  0.51100000000E-03 0. -1.
        -11    1    3    3    0    0 -0.16311779015E+02  0.32400003363E+01 -0.54168677432E+01  0.17490402890E+02  0.51100000000E-03 0.  1.
         12    1    3    3    0    0 -0.17931362065E+01 -0.25769100785E+01 -0.24765861974E+01  0.39986600507E+01  0.00000000000E+00 0. -1.
</event>
<event>
 7    1  0.6046695E-013  0.5052886E+02  0.7816164E-02  0.1300439E+00
        -11   -1    0    0    0    0  0.00000000000E+00  0.00000000000E+00  0.45593999997E+02  0.45594000000E+02  0.51100000000E-03 0. -1.
         11   -1    0    0    0    0 -0.00000000000E+00 -0.00000000000E+00 -0.45593999997E+02  0.45594000000E+02  0.51100000000E-03 0.  1.
    9900012    2    1    2    0    0 -0.13862544263E+01 -0.14518917987E+02 -0.37953193164E+02  0.50528861394E+02  0.30000004693E+02 0.  0.
         12    1    1    2    0    0  0.13862544263E+01  0.14518917987E+02  0.37953193164E+02  0.40659138606E+02  0.00000000000E+00 0. -1.
         11    1    3    3    0    0  0.61620938696E+01 -0.87020908384E+01 -0.25528333525E+01  0.10964248456E+02  0.51100000000E-03 0. -1.
        -11    1    3    3    0    0 -0.11214616620E+02 -0.60261681257E+00 -0.24159183962E+02  0.26642014619E+02  0.51100000000E-03 0.  1.
         12    1    3    3    0    0  0.36662683238E+01 -0.52142103361E+01 -0.11241175849E+02  0.12922598319E+02  0.00000000000E+00 0. -1.
</event>
<event>
 7    1  0.6046695E-013  0.5052886E+02  0.7816164E-02  0.1300439E+00
        -11   -1    0    0    0    0  0.00000000000E+00  0.00000000000E+00  0.45593999997E+02  0.45594000000E+02  0.51100000000E-03 0. -1.
         11   -1    0    0    0    0 -0.00000000000E+00 -0.00000000000E+00 -0.45593999997E+02  0.45594000000E+02  0.51100000000E-03 0.  1.
    9900012    2    1    2    0    0  0.16521920270E+02  0.62172752725E+01 -0.36626999032E+02  0.50528863028E+02  0.30000009660E+02 0.  0.
         12    1    1    2    0    0 -0.16521920270E+02 -0.62172752725E+01  0.36626999032E+02  0.40659136972E+02  0.00000000000E+00 0. -1.
         11    1    3    3    0    0  0.19037322501E+02  0.66855808461E+01 -0.10876236197E+02  0.22921805194E+02  0.51100000000E-03 0. -1.
        -11    1    3    3    0    0  0.31415315611E-02 -0.34991899397E+01 -0.21607571939E+02  0.21889072741E+02  0.51100000000E-03 0.  1.
        -12    1    3    3    0    0 -0.25185437629E+01  0.30308843661E+01 -0.41431908964E+01  0.57179850935E+01  0.00000000000E+00 0.  1.
</event>
<event>
 7    1  0.6046695E-013  0.5052886E+02  0.7816164E-02  0.1300439E+00
        -11   -1    0    0    0    0  0.00000000000E+00  0.00000000000E+00  0.45593999997E+02  0.45594000000E+02  0.51100000000E-03 0. -1.
         11   -1    0    0    0    0 -0.00000000000E+00 -0.00000000000E+00 -0.45593999997E+02  0.45594000000E+02  0.51100000000E-03 0.  1.
    9900012    2    1    2    0    0 -0.39732887296E+01 -0.16879311866E+02  0.36775907243E+02  0.50528861471E+02  0.30000004927E+02 0.  0.
         12    1    1    2    0    0  0.39732887296E+01  0.16879311866E+02 -0.36775907243E+02  0.40659138529E+02  0.00000000000E+00 0. -1.
         11    1    3    3    0    0 -0.71156720209E+01 -0.23829259380E+02  0.29611325010E+02  0.38669069810E+02  0.51100000000E-03 0. -1.
        -11    1    3    3    0    0  0.27505354327E+01  0.20564497597E+01  0.33737907422E+00  0.34508340559E+01  0.51100000000E-03 0.  1.
         12    1    3    3    0    0  0.39184785859E+00  0.48934977547E+01  0.68272031591E+01  0.84089576046E+01  0.00000000000E+00 0. -1.
</event>
<event>
 7    1  0.6046695E-013  0.5052886E+02  0.7816164E-02  0.1300439E+00
        -11   -1    0    0    0    0  0.00000000000E+00  0.00000000000E+00  0.45593999997E+02  0.45594000000E+02  0.51100000000E-03 0. -1.
         11   -1    0    0    0    0 -0.00000000000E+00 -0.00000000000E+00 -0.45593999997E+02  0.45594000000E+02  0.51100000000E-03 0.  1.
    9900012    2    1    2    0    0 -0.11593854349E+02  0.20068344679E+02 -0.33406736498E+02  0.50528856376E+02  0.29999989439E+02 0.  0.
         12    1    1    2    0    0  0.11593854349E+02 -0.20068344679E+02  0.33406736498E+02  0.40659143624E+02  0.00000000000E+00 0. -1.
         11    1    3    3    0    0 -0.44448568830E+01  0.32386003290E+01  0.11528196906E+01  0.56190994209E+01  0.51100000000E-03 0. -1.
        -11    1    3    3    0    0  0.41816617726E+01  0.43475619128E+01 -0.24601810544E+02  0.25330548199E+02  0.51100000000E-03 0.  1.
        -12    1    3    3    0    0 -0.11330659238E+02  0.12482182437E+02 -0.99577456447E+01  0.19579208756E+02  0.00000000000E+00 0.  1.
</event>
<event>
 7    1  0.6046695E-013  0.5052886E+02  0.7816164E-02  0.1300439E+00
        -11   -1    0    0    0    0  0.00000000000E+00  0.00000000000E+00  0.45593999997E+02  0.45594000000E+02  0.51100000000E-03 0.  1.
         11   -1    0    0    0    0 -0.00000000000E+00 -0.00000000000E+00 -0.45593999997E+02  0.45594000000E+02  0.51100000000E-03 0. -1.
    9900012    2    1    2    0    0 -0.33904206050E+02  0.20838198895E+02 -0.83330786780E+01  0.50528856855E+02  0.29999990896E+02 0.  0.
         12    1    1    2    0    0  0.33904206050E+02 -0.20838198895E+02  0.83330786780E+01  0.40659143145E+02  0.00000000000E+00 0. -1.
         11    1    3    3    0    0 -0.21607081251E+02 -0.36233973979E+01 -0.31863843252E+01  0.22139286669E+02  0.51100000000E-03 0. -1.
        -11    1    3    3    0    0 -0.42236182959E+01  0.74736028528E+01 -0.42000737548E+01  0.95568986035E+01  0.51100000000E-03 0.  1.
         12    1    3    3    0    0 -0.80735065029E+01  0.16987993440E+02 -0.94662059804E+00  0.18832671582E+02  0.00000000000E+00 0. -1.
</event>
<event>
 7    1  0.6046695E-013  0.5052887E+02  0.7816164E-02  0.1300439E+00
        -11   -1    0    0    0    0  0.00000000000E+00  0.00000000000E+00  0.45593999997E+02  0.45594000000E+02  0.51100000000E-03 0.  1.
         11   -1    0    0    0    0 -0.00000000000E+00 -0.00000000000E+00 -0.45593999997E+02  0.45594000000E+02  0.51100000000E-03 0. -1.
    9900012    2    1    2    0    0 -0.38439042553E+01 -0.73914341208E+01  0.39796434816E+02  0.50528866680E+02  0.30000020761E+02 0.  0.
         12    1    1    2    0    0  0.38439042553E+01  0.73914341208E+01 -0.39796434816E+02  0.40659133320E+02  0.00000000000E+00 0. -1.
         11    1    3    3    0    0 -0.45626715164E+01  0.63178133083E+01  0.13696177115E+02  0.15758109156E+02  0.51100000000E-03 0. -1.
        -11    1    3    3    0    0 -0.51388836137E+01 -0.12044870377E+02  0.25481987359E+02  0.28649933808E+02  0.51100000000E-03 0.  1.
        -12    1    3    3    0    0  0.58576508748E+01 -0.16643770524E+01  0.61827034213E+00  0.61208237158E+01  0.00000000000E+00 0.  1.
</event>
<event>
 7    1  0.6046695E-013  0.5052888E+02  0.7816164E-02  0.1300439E+00
        -11   -1    0    0    0    0  0.00000000000E+00  0.00000000000E+00  0.45593999997E+02  0.45594000000E+02  0.51100000000E-03 0.  1.
         11   -1    0    0    0    0 -0.00000000000E+00 -0.00000000000E+00 -0.45593999997E+02  0.45594000000E+02  0.51100000000E-03 0. -1.
    9900012    2    1    2    0    0 -0.55495658159E+01  0.10766609678E+02  0.38812970678E+02  0.50528877315E+02  0.30000053085E+02 0.  0.
         12    1    1    2    0    0  0.55495658159E+01 -0.10766609678E+02 -0.38812970678E+02  0.40659122685E+02  0.00000000000E+00 0. -1.
         11    1    3    3    0    0 -0.53632234157E+00 -0.26117326252E+01  0.44411059001E+00  0.27029656744E+01  0.51100000000E-03 0. -1.
        -11    1    3    3    0    0  0.88865027154E+01  0.99244630868E+01  0.24508378508E+02  0.27894901244E+02  0.51100000000E-03 0.  1.
        -12    1    3    3    0    0 -0.13899746190E+02  0.34538792167E+01  0.13860481580E+02  0.19931010396E+02  0.00000000000E+00 0.  1.
</event>
<event>
 7    1  0.6046695E-013  0.5052882E+02  0.7816164E-02  0.1300439E+00
        -11   -1    0    0    0    0  0.00000000000E+00  0.00000000000E+00  0.45593999997E+02  0.45594000000E+02  0.51100000000E-03 0.  1.
         11   -1    0    0    0    0 -0.00000000000E+00 -0.00000000000E+00 -0.45593999997E+02  0.45594000000E+02  0.51100000000E-03 0. -1.
    9900012    2    1    2    0    0  0.23195444173E+02 -0.25830818242E+02 -0.21163870734E+02  0.50528816217E+02  0.29999867374E+02 0.  0.
         12    1    1    2    0    0 -0.23195444173E+02  0.25830818242E+02  0.21163870734E+02  0.40659183783E+02  0.00000000000E+00 0. -1.
         11    1    3    3    0    0  0.10319327725E+02 -0.10851946118E+01 -0.19553354932E+02  0.22135940490E+02  0.51100000000E-03 0. -1.
        -11    1    3    3    0    0  0.55784108370E+01 -0.15342417370E+02  0.35463260278E+00  0.16328937588E+02  0.51100000000E-03 0.  1.
         12    1    3    3    0    0  0.72977056110E+01 -0.94032062608E+01 -0.19651484048E+01  0.12063938139E+02  0.00000000000E+00 0. -1.
</event>
<event>
 7    1  0.6046695E-013  0.5052886E+02  0.7816164E-02  0.1300439E+00
        -11   -1    0    0    0    0  0.00000000000E+00  0.00000000000E+00  0.45593999997E+02  0.45594000000E+02  0.51100000000E-03 0.  1.
         11   -1    0    0    0    0 -0.00000000000E+00 -0.00000000000E+00 -0.45593999997E+02  0.45594000000E+02  0.51100000000E-03 0. -1.
    9900012    2    1    2    0    0 -0.16140579954E+02  0.25258325518E+02  0.27471153952E+02  0.50528860453E+02  0.30000001833E+02 0.  0.
         12    1    1    2    0    0  0.16140579954E+02 -0.25258325518E+02 -0.27471153952E+02  0.40659139547E+02  0.00000000000E+00 0. -1.
         11    1    3    3    0    0 -0.19353345047E+02  0.14097837747E+02  0.18974991597E+02  0.30550798681E+02  0.51100000000E-03 0. -1.
        -11    1    3    3    0    0  0.72991281134E+00 -0.24131847178E+01  0.52179743197E+01  0.57951263538E+01  0.51100000000E-03 0.  1.
         12    1    3    3    0    0  0.24828522822E+01  0.13573672489E+02  0.32781880357E+01  0.14182935418E+02  0.00000000000E+00 0. -1.
</event>
<event>
 7    1  0.6046695E-013  0.5052885E+02  0.7816164E-02  0.1300439E+00
        -11   -1    0    0    0    0  0.00000000000E+00  0.00000000000E+00  0.45593999997E+02  0.45594000000E+02  0.51100000000E-03 0. -1.
         11   -1    0    0    0    0 -0.00000000000E+00 -0.00000000000E+00 -0.45593999997E+02  0.45594000000E+02  0.51100000000E-03 0.  1.
    9900012    2    1    2    0    0  0.39411568917E+01 -0.19587889216E+02 -0.35411138104E+02  0.50528845762E+02  0.29999957177E+02 0.  0.
         12    1    1    2    0    0 -0.39411568917E+01  0.19587889216E+02  0.35411138104E+02  0.40659154238E+02  0.00000000000E+00 0. -1.
         11    1    3    3    0    0 -0.13906876006E+01 -0.14765670578E+01  0.49124818929E+01  0.53147663061E+01  0.51100000000E-03 0. -1.
        -11    1    3    3    0    0 -0.35177564313E+00 -0.10078325899E+02 -0.15292877049E+02  0.18318528536E+02  0.51100000000E-03 0.  1.
         12    1    3    3    0    0  0.56836201354E+01 -0.80329962585E+01 -0.25030742948E+02  0.26895550919E+02  0.00000000000E+00 0. -1.
</event>
<event>
 7    1  0.6046695E-013  0.5052886E+02  0.7816164E-02  0.1300439E+00
        -11   -1    0    0    0    0  0.00000000000E+00  0.00000000000E+00  0.45593999997E+02  0.45594000000E+02  0.51100000000E-03 0.  1.
         11   -1    0    0    0    0 -0.00000000000E+00 -0.00000000000E+00 -0.45593999997E+02  0.45594000000E+02  0.51100000000E-03 0. -1.
    9900012    2    1    2    0    0 -0.54401874152E+01 -0.17238178158E+02  0.36419985833E+02  0.50528858428E+02  0.29999995677E+02 0.  0.
         12    1    1    2    0    0  0.54401874152E+01  0.17238178158E+02 -0.36419985833E+02  0.40659141572E+02  0.00000000000E+00 0. -1.
         11    1    3    3    0    0  0.20940496482E+01  0.72706006423E+01  0.13195479655E+02  0.15210764650E+02  0.51100000000E-03 0. -1.
        -11    1    3    3    0    0 -0.61407851399E+01 -0.16468389309E+02  0.11393636110E+02  0.20945931171E+02  0.51100000000E-03 0.  1.
         12    1    3    3    0    0 -0.13934519236E+01 -0.80403894915E+01  0.11830870068E+02  0.14372162607E+02  0.00000000000E+00 0. -1.
</event>
<event>
 7    1  0.6046695E-013  0.5052884E+02  0.7816164E-02  0.1300439E+00
        -11   -1    0    0    0    0  0.00000000000E+00  0.00000000000E+00  0.45593999997E+02  0.45594000000E+02  0.51100000000E-03 0. -1.
         11   -1    0    0    0    0 -0.00000000000E+00 -0.00000000000E+00 -0.45593999997E+02  0.45594000000E+02  0.51100000000E-03 0.  1.
    9900012    2    1    2    0    0  0.17572620886E+02 -0.36586675011E+02 -0.24052226390E+01  0.50528844954E+02  0.29999954721E+02 0.  0.
         12    1    1    2    0    0 -0.17572620886E+02  0.36586675011E+02  0.24052226390E+01  0.40659155046E+02  0.00000000000E+00 0. -1.
         11    1    3    3    0    0  0.45632893882E+01 -0.19980487185E+02 -0.13578728839E+02  0.24585063663E+02  0.51100000000E-03 0. -1.
        -11    1    3    3    0    0 -0.74681892112E+00 -0.68595739208E+00 -0.11715079616E+01  0.15494215727E+01  0.51100000000E-03 0.  1.
         12    1    3    3    0    0  0.13756150419E+02 -0.15920230434E+02  0.12345014161E+02  0.24394359718E+02  0.00000000000E+00 0. -1.
</event>
<event>
 7    1  0.6046695E-013  0.5052887E+02  0.7816164E-02  0.1300439E+00
        -11   -1    0    0    0    0  0.00000000000E+00  0.00000000000E+00  0.45593999997E+02  0.45594000000E+02  0.51100000000E-03 0.  1.
         11   -1    0    0    0    0 -0.00000000000E+00 -0.00000000000E+00 -0.45593999997E+02  0.45594000000E+02  0.51100000000E-03 0. -1.
    9900012    2    1    2    0    0 -0.29567289381E+02 -0.25283028111E+02  0.11819834050E+02  0.50528873241E+02  0.30000040704E+02 0.  0.
         12    1    1    2    0    0  0.29567289381E+02  0.25283028111E+02 -0.11819834050E+02  0.40659126759E+02  0.00000000000E+00 0. -1.
         11    1    3    3    0    0 -0.91417834844E+01 -0.12835202170E+02  0.15380887447E+02  0.22020134399E+02  0.51100000000E-03 0.  1.
        -11    1    3    3    0    0 -0.22259650062E+02 -0.11889600549E+02 -0.92980443779E+00  0.25253101961E+02  0.51100000000E-03 0. -1.
         12    1    3    3    0    0  0.18341441658E+01 -0.55822539221E+00 -0.26312489601E+01  0.32556368808E+01  0.00000000000E+00 0. -1.
</event>
<event>
 7    1  0.6046695E-013  0.5052889E+02  0.7816164E-02  0.1300439E+00
        -11   -1    0    0    0    0  0.00000000000E+00  0.00000000000E+00  0.45593999997E+02  0.45594000000E+02  0.51100000000E-03 0.  1.
         11   -1    0    0    0    0 -0.00000000000E+00 -0.00000000000E+00 -0.45593999997E+02  0.45594000000E+02  0.51100000000E-03 0. -1.
    9900012    2    1    2    0    0 -0.14073974746E+02 -0.27697016507E+02  0.26229030525E+02  0.50528886252E+02  0.30000080251E+02 0.  0.
         12    1    1    2    0    0  0.14073974746E+02  0.27697016507E+02 -0.26229030525E+02  0.40659113748E+02  0.00000000000E+00 0. -1.
         11    1    3    3    0    0 -0.67488398036E+01 -0.51451516288E-01  0.31161241750E+01  0.74336879197E+01  0.51100000000E-03 0. -1.
        -11    1    3    3    0    0  0.62918124355E+01 -0.86012913826E+01  0.69233976062E+00  0.10679346973E+02  0.51100000000E-03 0.  1.
        -12    1    3    3    0    0 -0.13616947378E+02 -0.19044273608E+02  0.22420566589E+02  0.32415851359E+02  0.00000000000E+00 0.  1.
</event>
<event>
 7    1  0.6046695E-013  0.5052885E+02  0.7816164E-02  0.1300439E+00
        -11   -1    0    0    0    0  0.00000000000E+00  0.00000000000E+00  0.45593999997E+02  0.45594000000E+02  0.51100000000E-03 0.  1.
         11   -1    0    0    0    0 -0.00000000000E+00 -0.00000000000E+00 -0.45593999997E+02  0.45594000000E+02  0.51100000000E-03 0. -1.
    9900012    2    1    2    0    0  0.26704686603E+02  0.12527536738E+02  0.27983692105E+02  0.50528849897E+02  0.29999969748E+02 0.  0.
         12    1    1    2    0    0 -0.26704686603E+02 -0.12527536738E+02 -0.27983692105E+02  0.40659150103E+02  0.00000000000E+00 0. -1.
         11    1    3    3    0    0  0.16275723760E+02  0.14124734455E+02  0.15964876254E+02  0.26819481379E+02  0.51100000000E-03 0. -1.
        -11    1    3    3    0    0 -0.95212573649E+00 -0.43277070574E+01  0.11120556059E+02  0.11970896338E+02  0.51100000000E-03 0.  1.
        -12    1    3    3    0    0  0.11381088579E+02  0.27305093405E+01  0.89825979086E+00  0.11738472181E+02  0.00000000000E+00 0.  1.
</event>
<event>
 7    1  0.6046695E-013  0.5052884E+02  0.7816164E-02  0.1300439E+00
        -11   -1    0    0    0    0  0.00000000000E+00  0.00000000000E+00  0.45593999997E+02  0.45594000000E+02  0.51100000000E-03 0.  1.
         11   -1    0    0    0    0 -0.00000000000E+00 -0.00000000000E+00 -0.45593999997E+02  0.45594000000E+02  0.51100000000E-03 0. -1.
    9900012    2    1    2    0    0 -0.81711562183E+01 -0.28453195867E+02  0.27871400172E+02  0.50528842402E+02  0.29999946966E+02 0.  0.
         12    1    1    2    0    0  0.81711562183E+01  0.28453195867E+02 -0.27871400172E+02  0.40659157598E+02  0.00000000000E+00 0. -1.
         11    1    3    3    0    0 -0.14376894643E+02 -0.13480916808E+02  0.69577204624E+01  0.20900719888E+02  0.51100000000E-03 0. -1.
        -11    1    3    3    0    0  0.60454063980E+01 -0.13257644134E+02  0.80442430295E+01  0.16643975266E+02  0.51100000000E-03 0.  1.
         12    1    3    3    0    0  0.16033202667E+00 -0.17146349255E+01  0.12869436680E+02  0.12984147247E+02  0.00000000000E+00 0. -1.
</event>
<event>
 7    1  0.6046695E-013  0.5052884E+02  0.7816164E-02  0.1300439E+00
        -11   -1    0    0    0    0  0.00000000000E+00  0.00000000000E+00  0.45593999997E+02  0.45594000000E+02  0.51100000000E-03 0.  1.
         11   -1    0    0    0    0 -0.00000000000E+00 -0.00000000000E+00 -0.45593999997E+02  0.45594000000E+02  0.51100000000E-03 0. -1.
    9900012    2    1    2    0    0  0.12348462534E+02  0.30981108317E+02  0.23256261918E+02  0.50528839681E+02  0.29999938693E+02 0.  0.
         12    1    1    2    0    0 -0.12348462534E+02 -0.30981108317E+02 -0.23256261918E+02  0.40659160319E+02  0.00000000000E+00 0. -1.
         11    1    3    3    0    0 -0.17594214583E+01  0.27093323388E+02  0.12853241743E+02  0.30039133803E+02  0.51100000000E-03 0. -1.
        -11    1    3    3    0    0  0.48038475015E+00  0.10931801021E+01  0.56717048373E+01  0.57960372900E+01  0.51100000000E-03 0.  1.
         12    1    3    3    0    0  0.13627499243E+02  0.27946048264E+01  0.47313153375E+01  0.14693668588E+02  0.00000000000E+00 0. -1.
</event>
<event>
 7    1  0.6046695E-013  0.5052886E+02  0.7816164E-02  0.1300439E+00
        -11   -1    0    0    0    0  0.00000000000E+00  0.00000000000E+00  0.45593999997E+02  0.45594000000E+02  0.51100000000E-03 0. -1.
         11   -1    0    0    0    0 -0.00000000000E+00 -0.00000000000E+00 -0.45593999997E+02  0.45594000000E+02  0.51100000000E-03 0.  1.
    9900012    2    1    2    0    0  0.34927112091E+02 -0.31466915145E+01  0.20575740200E+02  0.50528856978E+02  0.29999991272E+02 0.  0.
         12    1    1    2    0    0 -0.34927112091E+02  0.31466915145E+01 -0.20575740200E+02  0.40659143022E+02  0.00000000000E+00 0. -1.
         11    1    3    3    0    0  0.43433186432E+01  0.35156843339E+01  0.10614605478E+02  0.11995595145E+02  0.51100000000E-03 0. -1.
        -11    1    3    3    0    0  0.31577906335E+02 -0.10208249303E+02  0.72746244477E+01  0.33974883126E+02  0.51100000000E-03 0.  1.
        -12    1    3    3    0    0 -0.99411288738E+00  0.35458734543E+01  0.26865102744E+01  0.45583787075E+01  0.00000000000E+00 0.  1.
</event>
<event>
 7    1  0.6046695E-013  0.5052886E+02  0.7816164E-02  0.1300439E+00
        -11   -1    0    0    0    0  0.00000000000E+00  0.00000000000E+00  0.45593999997E+02  0.45594000000E+02  0.51100000000E-03 0.  1.
         11   -1    0    0    0    0 -0.00000000000E+00 -0.00000000000E+00 -0.45593999997E+02  0.45594000000E+02  0.51100000000E-03 0. -1.
    9900012    2    1    2    0    0 -0.22516216193E+02  0.21990075101E+02  0.25741451576E+02  0.50528859284E+02  0.29999998279E+02 0.  0.
         12    1    1    2    0    0  0.22516216193E+02 -0.21990075101E+02 -0.25741451576E+02  0.40659140716E+02  0.00000000000E+00 0. -1.
         11    1    3    3    0    0  0.54640538106E+01  0.11682333836E+01  0.38592089512E+01  0.67907398179E+01  0.51100000000E-03 0. -1.
        -11    1    3    3    0    0 -0.28591536534E+02  0.18337735931E+02  0.16464789627E+02  0.37747023965E+02  0.51100000000E-03 0.  1.
        -12    1    3    3    0    0  0.61126653075E+00  0.24841057856E+01  0.54174529969E+01  0.59910955008E+01  0.00000000000E+00 0.  1.
</event>
<event>
 7    1  0.6046695E-013  0.5052886E+02  0.7816164E-02  0.1300439E+00
        -11   -1    0    0    0    0  0.00000000000E+00  0.00000000000E+00  0.45593999997E+02  0.45594000000E+02  0.51100000000E-03 0.  1.
         11   -1    0    0    0    0 -0.00000000000E+00 -0.00000000000E+00 -0.45593999997E+02  0.45594000000E+02  0.51100000000E-03 0. -1.
    9900012    2    1    2    0    0 -0.16317546806E+02 -0.36190188458E+02  0.87848696481E+01  0.50528855775E+02  0.29999987614E+02 0.  0.
         12    1    1    2    0    0  0.16317546806E+02  0.36190188458E+02 -0.87848696481E+01  0.40659144225E+02  0.00000000000E+00 0. -1.
         11    1    3    3    0    0  0.47753860066E+01 -0.66697778524E+01  0.34942570067E+00  0.82105022193E+01  0.51100000000E-03 0. -1.
        -11    1    3    3    0    0 -0.15832196698E+02 -0.74726300955E+01 -0.14969430706E+01  0.17570984367E+02  0.51100000000E-03 0.  1.
        -12    1    3    3    0    0 -0.52607361144E+01 -0.22047780510E+02  0.99323870181E+01  0.24747369189E+02  0.00000000000E+00 0.  1.
</event>
<event>
 7    1  0.6046695E-013  0.5052885E+02  0.7816164E-02  0.1300439E+00
        -11   -1    0    0    0    0  0.00000000000E+00  0.00000000000E+00  0.45593999997E+02  0.45594000000E+02  0.51100000000E-03 0. -1.
         11   -1    0    0    0    0 -0.00000000000E+00 -0.00000000000E+00 -0.45593999997E+02  0.45594000000E+02  0.51100000000E-03 0.  1.
    9900012    2    1    2    0    0  0.11814004518E+02  0.38819976095E+02 -0.25701415238E+01  0.50528845136E+02  0.29999955276E+02 0.  0.
         12    1    1    2    0    0 -0.11814004518E+02 -0.38819976095E+02  0.25701415238E+01  0.40659154864E+02  0.00000000000E+00 0. -1.
         11    1    3    3    0    0 -0.34969730994E+01  0.87238667005E+01 -0.81366273731E+01  0.12431386742E+02  0.51100000000E-03 0. -1.
        -11    1    3    3    0    0  0.16612380349E+02  0.21013078399E+02 -0.10143230123E+01  0.26805773559E+02  0.51100000000E-03 0.  1.
         12    1    3    3    0    0 -0.13014027316E+01  0.90830309954E+01  0.65808088616E+01  0.11291684835E+02  0.00000000000E+00 0. -1.
</event>
<event>
 7    1  0.7315062E-013  0.5052884E+02  0.7816164E-02  0.1300439E+00
        -11   -1    0    0    0    0  0.00000000000E+00  0.00000000000E+00  0.45593999997E+02  0.45594000000E+02  0.51100000000E-03 0. -1.
         11   -1    0    0    0    0 -0.00000000000E+00 -0.00000000000E+00 -0.45593999997E+02  0.45594000000E+02  0.51100000000E-03 0.  1.
    9900012    2    1    2    0    0  0.33945227842E+02 -0.21860238172E+02  0.47977509547E+01  0.50528844568E+02  0.29999953550E+02 0.  0.
         12    1    1    2    0    0 -0.33945227842E+02  0.21860238172E+02 -0.47977509547E+01  0.40659155432E+02  0.00000000000E+00 0. -1.
         11    1    3    3    0    0 -0.27421046159E+01 -0.71560643283E+01 -0.41730816806E+01  0.87259959529E+01  0.51100000000E-03 0. -1.
        -11    1    3    3    0    0  0.17882288335E+02 -0.77160111863E+01 -0.79173617930E+00  0.19492047383E+02  0.51100000000E-03 0.  1.
         12    1    3    3    0    0  0.18805044123E+02 -0.69881626573E+01  0.97625688146E+01  0.22310801233E+02  0.00000000000E+00 0. -1.
</event>
<event>
 7    1  0.6046695E-013  0.5052884E+02  0.7816164E-02  0.1300439E+00
        -11   -1    0    0    0    0  0.00000000000E+00  0.00000000000E+00  0.45593999997E+02  0.45594000000E+02  0.51100000000E-03 0.  1.
         11   -1    0    0    0    0 -0.00000000000E+00 -0.00000000000E+00 -0.45593999997E+02  0.45594000000E+02  0.51100000000E-03 0. -1.
    9900012    2    1    2    0    0  0.37535468664E+02  0.15419347241E+02  0.25494013204E+01  0.50528842062E+02  0.29999945932E+02 0.  0.
         12    1    1    2    0    0 -0.37535468664E+02 -0.15419347241E+02 -0.25494013204E+01  0.40659157938E+02  0.00000000000E+00 0. -1.
         11    1    3    3    0    0 -0.24546682852E+01 -0.64583912951E+00 -0.28783835071E+01  0.38376550714E+01  0.51100000000E-03 0.  1.
        -11    1    3    3    0    0  0.21102345495E+02  0.76373049515E+01  0.11389106181E+02  0.25166429071E+02  0.51100000000E-03 0. -1.
        -12    1    3    3    0    0  0.18887791454E+02  0.84278814185E+01 -0.59613213538E+01  0.21524757920E+02  0.00000000000E+00 0.  1.
</event>
<event>
 7    1  0.6046695E-013  0.5052887E+02  0.7816164E-02  0.1300439E+00
        -11   -1    0    0    0    0  0.00000000000E+00  0.00000000000E+00  0.45593999997E+02  0.45594000000E+02  0.51100000000E-03 0.  1.
         11   -1    0    0    0    0 -0.00000000000E+00 -0.00000000000E+00 -0.45593999997E+02  0.45594000000E+02  0.51100000000E-03 0. -1.
    9900012    2    1    2    0    0 -0.40079505842E+01 -0.38155254323E+02  0.13463950084E+02  0.50528867542E+02  0.30000023381E+02 0.  0.
         12    1    1    2    0    0  0.40079505842E+01  0.38155254323E+02 -0.13463950084E+02  0.40659132458E+02  0.00000000000E+00 0. -1.
         11    1    3    3    0    0  0.37979462747E+01 -0.82571186209E-02  0.39556010371E+01  0.54837253680E+01  0.51100000000E-03 0. -1.
        -11    1    3    3    0    0 -0.19839139534E+01 -0.37592136095E+02  0.57188236839E+01  0.38076364787E+02  0.51100000000E-03 0.  1.
        -12    1    3    3    0    0 -0.58219829056E+01 -0.55486110959E+00  0.37895253628E+01  0.69687773877E+01  0.00000000000E+00 0.  1.
</event>
<event>
 7    1  0.6383725E-013  0.5052886E+02  0.7816164E-02  0.1300439E+00
        -11   -1    0    0    0    0  0.00000000000E+00  0.00000000000E+00  0.45593999997E+02  0.45594000000E+02  0.51100000000E-03 0. -1.
         11   -1    0    0    0    0 -0.00000000000E+00 -0.00000000000E+00 -0.45593999997E+02  0.45594000000E+02  0.51100000000E-03 0.  1.
    9900012    2    1    2    0    0 -0.12498771181E+02 -0.11761382517E+02 -0.36859413278E+02  0.50528858999E+02  0.29999997414E+02 0.  0.
         12    1    1    2    0    0  0.12498771181E+02  0.11761382517E+02  0.36859413278E+02  0.40659141001E+02  0.00000000000E+00 0. -1.
         11    1    3    3    0    0  0.59934837304E+01  0.22233676267E+00 -0.32403103441E+01  0.68169562306E+01  0.51100000000E-03 0. -1.
        -11    1    3    3    0    0 -0.12841133441E+02 -0.16286818575E+02 -0.26551277345E+02  0.33691623532E+02  0.51100000000E-03 0.  1.
         12    1    3    3    0    0 -0.56511214696E+01  0.43030992955E+01 -0.70678255893E+01  0.10020279236E+02  0.00000000000E+00 0. -1.
</event>
<event>
 7    1  0.6046695E-013  0.5052889E+02  0.7816164E-02  0.1300439E+00
        -11   -1    0    0    0    0  0.00000000000E+00  0.00000000000E+00  0.45593999997E+02  0.45594000000E+02  0.51100000000E-03 0.  1.
         11   -1    0    0    0    0 -0.00000000000E+00 -0.00000000000E+00 -0.45593999997E+02  0.45594000000E+02  0.51100000000E-03 0. -1.
    9900012    2    1    2    0    0  0.25058585076E+02 -0.23975338810E+02  0.21222951955E+02  0.50528889745E+02  0.30000090869E+02 0.  0.
         12    1    1    2    0    0 -0.25058585076E+02  0.23975338810E+02 -0.21222951955E+02  0.40659110255E+02  0.00000000000E+00 0. -1.
         11    1    3    3    0    0 -0.17940233047E+01 -0.16431402727E+01 -0.18210015816E+00  0.24395881419E+01  0.51100000000E-03 0. -1.
        -11    1    3    3    0    0  0.23389061727E+02 -0.15415110211E+02  0.30584535682E+01  0.28178501908E+02  0.51100000000E-03 0.  1.
        -12    1    3    3    0    0  0.34635466534E+01 -0.69170883262E+01  0.18346598545E+02  0.19910799695E+02  0.00000000000E+00 0.  1.
</event>
<event>
 7    1  0.6046695E-013  0.5052886E+02  0.7816164E-02  0.1300439E+00
        -11   -1    0    0    0    0  0.00000000000E+00  0.00000000000E+00  0.45593999997E+02  0.45594000000E+02  0.51100000000E-03 0. -1.
         11   -1    0    0    0    0 -0.00000000000E+00 -0.00000000000E+00 -0.45593999997E+02  0.45594000000E+02  0.51100000000E-03 0.  1.
    9900012    2    1    2    0    0 -0.24883339390E+02  0.35517168270E+01 -0.31958883677E+02  0.50528861821E+02  0.30000005991E+02 0.  0.
         12    1    1    2    0    0  0.24883339390E+02 -0.35517168270E+01  0.31958883677E+02  0.40659138179E+02  0.00000000000E+00 0. -1.
         11    1    3    3    0    0 -0.16432304447E+02 -0.21119472237E+01 -0.10506873471E+02  0.19618240005E+02  0.51100000000E-03 0. -1.
        -11    1    3    3    0    0 -0.77180357113E+01  0.12276930472E+02 -0.98314256787E+01  0.17519932311E+02  0.51100000000E-03 0.  1.
        -12    1    3    3    0    0 -0.73299923104E+00 -0.66132664213E+01 -0.11620584528E+02  0.13390689504E+02  0.00000000000E+00 0.  1.
</event>
<event>
 7    1  0.6046695E-013  0.5052884E+02  0.7816164E-02  0.1300439E+00
        -11   -1    0    0    0    0  0.00000000000E+00  0.00000000000E+00  0.45593999997E+02  0.45594000000E+02  0.51100000000E-03 0. -1.
         11   -1    0    0    0    0 -0.00000000000E+00 -0.00000000000E+00 -0.45593999997E+02  0.45594000000E+02  0.51100000000E-03 0.  1.
    9900012    2    1    2    0    0 -0.44260798432E+01  0.20551174921E+02 -0.34802680529E+02  0.50528836883E+02  0.29999930188E+02 0.  0.
         12    1    1    2    0    0  0.44260798432E+01 -0.20551174921E+02  0.34802680529E+02  0.40659163117E+02  0.00000000000E+00 0. -1.
         11    1    3    3    0    0 -0.11408412491E+02  0.42613107409E-01 -0.15585032534E+02  0.19314422869E+02  0.51100000000E-03 0. -1.
        -11    1    3    3    0    0  0.38177344149E+01  0.20696413301E+02 -0.14602781731E+02  0.25615578349E+02  0.51100000000E-03 0.  1.
         12    1    3    3    0    0  0.31645982328E+01 -0.18785148829E+00 -0.46148662639E+01  0.55988356638E+01  0.00000000000E+00 0. -1.
</event>
<event>
 7    1  0.6046695E-013  0.5052885E+02  0.7816164E-02  0.1300439E+00
        -11   -1    0    0    0    0  0.00000000000E+00  0.00000000000E+00  0.45593999997E+02  0.45594000000E+02  0.51100000000E-03 0.  1.
         11   -1    0    0    0    0 -0.00000000000E+00 -0.00000000000E+00 -0.45593999997E+02  0.45594000000E+02  0.51100000000E-03 0. -1.
    9900012    2    1    2    0    0 -0.24701845063E+01 -0.40363725800E+02  0.42230435984E+01  0.50528852577E+02  0.29999977892E+02 0.  0.
         12    1    1    2    0    0  0.24701845063E+01  0.40363725800E+02 -0.42230435984E+01  0.40659147423E+02  0.00000000000E+00 0. -1.
         11    1    3    3    0    0 -0.30314263193E+01 -0.24391096727E+02 -0.67781714618E+01  0.25496249797E+02  0.51100000000E-03 0. -1.
        -11    1    3    3    0    0 -0.50623961295E+01 -0.12163208236E+01  0.70323322074E+01  0.87499135683E+01  0.51100000000E-03 0.  1.
         12    1    3    3    0    0  0.56236379425E+01 -0.14756308249E+02  0.39688828528E+01  0.16282689211E+02  0.00000000000E+00 0. -1.
</event>
<event>
 7    1  0.6046695E-013  0.5052886E+02  0.7816164E-02  0.1300439E+00
        -11   -1    0    0    0    0  0.00000000000E+00  0.00000000000E+00  0.45593999997E+02  0.45594000000E+02  0.51100000000E-03 0.  1.
         11   -1    0    0    0    0 -0.00000000000E+00 -0.00000000000E+00 -0.45593999997E+02  0.45594000000E+02  0.51100000000E-03 0. -1.
    9900012    2    1    2    0    0  0.13877508151E+02  0.31428856464E+01  0.38088088141E+02  0.50528863008E+02  0.30000009599E+02 0.  0.
         12    1    1    2    0    0 -0.13877508151E+02 -0.31428856464E+01 -0.38088088141E+02  0.40659136992E+02  0.00000000000E+00 0. -1.
         11    1    3    3    0    0  0.24731460057E+01 -0.93740545725E+01  0.44846995184E+01  0.10681848170E+02  0.51100000000E-03 0. -1.
        -11    1    3    3    0    0  0.10591745163E+02  0.29031775147E+01  0.12477701091E+02  0.16622470636E+02  0.51100000000E-03 0.  1.
         12    1    3    3    0    0  0.81261698297E+00  0.96137627043E+01  0.21125687532E+02  0.23224544202E+02  0.00000000000E+00 0. -1.
</event>
<event>
 7    1  0.6046695E-013  0.5052882E+02  0.7816164E-02  0.1300439E+00
        -11   -1    0    0    0    0  0.00000000000E+00  0.00000000000E+00  0.45593999997E+02  0.45594000000E+02  0.51100000000E-03 0. -1.
         11   -1    0    0    0    0 -0.00000000000E+00 -0.00000000000E+00 -0.45593999997E+02  0.45594000000E+02  0.51100000000E-03 0.  1.
    9900012    2    1    2    0    0 -0.34503624432E+02  0.20699484289E+02 -0.58480619399E+01  0.50528824194E+02  0.29999891620E+02 0.  0.
         12    1    1    2    0    0  0.34503624432E+02 -0.20699484289E+02  0.58480619399E+01  0.40659175806E+02  0.00000000000E+00 0. -1.
         11    1    3    3    0    0 -0.11520411168E+02 -0.66539056429E+01 -0.83590578259E+00  0.13330156508E+02  0.51100000000E-03 0. -1.
        -11    1    3    3    0    0 -0.10193294136E+02  0.72044514153E+01  0.11944872198E+01  0.12539304826E+02  0.51100000000E-03 0.  1.
         12    1    3    3    0    0 -0.12789919128E+02  0.20148938517E+02 -0.62066433771E+01  0.24659362860E+02  0.00000000000E+00 0. -1.
</event>
<event>
 7    1  0.6046695E-013  0.5052885E+02  0.7816164E-02  0.1300439E+00
        -11   -1    0    0    0    0  0.00000000000E+00  0.00000000000E+00  0.45593999997E+02  0.45594000000E+02  0.51100000000E-03 0.  1.
         11   -1    0    0    0    0 -0.00000000000E+00 -0.00000000000E+00 -0.45593999997E+02  0.45594000000E+02  0.51100000000E-03 0. -1.
    9900012    2    1    2    0    0  0.18282452501E+01 -0.31085261424E+02  0.26144416405E+02  0.50528850136E+02  0.29999970473E+02 0.  0.
         12    1    1    2    0    0 -0.18282452501E+01  0.31085261424E+02 -0.26144416405E+02  0.40659149864E+02  0.00000000000E+00 0. -1.
         11    1    3    3    0    0 -0.88363621987E+01 -0.70425746520E+01  0.18502391056E+01  0.11450001731E+02  0.51100000000E-03 0. -1.
        -11    1    3    3    0    0  0.98437994873E+01 -0.25619337092E+02  0.18703819128E+02  0.33212703467E+02  0.51100000000E-03 0.  1.
         12    1    3    3    0    0  0.82080796148E+00  0.15766503196E+01  0.55903581714E+01  0.58661449372E+01  0.00000000000E+00 0. -1.
</event>
<event>
 7    1  0.6046695E-013  0.5052887E+02  0.7816164E-02  0.1300439E+00
        -11   -1    0    0    0    0  0.00000000000E+00  0.00000000000E+00  0.45593999997E+02  0.45594000000E+02  0.51100000000E-03 0. -1.
         11   -1    0    0    0    0 -0.00000000000E+00 -0.00000000000E+00 -0.45593999997E+02  0.45594000000E+02  0.51100000000E-03 0.  1.
    9900012    2    1    2    0    0  0.33019730707E+02  0.11336231340E+02 -0.20841113532E+02  0.50528871011E+02  0.30000033924E+02 0.  0.
         12    1    1    2    0    0 -0.33019730707E+02 -0.11336231340E+02  0.20841113532E+02  0.40659128989E+02  0.00000000000E+00 0. -1.
         11    1    3    3    0    0  0.14121580311E+00 -0.35424185746E+01 -0.11773081198E+02  0.12295288220E+02  0.51100000000E-03 0. -1.
        -11    1    3    3    0    0  0.10552022382E+02  0.10184438501E+01 -0.57597272915E+00  0.10616692002E+02  0.51100000000E-03 0.  1.
         12    1    3    3    0    0  0.22326492522E+02  0.13860206064E+02 -0.84920596046E+01  0.27616890788E+02  0.00000000000E+00 0. -1.
</event>
<event>
 7    1  0.6046695E-013  0.5052879E+02  0.7816164E-02  0.1300439E+00
        -11   -1    0    0    0    0  0.00000000000E+00  0.00000000000E+00  0.45593999997E+02  0.45594000000E+02  0.51100000000E-03 0.  1.
         11   -1    0    0    0    0 -0.00000000000E+00 -0.00000000000E+00 -0.45593999997E+02  0.45594000000E+02  0.51100000000E-03 0. -1.
    9900012    2    1    2    0    0  0.99380120838E+00  0.39631232834E+02 -0.90304391496E+01  0.50528793318E+02  0.29999797768E+02 0.  0.
         12    1    1    2    0    0 -0.99380120838E+00 -0.39631232834E+02  0.90304391496E+01  0.40659206682E+02  0.00000000000E+00 0. -1.
         11    1    3    3    0    0 -0.47618711064E+01 -0.70299045076E+00 -0.14609442711E+01  0.50303052027E+01  0.51100000000E-03 0. -1.
        -11    1    3    3    0    0  0.91400932736E+01  0.39331873659E+02 -0.94900335395E+01  0.41480095557E+02  0.51100000000E-03 0.  1.
        -12    1    3    3    0    0 -0.33844209589E+01  0.10023496255E+01  0.19205386610E+01  0.40183925576E+01  0.00000000000E+00 0.  1.
</event>
<event>
 7    1  0.6046695E-013  0.5052882E+02  0.7816164E-02  0.1300439E+00
        -11   -1    0    0    0    0  0.00000000000E+00  0.00000000000E+00  0.45593999997E+02  0.45594000000E+02  0.51100000000E-03 0. -1.
         11   -1    0    0    0    0 -0.00000000000E+00 -0.00000000000E+00 -0.45593999997E+02  0.45594000000E+02  0.51100000000E-03 0.  1.
    9900012    2    1    2    0    0 -0.11442309599E+02 -0.37407150916E+02 -0.11088161465E+02  0.50528822521E+02  0.29999886533E+02 0.  0.
         12    1    1    2    0    0  0.11442309599E+02  0.37407150916E+02  0.11088161465E+02  0.40659177479E+02  0.00000000000E+00 0. -1.
         11    1    3    3    0    0 -0.75981886709E+01 -0.28401795062E+02 -0.19179397745E+02  0.35103329357E+02  0.51100000000E-03 0. -1.
        -11    1    3    3    0    0 -0.58389791623E+01 -0.93965611526E+01  0.72410093852E+01  0.13221998954E+02  0.51100000000E-03 0.  1.
        -12    1    3    3    0    0  0.19948582338E+01  0.39120529891E+00  0.85022689490E+00  0.22034942096E+01  0.00000000000E+00 0.  1.
</event>
<event>
 7    1  0.6046695E-013  0.5052887E+02  0.7816164E-02  0.1300439E+00
        -11   -1    0    0    0    0  0.00000000000E+00  0.00000000000E+00  0.45593999997E+02  0.45594000000E+02  0.51100000000E-03 0.  1.
         11   -1    0    0    0    0 -0.00000000000E+00 -0.00000000000E+00 -0.45593999997E+02  0.45594000000E+02  0.51100000000E-03 0. -1.
    9900012    2    1    2    0    0  0.19147262832E+02 -0.24113200088E+02  0.26553740351E+02  0.50528865491E+02  0.30000017146E+02 0.  0.
         12    1    1    2    0    0 -0.19147262832E+02  0.24113200088E+02 -0.26553740351E+02  0.40659134509E+02  0.00000000000E+00 0. -1.
         11    1    3    3    0    0 -0.19125410305E+01 -0.31690415049E+01 -0.42967505429E+01  0.56712170424E+01  0.51100000000E-03 0. -1.
        -11    1    3    3    0    0  0.12073362077E+02 -0.15263548080E+02  0.27540963527E+02  0.33723087701E+02  0.51100000000E-03 0.  1.
        -12    1    3    3    0    0  0.89864417853E+01 -0.56806105029E+01  0.33095273669E+01  0.11134560747E+02  0.00000000000E+00 0.  1.
</event>
<event>
 7    1  0.6046695E-013  0.5052886E+02  0.7816164E-02  0.1300439E+00
        -11   -1    0    0    0    0  0.00000000000E+00  0.00000000000E+00  0.45593999997E+02  0.45594000000E+02  0.51100000000E-03 0.  1.
         11   -1    0    0    0    0 -0.00000000000E+00 -0.00000000000E+00 -0.45593999997E+02  0.45594000000E+02  0.51100000000E-03 0. -1.
    9900012    2    1    2    0    0 -0.19152860169E+02  0.34350558848E+02  0.10313703374E+02  0.50528862981E+02  0.30000009518E+02 0.  0.
         12    1    1    2    0    0  0.19152860169E+02 -0.34350558848E+02 -0.10313703374E+02  0.40659137019E+02  0.00000000000E+00 0. -1.
         11    1    3    3    0    0 -0.11097304159E+02  0.69732655302E+01 -0.61867939410E+01  0.14493205694E+02  0.51100000000E-03 0. -1.
        -11    1    3    3    0    0  0.42007122101E+01  0.88793394442E+01  0.57003317319E+01  0.11357043372E+02  0.51100000000E-03 0.  1.
         12    1    3    3    0    0 -0.12256268221E+02  0.18497953873E+02  0.10800165583E+02  0.24678613916E+02  0.00000000000E+00 0. -1.
</event>
<event>
 7    1  0.6046695E-013  0.5052888E+02  0.7816164E-02  0.1300439E+00
        -11   -1    0    0    0    0  0.00000000000E+00  0.00000000000E+00  0.45593999997E+02  0.45594000000E+02  0.51100000000E-03 0.  1.
         11   -1    0    0    0    0 -0.00000000000E+00 -0.00000000000E+00 -0.45593999997E+02  0.45594000000E+02  0.51100000000E-03 0. -1.
    9900012    2    1    2    0    0 -0.14244405349E+02  0.28759807303E+02  0.24962653252E+02  0.50528884697E+02  0.30000075524E+02 0.  0.
         12    1    1    2    0    0  0.14244405349E+02 -0.28759807303E+02 -0.24962653252E+02  0.40659115303E+02  0.00000000000E+00 0. -1.
         11    1    3    3    0    0  0.16310862116E+01  0.16669522457E+02  0.62413586322E+00  0.16760756755E+02  0.51100000000E-03 0. -1.
        -11    1    3    3    0    0 -0.16658818077E+02  0.13484468168E+02  0.20713183237E+02  0.29805755511E+02  0.51100000000E-03 0.  1.
         12    1    3    3    0    0  0.78332651553E+00 -0.13941833224E+01  0.36253341521E+01  0.39623724309E+01  0.00000000000E+00 0. -1.
</event>
<event>
 7    1  0.6046695E-013  0.5052886E+02  0.7816164E-02  0.1300439E+00
        -11   -1    0    0    0    0  0.00000000000E+00  0.00000000000E+00  0.45593999997E+02  0.45594000000E+02  0.51100000000E-03 0. -1.
         11   -1    0    0    0    0 -0.00000000000E+00 -0.00000000000E+00 -0.45593999997E+02  0.45594000000E+02  0.51100000000E-03 0.  1.
    9900012    2    1    2    0    0 -0.87957834226E+01  0.82446709323E+01 -0.38830724819E+02  0.50528860870E+02  0.30000003102E+02 0.  0.
         12    1    1    2    0    0  0.87957834226E+01 -0.82446709323E+01  0.38830724819E+02  0.40659139130E+02  0.00000000000E+00 0. -1.
         11    1    3    3    0    0  0.28979473172E+01  0.43314518753E+01 -0.37189874770E+00  0.52247375954E+01  0.51100000000E-03 0. -1.
        -11    1    3    3    0    0 -0.89310089375E+01 -0.36677420250E+01 -0.35370620779E+02  0.36664643278E+02  0.51100000000E-03 0.  1.
        -12    1    3    3    0    0 -0.27627218023E+01  0.75809610820E+01 -0.30882052926E+01  0.86394799967E+01  0.00000000000E+00 0.  1.
</event>
<event>
 7    1  0.6046695E-013  0.5052886E+02  0.7816164E-02  0.1300439E+00
        -11   -1    0    0    0    0  0.00000000000E+00  0.00000000000E+00  0.45593999997E+02  0.45594000000E+02  0.51100000000E-03 0.  1.
         11   -1    0    0    0    0 -0.00000000000E+00 -0.00000000000E+00 -0.45593999997E+02  0.45594000000E+02  0.51100000000E-03 0. -1.
    9900012    2    1    2    0    0  0.24805140606E+02 -0.25952607303E+02  0.19087510616E+02  0.50528857266E+02  0.29999992146E+02 0.  0.
         12    1    1    2    0    0 -0.24805140606E+02  0.25952607303E+02 -0.19087510616E+02  0.40659142734E+02  0.00000000000E+00 0. -1.
         11    1    3    3    0    0 -0.17157575917E+01 -0.46305433400E+01  0.14469939263E+02  0.15289372070E+02  0.51100000000E-03 0. -1.
        -11    1    3    3    0    0  0.12972085524E+02 -0.14601652593E+02  0.38886871428E+00  0.19535467244E+02  0.51100000000E-03 0.  1.
         12    1    3    3    0    0  0.13548812674E+02 -0.67204113701E+01  0.42287026384E+01  0.15704017953E+02  0.00000000000E+00 0. -1.
</event>
<event>
 7    1  0.6046695E-013  0.5052885E+02  0.7816164E-02  0.1300439E+00
        -11   -1    0    0    0    0  0.00000000000E+00  0.00000000000E+00  0.45593999997E+02  0.45594000000E+02  0.51100000000E-03 0. -1.
         11   -1    0    0    0    0 -0.00000000000E+00 -0.00000000000E+00 -0.45593999997E+02  0.45594000000E+02  0.51100000000E-03 0.  1.
    9900012    2    1    2    0    0 -0.23830040693E+02 -0.30077076550E+02  0.13441163594E+02  0.50528852789E+02  0.29999978537E+02 0.  0.
         12    1    1    2    0    0  0.23830040693E+02  0.30077076550E+02 -0.13441163594E+02  0.40659147211E+02  0.00000000000E+00 0. -1.
         11    1    3    3    0    0 -0.19048179781E+02 -0.43767657929E+01  0.15003091666E+01  0.19602044782E+02  0.51100000000E-03 0.  1.
        -11    1    3    3    0    0 -0.82263399248E+01 -0.21750757665E+02  0.10318258729E+02  0.25440805628E+02  0.51100000000E-03 0. -1.
        -12    1    3    3    0    0  0.34444790131E+01 -0.39495530918E+01  0.16225956985E+01  0.54860023786E+01  0.00000000000E+00 0.  1.
</event>
<event>
 7    1  0.6046695E-013  0.5052885E+02  0.7816164E-02  0.1300439E+00
        -11   -1    0    0    0    0  0.00000000000E+00  0.00000000000E+00  0.45593999997E+02  0.45594000000E+02  0.51100000000E-03 0.  1.
         11   -1    0    0    0    0 -0.00000000000E+00 -0.00000000000E+00 -0.45593999997E+02  0.45594000000E+02  0.51100000000E-03 0. -1.
    9900012    2    1    2    0    0 -0.26781331084E+02  0.16497684440E+02  0.25763403864E+02  0.50528852626E+02  0.29999978043E+02 0.  0.
         12    1    1    2    0    0  0.26781331084E+02 -0.16497684440E+02 -0.25763403864E+02  0.40659147374E+02  0.00000000000E+00 0. -1.
         11    1    3    3    0    0 -0.10031665069E+02  0.18604745584E+02  0.61156534743E+01  0.22003910561E+02  0.51100000000E-03 0.  1.
        -11    1    3    3    0    0 -0.15983898742E+02 -0.30085137061E+01  0.10630580580E+02  0.19430527977E+02  0.51100000000E-03 0. -1.
         12    1    3    3    0    0 -0.76576727209E+00  0.90145256237E+00  0.90171698094E+01  0.90944140883E+01  0.00000000000E+00 0. -1.
</event>
<event>
 7    1  0.6046695E-013  0.5052886E+02  0.7816164E-02  0.1300439E+00
        -11   -1    0    0    0    0  0.00000000000E+00  0.00000000000E+00  0.45593999997E+02  0.45594000000E+02  0.51100000000E-03 0.  1.
         11   -1    0    0    0    0 -0.00000000000E+00 -0.00000000000E+00 -0.45593999997E+02  0.45594000000E+02  0.51100000000E-03 0. -1.
    9900012    2    1    2    0    0  0.82163125509E+01  0.38111531726E+02  0.11539887929E+02  0.50528860119E+02  0.30000000819E+02 0.  0.
         12    1    1    2    0    0 -0.82163125509E+01 -0.38111531726E+02 -0.11539887929E+02  0.40659139881E+02  0.00000000000E+00 0. -1.
         11    1    3    3    0    0  0.44502595453E+01  0.24275403440E+02  0.16811548723E+01  0.24737144220E+02  0.51100000000E-03 0. -1.
        -11    1    3    3    0    0 -0.36230411222E+01  0.66930841711E+01  0.12983653334E+02  0.15049885609E+02  0.51100000000E-03 0.  1.
        -12    1    3    3    0    0  0.73890941277E+01  0.71430441148E+01 -0.31249202769E+01  0.10741830291E+02  0.00000000000E+00 0.  1.
</event>
<event>
 7    1  0.6046695E-013  0.5052886E+02  0.7816164E-02  0.1300439E+00
        -11   -1    0    0    0    0  0.00000000000E+00  0.00000000000E+00  0.45593999997E+02  0.45594000000E+02  0.51100000000E-03 0. -1.
         11   -1    0    0    0    0 -0.00000000000E+00 -0.00000000000E+00 -0.45593999997E+02  0.45594000000E+02  0.51100000000E-03 0.  1.
    9900012    2    1    2    0    0 -0.16836756298E+02  0.22062039562E+02 -0.29714567434E+02  0.50528862404E+02  0.30000007763E+02 0.  0.
         12    1    1    2    0    0  0.16836756298E+02 -0.22062039562E+02  0.29714567434E+02  0.40659137596E+02  0.00000000000E+00 0. -1.
         11    1    3    3    0    0  0.25227797131E+00 -0.31639271101E+01 -0.83829809402E+01  0.89637296165E+01  0.51100000000E-03 0. -1.
        -11    1    3    3    0    0 -0.20896810707E+02  0.23289300485E+02 -0.19791940996E+02  0.37024169720E+02  0.51100000000E-03 0.  1.
         12    1    3    3    0    0  0.38077764381E+01  0.19366661862E+01 -0.15396454985E+01  0.45409630675E+01  0.00000000000E+00 0. -1.
</event>
<event>
 7    1  0.6046695E-013  0.5052886E+02  0.7816164E-02  0.1300439E+00
        -11   -1    0    0    0    0  0.00000000000E+00  0.00000000000E+00  0.45593999997E+02  0.45594000000E+02  0.51100000000E-03 0.  1.
         11   -1    0    0    0    0 -0.00000000000E+00 -0.00000000000E+00 -0.45593999997E+02  0.45594000000E+02  0.51100000000E-03 0. -1.
    9900012    2    1    2    0    0  0.12073601879E+02  0.36159268977E+02 -0.14138644234E+02  0.50528857657E+02  0.29999993334E+02 0.  0.
         12    1    1    2    0    0 -0.12073601879E+02 -0.36159268977E+02  0.14138644234E+02  0.40659142343E+02  0.00000000000E+00 0. -1.
         11    1    3    3    0    0  0.33377446180E+01  0.19261998424E+02  0.65958611447E+01  0.20631783900E+02  0.51100000000E-03 0.  1.
        -11    1    3    3    0    0  0.10699757765E+02  0.14683547301E+02 -0.15490350880E+02  0.23875559642E+02  0.51100000000E-03 0. -1.
        -12    1    3    3    0    0 -0.19639005046E+01  0.22137232528E+01 -0.52441544979E+01  0.60215141144E+01  0.00000000000E+00 0.  1.
</event>
<event>
 7    1  0.6046695E-013  0.5052886E+02  0.7816164E-02  0.1300439E+00
        -11   -1    0    0    0    0  0.00000000000E+00  0.00000000000E+00  0.45593999997E+02  0.45594000000E+02  0.51100000000E-03 0. -1.
         11   -1    0    0    0    0 -0.00000000000E+00 -0.00000000000E+00 -0.45593999997E+02  0.45594000000E+02  0.51100000000E-03 0.  1.
    9900012    2    1    2    0    0  0.18130914143E+02 -0.28518985299E+02 -0.22607586345E+02  0.50528861661E+02  0.30000005504E+02 0.  0.
         12    1    1    2    0    0 -0.18130914143E+02  0.28518985299E+02  0.22607586345E+02  0.40659138339E+02  0.00000000000E+00 0. -1.
         11    1    3    3    0    0  0.63203225557E+01 -0.10049939897E+02  0.16221221860E+01  0.11982447571E+02  0.51100000000E-03 0.  1.
        -11    1    3    3    0    0  0.91184815698E+01  0.76951355337E+00 -0.13629383314E+02  0.16416423089E+02  0.51100000000E-03 0. -1.
        -12    1    3    3    0    0  0.26921100179E+01 -0.19238558956E+02 -0.10600325217E+02  0.22129991002E+02  0.00000000000E+00 0.  1.
</event>
<event>
 7    1  0.6046695E-013  0.5052887E+02  0.7816164E-02  0.1300439E+00
        -11   -1    0    0    0    0  0.00000000000E+00  0.00000000000E+00  0.45593999997E+02  0.45594000000E+02  0.51100000000E-03 0.  1.
         11   -1    0    0    0    0 -0.00000000000E+00 -0.00000000000E+00 -0.45593999997E+02  0.45594000000E+02  0.51100000000E-03 0. -1.
    9900012    2    1    2    0    0 -0.29033487614E+02  0.45166954383E+01  0.28103758027E+02  0.50528866267E+02  0.30000019504E+02 0.  0.
         12    1    1    2    0    0  0.29033487614E+02 -0.45166954383E+01 -0.28103758027E+02  0.40659133733E+02  0.00000000000E+00 0. -1.
         11    1    3    3    0    0 -0.17024039514E+02  0.80322908078E+01  0.13137271119E+02  0.22954814521E+02  0.51100000000E-03 0.  1.
        -11    1    3    3    0    0  0.57302944065E+00 -0.86180421033E+01  0.97585691663E+01  0.13031833519E+02  0.51100000000E-03 0. -1.
         12    1    3    3    0    0 -0.12582477541E+02  0.51024467337E+01  0.52079177418E+01  0.14542218227E+02  0.00000000000E+00 0. -1.
</event>
<event>
 7    1  0.6046695E-013  0.5052885E+02  0.7816164E-02  0.1300439E+00
        -11   -1    0    0    0    0  0.00000000000E+00  0.00000000000E+00  0.45593999997E+02  0.45594000000E+02  0.51100000000E-03 0. -1.
         11   -1    0    0    0    0 -0.00000000000E+00 -0.00000000000E+00 -0.45593999997E+02  0.45594000000E+02  0.51100000000E-03 0.  1.
    9900012    2    1    2    0    0 -0.52077839910E+01  0.46970101381E+01 -0.40049767752E+02  0.50528845860E+02  0.29999957477E+02 0.  0.
         12    1    1    2    0    0  0.52077839910E+01 -0.46970101381E+01  0.40049767752E+02  0.40659154140E+02  0.00000000000E+00 0. -1.
         11    1    3    3    0    0  0.44767986311E+01 -0.17125762376E+00 -0.57179622986E+01  0.72640311306E+01  0.51100000000E-03 0. -1.
        -11    1    3    3    0    0 -0.11687036766E+02  0.13269130205E+02 -0.22506598754E+02  0.28621733569E+02  0.51100000000E-03 0.  1.
        -12    1    3    3    0    0  0.20024541437E+01 -0.84008624434E+01 -0.11825206699E+02  0.14643081161E+02  0.00000000000E+00 0.  1.
</event>
<event>
 7    1  0.6046695E-013  0.5052886E+02  0.7816164E-02  0.1300439E+00
        -11   -1    0    0    0    0  0.00000000000E+00  0.00000000000E+00  0.45593999997E+02  0.45594000000E+02  0.51100000000E-03 0.  1.
         11   -1    0    0    0    0 -0.00000000000E+00 -0.00000000000E+00 -0.45593999997E+02  0.45594000000E+02  0.51100000000E-03 0. -1.
    9900012    2    1    2    0    0  0.12853678089E+02  0.14342353605E+02  0.35808456311E+02  0.50528859691E+02  0.29999999516E+02 0.  0.
         12    1    1    2    0    0 -0.12853678089E+02 -0.14342353605E+02 -0.35808456311E+02  0.40659140309E+02  0.00000000000E+00 0. -1.
         11    1    3    3    0    0  0.74520527232E+01  0.70310243352E+00  0.11693697353E+02  0.13884163672E+02  0.51100000000E-03 0. -1.
        -11    1    3    3    0    0 -0.32381729295E+01  0.83569646296E+00 -0.36016974359E+01  0.49149137510E+01  0.51100000000E-03 0.  1.
        -12    1    3    3    0    0  0.86397982950E+01  0.12803554709E+02  0.27716456394E+02  0.31729782268E+02  0.00000000000E+00 0.  1.
</event>
<event>
 7    1  0.6046695E-013  0.5052886E+02  0.7816164E-02  0.1300439E+00
        -11   -1    0    0    0    0  0.00000000000E+00  0.00000000000E+00  0.45593999997E+02  0.45594000000E+02  0.51100000000E-03 0.  1.
         11   -1    0    0    0    0 -0.00000000000E+00 -0.00000000000E+00 -0.45593999997E+02  0.45594000000E+02  0.51100000000E-03 0. -1.
    9900012    2    1    2    0    0 -0.28617443570E+02  0.22003311509E+02  0.18709939439E+02  0.50528860466E+02  0.30000001871E+02 0.  0.
         12    1    1    2    0    0  0.28617443570E+02 -0.22003311509E+02 -0.18709939439E+02  0.40659139534E+02  0.00000000000E+00 0. -1.
         11    1    3    3    0    0 -0.13953107315E+02 -0.41618365143E+01  0.45876596372E+01  0.15266194946E+02  0.51100000000E-03 0. -1.
        -11    1    3    3    0    0 -0.15516476016E+02  0.16666925822E+02  0.10181030898E+02  0.24943953871E+02  0.51100000000E-03 0.  1.
         12    1    3    3    0    0  0.85213976114E+00  0.94982222015E+01  0.39412489039E+01  0.10318711649E+02  0.00000000000E+00 0. -1.
</event>
<event>
 7    1  0.6046695E-013  0.5052886E+02  0.7816164E-02  0.1300439E+00
        -11   -1    0    0    0    0  0.00000000000E+00  0.00000000000E+00  0.45593999997E+02  0.45594000000E+02  0.51100000000E-03 0. -1.
         11   -1    0    0    0    0 -0.00000000000E+00 -0.00000000000E+00 -0.45593999997E+02  0.45594000000E+02  0.51100000000E-03 0.  1.
    9900012    2    1    2    0    0  0.18384458201E+02 -0.53022292881E+01 -0.35875674747E+02  0.50528856166E+02  0.29999988803E+02 0.  0.
         12    1    1    2    0    0 -0.18384458201E+02  0.53022292881E+01  0.35875674747E+02  0.40659143834E+02  0.00000000000E+00 0. -1.
         11    1    3    3    0    0 -0.33861138818E+01 -0.63431679149E+01 -0.46619309590E+01  0.85694309581E+01  0.51100000000E-03 0. -1.
        -11    1    3    3    0    0  0.22925865843E+02 -0.33963819097E+01 -0.28063408527E+02  0.36396231029E+02  0.51100000000E-03 0.  1.
        -12    1    3    3    0    0 -0.11552937604E+01  0.44373205365E+01 -0.31503352611E+01  0.55631941791E+01  0.00000000000E+00 0.  1.
</event>
<event>
 7    1  0.6046695E-013  0.5052886E+02  0.7816164E-02  0.1300439E+00
        -11   -1    0    0    0    0  0.00000000000E+00  0.00000000000E+00  0.45593999997E+02  0.45594000000E+02  0.51100000000E-03 0. -1.
         11   -1    0    0    0    0 -0.00000000000E+00 -0.00000000000E+00 -0.45593999997E+02  0.45594000000E+02  0.51100000000E-03 0.  1.
    9900012    2    1    2    0    0  0.38433606507E+02 -0.13241256388E+02  0.83221228128E+00  0.50528861332E+02  0.30000004506E+02 0.  0.
         12    1    1    2    0    0 -0.38433606507E+02  0.13241256388E+02 -0.83221228128E+00  0.40659138668E+02  0.00000000000E+00 0. -1.
         11    1    3    3    0    0 -0.18864132744E+01  0.20494091887E+01  0.73586849606E+00  0.28809956212E+01  0.51100000000E-03 0. -1.
        -11    1    3    3    0    0  0.21471152132E+02 -0.18650054515E+02 -0.11326246593E+01  0.28462567456E+02  0.51100000000E-03 0.  1.
        -12    1    3    3    0    0  0.18848867650E+02  0.33593889383E+01  0.12289684445E+01  0.19185298255E+02  0.00000000000E+00 0.  1.
</event>
<event>
 7    1  0.6046695E-013  0.5052885E+02  0.7816164E-02  0.1300439E+00
        -11   -1    0    0    0    0  0.00000000000E+00  0.00000000000E+00  0.45593999997E+02  0.45594000000E+02  0.51100000000E-03 0.  1.
         11   -1    0    0    0    0 -0.00000000000E+00 -0.00000000000E+00 -0.45593999997E+02  0.45594000000E+02  0.51100000000E-03 0. -1.
    9900012    2    1    2    0    0  0.13501829217E+02  0.67967059226E+00  0.38345861972E+02  0.50528850050E+02  0.29999970212E+02 0.  0.
         12    1    1    2    0    0 -0.13501829217E+02 -0.67967059226E+00 -0.38345861972E+02  0.40659149950E+02  0.00000000000E+00 0. -1.
         11    1    3    3    0    0  0.11609708366E+01 -0.10184872850E+02  0.72517706775E+01  0.12556578613E+02  0.51100000000E-03 0. -1.
        -11    1    3    3    0    0  0.14719625469E+02  0.74189756853E+01  0.28837071402E+02  0.33215738159E+02  0.51100000000E-03 0.  1.
         12    1    3    3    0    0 -0.23787670887E+01  0.34455677566E+01  0.22570198921E+01  0.47565332776E+01  0.00000000000E+00 0. -1.
</event>
<event>
 7    1  0.6046695E-013  0.5052884E+02  0.7816164E-02  0.1300439E+00
        -11   -1    0    0    0    0  0.00000000000E+00  0.00000000000E+00  0.45593999997E+02  0.45594000000E+02  0.51100000000E-03 0.  1.
         11   -1    0    0    0    0 -0.00000000000E+00 -0.00000000000E+00 -0.45593999997E+02  0.45594000000E+02  0.51100000000E-03 0. -1.
    9900012    2    1    2    0    0 -0.20785885578E+01  0.28234728899E+02  0.29182989152E+02  0.50528839874E+02  0.29999939279E+02 0.  0.
         12    1    1    2    0    0  0.20785885578E+01 -0.28234728899E+02 -0.29182989152E+02  0.40659160126E+02  0.00000000000E+00 0. -1.
         11    1    3    3    0    0 -0.44611965660E+01  0.29968676744E+02  0.13876909339E+02  0.33325552863E+02  0.51100000000E-03 0. -1.
        -11    1    3    3    0    0  0.11629386851E+00  0.26594976625E+01  0.75515837722E+01  0.80070512556E+01  0.51100000000E-03 0.  1.
         12    1    3    3    0    0  0.22663141397E+01 -0.43934455078E+01  0.77544960407E+01  0.91962357547E+01  0.00000000000E+00 0. -1.
</event>
<event>
 7    1  0.6046695E-013  0.5052889E+02  0.7816164E-02  0.1300439E+00
        -11   -1    0    0    0    0  0.00000000000E+00  0.00000000000E+00  0.45593999997E+02  0.45594000000E+02  0.51100000000E-03 0. -1.
         11   -1    0    0    0    0 -0.00000000000E+00 -0.00000000000E+00 -0.45593999997E+02  0.45594000000E+02  0.51100000000E-03 0.  1.
    9900012    2    1    2    0    0 -0.19286315508E+02  0.35089877584E+02 -0.70641242450E+01  0.50528888769E+02  0.30000087902E+02 0.  0.
         12    1    1    2    0    0  0.19286315508E+02 -0.35089877584E+02  0.70641242450E+01  0.40659111231E+02  0.00000000000E+00 0. -1.
         11    1    3    3    0    0 -0.18007230948E+02  0.18188895090E+02  0.58986660015E+01  0.26265767300E+02  0.51100000000E-03 0. -1.
        -11    1    3    3    0    0  0.64218120129E+00  0.15698424457E+02 -0.14615111859E+02  0.21458201743E+02  0.51100000000E-03 0.  1.
        -12    1    3    3    0    0 -0.19212657621E+01  0.12025580373E+01  0.16523216122E+01  0.28049197265E+01  0.00000000000E+00 0.  1.
</event>
<event>
 7    1  0.6046695E-013  0.5052887E+02  0.7816164E-02  0.1300439E+00
        -11   -1    0    0    0    0  0.00000000000E+00  0.00000000000E+00  0.45593999997E+02  0.45594000000E+02  0.51100000000E-03 0.  1.
         11   -1    0    0    0    0 -0.00000000000E+00 -0.00000000000E+00 -0.45593999997E+02  0.45594000000E+02  0.51100000000E-03 0. -1.
    9900012    2    1    2    0    0 -0.39050756132E+02  0.11252963787E+02  0.12546490276E+01  0.50528869504E+02  0.30000029344E+02 0.  0.
         12    1    1    2    0    0  0.39050756132E+02 -0.11252963787E+02 -0.12546490276E+01  0.40659130496E+02  0.00000000000E+00 0. -1.
         11    1    3    3    0    0 -0.25799468115E+02  0.10372116060E+01 -0.17211261931E+01  0.25877608826E+02  0.51100000000E-03 0. -1.
        -11    1    3    3    0    0 -0.27815205133E+01  0.42994480757E+01  0.96303164900E+01  0.10907112637E+02  0.51100000000E-03 0.  1.
        -12    1    3    3    0    0 -0.10469767504E+02  0.59163041051E+01 -0.66545412692E+01  0.13744148040E+02  0.00000000000E+00 0.  1.
</event>
<event>
 7    1  0.6046695E-013  0.5052888E+02  0.7816164E-02  0.1300439E+00
        -11   -1    0    0    0    0  0.00000000000E+00  0.00000000000E+00  0.45593999997E+02  0.45594000000E+02  0.51100000000E-03 0.  1.
         11   -1    0    0    0    0 -0.00000000000E+00 -0.00000000000E+00 -0.45593999997E+02  0.45594000000E+02  0.51100000000E-03 0. -1.
    9900012    2    1    2    0    0  0.16318338169E+02  0.80241187796E+01  0.36366052207E+02  0.50528875613E+02  0.30000047914E+02 0.  0.
         12    1    1    2    0    0 -0.16318338169E+02 -0.80241187796E+01 -0.36366052207E+02  0.40659124387E+02  0.00000000000E+00 0. -1.
         11    1    3    3    0    0  0.28497227458E+01 -0.61178631100E+01  0.13004238497E+02  0.14651258919E+02  0.51100000000E-03 0. -1.
        -11    1    3    3    0    0  0.15479394333E+01  0.14689367559E+02  0.93872608654E+01  0.17501265742E+02  0.51100000000E-03 0.  1.
        -12    1    3    3    0    0  0.11920675990E+02 -0.54738566908E+00  0.13974552844E+02  0.18376350952E+02  0.00000000000E+00 0.  1.
</event>
<event>
 7    1  0.6046695E-013  0.5052885E+02  0.7816164E-02  0.1300439E+00
        -11   -1    0    0    0    0  0.00000000000E+00  0.00000000000E+00  0.45593999997E+02  0.45594000000E+02  0.51100000000E-03 0. -1.
         11   -1    0    0    0    0 -0.00000000000E+00 -0.00000000000E+00 -0.45593999997E+02  0.45594000000E+02  0.51100000000E-03 0.  1.
    9900012    2    1    2    0    0  0.19511791304E+02  0.34395534831E+02 -0.94553583763E+01  0.50528848284E+02  0.29999964844E+02 0.  0.
         12    1    1    2    0    0 -0.19511791304E+02 -0.34395534831E+02  0.94553583763E+01  0.40659151716E+02  0.00000000000E+00 0. -1.
         11    1    3    3    0    0 -0.36220200992E+00  0.28644859244E+02 -0.80303257860E+01  0.29751391294E+02  0.51100000000E-03 0. -1.
        -11    1    3    3    0    0  0.11646886256E+02  0.28780241697E+01 -0.12420344914E+01  0.12061327975E+02  0.51100000000E-03 0.  1.
         12    1    3    3    0    0  0.82271070578E+01  0.28726514174E+01 -0.18299809892E+00  0.87161290153E+01  0.00000000000E+00 0. -1.
</event>
<event>
 7    1  0.6046695E-013  0.5052886E+02  0.7816164E-02  0.1300439E+00
        -11   -1    0    0    0    0  0.00000000000E+00  0.00000000000E+00  0.45593999997E+02  0.45594000000E+02  0.51100000000E-03 0. -1.
         11   -1    0    0    0    0 -0.00000000000E+00 -0.00000000000E+00 -0.45593999997E+02  0.45594000000E+02  0.51100000000E-03 0.  1.
    9900012    2    1    2    0    0  0.83842749073E+01 -0.39745063754E+02 -0.17886315819E+01  0.50528863739E+02  0.30000011822E+02 0.  0.
         12    1    1    2    0    0 -0.83842749073E+01  0.39745063754E+02  0.17886315819E+01  0.40659136261E+02  0.00000000000E+00 0. -1.
         11    1    3    3    0    0 -0.35990623940E+01 -0.26072707728E+02  0.41287419912E+01  0.26641806415E+02  0.51100000000E-03 0. -1.
        -11    1    3    3    0    0  0.98610432044E+01 -0.16730318921E+02 -0.49450498058E+01  0.20039891769E+02  0.51100000000E-03 0.  1.
         12    1    3    3    0    0  0.21222940969E+01  0.30579628948E+01 -0.97232376731E+00  0.38471655550E+01  0.00000000000E+00 0. -1.
</event>
<event>
 7    1  0.6046695E-013  0.5052884E+02  0.7816164E-02  0.1300439E+00
        -11   -1    0    0    0    0  0.00000000000E+00  0.00000000000E+00  0.45593999997E+02  0.45594000000E+02  0.51100000000E-03 0.  1.
         11   -1    0    0    0    0 -0.00000000000E+00 -0.00000000000E+00 -0.45593999997E+02  0.45594000000E+02  0.51100000000E-03 0. -1.
    9900012    2    1    2    0    0  0.12929682543E+02  0.16906750239E+02  0.34643212854E+02  0.50528842469E+02  0.29999947168E+02 0.  0.
         12    1    1    2    0    0 -0.12929682543E+02 -0.16906750239E+02 -0.34643212854E+02  0.40659157531E+02  0.00000000000E+00 0. -1.
         11    1    3    3    0    0  0.38656935488E+01  0.33379169823E+01 -0.43407949169E+00  0.51257879063E+01  0.51100000000E-03 0. -1.
        -11    1    3    3    0    0 -0.86558100325E-01 -0.66124437681E+01  0.92848007316E+01  0.11399097762E+02  0.51100000000E-03 0.  1.
        -12    1    3    3    0    0  0.91505470942E+01  0.20181277024E+02  0.25792491614E+02  0.34003956801E+02  0.00000000000E+00 0.  1.
</event>
<event>
 7    1  0.6046695E-013  0.5052886E+02  0.7816164E-02  0.1300439E+00
        -11   -1    0    0    0    0  0.00000000000E+00  0.00000000000E+00  0.45593999997E+02  0.45594000000E+02  0.51100000000E-03 0. -1.
         11   -1    0    0    0    0 -0.00000000000E+00 -0.00000000000E+00 -0.45593999997E+02  0.45594000000E+02  0.51100000000E-03 0.  1.
    9900012    2    1    2    0    0  0.40457932948E+02  0.12541506210E+01 -0.38404188276E+01  0.50528855284E+02  0.29999986123E+02 0.  0.
         12    1    1    2    0    0 -0.40457932948E+02 -0.12541506210E+01  0.38404188276E+01  0.40659144716E+02  0.00000000000E+00 0. -1.
         11    1    3    3    0    0  0.98887873061E+01 -0.35315297682E+01  0.11360504202E+02  0.15469999123E+02  0.51100000000E-03 0. -1.
        -11    1    3    3    0    0  0.30599519126E+02  0.49133235676E+01 -0.15558740542E+02  0.34677741085E+02  0.51100000000E-03 0.  1.
        -12    1    3    3    0    0 -0.30373484167E-01 -0.12764317841E+00  0.35781751231E+00  0.38111507665E+00  0.00000000000E+00 0.  1.
</event>
<event>
 7    1  0.6046695E-013  0.5052886E+02  0.7816164E-02  0.1300439E+00
        -11   -1    0    0    0    0  0.00000000000E+00  0.00000000000E+00  0.45593999997E+02  0.45594000000E+02  0.51100000000E-03 0.  1.
         11   -1    0    0    0    0 -0.00000000000E+00 -0.00000000000E+00 -0.45593999997E+02  0.45594000000E+02  0.51100000000E-03 0. -1.
    9900012    2    1    2    0    0  0.31723839120E+02 -0.16440138156E+01  0.25378348936E+02  0.50528863946E+02  0.30000012449E+02 0.  0.
         12    1    1    2    0    0 -0.31723839120E+02  0.16440138156E+01 -0.25378348936E+02  0.40659136054E+02  0.00000000000E+00 0. -1.
         11    1    3    3    0    0  0.22308148361E+02 -0.10538389155E+02  0.41806479538E+01  0.25023767639E+02  0.51100000000E-03 0. -1.
        -11    1    3    3    0    0  0.64548091028E+01  0.84724041571E+01  0.13167565681E+02  0.16936085114E+02  0.51100000000E-03 0.  1.
         12    1    3    3    0    0  0.29608816561E+01  0.42197118249E+00  0.80301353012E+01  0.85690111924E+01  0.00000000000E+00 0. -1.
</event>
<event>
 7    1  0.6046695E-013  0.5052886E+02  0.7816164E-02  0.1300439E+00
        -11   -1    0    0    0    0  0.00000000000E+00  0.00000000000E+00  0.45593999997E+02  0.45594000000E+02  0.51100000000E-03 0. -1.
         11   -1    0    0    0    0 -0.00000000000E+00 -0.00000000000E+00 -0.45593999997E+02  0.45594000000E+02  0.51100000000E-03 0.  1.
    9900012    2    1    2    0    0  0.64146635458E+01 -0.86849077434E+00 -0.40140549360E+02  0.50528857270E+02  0.29999992158E+02 0.  0.
         12    1    1    2    0    0 -0.64146635458E+01  0.86849077434E+00  0.40140549360E+02  0.40659142730E+02  0.00000000000E+00 0. -1.
         11    1    3    3    0    0  0.60261092768E+01 -0.10885730614E+02 -0.16426743640E+02  0.20607062646E+02  0.51100000000E-03 0. -1.
        -11    1    3    3    0    0  0.39155508428E+01  0.12966659878E+02 -0.16241885122E+02  0.21148632092E+02  0.51100000000E-03 0.  1.
        -12    1    3    3    0    0 -0.35269965738E+01 -0.29494200381E+01 -0.74719205982E+01  0.87731625323E+01  0.00000000000E+00 0.  1.
</event>
<event>
 7    1  0.6046695E-013  0.5052886E+02  0.7816164E-02  0.1300439E+00
        -11   -1    0    0    0    0  0.00000000000E+00  0.00000000000E+00  0.45593999997E+02  0.45594000000E+02  0.51100000000E-03 0. -1.
         11   -1    0    0    0    0 -0.00000000000E+00 -0.00000000000E+00 -0.45593999997E+02  0.45594000000E+02  0.51100000000E-03 0.  1.
    9900012    2    1    2    0    0 -0.28751921624E+02  0.28748305335E+02  0.16655037287E+00  0.50528858399E+02  0.29999995590E+02 0.  0.
         12    1    1    2    0    0  0.28751921624E+02 -0.28748305335E+02 -0.16655037287E+00  0.40659141601E+02  0.00000000000E+00 0. -1.
         11    1    3    3    0    0  0.80078253600E+00  0.16010756247E+01 -0.57240194707E+01  0.59974240294E+01  0.51100000000E-03 0. -1.
        -11    1    3    3    0    0 -0.18182270522E+02  0.45248802006E+01  0.11480277129E+01  0.18771986311E+02  0.51100000000E-03 0.  1.
         12    1    3    3    0    0 -0.11370433638E+02  0.22622349509E+02  0.47425421307E+01  0.25759448059E+02  0.00000000000E+00 0. -1.
</event>
<event>
 7    1  0.6046695E-013  0.5052886E+02  0.7816164E-02  0.1300439E+00
        -11   -1    0    0    0    0  0.00000000000E+00  0.00000000000E+00  0.45593999997E+02  0.45594000000E+02  0.51100000000E-03 0. -1.
         11   -1    0    0    0    0 -0.00000000000E+00 -0.00000000000E+00 -0.45593999997E+02  0.45594000000E+02  0.51100000000E-03 0.  1.
    9900012    2    1    2    0    0  0.23364373254E+02  0.23701298537E+02 -0.23356369667E+02  0.50528862110E+02  0.30000006870E+02 0.  0.
         12    1    1    2    0    0 -0.23364373254E+02 -0.23701298537E+02  0.23356369667E+02  0.40659137890E+02  0.00000000000E+00 0. -1.
         11    1    3    3    0    0 -0.38409352725E+00 -0.21340524003E+01  0.17180603043E+01  0.27664849457E+01  0.51100000000E-03 0. -1.
        -11    1    3    3    0    0  0.25824157121E+02  0.19478087213E+02 -0.25308539060E+02  0.41070733158E+02  0.51100000000E-03 0.  1.
        -12    1    3    3    0    0 -0.20756903402E+01  0.63572637243E+01  0.23410908790E+00  0.66916440068E+01  0.00000000000E+00 0.  1.
</event>
<event>
 7    1  0.6046695E-013  0.5052894E+02  0.7816164E-02  0.1300439E+00
        -11   -1    0    0    0    0  0.00000000000E+00  0.00000000000E+00  0.45593999997E+02  0.45594000000E+02  0.51100000000E-03 0. -1.
         11   -1    0    0    0    0 -0.00000000000E+00 -0.00000000000E+00 -0.45593999997E+02  0.45594000000E+02  0.51100000000E-03 0.  1.
    9900012    2    1    2    0    0  0.34009223524E+02 -0.20779578073E+02 -0.80461680358E+01  0.50528942342E+02  0.30000250741E+02 0.  0.
         12    1    1    2    0    0 -0.34009223524E+02  0.20779578073E+02  0.80461680358E+01  0.40659057658E+02  0.00000000000E+00 0. -1.
         11    1    3    3    0    0  0.36013226606E+02 -0.17203172801E+02 -0.83487535833E+01  0.40775033190E+02  0.51100000000E-03 0. -1.
        -11    1    3    3    0    0 -0.25546345539E+01 -0.55216317257E+01 -0.22597450395E+01  0.64900710722E+01  0.51100000000E-03 0.  1.
         12    1    3    3    0    0  0.55063147143E+00  0.19452264534E+01  0.25623305869E+01  0.32638380794E+01  0.00000000000E+00 0. -1.
</event>
<event>
 7    1  0.6046695E-013  0.5052885E+02  0.7816164E-02  0.1300439E+00
        -11   -1    0    0    0    0  0.00000000000E+00  0.00000000000E+00  0.45593999997E+02  0.45594000000E+02  0.51100000000E-03 0.  1.
         11   -1    0    0    0    0 -0.00000000000E+00 -0.00000000000E+00 -0.45593999997E+02  0.45594000000E+02  0.51100000000E-03 0. -1.
    9900012    2    1    2    0    0  0.32878173332E+02 -0.19975883127E+01  0.23836977404E+02  0.50528854258E+02  0.29999983003E+02 0.  0.
         12    1    1    2    0    0 -0.32878173332E+02  0.19975883127E+01 -0.23836977404E+02  0.40659145742E+02  0.00000000000E+00 0. -1.
         11    1    3    3    0    0  0.19002667047E+02 -0.74708612464E+01 -0.11707961844E+01  0.20452038691E+02  0.51100000000E-03 0. -1.
        -11    1    3    3    0    0  0.63658934539E+01  0.20494942445E+01  0.18161115973E+02  0.19353324257E+02  0.51100000000E-03 0.  1.
         12    1    3    3    0    0  0.75096128313E+01  0.34237786891E+01  0.68466576149E+01  0.10723491310E+02  0.00000000000E+00 0. -1.
</event>
<event>
 7    1  0.6046695E-013  0.5052885E+02  0.7816164E-02  0.1300439E+00
        -11   -1    0    0    0    0  0.00000000000E+00  0.00000000000E+00  0.45593999997E+02  0.45594000000E+02  0.51100000000E-03 0.  1.
         11   -1    0    0    0    0 -0.00000000000E+00 -0.00000000000E+00 -0.45593999997E+02  0.45594000000E+02  0.51100000000E-03 0. -1.
    9900012    2    1    2    0    0 -0.17598613722E+02 -0.28112011936E+02  0.23519559134E+02  0.50528854880E+02  0.29999984894E+02 0.  0.
         12    1    1    2    0    0  0.17598613722E+02  0.28112011936E+02 -0.23519559134E+02  0.40659145120E+02  0.00000000000E+00 0. -1.
         11    1    3    3    0    0 -0.17370206967E+01 -0.15694137173E+02 -0.19463280228E+01  0.15909474396E+02  0.51100000000E-03 0. -1.
        -11    1    3    3    0    0 -0.16938082914E+02 -0.12149315539E+02  0.19475692633E+02  0.28527304896E+02  0.51100000000E-03 0.  1.
         12    1    3    3    0    0  0.10764898884E+01 -0.26855922355E+00  0.59901945240E+01  0.60920755882E+01  0.00000000000E+00 0. -1.
</event>
<event>
 7    1  0.6046695E-013  0.5052886E+02  0.7816164E-02  0.1300439E+00
        -11   -1    0    0    0    0  0.00000000000E+00  0.00000000000E+00  0.45593999997E+02  0.45594000000E+02  0.51100000000E-03 0. -1.
         11   -1    0    0    0    0 -0.00000000000E+00 -0.00000000000E+00 -0.45593999997E+02  0.45594000000E+02  0.51100000000E-03 0.  1.
    9900012    2    1    2    0    0 -0.33446442819E+02 -0.14782557505E+02 -0.17775748790E+02  0.50528858486E+02  0.29999995854E+02 0.  0.
         12    1    1    2    0    0  0.33446442819E+02  0.14782557505E+02  0.17775748790E+02  0.40659141514E+02  0.00000000000E+00 0. -1.
         11    1    3    3    0    0  0.40083438246E+01 -0.23219374615E+01  0.12992363969E+01  0.48110528232E+01  0.51100000000E-03 0. -1.
        -11    1    3    3    0    0 -0.32800306239E+02 -0.10797384266E+02 -0.10984143538E+02  0.36236652797E+02  0.51100000000E-03 0.  1.
         12    1    3    3    0    0 -0.46544804039E+01 -0.16632357779E+01 -0.80908416489E+01  0.94811528661E+01  0.00000000000E+00 0. -1.
</event>
<event>
 7    1  0.6046695E-013  0.5052886E+02  0.7816164E-02  0.1300439E+00
        -11   -1    0    0    0    0  0.00000000000E+00  0.00000000000E+00  0.45593999997E+02  0.45594000000E+02  0.51100000000E-03 0.  1.
         11   -1    0    0    0    0 -0.00000000000E+00 -0.00000000000E+00 -0.45593999997E+02  0.45594000000E+02  0.51100000000E-03 0. -1.
    9900012    2    1    2    0    0  0.67772279834E+01  0.29605984738E+02  0.27031840743E+02  0.50528861232E+02  0.30000004201E+02 0.  0.
         12    1    1    2    0    0 -0.67772279834E+01 -0.29605984738E+02 -0.27031840743E+02  0.40659138768E+02  0.00000000000E+00 0. -1.
         11    1    3    3    0    0 -0.40223938825E+01  0.67887107791E+01  0.13766514739E+02  0.15867677048E+02  0.51100000000E-03 0. -1.
        -11    1    3    3    0    0  0.13499650858E+02  0.10922794413E+02  0.14195050387E+02  0.22428719688E+02  0.51100000000E-03 0.  1.
        -12    1    3    3    0    0 -0.27000289925E+01  0.11894479545E+02 -0.92972438353E+00  0.12232464496E+02  0.00000000000E+00 0.  1.
</event>
<event>
 7    1  0.6046695E-013  0.5052887E+02  0.7816164E-02  0.1300439E+00
        -11   -1    0    0    0    0  0.00000000000E+00  0.00000000000E+00  0.45593999997E+02  0.45594000000E+02  0.51100000000E-03 0.  1.
         11   -1    0    0    0    0 -0.00000000000E+00 -0.00000000000E+00 -0.45593999997E+02  0.45594000000E+02  0.51100000000E-03 0. -1.
    9900012    2    1    2    0    0 -0.10304795466E+02  0.99353281894E+01  0.38056080817E+02  0.50528870116E+02  0.30000031204E+02 0.  0.
         12    1    1    2    0    0  0.10304795466E+02 -0.99353281894E+01 -0.38056080817E+02  0.40659129884E+02  0.00000000000E+00 0. -1.
         11    1    3    3    0    0 -0.11748428951E+01  0.15509437950E+02  0.11778659827E+02  0.19510503554E+02  0.51100000000E-03 0. -1.
        -11    1    3    3    0    0 -0.10964155162E+02 -0.92414523977E+00  0.14326669160E+02  0.18064334815E+02  0.51100000000E-03 0.  1.
         12    1    3    3    0    0  0.18342025918E+01 -0.46499645204E+01  0.11950751830E+02  0.12954031747E+02  0.00000000000E+00 0. -1.
</event>
<event>
 7    1  0.6046695E-013  0.5052886E+02  0.7816164E-02  0.1300439E+00
        -11   -1    0    0    0    0  0.00000000000E+00  0.00000000000E+00  0.45593999997E+02  0.45594000000E+02  0.51100000000E-03 0.  1.
         11   -1    0    0    0    0 -0.00000000000E+00 -0.00000000000E+00 -0.45593999997E+02  0.45594000000E+02  0.51100000000E-03 0. -1.
    9900012    2    1    2    0    0  0.14692445110E+02 -0.34368791115E+02  0.16002631458E+02  0.50528856384E+02  0.29999989466E+02 0.  0.
         12    1    1    2    0    0 -0.14692445110E+02  0.34368791115E+02 -0.16002631458E+02  0.40659143616E+02  0.00000000000E+00 0. -1.
         11    1    3    3    0    0  0.87860846785E+00 -0.66183047293E+01  0.76558737157E+01  0.10158066398E+02  0.51100000000E-03 0. -1.
        -11    1    3    3    0    0  0.17154557693E+02 -0.26753916017E+02  0.50086520404E+00  0.31785244031E+02  0.51100000000E-03 0.  1.
        -12    1    3    3    0    0 -0.33407210512E+01 -0.99657036823E+00  0.78458925381E+01  0.85855459559E+01  0.00000000000E+00 0.  1.
</event>
<event>
 7    1  0.6046695E-013  0.5052887E+02  0.7816164E-02  0.1300439E+00
        -11   -1    0    0    0    0  0.00000000000E+00  0.00000000000E+00  0.45593999997E+02  0.45594000000E+02  0.51100000000E-03 0. -1.
         11   -1    0    0    0    0 -0.00000000000E+00 -0.00000000000E+00 -0.45593999997E+02  0.45594000000E+02  0.51100000000E-03 0.  1.
    9900012    2    1    2    0    0  0.24689818311E+02 -0.32207420708E+02 -0.25018834119E+01  0.50528874364E+02  0.30000044117E+02 0.  0.
         12    1    1    2    0    0 -0.24689818311E+02  0.32207420708E+02  0.25018834119E+01  0.40659125636E+02  0.00000000000E+00 0. -1.
         11    1    3    3    0    0  0.81158118023E+01 -0.11407167041E+02 -0.13426591272E+02  0.19397505369E+02  0.51100000000E-03 0.  1.
        -11    1    3    3    0    0 -0.35106203780E+00 -0.63886095126E+01  0.50156424066E+01  0.81298367186E+01  0.51100000000E-03 0. -1.
         12    1    3    3    0    0  0.16925068546E+02 -0.14411644154E+02  0.59090654532E+01  0.23001532276E+02  0.00000000000E+00 0. -1.
</event>
<event>
 7    1  0.6046695E-013  0.5052886E+02  0.7816164E-02  0.1300439E+00
        -11   -1    0    0    0    0  0.00000000000E+00  0.00000000000E+00  0.45593999997E+02  0.45594000000E+02  0.51100000000E-03 0.  1.
         11   -1    0    0    0    0 -0.00000000000E+00 -0.00000000000E+00 -0.45593999997E+02  0.45594000000E+02  0.51100000000E-03 0. -1.
    9900012    2    1    2    0    0 -0.11393575234E+02 -0.17503488368E+02  0.34885237912E+02  0.50528862210E+02  0.30000007173E+02 0.  0.
         12    1    1    2    0    0  0.11393575234E+02  0.17503488368E+02 -0.34885237912E+02  0.40659137790E+02  0.00000000000E+00 0. -1.
         11    1    3    3    0    0  0.53807578732E+01  0.14922011338E+01  0.10267918125E+02  0.11688000787E+02  0.51100000000E-03 0. -1.
        -11    1    3    3    0    0 -0.19301178709E+02 -0.12593947634E+02  0.17478790824E+02  0.28924922567E+02  0.51100000000E-03 0.  1.
        -12    1    3    3    0    0  0.25268456019E+01 -0.64017418673E+01  0.71385289641E+01  0.99159388564E+01  0.00000000000E+00 0.  1.
</event>
<event>
 7    1  0.6046695E-013  0.5052892E+02  0.7816164E-02  0.1300439E+00
        -11   -1    0    0    0    0  0.00000000000E+00  0.00000000000E+00  0.45593999997E+02  0.45594000000E+02  0.51100000000E-03 0. -1.
         11   -1    0    0    0    0 -0.00000000000E+00 -0.00000000000E+00 -0.45593999997E+02  0.45594000000E+02  0.51100000000E-03 0.  1.
    9900012    2    1    2    0    0  0.76257413921E+01  0.39636681234E+02 -0.48930567863E+01  0.50528924313E+02  0.30000195941E+02 0.  0.
         12    1    1    2    0    0 -0.76257413921E+01 -0.39636681234E+02  0.48930567863E+01  0.40659075687E+02  0.00000000000E+00 0. -1.
         11    1    3    3    0    0 -0.26911946865E+01  0.15617999703E+02  0.20384711044E+01  0.15978729870E+02  0.51100000000E-03 0. -1.
        -11    1    3    3    0    0 -0.59450209917E-01  0.14294422508E+01 -0.94562378737E+01  0.95638524906E+01  0.51100000000E-03 0.  1.
        -12    1    3    3    0    0  0.10376386289E+02  0.22589239280E+02  0.25247099831E+01  0.24986341952E+02  0.00000000000E+00 0.  1.
</event>
<event>
 7    1  0.6046695E-013  0.5052886E+02  0.7816164E-02  0.1300439E+00
        -11   -1    0    0    0    0  0.00000000000E+00  0.00000000000E+00  0.45593999997E+02  0.45594000000E+02  0.51100000000E-03 0. -1.
         11   -1    0    0    0    0 -0.00000000000E+00 -0.00000000000E+00 -0.45593999997E+02  0.45594000000E+02  0.51100000000E-03 0.  1.
    9900012    2    1    2    0    0  0.15893104774E+02 -0.17130970376E+02 -0.33273185466E+02  0.50528858390E+02  0.29999995563E+02 0.  0.
         12    1    1    2    0    0 -0.15893104774E+02  0.17130970376E+02  0.33273185466E+02  0.40659141610E+02  0.00000000000E+00 0. -1.
         11    1    3    3    0    0  0.62443617155E+01 -0.91747376186E+01  0.27123422467E+01  0.11424739136E+02  0.51100000000E-03 0. -1.
        -11    1    3    3    0    0  0.95522800926E+01 -0.25965716770E+01 -0.24717703632E+02  0.26626173449E+02  0.51100000000E-03 0.  1.
        -12    1    3    3    0    0  0.96462966093E-01 -0.53596610801E+01 -0.11267824080E+02  0.12477945805E+02  0.00000000000E+00 0.  1.
</event>
<event>
 7    1  0.6046695E-013  0.5052885E+02  0.7816164E-02  0.1300439E+00
        -11   -1    0    0    0    0  0.00000000000E+00  0.00000000000E+00  0.45593999997E+02  0.45594000000E+02  0.51100000000E-03 0.  1.
         11   -1    0    0    0    0 -0.00000000000E+00 -0.00000000000E+00 -0.45593999997E+02  0.45594000000E+02  0.51100000000E-03 0. -1.
    9900012    2    1    2    0    0 -0.21895483543E+02  0.14277396778E+02  0.31143375423E+02  0.50528854767E+02  0.29999984550E+02 0.  0.
         12    1    1    2    0    0  0.21895483543E+02 -0.14277396778E+02 -0.31143375423E+02  0.40659145233E+02  0.00000000000E+00 0. -1.
         11    1    3    3    0    0  0.41856082322E+01  0.72570044835E+01  0.51197097577E+01  0.98180883379E+01  0.51100000000E-03 0. -1.
        -11    1    3    3    0    0 -0.23865378369E+02  0.15630155979E+01  0.25235527955E+02  0.34768249508E+02  0.51100000000E-03 0.  1.
        -12    1    3    3    0    0 -0.22157134057E+01  0.54573766963E+01  0.78813771089E+00  0.59425169207E+01  0.00000000000E+00 0.  1.
</event>
<event>
 7    1  0.6046695E-013  0.5052886E+02  0.7816164E-02  0.1300439E+00
        -11   -1    0    0    0    0  0.00000000000E+00  0.00000000000E+00  0.45593999997E+02  0.45594000000E+02  0.51100000000E-03 0.  1.
         11   -1    0    0    0    0 -0.00000000000E+00 -0.00000000000E+00 -0.45593999997E+02  0.45594000000E+02  0.51100000000E-03 0. -1.
    9900012    2    1    2    0    0 -0.87352756807E+01 -0.37712869620E+02  0.12433828563E+02  0.50528859959E+02  0.30000000330E+02 0.  0.
         12    1    1    2    0    0  0.87352756807E+01  0.37712869620E+02 -0.12433828563E+02  0.40659140041E+02  0.00000000000E+00 0. -1.
         11    1    3    3    0    0  0.30642076173E+01 -0.98464444517E+01  0.38357144980E+01  0.11002478931E+02  0.51100000000E-03 0. -1.
        -11    1    3    3    0    0  0.63573055668E+01 -0.14500983401E+02  0.15711124805E+01  0.15911073137E+02  0.51100000000E-03 0.  1.
        -12    1    3    3    0    0 -0.18156788865E+02 -0.13365441767E+02  0.70270015848E+01  0.23615307891E+02  0.00000000000E+00 0.  1.
</event>
<event>
 7    1  0.6046695E-013  0.5052882E+02  0.7816164E-02  0.1300439E+00
        -11   -1    0    0    0    0  0.00000000000E+00  0.00000000000E+00  0.45593999997E+02  0.45594000000E+02  0.51100000000E-03 0. -1.
         11   -1    0    0    0    0 -0.00000000000E+00 -0.00000000000E+00 -0.45593999997E+02  0.45594000000E+02  0.51100000000E-03 0.  1.
    9900012    2    1    2    0    0  0.13894090179E+02  0.11665647440E+02 -0.36387299709E+02  0.50528823272E+02  0.29999888816E+02 0.  0.
         12    1    1    2    0    0 -0.13894090179E+02 -0.11665647440E+02  0.36387299709E+02  0.40659176728E+02  0.00000000000E+00 0. -1.
         11    1    3    3    0    0  0.79851317224E+01 -0.16547355501E+01 -0.27714725523E+01  0.86128705281E+01  0.51100000000E-03 0. -1.
        -11    1    3    3    0    0  0.12481276614E+02  0.13102693644E+02 -0.27600378383E+02  0.33003692730E+02  0.51100000000E-03 0.  1.
         12    1    3    3    0    0 -0.65723181569E+01  0.21768934605E+00 -0.60154487735E+01  0.89122600138E+01  0.00000000000E+00 0. -1.
</event>
<event>
 7    1  0.6046695E-013  0.5052885E+02  0.7816164E-02  0.1300439E+00
        -11   -1    0    0    0    0  0.00000000000E+00  0.00000000000E+00  0.45593999997E+02  0.45594000000E+02  0.51100000000E-03 0. -1.
         11   -1    0    0    0    0 -0.00000000000E+00 -0.00000000000E+00 -0.45593999997E+02  0.45594000000E+02  0.51100000000E-03 0.  1.
    9900012    2    1    2    0    0  0.11077143992E+02  0.27590673959E+02 -0.27734776208E+02  0.50528853183E+02  0.29999979735E+02 0.  0.
         12    1    1    2    0    0 -0.11077143992E+02 -0.27590673959E+02  0.27734776208E+02  0.40659146817E+02  0.00000000000E+00 0. -1.
         11    1    3    3    0    0  0.12143289362E+02  0.19809769772E+02 -0.12057052182E+02  0.26177451414E+02  0.51100000000E-03 0. -1.
        -11    1    3    3    0    0 -0.86620732176E+00 -0.44732571887E+01 -0.13553110744E+00  0.45583674647E+01  0.51100000000E-03 0.  1.
         12    1    3    3    0    0 -0.19993804820E+00  0.12254161377E+02 -0.15542192919E+02  0.19793034305E+02  0.00000000000E+00 0. -1.
</event>
<event>
 7    1  0.6046695E-013  0.5052886E+02  0.7816164E-02  0.1300439E+00
        -11   -1    0    0    0    0  0.00000000000E+00  0.00000000000E+00  0.45593999997E+02  0.45594000000E+02  0.51100000000E-03 0.  1.
         11   -1    0    0    0    0 -0.00000000000E+00 -0.00000000000E+00 -0.45593999997E+02  0.45594000000E+02  0.51100000000E-03 0. -1.
    9900012    2    1    2    0    0  0.19083795552E+02  0.26724726872E+02  0.23974229164E+02  0.50528856587E+02  0.29999990083E+02 0.  0.
         12    1    1    2    0    0 -0.19083795552E+02 -0.26724726872E+02 -0.23974229164E+02  0.40659143413E+02  0.00000000000E+00 0. -1.
         11    1    3    3    0    0  0.80553533916E+01 -0.47566422065E+01  0.85643467424E+01  0.12683154132E+02  0.51100000000E-03 0. -1.
        -11    1    3    3    0    0  0.18570101087E+01  0.17838916472E+02  0.10028127747E+02  0.20548449426E+02  0.51100000000E-03 0.  1.
         12    1    3    3    0    0  0.91714320515E+01  0.13642452606E+02  0.53817546743E+01  0.17297253030E+02  0.00000000000E+00 0. -1.
</event>
<event>
 7    1  0.6046695E-013  0.5052886E+02  0.7816164E-02  0.1300439E+00
        -11   -1    0    0    0    0  0.00000000000E+00  0.00000000000E+00  0.45593999997E+02  0.45594000000E+02  0.51100000000E-03 0.  1.
         11   -1    0    0    0    0 -0.00000000000E+00 -0.00000000000E+00 -0.45593999997E+02  0.45594000000E+02  0.51100000000E-03 0. -1.
    9900012    2    1    2    0    0 -0.11220743481E+02  0.96313266528E+01  0.37874766155E+02  0.50528862667E+02  0.30000008563E+02 0.  0.
         12    1    1    2    0    0  0.11220743481E+02 -0.96313266528E+01 -0.37874766155E+02  0.40659137333E+02  0.00000000000E+00 0. -1.
         11    1    3    3    0    0 -0.13132271290E+02  0.12329197773E+02  0.28920845658E+02  0.34071703520E+02  0.51100000000E-03 0. -1.
        -11    1    3    3    0    0 -0.51196977426E+01 -0.31928337886E+01  0.15395650452E+01  0.62270180156E+01  0.51100000000E-03 0.  1.
         12    1    3    3    0    0  0.70312255512E+01  0.49496266833E+00  0.74143554522E+01  0.10230141131E+02  0.00000000000E+00 0. -1.
</event>
<event>
 7    1  0.6046695E-013  0.5052892E+02  0.7816164E-02  0.1300439E+00
        -11   -1    0    0    0    0  0.00000000000E+00  0.00000000000E+00  0.45593999997E+02  0.45594000000E+02  0.51100000000E-03 0. -1.
         11   -1    0    0    0    0 -0.00000000000E+00 -0.00000000000E+00 -0.45593999997E+02  0.45594000000E+02  0.51100000000E-03 0.  1.
    9900012    2    1    2    0    0 -0.33396523209E+02  0.10479415216E+02 -0.20688519574E+02  0.50528920474E+02  0.30000184273E+02 0.  0.
         12    1    1    2    0    0  0.33396523209E+02 -0.10479415216E+02  0.20688519574E+02  0.40659079526E+02  0.00000000000E+00 0. -1.
         11    1    3    3    0    0 -0.38131609261E+01  0.25486935983E+01 -0.14473149487E+02  0.15182492932E+02  0.51100000000E-03 0. -1.
        -11    1    3    3    0    0 -0.27844926895E+02  0.29029648475E+01 -0.89147316856E+01  0.29380939400E+02  0.51100000000E-03 0.  1.
        -12    1    3    3    0    0 -0.17384353875E+01  0.50277567704E+01  0.26993615988E+01  0.59654881426E+01  0.00000000000E+00 0.  1.
</event>
<event>
 7    1  0.6046695E-013  0.5052886E+02  0.7816164E-02  0.1300439E+00
        -11   -1    0    0    0    0  0.00000000000E+00  0.00000000000E+00  0.45593999997E+02  0.45594000000E+02  0.51100000000E-03 0. -1.
         11   -1    0    0    0    0 -0.00000000000E+00 -0.00000000000E+00 -0.45593999997E+02  0.45594000000E+02  0.51100000000E-03 0.  1.
    9900012    2    1    2    0    0  0.31546506593E+02 -0.25264856746E+01 -0.25526467933E+02  0.50528858676E+02  0.29999996431E+02 0.  0.
         12    1    1    2    0    0 -0.31546506593E+02  0.25264856746E+01  0.25526467933E+02  0.40659141324E+02  0.00000000000E+00 0. -1.
         11    1    3    3    0    0  0.13027776344E+02 -0.16619292165E+01  0.50604377906E+01  0.14074551364E+02  0.51100000000E-03 0. -1.
        -11    1    3    3    0    0  0.74125330242E+01 -0.79310162446E-01 -0.62675237938E+01  0.97074090624E+01  0.51100000000E-03 0.  1.
         12    1    3    3    0    0  0.11106197224E+02 -0.78524629570E+00 -0.24319381930E+02  0.26746898250E+02  0.00000000000E+00 0. -1.
</event>
<event>
 7    1  0.6046695E-013  0.5052887E+02  0.7816164E-02  0.1300439E+00
        -11   -1    0    0    0    0  0.00000000000E+00  0.00000000000E+00  0.45593999997E+02  0.45594000000E+02  0.51100000000E-03 0.  1.
         11   -1    0    0    0    0 -0.00000000000E+00 -0.00000000000E+00 -0.45593999997E+02  0.45594000000E+02  0.51100000000E-03 0. -1.
    9900012    2    1    2    0    0  0.27499388634E+02 -0.23939343071E+02  0.17996018226E+02  0.50528865800E+02  0.30000018086E+02 0.  0.
         12    1    1    2    0    0 -0.27499388634E+02  0.23939343071E+02 -0.17996018226E+02  0.40659134200E+02  0.00000000000E+00 0. -1.
         11    1    3    3    0    0  0.19236846066E+02 -0.20071888134E+02  0.17111393092E+00  0.27802270053E+02  0.51100000000E-03 0. -1.
        -11    1    3    3    0    0  0.10804026398E+02 -0.24169690386E+01  0.12914500107E+02  0.17010380331E+02  0.51100000000E-03 0.  1.
         12    1    3    3    0    0 -0.25414838295E+01 -0.14504858982E+01  0.49104041879E+01  0.57162154162E+01  0.00000000000E+00 0. -1.
</event>
<event>
 7    1  0.6046695E-013  0.5052886E+02  0.7816164E-02  0.1300439E+00
        -11   -1    0    0    0    0  0.00000000000E+00  0.00000000000E+00  0.45593999997E+02  0.45594000000E+02  0.51100000000E-03 0. -1.
         11   -1    0    0    0    0 -0.00000000000E+00 -0.00000000000E+00 -0.45593999997E+02  0.45594000000E+02  0.51100000000E-03 0.  1.
    9900012    2    1    2    0    0  0.10161147539E+02  0.38773980606E+01 -0.39177577464E+02  0.50528859441E+02  0.29999998757E+02 0.  0.
         12    1    1    2    0    0 -0.10161147539E+02 -0.38773980606E+01  0.39177577464E+02  0.40659140559E+02  0.00000000000E+00 0. -1.
         11    1    3    3    0    0 -0.69979691845E+01 -0.29472610330E+01 -0.34705755524E+01  0.83488211880E+01  0.51100000000E-03 0. -1.
        -11    1    3    3    0    0  0.15784773407E+02  0.76572800624E+01 -0.20905759934E+02  0.27291826764E+02  0.51100000000E-03 0.  1.
        -12    1    3    3    0    0  0.13743433162E+01 -0.83262096884E+00 -0.14801241978E+02  0.14888211489E+02  0.00000000000E+00 0.  1.
</event>
<event>
 7    1  0.6046695E-013  0.5052886E+02  0.7816164E-02  0.1300439E+00
        -11   -1    0    0    0    0  0.00000000000E+00  0.00000000000E+00  0.45593999997E+02  0.45594000000E+02  0.51100000000E-03 0. -1.
         11   -1    0    0    0    0 -0.00000000000E+00 -0.00000000000E+00 -0.45593999997E+02  0.45594000000E+02  0.51100000000E-03 0.  1.
    9900012    2    1    2    0    0 -0.22719341174E+02 -0.27924927836E+02  0.18899616747E+02  0.50528861160E+02  0.30000003981E+02 0.  0.
         12    1    1    2    0    0  0.22719341174E+02  0.27924927836E+02 -0.18899616747E+02  0.40659138840E+02  0.00000000000E+00 0. -1.
         11    1    3    3    0    0  0.88713739328E+00 -0.83157059368E+01  0.54908201322E+01  0.10004353251E+02  0.51100000000E-03 0. -1.
        -11    1    3    3    0    0 -0.26843286490E+02 -0.12753467088E+02  0.14133527550E+02  0.32908502755E+02  0.51100000000E-03 0.  1.
        -12    1    3    3    0    0  0.32368079230E+01 -0.68557548117E+01 -0.72473093460E+00  0.76160051534E+01  0.00000000000E+00 0.  1.
</event>
<event>
 7    1  0.6046695E-013  0.5052886E+02  0.7816164E-02  0.1300439E+00
        -11   -1    0    0    0    0  0.00000000000E+00  0.00000000000E+00  0.45593999997E+02  0.45594000000E+02  0.51100000000E-03 0. -1.
         11   -1    0    0    0    0 -0.00000000000E+00 -0.00000000000E+00 -0.45593999997E+02  0.45594000000E+02  0.51100000000E-03 0.  1.
    9900012    2    1    2    0    0 -0.12417209555E+01  0.16208780430E+02 -0.37267936628E+02  0.50528861611E+02  0.30000005354E+02 0.  0.
         12    1    1    2    0    0  0.12417209555E+01 -0.16208780430E+02  0.37267936628E+02  0.40659138389E+02  0.00000000000E+00 0. -1.
         11    1    3    3    0    0  0.30493634728E+01  0.18305265415E+02 -0.13665632404E+02  0.23046276679E+02  0.51100000000E-03 0. -1.
        -11    1    3    3    0    0 -0.35899498160E+01 -0.42263847316E+01 -0.24460833026E+02  0.25081515508E+02  0.51100000000E-03 0.  1.
        -12    1    3    3    0    0 -0.70113461232E+00  0.21298997473E+01  0.85852880207E+00  0.24010694247E+01  0.00000000000E+00 0.  1.
</event>
<event>
 7    1  0.6046695E-013  0.5052886E+02  0.7816164E-02  0.1300439E+00
        -11   -1    0    0    0    0  0.00000000000E+00  0.00000000000E+00  0.45593999997E+02  0.45594000000E+02  0.51100000000E-03 0. -1.
         11   -1    0    0    0    0 -0.00000000000E+00 -0.00000000000E+00 -0.45593999997E+02  0.45594000000E+02  0.51100000000E-03 0.  1.
    9900012    2    1    2    0    0 -0.18126382427E+02  0.36394918197E+02 -0.98602277082E-01  0.50528861632E+02  0.30000005416E+02 0.  0.
         12    1    1    2    0    0  0.18126382427E+02 -0.36394918197E+02  0.98602277082E-01  0.40659138368E+02  0.00000000000E+00 0. -1.
         11    1    3    3    0    0 -0.43297632937E+01  0.14838132108E+02  0.11020103454E+02  0.18983142391E+02  0.51100000000E-03 0. -1.
        -11    1    3    3    0    0 -0.16441889531E+02  0.15339003498E+02 -0.66653688012E+01  0.23453100033E+02  0.51100000000E-03 0.  1.
        -12    1    3    3    0    0  0.26452703978E+01  0.62177825918E+01 -0.44533369301E+01  0.80926192082E+01  0.00000000000E+00 0.  1.
</event>
<event>
 7    1  0.6046695E-013  0.5052885E+02  0.7816164E-02  0.1300439E+00
        -11   -1    0    0    0    0  0.00000000000E+00  0.00000000000E+00  0.45593999997E+02  0.45594000000E+02  0.51100000000E-03 0.  1.
         11   -1    0    0    0    0 -0.00000000000E+00 -0.00000000000E+00 -0.45593999997E+02  0.45594000000E+02  0.51100000000E-03 0. -1.
    9900012    2    1    2    0    0 -0.14749756393E+02 -0.37854167195E+02  0.16349654288E+01  0.50528850972E+02  0.29999973016E+02 0.  0.
         12    1    1    2    0    0  0.14749756393E+02  0.37854167195E+02 -0.16349654288E+01  0.40659149028E+02  0.00000000000E+00 0. -1.
         11    1    3    3    0    0 -0.82446804379E+01 -0.41261683251E+02  0.21014375496E+01  0.42129767389E+02  0.51100000000E-03 0.  1.
        -11    1    3    3    0    0 -0.63775373137E+01  0.28990863625E+01  0.77810357384E+00  0.70486260617E+01  0.51100000000E-03 0. -1.
        -12    1    3    3    0    0 -0.12753864155E+00  0.50842969315E+00 -0.12445756947E+01  0.13504575216E+01  0.00000000000E+00 0.  1.
</event>
<event>
 7    1  0.6046695E-013  0.5052886E+02  0.7816164E-02  0.1300439E+00
        -11   -1    0    0    0    0  0.00000000000E+00  0.00000000000E+00  0.45593999997E+02  0.45594000000E+02  0.51100000000E-03 0. -1.
         11   -1    0    0    0    0 -0.00000000000E+00 -0.00000000000E+00 -0.45593999997E+02  0.45594000000E+02  0.51100000000E-03 0.  1.
    9900012    2    1    2    0    0  0.40194805927E+02  0.48486137288E+01  0.37462583630E+01  0.50528856744E+02  0.29999990559E+02 0.  0.
         12    1    1    2    0    0 -0.40194805927E+02 -0.48486137288E+01 -0.37462583630E+01  0.40659143256E+02  0.00000000000E+00 0. -1.
         11    1    3    3    0    0  0.15784837333E+02  0.49281809135E+01 -0.11384771609E+02  0.20076381187E+02  0.51100000000E-03 0.  1.
        -11    1    3    3    0    0  0.19634395917E+02  0.29792815691E+01  0.14807738952E+02  0.24772055926E+02  0.51100000000E-03 0. -1.
         12    1    3    3    0    0  0.47755726770E+01 -0.30588487538E+01  0.32329101935E+00  0.56804196302E+01  0.00000000000E+00 0. -1.
</event>
<event>
 7    1  0.6046695E-013  0.5052886E+02  0.7816164E-02  0.1300439E+00
        -11   -1    0    0    0    0  0.00000000000E+00  0.00000000000E+00  0.45593999997E+02  0.45594000000E+02  0.51100000000E-03 0. -1.
         11   -1    0    0    0    0 -0.00000000000E+00 -0.00000000000E+00 -0.45593999997E+02  0.45594000000E+02  0.51100000000E-03 0.  1.
    9900012    2    1    2    0    0  0.11402209861E+02 -0.38859903541E+02 -0.36142639060E+01  0.50528863308E+02  0.30000010510E+02 0.  0.
         12    1    1    2    0    0 -0.11402209861E+02  0.38859903541E+02  0.36142639060E+01  0.40659136692E+02  0.00000000000E+00 0. -1.
         11    1    3    3    0    0 -0.44910195178E+01 -0.19353040128E+02  0.20253662016E+01  0.19970266073E+02  0.51100000000E-03 0. -1.
        -11    1    3    3    0    0  0.90910917688E+01  0.25114513344E+00 -0.24649909695E+01  0.94226962260E+01  0.51100000000E-03 0.  1.
         12    1    3    3    0    0  0.68021376105E+01 -0.19758008546E+02 -0.31746391380E+01  0.21135901009E+02  0.00000000000E+00 0. -1.
</event>
<event>
 7    1  0.6046695E-013  0.5052895E+02  0.7816164E-02  0.1300438E+00
        -11   -1    0    0    0    0  0.00000000000E+00  0.00000000000E+00  0.45593999997E+02  0.45594000000E+02  0.51100000000E-03 0.  1.
         11   -1    0    0    0    0 -0.00000000000E+00 -0.00000000000E+00 -0.45593999997E+02  0.45594000000E+02  0.51100000000E-03 0. -1.
    9900012    2    1    2    0    0 -0.40534899549E+02  0.30150704969E+01 -0.99465302933E+00  0.50528953452E+02  0.30000284510E+02 0.  0.
         12    1    1    2    0    0  0.40534899549E+02 -0.30150704969E+01  0.99465302933E+00  0.40659046548E+02  0.00000000000E+00 0. -1.
         11    1    3    3    0    0 -0.25014328124E+02 -0.39142616037E+01 -0.12196970726E+02  0.28103454424E+02  0.51100000000E-03 0. -1.
        -11    1    3    3    0    0 -0.15551866032E+01 -0.13750400979E+01  0.42949003935E+01  0.47702736078E+01  0.51100000000E-03 0.  1.
         12    1    3    3    0    0 -0.13965384822E+02  0.83043721985E+01  0.69074173030E+01  0.17655225420E+02  0.00000000000E+00 0. -1.
</event>
<event>
 7    1  0.6046695E-013  0.5052886E+02  0.7816164E-02  0.1300439E+00
        -11   -1    0    0    0    0  0.00000000000E+00  0.00000000000E+00  0.45593999997E+02  0.45594000000E+02  0.51100000000E-03 0. -1.
         11   -1    0    0    0    0 -0.00000000000E+00 -0.00000000000E+00 -0.45593999997E+02  0.45594000000E+02  0.51100000000E-03 0.  1.
    9900012    2    1    2    0    0 -0.37954007266E+02  0.11092243824E+01  0.14540591640E+02  0.50528857713E+02  0.29999993503E+02 0.  0.
         12    1    1    2    0    0  0.37954007266E+02 -0.11092243824E+01 -0.14540591640E+02  0.40659142287E+02  0.00000000000E+00 0. -1.
         11    1    3    3    0    0 -0.20954998604E+02  0.58568704768E+01  0.20774554973E+02  0.30083168598E+02  0.51100000000E-03 0.  1.
        -11    1    3    3    0    0 -0.59701715058E+01 -0.35897762320E+00 -0.61453933402E+01  0.85754109120E+01  0.51100000000E-03 0. -1.
        -12    1    3    3    0    0 -0.11028837156E+02 -0.43886684712E+01 -0.88569992872E-01  0.11870278203E+02  0.00000000000E+00 0.  1.
</event>
<event>
 7    1  0.6046695E-013  0.5052886E+02  0.7816164E-02  0.1300439E+00
        -11   -1    0    0    0    0  0.00000000000E+00  0.00000000000E+00  0.45593999997E+02  0.45594000000E+02  0.51100000000E-03 0. -1.
         11   -1    0    0    0    0 -0.00000000000E+00 -0.00000000000E+00 -0.45593999997E+02  0.45594000000E+02  0.51100000000E-03 0.  1.
    9900012    2    1    2    0    0 -0.37340243835E+01  0.35200379022E+02 -0.20003891299E+02  0.50528864637E+02  0.30000014549E+02 0.  0.
         12    1    1    2    0    0  0.37340243835E+01 -0.35200379022E+02  0.20003891299E+02  0.40659135363E+02  0.00000000000E+00 0. -1.
         11    1    3    3    0    0 -0.58305967749E+01  0.68226866623E+01  0.57137940931E+01  0.10639189595E+02  0.51100000000E-03 0. -1.
        -11    1    3    3    0    0  0.65413656159E+01  0.17607252528E+02 -0.17053568291E+02  0.25369844253E+02  0.51100000000E-03 0.  1.
        -12    1    3    3    0    0 -0.44447932244E+01  0.10770439832E+02 -0.86641171009E+01  0.14519830788E+02  0.00000000000E+00 0.  1.
</event>
<event>
 7    1  0.6046695E-013  0.5052886E+02  0.7816164E-02  0.1300439E+00
        -11   -1    0    0    0    0  0.00000000000E+00  0.00000000000E+00  0.45593999997E+02  0.45594000000E+02  0.51100000000E-03 0. -1.
         11   -1    0    0    0    0 -0.00000000000E+00 -0.00000000000E+00 -0.45593999997E+02  0.45594000000E+02  0.51100000000E-03 0.  1.
    9900012    2    1    2    0    0 -0.21184501692E+02  0.31441411976E+02 -0.14690814258E+02  0.50528861759E+02  0.30000005801E+02 0.  0.
         12    1    1    2    0    0  0.21184501692E+02 -0.31441411976E+02  0.14690814258E+02  0.40659138241E+02  0.00000000000E+00 0. -1.
         11    1    3    3    0    0  0.43201832153E+01  0.16918260912E+02 -0.79205526552E+01  0.19173593557E+02  0.51100000000E-03 0.  1.
        -11    1    3    3    0    0 -0.81310432369E+00  0.31892788222E+01  0.23008571861E+00  0.32993298935E+01  0.51100000000E-03 0. -1.
         12    1    3    3    0    0 -0.24691580583E+02  0.11333872243E+02 -0.70003473210E+01  0.28055938308E+02  0.00000000000E+00 0. -1.
</event>
<event>
 7    1  0.6046695E-013  0.5052886E+02  0.7816164E-02  0.1300439E+00
        -11   -1    0    0    0    0  0.00000000000E+00  0.00000000000E+00  0.45593999997E+02  0.45594000000E+02  0.51100000000E-03 0.  1.
         11   -1    0    0    0    0 -0.00000000000E+00 -0.00000000000E+00 -0.45593999997E+02  0.45594000000E+02  0.51100000000E-03 0. -1.
    9900012    2    1    2    0    0 -0.39702827952E+02 -0.70976643155E+01  0.51453183106E+01  0.50528859740E+02  0.29999999666E+02 0.  0.
         12    1    1    2    0    0  0.39702827952E+02  0.70976643155E+01 -0.51453183106E+01  0.40659140260E+02  0.00000000000E+00 0. -1.
         11    1    3    3    0    0 -0.82895871946E+01 -0.13796118797E+02  0.19172612563E+01  0.16208826012E+02  0.51100000000E-03 0. -1.
        -11    1    3    3    0    0 -0.25638822629E+02  0.41583989099E+01 -0.21055882869E+01  0.26059067704E+02  0.51100000000E-03 0.  1.
        -12    1    3    3    0    0 -0.57744181288E+01  0.25400555713E+01  0.53336453411E+01  0.82609660244E+01  0.00000000000E+00 0.  1.
</event>
<event>
 7    1  0.6046695E-013  0.5052886E+02  0.7816164E-02  0.1300439E+00
        -11   -1    0    0    0    0  0.00000000000E+00  0.00000000000E+00  0.45593999997E+02  0.45594000000E+02  0.51100000000E-03 0.  1.
         11   -1    0    0    0    0 -0.00000000000E+00 -0.00000000000E+00 -0.45593999997E+02  0.45594000000E+02  0.51100000000E-03 0. -1.
    9900012    2    1    2    0    0 -0.34794810304E+02  0.64123957549E+01 -0.20034172750E+02  0.50528859316E+02  0.29999998377E+02 0.  0.
         12    1    1    2    0    0  0.34794810304E+02 -0.64123957549E+01  0.20034172750E+02  0.40659140684E+02  0.00000000000E+00 0. -1.
         11    1    3    3    0    0 -0.21015615956E+02 -0.18694025474E+01 -0.77134609659E+01  0.22464377583E+02  0.51100000000E-03 0. -1.
        -11    1    3    3    0    0  0.32408517059E+01  0.55181482593E+01 -0.80808150575E+01  0.10307892716E+02  0.51100000000E-03 0.  1.
        -12    1    3    3    0    0 -0.17020046054E+02  0.27636500431E+01 -0.42398967265E+01  0.17756589016E+02  0.00000000000E+00 0.  1.
</event>
<event>
 7    1  0.6046695E-013  0.5052885E+02  0.7816164E-02  0.1300439E+00
        -11   -1    0    0    0    0  0.00000000000E+00  0.00000000000E+00  0.45593999997E+02  0.45594000000E+02  0.51100000000E-03 0. -1.
         11   -1    0    0    0    0 -0.00000000000E+00 -0.00000000000E+00 -0.45593999997E+02  0.45594000000E+02  0.51100000000E-03 0.  1.
    9900012    2    1    2    0    0  0.25519627652E+01 -0.31636988978E+02 -0.25411713739E+02  0.50528846287E+02  0.29999958772E+02 0.  0.
         12    1    1    2    0    0 -0.25519627652E+01  0.31636988978E+02  0.25411713739E+02  0.40659153713E+02  0.00000000000E+00 0. -1.
         11    1    3    3    0    0 -0.86211714080E-01 -0.19190891977E+02 -0.27869024899E+01  0.19392384925E+02  0.51100000000E-03 0. -1.
        -11    1    3    3    0    0 -0.66162499878E+01 -0.14055423166E+01 -0.93995907819E+01  0.11580268573E+02  0.51100000000E-03 0.  1.
        -12    1    3    3    0    0  0.92544244670E+01 -0.11040554684E+02 -0.13225220468E+02  0.19556192788E+02  0.00000000000E+00 0.  1.
</event>
<event>
 7    1  0.6046695E-013  0.5052886E+02  0.7816164E-02  0.1300439E+00
        -11   -1    0    0    0    0  0.00000000000E+00  0.00000000000E+00  0.45593999997E+02  0.45594000000E+02  0.51100000000E-03 0.  1.
         11   -1    0    0    0    0 -0.00000000000E+00 -0.00000000000E+00 -0.45593999997E+02  0.45594000000E+02  0.51100000000E-03 0. -1.
    9900012    2    1    2    0    0  0.17165853580E+02 -0.27524782722E+02  0.24512972033E+02  0.50528855999E+02  0.29999988294E+02 0.  0.
         12    1    1    2    0    0 -0.17165853580E+02  0.27524782722E+02 -0.24512972033E+02  0.40659144001E+02  0.00000000000E+00 0. -1.
         11    1    3    3    0    0 -0.40184510248E+01  0.40939561804E+01  0.52855734988E+01  0.78003662297E+01  0.51100000000E-03 0. -1.
        -11    1    3    3    0    0  0.70274753804E+01 -0.12540397886E+02  0.64920908181E+01  0.15773212508E+02  0.51100000000E-03 0.  1.
         12    1    3    3    0    0  0.14156829225E+02 -0.19078341016E+02  0.12735307716E+02  0.26955277261E+02  0.00000000000E+00 0. -1.
</event>
<event>
 7    1  0.6046695E-013  0.5052886E+02  0.7816164E-02  0.1300439E+00
        -11   -1    0    0    0    0  0.00000000000E+00  0.00000000000E+00  0.45593999997E+02  0.45594000000E+02  0.51100000000E-03 0. -1.
         11   -1    0    0    0    0 -0.00000000000E+00 -0.00000000000E+00 -0.45593999997E+02  0.45594000000E+02  0.51100000000E-03 0.  1.
    9900012    2    1    2    0    0  0.82760170569E+01  0.18355803943E+02 -0.35323331708E+02  0.50528858842E+02  0.29999996936E+02 0.  0.
         12    1    1    2    0    0 -0.82760170569E+01 -0.18355803943E+02  0.35323331708E+02  0.40659141158E+02  0.00000000000E+00 0. -1.
         11    1    3    3    0    0  0.93506382568E+01  0.19426435412E+02 -0.15603324580E+02  0.26613616192E+02  0.51100000000E-03 0. -1.
        -11    1    3    3    0    0 -0.34031748871E+00 -0.35791477334E+01 -0.20784386707E+02  0.21093052068E+02  0.51100000000E-03 0.  1.
         12    1    3    3    0    0 -0.73430371110E+00  0.25085162644E+01  0.10643795786E+01  0.28221905812E+01  0.00000000000E+00 0. -1.
</event>
<event>
 7    1  0.6046695E-013  0.5052880E+02  0.7816164E-02  0.1300439E+00
        -11   -1    0    0    0    0  0.00000000000E+00  0.00000000000E+00  0.45593999997E+02  0.45594000000E+02  0.51100000000E-03 0.  1.
         11   -1    0    0    0    0 -0.00000000000E+00 -0.00000000000E+00 -0.45593999997E+02  0.45594000000E+02  0.51100000000E-03 0. -1.
    9900012    2    1    2    0    0  0.49301252128E+01 -0.24168337103E+02  0.32322686576E+02  0.50528797839E+02  0.29999811511E+02 0.  0.
         12    1    1    2    0    0 -0.49301252128E+01  0.24168337103E+02 -0.32322686576E+02  0.40659202161E+02  0.00000000000E+00 0. -1.
         11    1    3    3    0    0  0.54830693462E+01  0.15039672675E+01  0.42667851353E+00  0.57015806415E+01  0.51100000000E-03 0. -1.
        -11    1    3    3    0    0 -0.45088436485E+01 -0.23256338949E+02  0.32430469287E+02  0.40161204050E+02  0.51100000000E-03 0.  1.
        -12    1    3    3    0    0  0.39558995151E+01 -0.24159654206E+01 -0.53446122450E+00  0.46660131469E+01  0.00000000000E+00 0.  1.
</event>
<event>
 7    1  0.6046695E-013  0.5052886E+02  0.7816164E-02  0.1300439E+00
        -11   -1    0    0    0    0  0.00000000000E+00  0.00000000000E+00  0.45593999997E+02  0.45594000000E+02  0.51100000000E-03 0.  1.
         11   -1    0    0    0    0 -0.00000000000E+00 -0.00000000000E+00 -0.45593999997E+02  0.45594000000E+02  0.51100000000E-03 0. -1.
    9900012    2    1    2    0    0 -0.17045097158E+01 -0.25498282744E+02  0.31624330665E+02  0.50528855072E+02  0.29999985477E+02 0.  0.
         12    1    1    2    0    0  0.17045097158E+01  0.25498282744E+02 -0.31624330665E+02  0.40659144928E+02  0.00000000000E+00 0. -1.
         11    1    3    3    0    0 -0.12101117665E+01  0.49136315527E+01  0.11720000199E+01  0.51943940774E+01  0.51100000000E-03 0. -1.
        -11    1    3    3    0    0  0.38354021585E+01 -0.23583737328E+02  0.28159334762E+02  0.36930354867E+02  0.51100000000E-03 0.  1.
         12    1    3    3    0    0 -0.43298001078E+01 -0.68281769685E+01  0.22929958827E+01  0.84041061276E+01  0.00000000000E+00 0. -1.
</event>
<event>
 7    1  0.6046695E-013  0.5052886E+02  0.7816164E-02  0.1300439E+00
        -11   -1    0    0    0    0  0.00000000000E+00  0.00000000000E+00  0.45593999997E+02  0.45594000000E+02  0.51100000000E-03 0.  1.
         11   -1    0    0    0    0 -0.00000000000E+00 -0.00000000000E+00 -0.45593999997E+02  0.45594000000E+02  0.51100000000E-03 0. -1.
    9900012    2    1    2    0    0 -0.49961598884E+01 -0.10819764290E+02  0.38873344388E+02  0.50528858140E+02  0.29999994801E+02 0.  0.
         12    1    1    2    0    0  0.49961598884E+01  0.10819764290E+02 -0.38873344388E+02  0.40659141860E+02  0.00000000000E+00 0. -1.
         11    1    3    3    0    0 -0.70781116143E+01  0.59007098446E+01  0.10956951408E+02  0.14316872043E+02  0.51100000000E-03 0. -1.
        -11    1    3    3    0    0  0.87976233992E+01 -0.11895414658E+02  0.17833388270E+02  0.23171724252E+02  0.51100000000E-03 0.  1.
         12    1    3    3    0    0 -0.67156716734E+01 -0.48250594768E+01  0.10083004710E+02  0.13040261844E+02  0.00000000000E+00 0. -1.
</event>
<event>
 7    1  0.6046695E-013  0.5052886E+02  0.7816164E-02  0.1300439E+00
        -11   -1    0    0    0    0  0.00000000000E+00  0.00000000000E+00  0.45593999997E+02  0.45594000000E+02  0.51100000000E-03 0.  1.
         11   -1    0    0    0    0 -0.00000000000E+00 -0.00000000000E+00 -0.45593999997E+02  0.45594000000E+02  0.51100000000E-03 0. -1.
    9900012    2    1    2    0    0 -0.15188090789E+01 -0.38837911566E+02  0.11936312779E+02  0.50528859348E+02  0.29999998474E+02 0.  0.
         12    1    1    2    0    0  0.15188090789E+01  0.38837911566E+02 -0.11936312779E+02  0.40659140652E+02  0.00000000000E+00 0. -1.
         11    1    3    3    0    0 -0.11799430726E+02 -0.20792968558E+02 -0.32026288869E+01  0.24121172006E+02  0.51100000000E-03 0. -1.
        -11    1    3    3    0    0  0.36250290926E+01 -0.39272416581E+01  0.69943385771E+01  0.88025470948E+01  0.51100000000E-03 0.  1.
         12    1    3    3    0    0  0.66555925544E+01 -0.14117701350E+02  0.81446030885E+01  0.17605140247E+02  0.00000000000E+00 0. -1.
</event>
<event>
 7    1  0.6046695E-013  0.5052885E+02  0.7816164E-02  0.1300439E+00
        -11   -1    0    0    0    0  0.00000000000E+00  0.00000000000E+00  0.45593999997E+02  0.45594000000E+02  0.51100000000E-03 0.  1.
         11   -1    0    0    0    0 -0.00000000000E+00 -0.00000000000E+00 -0.45593999997E+02  0.45594000000E+02  0.51100000000E-03 0. -1.
    9900012    2    1    2    0    0 -0.62643138954E+01 -0.36805585919E+02  0.16101968337E+02  0.50528853824E+02  0.29999981683E+02 0.  0.
         12    1    1    2    0    0  0.62643138954E+01  0.36805585919E+02 -0.16101968337E+02  0.40659146176E+02  0.00000000000E+00 0. -1.
         11    1    3    3    0    0 -0.44582347222E+01  0.13642064013E+01  0.26170248603E+01  0.53465629449E+01  0.51100000000E-03 0. -1.
        -11    1    3    3    0    0 -0.52434805382E+01 -0.28049362370E+02  0.17826545076E+02  0.33645899113E+02  0.51100000000E-03 0.  1.
        -12    1    3    3    0    0  0.34374013649E+01 -0.10120429950E+02 -0.43416015997E+01  0.11536391766E+02  0.00000000000E+00 0.  1.
</event>
<event>
 7    1  0.6046695E-013  0.5052885E+02  0.7816164E-02  0.1300439E+00
        -11   -1    0    0    0    0  0.00000000000E+00  0.00000000000E+00  0.45593999997E+02  0.45594000000E+02  0.51100000000E-03 0.  1.
         11   -1    0    0    0    0 -0.00000000000E+00 -0.00000000000E+00 -0.45593999997E+02  0.45594000000E+02  0.51100000000E-03 0. -1.
    9900012    2    1    2    0    0  0.21077128673E+02  0.32463220988E+02  0.12452322946E+02  0.50528850762E+02  0.29999972375E+02 0.  0.
         12    1    1    2    0    0 -0.21077128673E+02 -0.32463220988E+02 -0.12452322946E+02  0.40659149238E+02  0.00000000000E+00 0. -1.
         11    1    3    3    0    0  0.21277378001E+01  0.50875781156E+01  0.54086492665E+01  0.77242608952E+01  0.51100000000E-03 0.  1.
        -11    1    3    3    0    0 -0.23994117733E+01  0.14826705965E+02 -0.42175300526E+01  0.15600511101E+02  0.51100000000E-03 0. -1.
        -12    1    3    3    0    0  0.21348802647E+02  0.12548936908E+02  0.11261203732E+02  0.27204078765E+02  0.00000000000E+00 0.  1.
</event>
<event>
 7    1  0.6944163E-013  0.5052886E+02  0.7816164E-02  0.1300439E+00
        -11   -1    0    0    0    0  0.00000000000E+00  0.00000000000E+00  0.45593999997E+02  0.45594000000E+02  0.51100000000E-03 0. -1.
         11   -1    0    0    0    0 -0.00000000000E+00 -0.00000000000E+00 -0.45593999997E+02  0.45594000000E+02  0.51100000000E-03 0.  1.
    9900012    2    1    2    0    0  0.17869660079E+02  0.22413552685E+02 -0.28835285803E+02  0.50528858314E+02  0.29999995331E+02 0.  0.
         12    1    1    2    0    0 -0.17869660079E+02 -0.22413552685E+02  0.28835285803E+02  0.40659141686E+02  0.00000000000E+00 0. -1.
         11    1    3    3    0    0 -0.64502112215E+01  0.29564392559E+01 -0.94146275965E+01  0.11789019082E+02  0.51100000000E-03 0. -1.
        -11    1    3    3    0    0  0.14720181851E+02  0.13942083750E+02 -0.18802641622E+02  0.27651487939E+02  0.51100000000E-03 0.  1.
         12    1    3    3    0    0  0.95996894497E+01  0.55150296791E+01 -0.61801658406E+00  0.11088351293E+02  0.00000000000E+00 0. -1.
</event>
<event>
 7    1  0.6046695E-013  0.5052884E+02  0.7816164E-02  0.1300439E+00
        -11   -1    0    0    0    0  0.00000000000E+00  0.00000000000E+00  0.45593999997E+02  0.45594000000E+02  0.51100000000E-03 0.  1.
         11   -1    0    0    0    0 -0.00000000000E+00 -0.00000000000E+00 -0.45593999997E+02  0.45594000000E+02  0.51100000000E-03 0. -1.
    9900012    2    1    2    0    0  0.63595554648E+01  0.19392221441E+02  0.35166251876E+02  0.50528837821E+02  0.29999933040E+02 0.  0.
         12    1    1    2    0    0 -0.63595554648E+01 -0.19392221441E+02 -0.35166251876E+02  0.40659162179E+02  0.00000000000E+00 0. -1.
         11    1    3    3    0    0  0.81716359792E+01  0.10770546377E+02  0.23192115117E+02  0.26845008990E+02  0.51100000000E-03 0. -1.
        -11    1    3    3    0    0 -0.94926993470E+01  0.83056941569E+01  0.61096847120E+01  0.14015139809E+02  0.51100000000E-03 0.  1.
         12    1    3    3    0    0  0.76806188326E+01  0.31598090671E+00  0.58644520471E+01  0.96686890217E+01  0.00000000000E+00 0. -1.
</event>
<event>
 7    1  0.6046695E-013  0.5052886E+02  0.7816164E-02  0.1300439E+00
        -11   -1    0    0    0    0  0.00000000000E+00  0.00000000000E+00  0.45593999997E+02  0.45594000000E+02  0.51100000000E-03 0. -1.
         11   -1    0    0    0    0 -0.00000000000E+00 -0.00000000000E+00 -0.45593999997E+02  0.45594000000E+02  0.51100000000E-03 0.  1.
    9900012    2    1    2    0    0  0.68162525083E+00  0.25565991990E+02 -0.31608240456E+02  0.50528862969E+02  0.30000009480E+02 0.  0.
         12    1    1    2    0    0 -0.68162525083E+00 -0.25565991990E+02  0.31608240456E+02  0.40659137031E+02  0.00000000000E+00 0. -1.
         11    1    3    3    0    0 -0.45313051144E+00  0.29688556277E+02 -0.28639313418E+02  0.41253193505E+02  0.51100000000E-03 0.  1.
        -11    1    3    3    0    0 -0.52039934780E+00 -0.45585989405E+01  0.12224576233E+01  0.47482673348E+01  0.51100000000E-03 0. -1.
        -12    1    3    3    0    0  0.16551551101E+01  0.43603465335E+00 -0.41913846610E+01  0.45274021286E+01  0.00000000000E+00 0.  1.
</event>
<event>
 7    1  0.6046695E-013  0.5052886E+02  0.7816164E-02  0.1300439E+00
        -11   -1    0    0    0    0  0.00000000000E+00  0.00000000000E+00  0.45593999997E+02  0.45594000000E+02  0.51100000000E-03 0.  1.
         11   -1    0    0    0    0 -0.00000000000E+00 -0.00000000000E+00 -0.45593999997E+02  0.45594000000E+02  0.51100000000E-03 0. -1.
    9900012    2    1    2    0    0  0.20719676755E+02 -0.29649277717E+02  0.18568276156E+02  0.50528861379E+02  0.30000004647E+02 0.  0.
         12    1    1    2    0    0 -0.20719676755E+02  0.29649277717E+02 -0.18568276156E+02  0.40659138621E+02  0.00000000000E+00 0. -1.
         11    1    3    3    0    0  0.11683361369E+02  0.18054180207E+01  0.28216177681E+00  0.11825399893E+02  0.51100000000E-03 0. -1.
        -11    1    3    3    0    0  0.96190245526E+01 -0.17684024815E+02  0.87920725386E+01  0.21967041375E+02  0.51100000000E-03 0.  1.
         12    1    3    3    0    0 -0.58270916617E+00 -0.13770670923E+02  0.94940418408E+01  0.16736420110E+02  0.00000000000E+00 0. -1.
</event>
<event>
 7    1  0.6046695E-013  0.5052887E+02  0.7816164E-02  0.1300439E+00
        -11   -1    0    0    0    0  0.00000000000E+00  0.00000000000E+00  0.45593999997E+02  0.45594000000E+02  0.51100000000E-03 0.  1.
         11   -1    0    0    0    0 -0.00000000000E+00 -0.00000000000E+00 -0.45593999997E+02  0.45594000000E+02  0.51100000000E-03 0. -1.
    9900012    2    1    2    0    0 -0.14134535516E+02 -0.27490831086E+02  0.26412762836E+02  0.50528869061E+02  0.30000027998E+02 0.  0.
         12    1    1    2    0    0  0.14134535516E+02  0.27490831086E+02 -0.26412762836E+02  0.40659130939E+02  0.00000000000E+00 0. -1.
         11    1    3    3    0    0  0.48455715598E+01 -0.17830819487E+00 -0.43646155320E+00  0.48684552480E+01  0.51100000000E-03 0. -1.
        -11    1    3    3    0    0 -0.77867154950E+01 -0.22520857309E+02  0.22378373370E+02  0.32689655046E+02  0.51100000000E-03 0.  1.
        -12    1    3    3    0    0 -0.11193391581E+02 -0.47916655828E+01  0.44708510195E+01  0.12970758767E+02  0.00000000000E+00 0.  1.
</event>
<event>
 7    1  0.6046695E-013  0.5052886E+02  0.7816164E-02  0.1300439E+00
        -11   -1    0    0    0    0  0.00000000000E+00  0.00000000000E+00  0.45593999997E+02  0.45594000000E+02  0.51100000000E-03 0.  1.
         11   -1    0    0    0    0 -0.00000000000E+00 -0.00000000000E+00 -0.45593999997E+02  0.45594000000E+02  0.51100000000E-03 0. -1.
    9900012    2    1    2    0    0 -0.23991923733E+02 -0.89389811216E+01  0.31585561252E+02  0.50528862435E+02  0.30000007859E+02 0.  0.
         12    1    1    2    0    0  0.23991923733E+02  0.89389811216E+01 -0.31585561252E+02  0.40659137565E+02  0.00000000000E+00 0. -1.
         11    1    3    3    0    0 -0.76784485827E+00  0.60338648010E+01 -0.17695568717E+01  0.63347014095E+01  0.51100000000E-03 0. -1.
        -11    1    3    3    0    0 -0.21142782136E+01 -0.26977989546E+01  0.93215622089E+01  0.99317578424E+01  0.51100000000E-03 0.  1.
         12    1    3    3    0    0 -0.21109800661E+02 -0.12275046968E+02  0.24033555915E+02  0.34262403184E+02  0.00000000000E+00 0. -1.
</event>
<event>
 7    1  0.6046695E-013  0.5052886E+02  0.7816164E-02  0.1300439E+00
        -11   -1    0    0    0    0  0.00000000000E+00  0.00000000000E+00  0.45593999997E+02  0.45594000000E+02  0.51100000000E-03 0.  1.
         11   -1    0    0    0    0 -0.00000000000E+00 -0.00000000000E+00 -0.45593999997E+02  0.45594000000E+02  0.51100000000E-03 0. -1.
    9900012    2    1    2    0    0  0.15737323423E+02 -0.45332480140E+01  0.37214937753E+02  0.50528864766E+02  0.30000014942E+02 0.  0.
         12    1    1    2    0    0 -0.15737323423E+02  0.45332480140E+01 -0.37214937753E+02  0.40659135234E+02  0.00000000000E+00 0. -1.
         11    1    3    3    0    0  0.53427760567E+01 -0.11663582270E+02  0.17838975619E+02  0.21973016606E+02  0.51100000000E-03 0. -1.
        -11    1    3    3    0    0  0.90593615516E+01  0.11895198221E+02  0.18038686799E+02  0.23429937988E+02  0.51100000000E-03 0.  1.
        -12    1    3    3    0    0  0.13351858148E+01 -0.47648639649E+01  0.13372753346E+01  0.51259101713E+01  0.00000000000E+00 0.  1.
</event>
<event>
 7    1  0.6046695E-013  0.5052885E+02  0.7816164E-02  0.1300439E+00
        -11   -1    0    0    0    0  0.00000000000E+00  0.00000000000E+00  0.45593999997E+02  0.45594000000E+02  0.51100000000E-03 0.  1.
         11   -1    0    0    0    0 -0.00000000000E+00 -0.00000000000E+00 -0.45593999997E+02  0.45594000000E+02  0.51100000000E-03 0. -1.
    9900012    2    1    2    0    0  0.26235873531E+02 -0.29340129938E+02  0.10198136460E+02  0.50528852543E+02  0.29999977789E+02 0.  0.
         12    1    1    2    0    0 -0.26235873531E+02  0.29340129938E+02 -0.10198136460E+02  0.40659147457E+02  0.00000000000E+00 0. -1.
         11    1    3    3    0    0 -0.58643422294E+01 -0.71014519183E+01  0.44364562441E+01  0.10222684256E+02  0.51100000000E-03 0. -1.
        -11    1    3    3    0    0  0.18920215957E+02 -0.17776315926E+02  0.43002301668E+01  0.26314709945E+02  0.51100000000E-03 0.  1.
         12    1    3    3    0    0  0.13179999804E+02 -0.44623620938E+01  0.14614500488E+01  0.13991458342E+02  0.00000000000E+00 0. -1.
</event>
<event>
 7    1  0.6046695E-013  0.5052886E+02  0.7816164E-02  0.1300439E+00
        -11   -1    0    0    0    0  0.00000000000E+00  0.00000000000E+00  0.45593999997E+02  0.45594000000E+02  0.51100000000E-03 0.  1.
         11   -1    0    0    0    0 -0.00000000000E+00 -0.00000000000E+00 -0.45593999997E+02  0.45594000000E+02  0.51100000000E-03 0. -1.
    9900012    2    1    2    0    0  0.24955200141E+02  0.15190121237E+02  0.28278328108E+02  0.50528860340E+02  0.30000001490E+02 0.  0.
         12    1    1    2    0    0 -0.24955200141E+02 -0.15190121237E+02 -0.28278328108E+02  0.40659139660E+02  0.00000000000E+00 0. -1.
         11    1    3    3    0    0  0.72362457212E+01  0.10085371813E+02 -0.14261678921E+01  0.12494476054E+02  0.51100000000E-03 0. -1.
        -11    1    3    3    0    0  0.12016421510E+02 -0.37163056513E+01  0.11637077845E+02  0.17135544773E+02  0.51100000000E-03 0.  1.
         12    1    3    3    0    0  0.57025329097E+01  0.88210550755E+01  0.18067418155E+02  0.20898839514E+02  0.00000000000E+00 0. -1.
</event>
<event>
 7    1  0.6046695E-013  0.5052886E+02  0.7816164E-02  0.1300439E+00
        -11   -1    0    0    0    0  0.00000000000E+00  0.00000000000E+00  0.45593999997E+02  0.45594000000E+02  0.51100000000E-03 0. -1.
         11   -1    0    0    0    0 -0.00000000000E+00 -0.00000000000E+00 -0.45593999997E+02  0.45594000000E+02  0.51100000000E-03 0.  1.
    9900012    2    1    2    0    0 -0.31265805522E+02 -0.24452722679E+02  0.88135831744E+01  0.50528862162E+02  0.30000007027E+02 0.  0.
         12    1    1    2    0    0  0.31265805522E+02  0.24452722679E+02 -0.88135831744E+01  0.40659137838E+02  0.00000000000E+00 0. -1.
         11    1    3    3    0    0 -0.53517585225E+01  0.98543214637E+00  0.19491161369E+01  0.57802638153E+01  0.51100000000E-03 0. -1.
        -11    1    3    3    0    0 -0.13964684785E+02 -0.21546348623E+02  0.15039533063E+02  0.29756429812E+02  0.51100000000E-03 0.  1.
        -12    1    3    3    0    0 -0.11949362215E+02 -0.38918062024E+01 -0.81750660253E+01  0.14992168535E+02  0.00000000000E+00 0.  1.
</event>
<event>
 7    1  0.6046695E-013  0.5052885E+02  0.7816164E-02  0.1300439E+00
        -11   -1    0    0    0    0  0.00000000000E+00  0.00000000000E+00  0.45593999997E+02  0.45594000000E+02  0.51100000000E-03 0. -1.
         11   -1    0    0    0    0 -0.00000000000E+00 -0.00000000000E+00 -0.45593999997E+02  0.45594000000E+02  0.51100000000E-03 0.  1.
    9900012    2    1    2    0    0  0.21915517826E+02  0.14072214144E+02 -0.31222574570E+02  0.50528852256E+02  0.29999976917E+02 0.  0.
         12    1    1    2    0    0 -0.21915517826E+02 -0.14072214144E+02  0.31222574570E+02  0.40659147744E+02  0.00000000000E+00 0. -1.
         11    1    3    3    0    0  0.18592696826E+02  0.26223388878E+01 -0.68392981155E+01  0.19983519097E+02  0.51100000000E-03 0. -1.
        -11    1    3    3    0    0  0.41711685729E+01  0.10809615043E+02 -0.78898759741E+01  0.14017723345E+02  0.51100000000E-03 0.  1.
         12    1    3    3    0    0 -0.84834757304E+00  0.64026021293E+00 -0.16493400481E+02  0.16527609814E+02  0.00000000000E+00 0. -1.
</event>
<event>
 7    1  0.6046695E-013  0.5052886E+02  0.7816164E-02  0.1300439E+00
        -11   -1    0    0    0    0  0.00000000000E+00  0.00000000000E+00  0.45593999997E+02  0.45594000000E+02  0.51100000000E-03 0.  1.
         11   -1    0    0    0    0 -0.00000000000E+00 -0.00000000000E+00 -0.45593999997E+02  0.45594000000E+02  0.51100000000E-03 0. -1.
    9900012    2    1    2    0    0 -0.20719372742E+02  0.22466217955E+02  0.26816831473E+02  0.50528858269E+02  0.29999995194E+02 0.  0.
         12    1    1    2    0    0  0.20719372742E+02 -0.22466217955E+02 -0.26816831473E+02  0.40659141731E+02  0.00000000000E+00 0. -1.
         11    1    3    3    0    0 -0.97478141414E+01  0.18829943577E+02  0.30476666601E+02  0.37126996418E+02  0.51100000000E-03 0. -1.
        -11    1    3    3    0    0 -0.97249887594E+01  0.49086666455E+01 -0.22342171111E+01  0.11120348060E+02  0.51100000000E-03 0.  1.
         12    1    3    3    0    0 -0.12465698416E+01 -0.12723922680E+01 -0.14256180160E+01  0.22815137916E+01  0.00000000000E+00 0. -1.
</event>
<event>
 7    1  0.6046695E-013  0.5052884E+02  0.7816164E-02  0.1300439E+00
        -11   -1    0    0    0    0  0.00000000000E+00  0.00000000000E+00  0.45593999997E+02  0.45594000000E+02  0.51100000000E-03 0.  1.
         11   -1    0    0    0    0 -0.00000000000E+00 -0.00000000000E+00 -0.45593999997E+02  0.45594000000E+02  0.51100000000E-03 0. -1.
    9900012    2    1    2    0    0  0.45196093312E+01  0.23345860545E+01  0.40339684719E+02  0.50528839608E+02  0.29999938473E+02 0.  0.
         12    1    1    2    0    0 -0.45196093312E+01 -0.23345860545E+01 -0.40339684719E+02  0.40659160392E+02  0.00000000000E+00 0. -1.
         11    1    3    3    0    0  0.76221506266E+01  0.61298285526E+01  0.31797746110E+01  0.10285083621E+02  0.51100000000E-03 0. -1.
        -11    1    3    3    0    0 -0.31476256084E+00  0.18947122462E+01  0.32040071660E+02  0.32097588728E+02  0.51100000000E-03 0.  1.
        -12    1    3    3    0    0 -0.27877787346E+01 -0.56899547443E+01  0.51198384484E+01  0.81461672584E+01  0.00000000000E+00 0.  1.
</event>
<event>
 7    1  0.6046695E-013  0.5052886E+02  0.7816164E-02  0.1300439E+00
        -11   -1    0    0    0    0  0.00000000000E+00  0.00000000000E+00  0.45593999997E+02  0.45594000000E+02  0.51100000000E-03 0.  1.
         11   -1    0    0    0    0 -0.00000000000E+00 -0.00000000000E+00 -0.45593999997E+02  0.45594000000E+02  0.51100000000E-03 0. -1.
    9900012    2    1    2    0    0 -0.20532571203E+02  0.99937303472E+01  0.33640815970E+02  0.50528860491E+02  0.30000001949E+02 0.  0.
         12    1    1    2    0    0  0.20532571203E+02 -0.99937303472E+01 -0.33640815970E+02  0.40659139509E+02  0.00000000000E+00 0. -1.
         11    1    3    3    0    0  0.34908458513E+01 -0.48830812316E+01  0.77922719767E+01  0.98361572726E+01  0.51100000000E-03 0. -1.
        -11    1    3    3    0    0 -0.10861399346E+02  0.12587473809E+02  0.20267344073E+02  0.26214113159E+02  0.51100000000E-03 0.  1.
        -12    1    3    3    0    0 -0.13162017708E+02  0.22893377695E+01  0.55811999200E+01  0.14478590060E+02  0.00000000000E+00 0.  1.
</event>
<event>
 7    1  0.6046695E-013  0.5052885E+02  0.7816164E-02  0.1300439E+00
        -11   -1    0    0    0    0  0.00000000000E+00  0.00000000000E+00  0.45593999997E+02  0.45594000000E+02  0.51100000000E-03 0.  1.
         11   -1    0    0    0    0 -0.00000000000E+00 -0.00000000000E+00 -0.45593999997E+02  0.45594000000E+02  0.51100000000E-03 0. -1.
    9900012    2    1    2    0    0 -0.38477421437E+02  0.25426073703E+01  0.12891442656E+02  0.50528854579E+02  0.29999983977E+02 0.  0.
         12    1    1    2    0    0  0.38477421437E+02 -0.25426073703E+01 -0.12891442656E+02  0.40659145421E+02  0.00000000000E+00 0. -1.
         11    1    3    3    0    0 -0.14231759387E+02 -0.68383873688E+01  0.17956907971E+02  0.23911442056E+02  0.51100000000E-03 0. -1.
        -11    1    3    3    0    0 -0.11559513004E+02  0.30650130823E+01 -0.24055160351E+01  0.12198489814E+02  0.51100000000E-03 0.  1.
         12    1    3    3    0    0 -0.12686149046E+02  0.63159816568E+01 -0.26599492804E+01  0.14418922709E+02  0.00000000000E+00 0. -1.
</event>
<event>
 7    1  0.6046695E-013  0.5052885E+02  0.7816164E-02  0.1300439E+00
        -11   -1    0    0    0    0  0.00000000000E+00  0.00000000000E+00  0.45593999997E+02  0.45594000000E+02  0.51100000000E-03 0.  1.
         11   -1    0    0    0    0 -0.00000000000E+00 -0.00000000000E+00 -0.45593999997E+02  0.45594000000E+02  0.51100000000E-03 0. -1.
    9900012    2    1    2    0    0 -0.85895810504E+01  0.23400810572E+02  0.32121447266E+02  0.50528853273E+02  0.29999980010E+02 0.  0.
         12    1    1    2    0    0  0.85895810504E+01 -0.23400810572E+02 -0.32121447266E+02  0.40659146727E+02  0.00000000000E+00 0. -1.
         11    1    3    3    0    0  0.52078329195E+00  0.13767236419E+02  0.67927114973E+01  0.15360629661E+02  0.51100000000E-03 0. -1.
        -11    1    3    3    0    0 -0.15661969673E+02  0.69264650682E+01  0.15870870336E+02  0.23348613189E+02  0.51100000000E-03 0.  1.
        -12    1    3    3    0    0  0.65516053305E+01  0.27071090854E+01  0.94578654333E+01  0.11819610423E+02  0.00000000000E+00 0.  1.
</event>
<event>
 7    1  0.6046695E-013  0.5052886E+02  0.7816164E-02  0.1300439E+00
        -11   -1    0    0    0    0  0.00000000000E+00  0.00000000000E+00  0.45593999997E+02  0.45594000000E+02  0.51100000000E-03 0.  1.
         11   -1    0    0    0    0 -0.00000000000E+00 -0.00000000000E+00 -0.45593999997E+02  0.45594000000E+02  0.51100000000E-03 0. -1.
    9900012    2    1    2    0    0 -0.29607783058E+01 -0.39053469205E+02 -0.10919053318E+02  0.50528863382E+02  0.30000010736E+02 0.  0.
         12    1    1    2    0    0  0.29607783058E+01  0.39053469205E+02  0.10919053318E+02  0.40659136618E+02  0.00000000000E+00 0. -1.
         11    1    3    3    0    0 -0.68488309060E+00 -0.26171014294E+00 -0.57205244308E+01  0.57673180137E+01  0.51100000000E-03 0. -1.
        -11    1    3    3    0    0  0.87498639363E+00 -0.33949923762E+02  0.36896316549E+01  0.34161034918E+02  0.51100000000E-03 0.  1.
        -12    1    3    3    0    0 -0.31508816088E+01 -0.48418353003E+01 -0.88881605423E+01  0.10600510451E+02  0.00000000000E+00 0.  1.
</event>
<event>
 7    1  0.6832687E-013  0.5052887E+02  0.7816164E-02  0.1300439E+00
        -11   -1    0    0    0    0  0.00000000000E+00  0.00000000000E+00  0.45593999997E+02  0.45594000000E+02  0.51100000000E-03 0. -1.
         11   -1    0    0    0    0 -0.00000000000E+00 -0.00000000000E+00 -0.45593999997E+02  0.45594000000E+02  0.51100000000E-03 0.  1.
    9900012    2    1    2    0    0 -0.14832841495E+02  0.63191251463E+01 -0.37325868133E+02  0.50528868660E+02  0.30000026780E+02 0.  0.
         12    1    1    2    0    0  0.14832841495E+02 -0.63191251463E+01  0.37325868133E+02  0.40659131340E+02  0.00000000000E+00 0. -1.
         11    1    3    3    0    0  0.39867658261E+01  0.52579919977E+01 -0.16300761346E+02  0.17585664682E+02  0.51100000000E-03 0. -1.
        -11    1    3    3    0    0 -0.14463953013E+02 -0.63937088226E+01 -0.17582810560E+02  0.23648270058E+02  0.51100000000E-03 0.  1.
         12    1    3    3    0    0 -0.43556543080E+01  0.74548419712E+01 -0.34422962266E+01  0.92949339200E+01  0.00000000000E+00 0. -1.
</event>
<event>
 7    1  0.6046695E-013  0.5052884E+02  0.7816164E-02  0.1300439E+00
        -11   -1    0    0    0    0  0.00000000000E+00  0.00000000000E+00  0.45593999997E+02  0.45594000000E+02  0.51100000000E-03 0.  1.
         11   -1    0    0    0    0 -0.00000000000E+00 -0.00000000000E+00 -0.45593999997E+02  0.45594000000E+02  0.51100000000E-03 0. -1.
    9900012    2    1    2    0    0  0.17157810908E+02 -0.16756315013E+02  0.32832949114E+02  0.50528842170E+02  0.29999946258E+02 0.  0.
         12    1    1    2    0    0 -0.17157810908E+02  0.16756315013E+02 -0.32832949114E+02  0.40659157830E+02  0.00000000000E+00 0. -1.
         11    1    3    3    0    0  0.18720620230E+02 -0.14732666091E+02  0.11941929250E+02  0.26648128385E+02  0.51100000000E-03 0. -1.
        -11    1    3    3    0    0  0.27458617954E+01 -0.29395783633E+01  0.18370230469E+02  0.18805484458E+02  0.51100000000E-03 0.  1.
         12    1    3    3    0    0 -0.43086711181E+01  0.91592944048E+00  0.25207893953E+01  0.50752293268E+01  0.00000000000E+00 0. -1.
</event>
<event>
 7    1  0.6046695E-013  0.5052886E+02  0.7816164E-02  0.1300439E+00
        -11   -1    0    0    0    0  0.00000000000E+00  0.00000000000E+00  0.45593999997E+02  0.45594000000E+02  0.51100000000E-03 0.  1.
         11   -1    0    0    0    0 -0.00000000000E+00 -0.00000000000E+00 -0.45593999997E+02  0.45594000000E+02  0.51100000000E-03 0. -1.
    9900012    2    1    2    0    0 -0.10381934317E+01  0.11835169696E+02  0.38884652222E+02  0.50528864916E+02  0.30000015398E+02 0.  0.
         12    1    1    2    0    0  0.10381934317E+01 -0.11835169696E+02 -0.38884652222E+02  0.40659135084E+02  0.00000000000E+00 0. -1.
         11    1    3    3    0    0  0.55874438590E+01  0.38791217972E+01  0.45054420704E+00  0.68168984985E+01  0.51100000000E-03 0. -1.
        -11    1    3    3    0    0 -0.39976408127E+01  0.99970461802E+01  0.38890493852E+02  0.40353346537E+02  0.51100000000E-03 0.  1.
        -12    1    3    3    0    0 -0.26279964780E+01 -0.20409982810E+01 -0.45638583655E+00  0.33586198807E+01  0.00000000000E+00 0.  1.
</event>
<event>
 7    1  0.6046695E-013  0.5052886E+02  0.7816164E-02  0.1300439E+00
        -11   -1    0    0    0    0  0.00000000000E+00  0.00000000000E+00  0.45593999997E+02  0.45594000000E+02  0.51100000000E-03 0. -1.
         11   -1    0    0    0    0 -0.00000000000E+00 -0.00000000000E+00 -0.45593999997E+02  0.45594000000E+02  0.51100000000E-03 0.  1.
    9900012    2    1    2    0    0 -0.60381368083E+01  0.15870123528E+02 -0.36943817902E+02  0.50528860830E+02  0.30000002979E+02 0.  0.
         12    1    1    2    0    0  0.60381368083E+01 -0.15870123528E+02  0.36943817902E+02  0.40659139170E+02  0.00000000000E+00 0. -1.
         11    1    3    3    0    0 -0.64580090000E+01  0.17418070747E+02 -0.10925821579E+02  0.21551534661E+02  0.51100000000E-03 0. -1.
        -11    1    3    3    0    0 -0.58881210587E+01 -0.62523414750E+00 -0.16420046460E+02  0.17455051228E+02  0.51100000000E-03 0.  1.
         12    1    3    3    0    0  0.63079932503E+01 -0.92271307226E+00 -0.95979498626E+01  0.11522274941E+02  0.00000000000E+00 0. -1.
</event>
<event>
 7    1  0.6046695E-013  0.5052886E+02  0.7816164E-02  0.1300439E+00
        -11   -1    0    0    0    0  0.00000000000E+00  0.00000000000E+00  0.45593999997E+02  0.45594000000E+02  0.51100000000E-03 0. -1.
         11   -1    0    0    0    0 -0.00000000000E+00 -0.00000000000E+00 -0.45593999997E+02  0.45594000000E+02  0.51100000000E-03 0.  1.
    9900012    2    1    2    0    0 -0.40001185543E+02  0.11409473956E+01 -0.71950576656E+01  0.50528862520E+02  0.30000008117E+02 0.  0.
         12    1    1    2    0    0  0.40001185543E+02 -0.11409473956E+01  0.71950576656E+01  0.40659137480E+02  0.00000000000E+00 0. -1.
         11    1    3    3    0    0 -0.15187088938E+02 -0.28015716940E+01 -0.94213884913E+01  0.18090302257E+02  0.51100000000E-03 0. -1.
        -11    1    3    3    0    0 -0.67207553128E+01 -0.10804485159E+01  0.10015296202E+02  0.12109586254E+02  0.51100000000E-03 0.  1.
        -12    1    3    3    0    0 -0.18093341291E+02  0.50229676055E+01 -0.77889653760E+01  0.20328974010E+02  0.00000000000E+00 0.  1.
</event>
<event>
 7    1  0.6046695E-013  0.5052886E+02  0.7816164E-02  0.1300439E+00
        -11   -1    0    0    0    0  0.00000000000E+00  0.00000000000E+00  0.45593999997E+02  0.45594000000E+02  0.51100000000E-03 0.  1.
         11   -1    0    0    0    0 -0.00000000000E+00 -0.00000000000E+00 -0.45593999997E+02  0.45594000000E+02  0.51100000000E-03 0. -1.
    9900012    2    1    2    0    0  0.18478818949E+02  0.54129142318E+01  0.35810600283E+02  0.50528862246E+02  0.30000007283E+02 0.  0.
         12    1    1    2    0    0 -0.18478818949E+02 -0.54129142318E+01 -0.35810600283E+02  0.40659137754E+02  0.00000000000E+00 0. -1.
         11    1    3    3    0    0  0.56184830499E+00  0.11413617593E+02  0.72566143491E+01  0.13536794013E+02  0.51100000000E-03 0. -1.
        -11    1    3    3    0    0  0.11119652270E+02 -0.27836988184E+01  0.54450735077E+01  0.12690329842E+02  0.51100000000E-03 0.  1.
         12    1    3    3    0    0  0.67973183741E+01 -0.32170045431E+01  0.23108912426E+02  0.24301738391E+02  0.00000000000E+00 0. -1.
</event>
<event>
 7    1  0.6046695E-013  0.5052887E+02  0.7816164E-02  0.1300439E+00
        -11   -1    0    0    0    0  0.00000000000E+00  0.00000000000E+00  0.45593999997E+02  0.45594000000E+02  0.51100000000E-03 0.  1.
         11   -1    0    0    0    0 -0.00000000000E+00 -0.00000000000E+00 -0.45593999997E+02  0.45594000000E+02  0.51100000000E-03 0. -1.
    9900012    2    1    2    0    0 -0.24947891838E+02 -0.98555375987E+01  0.30555450146E+02  0.50528874799E+02  0.30000045439E+02 0.  0.
         12    1    1    2    0    0  0.24947891838E+02  0.98555375987E+01 -0.30555450146E+02  0.40659125201E+02  0.00000000000E+00 0. -1.
         11    1    3    3    0    0 -0.12093261917E-01 -0.10174103663E+02  0.19666142487E+02  0.22142034508E+02  0.51100000000E-03 0. -1.
        -11    1    3    3    0    0 -0.14016326396E+02  0.29548664423E+01  0.29335670337E+01  0.14621711840E+02  0.51100000000E-03 0.  1.
         12    1    3    3    0    0 -0.10919472180E+02 -0.26363003781E+01  0.79557406253E+01  0.13765128451E+02  0.00000000000E+00 0. -1.
</event>
<event>
 7    1  0.6046695E-013  0.5052886E+02  0.7816164E-02  0.1300439E+00
        -11   -1    0    0    0    0  0.00000000000E+00  0.00000000000E+00  0.45593999997E+02  0.45594000000E+02  0.51100000000E-03 0.  1.
         11   -1    0    0    0    0 -0.00000000000E+00 -0.00000000000E+00 -0.45593999997E+02  0.45594000000E+02  0.51100000000E-03 0. -1.
    9900012    2    1    2    0    0 -0.28869824401E+01  0.20155986692E+02  0.35193285793E+02  0.50528857952E+02  0.29999994231E+02 0.  0.
         12    1    1    2    0    0  0.28869824401E+01 -0.20155986692E+02 -0.35193285793E+02  0.40659142048E+02  0.00000000000E+00 0. -1.
         11    1    3    3    0    0  0.91143237021E+01  0.22674594331E+00  0.48074023499E+01  0.10306960167E+02  0.51100000000E-03 0. -1.
        -11    1    3    3    0    0 -0.89243581837E+01  0.97790810469E+01  0.80466789609E+01  0.15492696269E+02  0.51100000000E-03 0.  1.
         12    1    3    3    0    0 -0.30769479586E+01  0.10150159702E+02  0.22339204483E+02  0.24729201516E+02  0.00000000000E+00 0. -1.
</event>
<event>
 7    1  0.6046695E-013  0.5052889E+02  0.7816164E-02  0.1300439E+00
        -11   -1    0    0    0    0  0.00000000000E+00  0.00000000000E+00  0.45593999997E+02  0.45594000000E+02  0.51100000000E-03 0. -1.
         11   -1    0    0    0    0 -0.00000000000E+00 -0.00000000000E+00 -0.45593999997E+02  0.45594000000E+02  0.51100000000E-03 0.  1.
    9900012    2    1    2    0    0  0.20437893559E+00  0.39404262486E+02 -0.10021246065E+02  0.50528892219E+02  0.30000098390E+02 0.  0.
         12    1    1    2    0    0 -0.20437893559E+00 -0.39404262486E+02  0.10021246065E+02  0.40659107781E+02  0.00000000000E+00 0. -1.
         11    1    3    3    0    0 -0.10454109599E+01  0.16635740839E+02 -0.18732347807E+02  0.25074720575E+02  0.51100000000E-03 0. -1.
        -11    1    3    3    0    0  0.13608742907E+01  0.21612247002E+02  0.59483584978E+01  0.22457162964E+02  0.51100000000E-03 0.  1.
         12    1    3    3    0    0 -0.11108439520E+00  0.11562746452E+01  0.27627432436E+01  0.29970086800E+01  0.00000000000E+00 0. -1.
</event>
<event>
 7    1  0.6046695E-013  0.5052886E+02  0.7816164E-02  0.1300439E+00
        -11   -1    0    0    0    0  0.00000000000E+00  0.00000000000E+00  0.45593999997E+02  0.45594000000E+02  0.51100000000E-03 0.  1.
         11   -1    0    0    0    0 -0.00000000000E+00 -0.00000000000E+00 -0.45593999997E+02  0.45594000000E+02  0.51100000000E-03 0. -1.
    9900012    2    1    2    0    0 -0.20061114890E+02  0.32589113863E+02  0.13735604456E+02  0.50528862001E+02  0.30000006539E+02 0.  0.
         12    1    1    2    0    0  0.20061114890E+02 -0.32589113863E+02 -0.13735604456E+02  0.40659137999E+02  0.00000000000E+00 0. -1.
         11    1    3    3    0    0 -0.53064844178E+01  0.92065406154E+01  0.14722654350E+02  0.18156974372E+02  0.51100000000E-03 0. -1.
        -11    1    3    3    0    0 -0.10886534842E+02  0.23643167896E+02 -0.53099226997E+01  0.26565227429E+02  0.51100000000E-03 0.  1.
         12    1    3    3    0    0 -0.38680956311E+01 -0.26059464846E+00  0.43228728057E+01  0.58066601999E+01  0.00000000000E+00 0. -1.
</event>
<event>
 7    1  0.6046695E-013  0.5052885E+02  0.7816164E-02  0.1300439E+00
        -11   -1    0    0    0    0  0.00000000000E+00  0.00000000000E+00  0.45593999997E+02  0.45594000000E+02  0.51100000000E-03 0. -1.
         11   -1    0    0    0    0 -0.00000000000E+00 -0.00000000000E+00 -0.45593999997E+02  0.45594000000E+02  0.51100000000E-03 0.  1.
    9900012    2    1    2    0    0 -0.26154822504E+02 -0.15956958057E+02 -0.26729515268E+02  0.50528852971E+02  0.29999979092E+02 0.  0.
         12    1    1    2    0    0  0.26154822504E+02  0.15956958057E+02  0.26729515268E+02  0.40659147029E+02  0.00000000000E+00 0. -1.
         11    1    3    3    0    0 -0.16070605870E+02 -0.19145372393E+01 -0.80619769380E-02  0.16184248241E+02  0.51100000000E-03 0. -1.
        -11    1    3    3    0    0 -0.88576080495E+01 -0.93802557840E+01 -0.26552444222E+02  0.29520818304E+02  0.51100000000E-03 0.  1.
        -12    1    3    3    0    0 -0.12266085842E+01 -0.46621650336E+01 -0.16900906886E+00  0.48237864261E+01  0.00000000000E+00 0.  1.
</event>
<event>
 7    1  0.6046695E-013  0.5052886E+02  0.7816164E-02  0.1300439E+00
        -11   -1    0    0    0    0  0.00000000000E+00  0.00000000000E+00  0.45593999997E+02  0.45594000000E+02  0.51100000000E-03 0. -1.
         11   -1    0    0    0    0 -0.00000000000E+00 -0.00000000000E+00 -0.45593999997E+02  0.45594000000E+02  0.51100000000E-03 0.  1.
    9900012    2    1    2    0    0 -0.27658215332E+02  0.11804084009E+02 -0.27365162863E+02  0.50528863103E+02  0.30000009889E+02 0.  0.
         12    1    1    2    0    0  0.27658215332E+02 -0.11804084009E+02  0.27365162863E+02  0.40659136897E+02  0.00000000000E+00 0. -1.
         11    1    3    3    0    0  0.54522789143E+01  0.44354853239E+01 -0.28700139285E+01  0.75919599333E+01  0.51100000000E-03 0. -1.
        -11    1    3    3    0    0 -0.16900869728E+02  0.94457944169E-01 -0.15881492562E+02  0.23192027210E+02  0.51100000000E-03 0.  1.
         12    1    3    3    0    0 -0.16209624519E+02  0.72741407412E+01 -0.86136563727E+01  0.19744875960E+02  0.00000000000E+00 0. -1.
</event>
<event>
 7    1  0.6046695E-013  0.5052886E+02  0.7816164E-02  0.1300439E+00
        -11   -1    0    0    0    0  0.00000000000E+00  0.00000000000E+00  0.45593999997E+02  0.45594000000E+02  0.51100000000E-03 0.  1.
         11   -1    0    0    0    0 -0.00000000000E+00 -0.00000000000E+00 -0.45593999997E+02  0.45594000000E+02  0.51100000000E-03 0. -1.
    9900012    2    1    2    0    0  0.39881138784E+02  0.78311557190E+01  0.11548102827E+01  0.50528858133E+02  0.29999994780E+02 0.  0.
         12    1    1    2    0    0 -0.39881138784E+02 -0.78311557190E+01 -0.11548102827E+01  0.40659141867E+02  0.00000000000E+00 0. -1.
         11    1    3    3    0    0 -0.61003461865E+00  0.44184956495E+01 -0.68121941188E+01  0.81425570316E+01  0.51100000000E-03 0. -1.
        -11    1    3    3    0    0  0.23643424833E+02  0.59983794281E+01  0.26751441375E+01  0.24538714107E+02  0.51100000000E-03 0.  1.
         12    1    3    3    0    0  0.16847748569E+02 -0.25857193586E+01  0.52918602639E+01  0.17847586994E+02  0.00000000000E+00 0. -1.
</event>
<event>
 7    1  0.6046695E-013  0.5052882E+02  0.7816164E-02  0.1300439E+00
        -11   -1    0    0    0    0  0.00000000000E+00  0.00000000000E+00  0.45593999997E+02  0.45594000000E+02  0.51100000000E-03 0.  1.
         11   -1    0    0    0    0 -0.00000000000E+00 -0.00000000000E+00 -0.45593999997E+02  0.45594000000E+02  0.51100000000E-03 0. -1.
    9900012    2    1    2    0    0  0.14449348131E+02  0.19908446914E+02  0.32373427396E+02  0.50528822423E+02  0.29999886235E+02 0.  0.
         12    1    1    2    0    0 -0.14449348131E+02 -0.19908446914E+02 -0.32373427396E+02  0.40659177577E+02  0.00000000000E+00 0. -1.
         11    1    3    3    0    0 -0.39087813887E+01  0.70592948734E+01  0.15299137692E+02  0.17296699987E+02  0.51100000000E-03 0. -1.
        -11    1    3    3    0    0  0.20159941852E+02  0.57054382786E+01  0.14266656738E+02  0.25347835730E+02  0.51100000000E-03 0.  1.
         12    1    3    3    0    0 -0.18018123328E+01  0.71437137621E+01  0.28076329655E+01  0.78842867062E+01  0.00000000000E+00 0. -1.
</event>
<event>
 7    1  0.6046695E-013  0.5052885E+02  0.7816164E-02  0.1300439E+00
        -11   -1    0    0    0    0  0.00000000000E+00  0.00000000000E+00  0.45593999997E+02  0.45594000000E+02  0.51100000000E-03 0.  1.
         11   -1    0    0    0    0 -0.00000000000E+00 -0.00000000000E+00 -0.45593999997E+02  0.45594000000E+02  0.51100000000E-03 0. -1.
    9900012    2    1    2    0    0  0.22682160156E+02 -0.57136554936E+01  0.33257180041E+02  0.50528852534E+02  0.29999977761E+02 0.  0.
         12    1    1    2    0    0 -0.22682160156E+02  0.57136554936E+01 -0.33257180041E+02  0.40659147466E+02  0.00000000000E+00 0. -1.
         11    1    3    3    0    0  0.46828001963E+01 -0.49504562219E+01  0.10545146983E+02  0.12555308026E+02  0.51100000000E-03 0. -1.
        -11    1    3    3    0    0  0.17050580318E+02  0.11022524182E+01  0.20533382615E+01  0.17209109444E+02  0.51100000000E-03 0.  1.
        -12    1    3    3    0    0  0.94877964144E+00 -0.18654516899E+01  0.20658694797E+02  0.20764435064E+02  0.00000000000E+00 0.  1.
</event>
<event>
 7    1  0.6046695E-013  0.5052886E+02  0.7816164E-02  0.1300439E+00
        -11   -1    0    0    0    0  0.00000000000E+00  0.00000000000E+00  0.45593999997E+02  0.45594000000E+02  0.51100000000E-03 0.  1.
         11   -1    0    0    0    0 -0.00000000000E+00 -0.00000000000E+00 -0.45593999997E+02  0.45594000000E+02  0.51100000000E-03 0. -1.
    9900012    2    1    2    0    0  0.12941981660E+02 -0.37687009906E+02  0.80845689452E+01  0.50528857609E+02  0.29999993187E+02 0.  0.
         12    1    1    2    0    0 -0.12941981660E+02  0.37687009906E+02 -0.80845689452E+01  0.40659142391E+02  0.00000000000E+00 0. -1.
         11    1    3    3    0    0  0.29324494026E+01 -0.27418681069E+02  0.10359072240E+02  0.29456641169E+02  0.51100000000E-03 0. -1.
        -11    1    3    3    0    0  0.38740534070E+01  0.36759611909E+01 -0.23571919170E+01  0.58375795046E+01  0.51100000000E-03 0.  1.
        -12    1    3    3    0    0  0.61354788507E+01 -0.13944290029E+02  0.82688622590E-01  0.15234636935E+02  0.00000000000E+00 0.  1.
</event>
<event>
 7    1  0.6046695E-013  0.5052886E+02  0.7816164E-02  0.1300439E+00
        -11   -1    0    0    0    0  0.00000000000E+00  0.00000000000E+00  0.45593999997E+02  0.45594000000E+02  0.51100000000E-03 0.  1.
         11   -1    0    0    0    0 -0.00000000000E+00 -0.00000000000E+00 -0.45593999997E+02  0.45594000000E+02  0.51100000000E-03 0. -1.
    9900012    2    1    2    0    0 -0.40626267608E+02  0.15763334768E+01  0.43225349828E+00  0.50528864617E+02  0.30000014490E+02 0.  0.
         12    1    1    2    0    0  0.40626267608E+02 -0.15763334768E+01 -0.43225349828E+00  0.40659135383E+02  0.00000000000E+00 0. -1.
         11    1    3    3    0    0 -0.21465327952E+02  0.30624533048E+01  0.14445400238E+02  0.26053953877E+02  0.51100000000E-03 0. -1.
        -11    1    3    3    0    0 -0.10273625790E+02  0.12059592085E+00 -0.40934463159E+01  0.11059757378E+02  0.51100000000E-03 0.  1.
         12    1    3    3    0    0 -0.88873138657E+01 -0.16067157488E+01 -0.99197004233E+01  0.13415153362E+02  0.00000000000E+00 0. -1.
</event>
<event>
 7    1  0.6046695E-013  0.5052886E+02  0.7816164E-02  0.1300439E+00
        -11   -1    0    0    0    0  0.00000000000E+00  0.00000000000E+00  0.45593999997E+02  0.45594000000E+02  0.51100000000E-03 0. -1.
         11   -1    0    0    0    0 -0.00000000000E+00 -0.00000000000E+00 -0.45593999997E+02  0.45594000000E+02  0.51100000000E-03 0.  1.
    9900012    2    1    2    0    0 -0.22763278417E+02 -0.27237622556E+02 -0.19827021672E+02  0.50528859390E+02  0.29999998602E+02 0.  0.
         12    1    1    2    0    0  0.22763278417E+02  0.27237622556E+02  0.19827021672E+02  0.40659140610E+02  0.00000000000E+00 0. -1.
         11    1    3    3    0    0 -0.54736202677E+01 -0.30807966102E+01  0.73197620680E+00  0.63235762047E+01  0.51100000000E-03 0. -1.
        -11    1    3    3    0    0 -0.98071356503E+01 -0.28429571406E+02 -0.18626641336E+02  0.35374739684E+02  0.51100000000E-03 0.  1.
        -12    1    3    3    0    0 -0.74825224990E+01  0.42727454604E+01 -0.19323565422E+01  0.88305435010E+01  0.00000000000E+00 0.  1.
</event>
<event>
 7    1  0.6046695E-013  0.5052886E+02  0.7816164E-02  0.1300439E+00
        -11   -1    0    0    0    0  0.00000000000E+00  0.00000000000E+00  0.45593999997E+02  0.45594000000E+02  0.51100000000E-03 0.  1.
         11   -1    0    0    0    0 -0.00000000000E+00 -0.00000000000E+00 -0.45593999997E+02  0.45594000000E+02  0.51100000000E-03 0. -1.
    9900012    2    1    2    0    0 -0.10447239341E+02  0.75340827120E+01  0.38564992233E+02  0.50528857878E+02  0.29999994005E+02 0.  0.
         12    1    1    2    0    0  0.10447239341E+02 -0.75340827120E+01 -0.38564992233E+02  0.40659142122E+02  0.00000000000E+00 0. -1.
         11    1    3    3    0    0  0.88115503428E+01  0.75753774081E+00  0.14211491559E+02  0.16738690973E+02  0.51100000000E-03 0. -1.
        -11    1    3    3    0    0 -0.19919874779E+02  0.63928592986E+01  0.18622285125E+02  0.28008205311E+02  0.51100000000E-03 0.  1.
        -12    1    3    3    0    0  0.66108509527E+00  0.38368567259E+00  0.57312155494E+01  0.57819615938E+01  0.00000000000E+00 0.  1.
</event>
<event>
 7    1  0.6046695E-013  0.5052886E+02  0.7816164E-02  0.1300439E+00
        -11   -1    0    0    0    0  0.00000000000E+00  0.00000000000E+00  0.45593999997E+02  0.45594000000E+02  0.51100000000E-03 0. -1.
         11   -1    0    0    0    0 -0.00000000000E+00 -0.00000000000E+00 -0.45593999997E+02  0.45594000000E+02  0.51100000000E-03 0.  1.
    9900012    2    1    2    0    0 -0.71355207600E+01 -0.39993031271E+02 -0.16754362116E+01  0.50528864578E+02  0.30000014372E+02 0.  0.
         12    1    1    2    0    0  0.71355207600E+01  0.39993031271E+02  0.16754362116E+01  0.40659135422E+02  0.00000000000E+00 0. -1.
         11    1    3    3    0    0 -0.13737753453E+01 -0.11278738730E+01 -0.90854332188E+01  0.92576700745E+01  0.51100000000E-03 0. -1.
        -11    1    3    3    0    0 -0.11571946611E+01 -0.33330814152E+02  0.68737826955E+01  0.34051889233E+02  0.51100000000E-03 0.  1.
         12    1    3    3    0    0 -0.46045507535E+01 -0.55343432459E+01  0.53621431175E+00  0.72193052708E+01  0.00000000000E+00 0. -1.
</event>
<event>
 7    1  0.6046695E-013  0.5052886E+02  0.7816164E-02  0.1300439E+00
        -11   -1    0    0    0    0  0.00000000000E+00  0.00000000000E+00  0.45593999997E+02  0.45594000000E+02  0.51100000000E-03 0. -1.
         11   -1    0    0    0    0 -0.00000000000E+00 -0.00000000000E+00 -0.45593999997E+02  0.45594000000E+02  0.51100000000E-03 0.  1.
    9900012    2    1    2    0    0 -0.32409035615E+02 -0.24481103857E+02 -0.18697521629E+01  0.50528855780E+02  0.29999987629E+02 0.  0.
         12    1    1    2    0    0  0.32409035615E+02  0.24481103857E+02  0.18697521629E+01  0.40659144220E+02  0.00000000000E+00 0. -1.
         11    1    3    3    0    0 -0.12091910435E+02 -0.58770204846E+01  0.24867884945E+01  0.13672519337E+02  0.51100000000E-03 0. -1.
        -11    1    3    3    0    0  0.22349749208E+01 -0.25529352613E+01 -0.82334493020E+01  0.89051827053E+01  0.51100000000E-03 0.  1.
        -12    1    3    3    0    0 -0.22552100100E+02 -0.16051148111E+02  0.38769086446E+01  0.27951153738E+02  0.00000000000E+00 0.  1.
</event>
<event>
 7    1  0.6046695E-013  0.5052886E+02  0.7816164E-02  0.1300439E+00
        -11   -1    0    0    0    0  0.00000000000E+00  0.00000000000E+00  0.45593999997E+02  0.45594000000E+02  0.51100000000E-03 0. -1.
         11   -1    0    0    0    0 -0.00000000000E+00 -0.00000000000E+00 -0.45593999997E+02  0.45594000000E+02  0.51100000000E-03 0.  1.
    9900012    2    1    2    0    0  0.36900380878E+02  0.60515692045E+01 -0.15965780652E+02  0.50528858954E+02  0.29999997276E+02 0.  0.
         12    1    1    2    0    0 -0.36900380878E+02 -0.60515692045E+01  0.15965780652E+02  0.40659141046E+02  0.00000000000E+00 0. -1.
         11    1    3    3    0    0 -0.25044013586E+00  0.22452836400E+01 -0.40878942046E+01  0.46706421587E+01  0.51100000000E-03 0. -1.
        -11    1    3    3    0    0  0.16735846583E+02 -0.10693928365E+01  0.64752333484E+01  0.17976674027E+02  0.51100000000E-03 0.  1.
        -12    1    3    3    0    0  0.20414974431E+02  0.48756784010E+01 -0.18353119796E+02  0.27881542768E+02  0.00000000000E+00 0.  1.
</event>
<event>
 7    1  0.6046695E-013  0.5052887E+02  0.7816164E-02  0.1300439E+00
        -11   -1    0    0    0    0  0.00000000000E+00  0.00000000000E+00  0.45593999997E+02  0.45594000000E+02  0.51100000000E-03 0.  1.
         11   -1    0    0    0    0 -0.00000000000E+00 -0.00000000000E+00 -0.45593999997E+02  0.45594000000E+02  0.51100000000E-03 0. -1.
    9900012    2    1    2    0    0 -0.69461436710E+01  0.38881881110E+02  0.96496156708E+01  0.50528872204E+02  0.30000037550E+02 0.  0.
         12    1    1    2    0    0  0.69461436710E+01 -0.38881881110E+02 -0.96496156708E+01  0.40659127796E+02  0.00000000000E+00 0. -1.
         11    1    3    3    0    0 -0.13942633783E+02  0.30584654530E+02 -0.26660021910E+01  0.33718328806E+02  0.51100000000E-03 0. -1.
        -11    1    3    3    0    0  0.85559446710E+00  0.24177197715E+01  0.48935543695E+01  0.55248787692E+01  0.51100000000E-03 0.  1.
         12    1    3    3    0    0  0.61408956446E+01  0.58795068089E+01  0.74220634923E+01  0.11285664629E+02  0.00000000000E+00 0. -1.
</event>
<event>
 7    1  0.6046695E-013  0.5052886E+02  0.7816164E-02  0.1300439E+00
        -11   -1    0    0    0    0  0.00000000000E+00  0.00000000000E+00  0.45593999997E+02  0.45594000000E+02  0.51100000000E-03 0.  1.
         11   -1    0    0    0    0 -0.00000000000E+00 -0.00000000000E+00 -0.45593999997E+02  0.45594000000E+02  0.51100000000E-03 0. -1.
    9900012    2    1    2    0    0 -0.28068973518E+02  0.26240407463E+02 -0.13294334023E+02  0.50528861109E+02  0.30000003828E+02 0.  0.
         12    1    1    2    0    0  0.28068973518E+02 -0.26240407463E+02  0.13294334023E+02  0.40659138891E+02  0.00000000000E+00 0. -1.
         11    1    3    3    0    0 -0.17899629072E+02  0.32419530738E+00 -0.81527379927E+01  0.19671526645E+02  0.51100000000E-03 0. -1.
        -11    1    3    3    0    0 -0.83575913359E+01  0.24529666038E+02 -0.76949251725E+00  0.25925778057E+02  0.51100000000E-03 0.  1.
        -12    1    3    3    0    0 -0.18117531106E+01  0.13865461181E+01 -0.43721035129E+01  0.49315564073E+01  0.00000000000E+00 0.  1.
</event>
<event>
 7    1  0.6046695E-013  0.5052886E+02  0.7816164E-02  0.1300439E+00
        -11   -1    0    0    0    0  0.00000000000E+00  0.00000000000E+00  0.45593999997E+02  0.45594000000E+02  0.51100000000E-03 0.  1.
         11   -1    0    0    0    0 -0.00000000000E+00 -0.00000000000E+00 -0.45593999997E+02  0.45594000000E+02  0.51100000000E-03 0. -1.
    9900012    2    1    2    0    0 -0.30323994500E+02  0.26566306743E+02 -0.52775034545E+01  0.50528864014E+02  0.30000012658E+02 0.  0.
         12    1    1    2    0    0  0.30323994500E+02 -0.26566306743E+02  0.52775034545E+01  0.40659135986E+02  0.00000000000E+00 0. -1.
         11    1    3    3    0    0 -0.86722737364E+00 -0.17747188780E+01  0.18786978177E+00  0.19841889349E+01  0.51100000000E-03 0. -1.
        -11    1    3    3    0    0 -0.98976183548E+01  0.25224879214E+02  0.24673549497E+01  0.27209285569E+02  0.51100000000E-03 0.  1.
        -12    1    3    3    0    0 -0.19559148772E+02  0.31161464067E+01 -0.79327281860E+01  0.21335389511E+02  0.00000000000E+00 0.  1.
</event>
<event>
 7    1  0.6046695E-013  0.5052885E+02  0.7816164E-02  0.1300439E+00
        -11   -1    0    0    0    0  0.00000000000E+00  0.00000000000E+00  0.45593999997E+02  0.45594000000E+02  0.51100000000E-03 0.  1.
         11   -1    0    0    0    0 -0.00000000000E+00 -0.00000000000E+00 -0.45593999997E+02  0.45594000000E+02  0.51100000000E-03 0. -1.
    9900012    2    1    2    0    0 -0.75702513059E+01  0.33227999652E+02  0.22175617025E+02  0.50528847818E+02  0.29999963426E+02 0.  0.
         12    1    1    2    0    0  0.75702513059E+01 -0.33227999652E+02 -0.22175617025E+02  0.40659152182E+02  0.00000000000E+00 0. -1.
         11    1    3    3    0    0  0.33401260130E+01  0.23286361050E+02  0.31084123552E+01  0.23729165184E+02  0.51100000000E-03 0. -1.
        -11    1    3    3    0    0 -0.10459326092E+02  0.23739511049E+01  0.79799219228E+01  0.13368331994E+02  0.51100000000E-03 0.  1.
        -12    1    3    3    0    0 -0.45105122687E+00  0.75676874980E+01  0.11087282747E+02  0.13431350639E+02  0.00000000000E+00 0.  1.
</event>
<event>
 7    1  0.6046695E-013  0.5052886E+02  0.7816164E-02  0.1300439E+00
        -11   -1    0    0    0    0  0.00000000000E+00  0.00000000000E+00  0.45593999997E+02  0.45594000000E+02  0.51100000000E-03 0. -1.
         11   -1    0    0    0    0 -0.00000000000E+00 -0.00000000000E+00 -0.45593999997E+02  0.45594000000E+02  0.51100000000E-03 0.  1.
    9900012    2    1    2    0    0  0.50683961407E+01  0.14786946348E+02 -0.37534293884E+02  0.50528860325E+02  0.30000001444E+02 0.  0.
         12    1    1    2    0    0 -0.50683961407E+01 -0.14786946348E+02  0.37534293884E+02  0.40659139675E+02  0.00000000000E+00 0. -1.
         11    1    3    3    0    0 -0.10143294859E+02  0.10235626206E+02 -0.87973402451E+01  0.16883354823E+02  0.51100000000E-03 0. -1.
        -11    1    3    3    0    0  0.59253245645E+01  0.39561767903E+01 -0.18431055752E+02  0.19760177691E+02  0.51100000000E-03 0.  1.
         12    1    3    3    0    0  0.92863664351E+01  0.59514335210E+00 -0.10305897887E+02  0.13885327812E+02  0.00000000000E+00 0. -1.
</event>
<event>
 7    1  0.6046695E-013  0.5052883E+02  0.7816164E-02  0.1300439E+00
        -11   -1    0    0    0    0  0.00000000000E+00  0.00000000000E+00  0.45593999997E+02  0.45594000000E+02  0.51100000000E-03 0. -1.
         11   -1    0    0    0    0 -0.00000000000E+00 -0.00000000000E+00 -0.45593999997E+02  0.45594000000E+02  0.51100000000E-03 0.  1.
    9900012    2    1    2    0    0  0.35140061424E+02 -0.13047295235E+02 -0.15751575223E+02  0.50528831885E+02  0.29999914996E+02 0.  0.
         12    1    1    2    0    0 -0.35140061424E+02  0.13047295235E+02  0.15751575223E+02  0.40659168115E+02  0.00000000000E+00 0. -1.
         11    1    3    3    0    0 -0.45169224499E+00 -0.33963004339E+01 -0.34179054032E+00  0.34432112274E+01  0.51100000000E-03 0. -1.
        -11    1    3    3    0    0  0.35155305036E+02 -0.14486540434E+02 -0.90515684430E+01  0.39085626737E+02  0.51100000000E-03 0.  1.
        -12    1    3    3    0    0  0.43644863293E+00  0.48355456323E+01 -0.63582162396E+01  0.79999939200E+01  0.00000000000E+00 0.  1.
</event>
<event>
 7    1  0.6046695E-013  0.5052886E+02  0.7816164E-02  0.1300439E+00
        -11   -1    0    0    0    0  0.00000000000E+00  0.00000000000E+00  0.45593999997E+02  0.45594000000E+02  0.51100000000E-03 0.  1.
         11   -1    0    0    0    0 -0.00000000000E+00 -0.00000000000E+00 -0.45593999997E+02  0.45594000000E+02  0.51100000000E-03 0. -1.
    9900012    2    1    2    0    0 -0.14268121474E+02  0.30458783986E+02  0.22844013174E+02  0.50528858959E+02  0.29999997292E+02 0.  0.
         12    1    1    2    0    0  0.14268121474E+02 -0.30458783986E+02 -0.22844013174E+02  0.40659141041E+02  0.00000000000E+00 0. -1.
         11    1    3    3    0    0 -0.70727529141E+01  0.36123109714E+00  0.14125232447E+02  0.15801155452E+02  0.51100000000E-03 0. -1.
        -11    1    3    3    0    0 -0.83636221801E+01  0.13248192636E+02 -0.11393292941E+00  0.15667730055E+02  0.51100000000E-03 0.  1.
         12    1    3    3    0    0  0.11682536204E+01  0.16849360253E+02  0.88327136571E+01  0.19059973452E+02  0.00000000000E+00 0. -1.
</event>
<event>
 7    1  0.6046695E-013  0.5052884E+02  0.7816164E-02  0.1300439E+00
        -11   -1    0    0    0    0  0.00000000000E+00  0.00000000000E+00  0.45593999997E+02  0.45594000000E+02  0.51100000000E-03 0.  1.
         11   -1    0    0    0    0 -0.00000000000E+00 -0.00000000000E+00 -0.45593999997E+02  0.45594000000E+02  0.51100000000E-03 0. -1.
    9900012    2    1    2    0    0 -0.12157138876E+02  0.23958665219E+02  0.30518083554E+02  0.50528842501E+02  0.29999947266E+02 0.  0.
         12    1    1    2    0    0  0.12157138876E+02 -0.23958665219E+02 -0.30518083554E+02  0.40659157499E+02  0.00000000000E+00 0. -1.
         11    1    3    3    0    0  0.91302108753E+00  0.10940298717E+02 -0.31415905307E+01  0.11418990097E+02  0.51100000000E-03 0. -1.
        -11    1    3    3    0    0 -0.72996215348E+01  0.12011875764E+02  0.23547131491E+02  0.27423293669E+02  0.51100000000E-03 0.  1.
         12    1    3    3    0    0 -0.57705384285E+01  0.10064907382E+01  0.10112542593E+02  0.11686558735E+02  0.00000000000E+00 0. -1.
</event>
<event>
 7    1  0.6046695E-013  0.5052885E+02  0.7816164E-02  0.1300439E+00
        -11   -1    0    0    0    0  0.00000000000E+00  0.00000000000E+00  0.45593999997E+02  0.45594000000E+02  0.51100000000E-03 0.  1.
         11   -1    0    0    0    0 -0.00000000000E+00 -0.00000000000E+00 -0.45593999997E+02  0.45594000000E+02  0.51100000000E-03 0. -1.
    9900012    2    1    2    0    0 -0.42800823267E+00 -0.14467872376E+02  0.37995572882E+02  0.50528854894E+02  0.29999984935E+02 0.  0.
         12    1    1    2    0    0  0.42800823267E+00  0.14467872376E+02 -0.37995572882E+02  0.40659145106E+02  0.00000000000E+00 0. -1.
         11    1    3    3    0    0  0.44376423506E+01  0.48409637216E+01  0.85706289945E+01  0.10797373801E+02  0.51100000000E-03 0. -1.
        -11    1    3    3    0    0  0.62499102297E+01 -0.11579938217E+02  0.14583345755E+02  0.19642564004E+02  0.51100000000E-03 0.  1.
        -12    1    3    3    0    0 -0.11115560813E+02 -0.77288978802E+01  0.14841598133E+02  0.20088917088E+02  0.00000000000E+00 0.  1.
</event>
<event>
 7    1  0.6046695E-013  0.5052886E+02  0.7816164E-02  0.1300439E+00
        -11   -1    0    0    0    0  0.00000000000E+00  0.00000000000E+00  0.45593999997E+02  0.45594000000E+02  0.51100000000E-03 0. -1.
         11   -1    0    0    0    0 -0.00000000000E+00 -0.00000000000E+00 -0.45593999997E+02  0.45594000000E+02  0.51100000000E-03 0.  1.
    9900012    2    1    2    0    0 -0.71247388502E+01  0.34563925458E+02 -0.20192547874E+02  0.50528857899E+02  0.29999994070E+02 0.  0.
         12    1    1    2    0    0  0.71247388502E+01 -0.34563925458E+02  0.20192547874E+02  0.40659142101E+02  0.00000000000E+00 0. -1.
         11    1    3    3    0    0 -0.16459060349E+02  0.23389192564E+02 -0.64175948721E+01  0.29311098931E+02  0.51100000000E-03 0. -1.
        -11    1    3    3    0    0  0.94940192442E+01  0.11356208797E+02 -0.14336322632E+02  0.20606553000E+02  0.51100000000E-03 0.  1.
         12    1    3    3    0    0 -0.15969774589E+00 -0.18147590235E+00  0.56136963086E+00  0.61120596825E+00  0.00000000000E+00 0. -1.
</event>
<event>
 7    1  0.6046695E-013  0.5052884E+02  0.7816164E-02  0.1300439E+00
        -11   -1    0    0    0    0  0.00000000000E+00  0.00000000000E+00  0.45593999997E+02  0.45594000000E+02  0.51100000000E-03 0.  1.
         11   -1    0    0    0    0 -0.00000000000E+00 -0.00000000000E+00 -0.45593999997E+02  0.45594000000E+02  0.51100000000E-03 0. -1.
    9900012    2    1    2    0    0  0.22514899837E+02  0.23775629744E+02  0.24103229437E+02  0.50528844159E+02  0.29999952307E+02 0.  0.
         12    1    1    2    0    0 -0.22514899837E+02 -0.23775629744E+02 -0.24103229437E+02  0.40659155841E+02  0.00000000000E+00 0. -1.
         11    1    3    3    0    0  0.77702647543E+01  0.48056245468E+01 -0.59603226929E+01  0.10908551164E+02  0.51100000000E-03 0. -1.
        -11    1    3    3    0    0  0.10328807037E+02  0.12715996193E+02  0.26548141054E+02  0.31195906906E+02  0.51100000000E-03 0.  1.
        -12    1    3    3    0    0  0.44158280458E+01  0.62540090042E+01  0.35154110756E+01  0.84243860896E+01  0.00000000000E+00 0.  1.
</event>
<event>
 7    1  0.6046695E-013  0.5052885E+02  0.7816164E-02  0.1300439E+00
        -11   -1    0    0    0    0  0.00000000000E+00  0.00000000000E+00  0.45593999997E+02  0.45594000000E+02  0.51100000000E-03 0. -1.
         11   -1    0    0    0    0 -0.00000000000E+00 -0.00000000000E+00 -0.45593999997E+02  0.45594000000E+02  0.51100000000E-03 0.  1.
    9900012    2    1    2    0    0 -0.12478897484E+02 -0.30175896662E+02 -0.24225167195E+02  0.50528851615E+02  0.29999974969E+02 0.  0.
         12    1    1    2    0    0  0.12478897484E+02  0.30175896662E+02  0.24225167195E+02  0.40659148385E+02  0.00000000000E+00 0. -1.
         11    1    3    3    0    0 -0.17995209047E+02 -0.17289443647E+02 -0.20179308753E+02  0.32092941783E+02  0.51100000000E-03 0. -1.
        -11    1    3    3    0    0  0.36491748425E+01 -0.14232206844E+02 -0.55283058401E+01  0.15698227747E+02  0.51100000000E-03 0.  1.
         12    1    3    3    0    0  0.18671367210E+01  0.13457538297E+01  0.14824473985E+01  0.27376820842E+01  0.00000000000E+00 0. -1.
</event>
<event>
 7    1  0.6046695E-013  0.5052889E+02  0.7816164E-02  0.1300439E+00
        -11   -1    0    0    0    0  0.00000000000E+00  0.00000000000E+00  0.45593999997E+02  0.45594000000E+02  0.51100000000E-03 0.  1.
         11   -1    0    0    0    0 -0.00000000000E+00 -0.00000000000E+00 -0.45593999997E+02  0.45594000000E+02  0.51100000000E-03 0. -1.
    9900012    2    1    2    0    0  0.21975162864E+01  0.25184846670E+02  0.31844271336E+02  0.50528890362E+02  0.30000092744E+02 0.  0.
         12    1    1    2    0    0 -0.21975162864E+01 -0.25184846670E+02 -0.31844271336E+02  0.40659109638E+02  0.00000000000E+00 0. -1.
         11    1    3    3    0    0 -0.50975947352E+01  0.12041615531E+02  0.34352692269E+01  0.13519876168E+02  0.51100000000E-03 0. -1.
        -11    1    3    3    0    0  0.73354567122E+01  0.16761096520E+02  0.16763724938E+02  0.24814627859E+02  0.51100000000E-03 0.  1.
         12    1    3    3    0    0 -0.40345690604E-01 -0.36178653807E+01  0.11645277172E+02  0.12194386335E+02  0.00000000000E+00 0. -1.
</event>
<event>
 7    1  0.6046695E-013  0.5052886E+02  0.7816164E-02  0.1300439E+00
        -11   -1    0    0    0    0  0.00000000000E+00  0.00000000000E+00  0.45593999997E+02  0.45594000000E+02  0.51100000000E-03 0.  1.
         11   -1    0    0    0    0 -0.00000000000E+00 -0.00000000000E+00 -0.45593999997E+02  0.45594000000E+02  0.51100000000E-03 0. -1.
    9900012    2    1    2    0    0 -0.97969327401E+01  0.67701979922E+01  0.38876088125E+02  0.50528859578E+02  0.29999999172E+02 0.  0.
         12    1    1    2    0    0  0.97969327401E+01 -0.67701979922E+01 -0.38876088125E+02  0.40659140422E+02  0.00000000000E+00 0. -1.
         11    1    3    3    0    0 -0.32402975808E+01  0.10128498992E+02  0.30074574320E+02  0.31899310980E+02  0.51100000000E-03 0. -1.
        -11    1    3    3    0    0 -0.86468788725E+00 -0.64097734305E+01  0.10146537099E+02  0.12032667865E+02  0.51100000000E-03 0.  1.
         12    1    3    3    0    0 -0.56919472720E+01  0.30514724304E+01 -0.13450232938E+01  0.65968807327E+01  0.00000000000E+00 0. -1.
</event>
<event>
 7    1  0.6046695E-013  0.5052887E+02  0.7816164E-02  0.1300439E+00
        -11   -1    0    0    0    0  0.00000000000E+00  0.00000000000E+00  0.45593999997E+02  0.45594000000E+02  0.51100000000E-03 0. -1.
         11   -1    0    0    0    0 -0.00000000000E+00 -0.00000000000E+00 -0.45593999997E+02  0.45594000000E+02  0.51100000000E-03 0.  1.
    9900012    2    1    2    0    0  0.29894313942E+02 -0.46964156011E+01 -0.27155821486E+02  0.50528868601E+02  0.30000026598E+02 0.  0.
         12    1    1    2    0    0 -0.29894313942E+02  0.46964156011E+01  0.27155821486E+02  0.40659131399E+02  0.00000000000E+00 0. -1.
         11    1    3    3    0    0  0.73439497513E+00  0.60006866679E+00 -0.10901361887E+02  0.10942536709E+02  0.51100000000E-03 0. -1.
        -11    1    3    3    0    0  0.31030700465E+02 -0.85812979178E+01 -0.15497262073E+02  0.35731053403E+02  0.51100000000E-03 0.  1.
         12    1    3    3    0    0 -0.18707814976E+01  0.32848136499E+01 -0.75719752581E+00  0.38552784880E+01  0.00000000000E+00 0. -1.
</event>
<event>
 7    1  0.6046695E-013  0.5052886E+02  0.7816164E-02  0.1300439E+00
        -11   -1    0    0    0    0  0.00000000000E+00  0.00000000000E+00  0.45593999997E+02  0.45594000000E+02  0.51100000000E-03 0.  1.
         11   -1    0    0    0    0 -0.00000000000E+00 -0.00000000000E+00 -0.45593999997E+02  0.45594000000E+02  0.51100000000E-03 0. -1.
    9900012    2    1    2    0    0 -0.38274685776E+02  0.12340063496E+02  0.59947258992E+01  0.50528862319E+02  0.30000007506E+02 0.  0.
         12    1    1    2    0    0  0.38274685776E+02 -0.12340063496E+02 -0.59947258992E+01  0.40659137681E+02  0.00000000000E+00 0. -1.
         11    1    3    3    0    0 -0.24244319489E+02  0.15820871138E+02 -0.82955016487E+01  0.30114819257E+02  0.51100000000E-03 0. -1.
        -11    1    3    3    0    0 -0.39288133681E+01 -0.71666543634E+00  0.51229840305E+01  0.64957023844E+01  0.51100000000E-03 0.  1.
         12    1    3    3    0    0 -0.10101552919E+02 -0.27641422056E+01  0.91672435174E+01  0.13918340678E+02  0.00000000000E+00 0. -1.
</event>
<event>
 7    1  0.6046695E-013  0.5052886E+02  0.7816164E-02  0.1300439E+00
        -11   -1    0    0    0    0  0.00000000000E+00  0.00000000000E+00  0.45593999997E+02  0.45594000000E+02  0.51100000000E-03 0. -1.
         11   -1    0    0    0    0 -0.00000000000E+00 -0.00000000000E+00 -0.45593999997E+02  0.45594000000E+02  0.51100000000E-03 0.  1.
    9900012    2    1    2    0    0 -0.23788873347E+02 -0.32063555260E+02 -0.76930714991E+01  0.50528863018E+02  0.30000009629E+02 0.  0.
         12    1    1    2    0    0  0.23788873347E+02  0.32063555260E+02  0.76930714991E+01  0.40659136982E+02  0.00000000000E+00 0. -1.
         11    1    3    3    0    0 -0.11357564824E+02 -0.18721699707E+02  0.88851104107E+01  0.23631366992E+02  0.51100000000E-03 0. -1.
        -11    1    3    3    0    0 -0.13098055373E+02 -0.13256910023E+02 -0.17626979878E+02  0.25651805741E+02  0.51100000000E-03 0.  1.
        -12    1    3    3    0    0  0.66674685059E+00 -0.84945530163E-01  0.10487979679E+01  0.12456902839E+01  0.00000000000E+00 0.  1.
</event>
<event>
 7    1  0.6046695E-013  0.5052887E+02  0.7816164E-02  0.1300439E+00
        -11   -1    0    0    0    0  0.00000000000E+00  0.00000000000E+00  0.45593999997E+02  0.45594000000E+02  0.51100000000E-03 0.  1.
         11   -1    0    0    0    0 -0.00000000000E+00 -0.00000000000E+00 -0.45593999997E+02  0.45594000000E+02  0.51100000000E-03 0. -1.
    9900012    2    1    2    0    0  0.40323477497E+02 -0.16483446628E+01  0.49462015036E+01  0.50528870805E+02  0.30000033299E+02 0.  0.
         12    1    1    2    0    0 -0.40323477497E+02  0.16483446628E+01 -0.49462015036E+01  0.40659129195E+02  0.00000000000E+00 0. -1.
         11    1    3    3    0    0  0.42161155300E+02 -0.62288321220E+01  0.14740359091E+01  0.42644274504E+02  0.51100000000E-03 0. -1.
        -11    1    3    3    0    0 -0.24431489671E+01  0.35538328973E+01  0.10630291118E+00  0.43139315836E+01  0.51100000000E-03 0.  1.
         12    1    3    3    0    0  0.60547116368E+00  0.10266545618E+01  0.33658626833E+01  0.35706647172E+01  0.00000000000E+00 0. -1.
</event>
<event>
 7    1  0.6046695E-013  0.5052886E+02  0.7816164E-02  0.1300439E+00
        -11   -1    0    0    0    0  0.00000000000E+00  0.00000000000E+00  0.45593999997E+02  0.45594000000E+02  0.51100000000E-03 0. -1.
         11   -1    0    0    0    0 -0.00000000000E+00 -0.00000000000E+00 -0.45593999997E+02  0.45594000000E+02  0.51100000000E-03 0.  1.
    9900012    2    1    2    0    0 -0.70751496391E+01  0.25648600033E+02 -0.30745031756E+02  0.50528863219E+02  0.30000010241E+02 0.  0.
         12    1    1    2    0    0  0.70751496391E+01 -0.25648600033E+02  0.30745031756E+02  0.40659136781E+02  0.00000000000E+00 0. -1.
         11    1    3    3    0    0  0.90015952684E+01  0.21965331475E+01 -0.14282211783E+02  0.17024542547E+02  0.51100000000E-03 0. -1.
        -11    1    3    3    0    0 -0.12049166573E+02  0.20991079271E+02 -0.15331460262E+02  0.28650680587E+02  0.51100000000E-03 0.  1.
         12    1    3    3    0    0 -0.40275783350E+01  0.24609876146E+01 -0.11313597111E+01  0.48536400855E+01  0.00000000000E+00 0. -1.
</event>
<event>
 7    1  0.6046695E-013  0.5052886E+02  0.7816164E-02  0.1300439E+00
        -11   -1    0    0    0    0  0.00000000000E+00  0.00000000000E+00  0.45593999997E+02  0.45594000000E+02  0.51100000000E-03 0. -1.
         11   -1    0    0    0    0 -0.00000000000E+00 -0.00000000000E+00 -0.45593999997E+02  0.45594000000E+02  0.51100000000E-03 0.  1.
    9900012    2    1    2    0    0 -0.12260293671E+02  0.21526674739E+02  0.32240554271E+02  0.50528857536E+02  0.29999992967E+02 0.  0.
         12    1    1    2    0    0  0.12260293671E+02 -0.21526674739E+02 -0.32240554271E+02  0.40659142464E+02  0.00000000000E+00 0. -1.
         11    1    3    3    0    0 -0.22005868798E+01  0.18825005697E+02  0.13704775350E+02  0.23388977955E+02  0.51100000000E-03 0. -1.
        -11    1    3    3    0    0 -0.73145082744E+01 -0.40924517965E+01  0.17923700642E+02  0.19786592379E+02  0.51100000000E-03 0.  1.
        -12    1    3    3    0    0 -0.27451985172E+01  0.67941208379E+01  0.61207827792E+00  0.73532872021E+01  0.00000000000E+00 0.  1.
</event>
<event>
 7    1  0.6046695E-013  0.5052886E+02  0.7816164E-02  0.1300439E+00
        -11   -1    0    0    0    0  0.00000000000E+00  0.00000000000E+00  0.45593999997E+02  0.45594000000E+02  0.51100000000E-03 0.  1.
         11   -1    0    0    0    0 -0.00000000000E+00 -0.00000000000E+00 -0.45593999997E+02  0.45594000000E+02  0.51100000000E-03 0. -1.
    9900012    2    1    2    0    0  0.11787294912E+02 -0.44752978451E+00  0.38910471425E+02  0.50528863379E+02  0.30000010727E+02 0.  0.
         12    1    1    2    0    0 -0.11787294912E+02  0.44752978451E+00 -0.38910471425E+02  0.40659136621E+02  0.00000000000E+00 0. -1.
         11    1    3    3    0    0  0.11887161060E+00 -0.49822417141E+01  0.81929494840E+01  0.95896446476E+01  0.51100000000E-03 0.  1.
        -11    1    3    3    0    0  0.13586054142E+02  0.76175333752E+01  0.72288223663E+01  0.17171591509E+02  0.51100000000E-03 0. -1.
        -12    1    3    3    0    0 -0.19176308406E+01 -0.30828214455E+01  0.23488699575E+02  0.23767627223E+02  0.00000000000E+00 0.  1.
</event>
<event>
 7    1  0.6046695E-013  0.5052887E+02  0.7816164E-02  0.1300439E+00
        -11   -1    0    0    0    0  0.00000000000E+00  0.00000000000E+00  0.45593999997E+02  0.45594000000E+02  0.51100000000E-03 0.  1.
         11   -1    0    0    0    0 -0.00000000000E+00 -0.00000000000E+00 -0.45593999997E+02  0.45594000000E+02  0.51100000000E-03 0. -1.
    9900012    2    1    2    0    0 -0.31763211069E+02  0.78054666055E+01 -0.24152392934E+02  0.50528868544E+02  0.30000026425E+02 0.  0.
         12    1    1    2    0    0  0.31763211069E+02 -0.78054666055E+01  0.24152392934E+02  0.40659131456E+02  0.00000000000E+00 0. -1.
         11    1    3    3    0    0 -0.48710315421E+01  0.28952060956E+01 -0.17187626682E+02  0.18097615253E+02  0.51100000000E-03 0. -1.
        -11    1    3    3    0    0 -0.31539511658E+01 -0.39624333566E+00  0.45250657437E+01  0.55299762191E+01  0.51100000000E-03 0.  1.
        -12    1    3    3    0    0 -0.23738228362E+02  0.53065038455E+01 -0.11489831995E+02  0.26901277072E+02  0.00000000000E+00 0.  1.
</event>
<event>
 7    1  0.6046695E-013  0.5052885E+02  0.7816164E-02  0.1300439E+00
        -11   -1    0    0    0    0  0.00000000000E+00  0.00000000000E+00  0.45593999997E+02  0.45594000000E+02  0.51100000000E-03 0.  1.
         11   -1    0    0    0    0 -0.00000000000E+00 -0.00000000000E+00 -0.45593999997E+02  0.45594000000E+02  0.51100000000E-03 0. -1.
    9900012    2    1    2    0    0  0.11053036840E+02  0.37851801845E+02  0.99115057787E+01  0.50528850069E+02  0.29999970270E+02 0.  0.
         12    1    1    2    0    0 -0.11053036840E+02 -0.37851801845E+02 -0.99115057787E+01  0.40659149931E+02  0.00000000000E+00 0. -1.
         11    1    3    3    0    0 -0.69192228663E+01  0.86368909483E+01 -0.13063697602E+01  0.11143524242E+02  0.51100000000E-03 0. -1.
        -11    1    3    3    0    0  0.14355029825E+02  0.15799934791E+02  0.13567567229E+02  0.25293945945E+02  0.51100000000E-03 0.  1.
        -12    1    3    3    0    0  0.36172298812E+01  0.13414976106E+02 -0.23496916905E+01  0.14091379882E+02  0.00000000000E+00 0.  1.
</event>
<event>
 7    1  0.6046695E-013  0.5052887E+02  0.7816164E-02  0.1300439E+00
        -11   -1    0    0    0    0  0.00000000000E+00  0.00000000000E+00  0.45593999997E+02  0.45594000000E+02  0.51100000000E-03 0. -1.
         11   -1    0    0    0    0 -0.00000000000E+00 -0.00000000000E+00 -0.45593999997E+02  0.45594000000E+02  0.51100000000E-03 0.  1.
    9900012    2    1    2    0    0  0.31805438088E+02 -0.15245063953E+02 -0.20227884210E+02  0.50528866136E+02  0.30000019108E+02 0.  0.
         12    1    1    2    0    0 -0.31805438088E+02  0.15245063953E+02  0.20227884210E+02  0.40659133864E+02  0.00000000000E+00 0. -1.
         11    1    3    3    0    0  0.12775252649E+02 -0.11598765808E+02 -0.64250664911E+00  0.17267057177E+02  0.51100000000E-03 0. -1.
        -11    1    3    3    0    0  0.38803346538E+01  0.10018770559E+01 -0.16675091275E+02  0.17149910319E+02  0.51100000000E-03 0.  1.
        -12    1    3    3    0    0  0.15149850786E+02 -0.46481752006E+01 -0.29102862863E+01  0.16111898640E+02  0.00000000000E+00 0.  1.
</event>
<event>
 7    1  0.6046695E-013  0.5052898E+02  0.7816164E-02  0.1300438E+00
        -11   -1    0    0    0    0  0.00000000000E+00  0.00000000000E+00  0.45593999997E+02  0.45594000000E+02  0.51100000000E-03 0. -1.
         11   -1    0    0    0    0 -0.00000000000E+00 -0.00000000000E+00 -0.45593999997E+02  0.45594000000E+02  0.51100000000E-03 0.  1.
    9900012    2    1    2    0    0  0.37680137818E+02 -0.15044577360E+02 -0.26502492643E+01  0.50528979905E+02  0.30000364917E+02 0.  0.
         12    1    1    2    0    0 -0.37680137818E+02  0.15044577360E+02  0.26502492643E+01  0.40659020095E+02  0.00000000000E+00 0. -1.
         11    1    3    3    0    0  0.87932602318E+01 -0.10642160141E+01 -0.12035426841E+02  0.14943409274E+02  0.51100000000E-03 0. -1.
        -11    1    3    3    0    0  0.12313020303E+02 -0.39074840529E+01  0.97545130692E+01  0.16187323005E+02  0.51100000000E-03 0.  1.
        -12    1    3    3    0    0  0.16573857283E+02 -0.10072877293E+02 -0.36933549204E+00  0.19398247625E+02  0.00000000000E+00 0.  1.
</event>
<event>
 7    1  0.6046695E-013  0.5052886E+02  0.7816164E-02  0.1300439E+00
        -11   -1    0    0    0    0  0.00000000000E+00  0.00000000000E+00  0.45593999997E+02  0.45594000000E+02  0.51100000000E-03 0.  1.
         11   -1    0    0    0    0 -0.00000000000E+00 -0.00000000000E+00 -0.45593999997E+02  0.45594000000E+02  0.51100000000E-03 0. -1.
    9900012    2    1    2    0    0  0.57758378826E+01  0.31989391099E+02  0.24423028238E+02  0.50528858907E+02  0.29999997134E+02 0.  0.
         12    1    1    2    0    0 -0.57758378826E+01 -0.31989391099E+02 -0.24423028238E+02  0.40659141093E+02  0.00000000000E+00 0. -1.
         11    1    3    3    0    0  0.12007698349E+02  0.24988030221E+02  0.14574456011E+02  0.31320939358E+02  0.51100000000E-03 0. -1.
        -11    1    3    3    0    0 -0.57619421302E+01  0.55220414096E+01  0.13250677465E+02  0.15468463789E+02  0.51100000000E-03 0.  1.
         12    1    3    3    0    0 -0.46991833636E+00  0.14793194679E+01 -0.34021052385E+01  0.37394557605E+01  0.00000000000E+00 0. -1.
</event>
<event>
 7    1  0.6046695E-013  0.5052886E+02  0.7816164E-02  0.1300439E+00
        -11   -1    0    0    0    0  0.00000000000E+00  0.00000000000E+00  0.45593999997E+02  0.45594000000E+02  0.51100000000E-03 0.  1.
         11   -1    0    0    0    0 -0.00000000000E+00 -0.00000000000E+00 -0.45593999997E+02  0.45594000000E+02  0.51100000000E-03 0. -1.
    9900012    2    1    2    0    0  0.38489918815E+02  0.12725064580E+02  0.31248101619E+01  0.50528861329E+02  0.30000004495E+02 0.  0.
         12    1    1    2    0    0 -0.38489918815E+02 -0.12725064580E+02 -0.31248101619E+01  0.40659138671E+02  0.00000000000E+00 0. -1.
         11    1    3    3    0    0  0.17186829156E+02  0.16234128930E+02  0.84197714065E+01  0.25096346136E+02  0.51100000000E-03 0. -1.
        -11    1    3    3    0    0  0.17376054720E+02 -0.16996117820E+00  0.86733497505E+00  0.17398518174E+02  0.51100000000E-03 0.  1.
         12    1    3    3    0    0  0.39270349387E+01 -0.33391031723E+01 -0.61622962196E+01  0.80339970191E+01  0.00000000000E+00 0. -1.
</event>
<event>
 7    1  0.6046695E-013  0.5052887E+02  0.7816164E-02  0.1300439E+00
        -11   -1    0    0    0    0  0.00000000000E+00  0.00000000000E+00  0.45593999997E+02  0.45594000000E+02  0.51100000000E-03 0. -1.
         11   -1    0    0    0    0 -0.00000000000E+00 -0.00000000000E+00 -0.45593999997E+02  0.45594000000E+02  0.51100000000E-03 0.  1.
    9900012    2    1    2    0    0 -0.24310133891E+02  0.12998816086E+00 -0.32590883473E+02  0.50528865820E+02  0.30000018147E+02 0.  0.
         12    1    1    2    0    0  0.24310133891E+02 -0.12998816086E+00  0.32590883473E+02  0.40659134180E+02  0.00000000000E+00 0. -1.
         11    1    3    3    0    0 -0.33085260083E+01  0.10552928588E+02 -0.96343492286E+01  0.14667355980E+02  0.51100000000E-03 0. -1.
        -11    1    3    3    0    0 -0.16133211331E+02 -0.12098578949E+02 -0.11293920322E+02  0.23112956473E+02  0.51100000000E-03 0.  1.
        -12    1    3    3    0    0 -0.48683965515E+01  0.16756385219E+01 -0.11662613923E+02  0.12748553367E+02  0.00000000000E+00 0.  1.
</event>
<event>
 7    1  0.6046695E-013  0.5052886E+02  0.7816164E-02  0.1300439E+00
        -11   -1    0    0    0    0  0.00000000000E+00  0.00000000000E+00  0.45593999997E+02  0.45594000000E+02  0.51100000000E-03 0. -1.
         11   -1    0    0    0    0 -0.00000000000E+00 -0.00000000000E+00 -0.45593999997E+02  0.45594000000E+02  0.51100000000E-03 0.  1.
    9900012    2    1    2    0    0 -0.26171706309E+02  0.31015635172E+02  0.24975445162E+01  0.50528861237E+02  0.30000004218E+02 0.  0.
         12    1    1    2    0    0  0.26171706309E+02 -0.31015635172E+02 -0.24975445162E+01  0.40659138763E+02  0.00000000000E+00 0. -1.
         11    1    3    3    0    0  0.19943227598E+01  0.26294456465E+01  0.23196634213E+01  0.40338748527E+01  0.51100000000E-03 0. -1.
        -11    1    3    3    0    0 -0.26627299271E+02  0.28197051839E+02  0.70777395032E+01  0.39423104845E+02  0.51100000000E-03 0.  1.
        -12    1    3    3    0    0 -0.15387297980E+01  0.18913768701E+00 -0.68998584083E+01  0.70718815397E+01  0.00000000000E+00 0.  1.
</event>
<event>
 7    1  0.6046695E-013  0.5052885E+02  0.7816164E-02  0.1300439E+00
        -11   -1    0    0    0    0  0.00000000000E+00  0.00000000000E+00  0.45593999997E+02  0.45594000000E+02  0.51100000000E-03 0. -1.
         11   -1    0    0    0    0 -0.00000000000E+00 -0.00000000000E+00 -0.45593999997E+02  0.45594000000E+02  0.51100000000E-03 0.  1.
    9900012    2    1    2    0    0 -0.15907561740E+02 -0.17408555980E+02 -0.33121867254E+02  0.50528850572E+02  0.29999971798E+02 0.  0.
         12    1    1    2    0    0  0.15907561740E+02  0.17408555980E+02  0.33121867254E+02  0.40659149428E+02  0.00000000000E+00 0. -1.
         11    1    3    3    0    0 -0.18081474933E+02 -0.20172515729E+02 -0.23354991078E+02  0.35767663260E+02  0.51100000000E-03 0.  1.
        -11    1    3    3    0    0  0.23011726346E+01 -0.18188219081E+01  0.96763705301E+00  0.30886615799E+01  0.51100000000E-03 0. -1.
         12    1    3    3    0    0 -0.12725944198E+00  0.45827816572E+01 -0.10734513229E+02  0.11672525731E+02  0.00000000000E+00 0. -1.
</event>
<event>
 7    1  0.6046695E-013  0.5052886E+02  0.7816164E-02  0.1300439E+00
        -11   -1    0    0    0    0  0.00000000000E+00  0.00000000000E+00  0.45593999997E+02  0.45594000000E+02  0.51100000000E-03 0.  1.
         11   -1    0    0    0    0 -0.00000000000E+00 -0.00000000000E+00 -0.45593999997E+02  0.45594000000E+02  0.51100000000E-03 0. -1.
    9900012    2    1    2    0    0  0.35174382420E+02 -0.18272314789E+02 -0.90582189679E+01  0.50528855921E+02  0.29999988058E+02 0.  0.
         12    1    1    2    0    0 -0.35174382420E+02  0.18272314789E+02  0.90582189679E+01  0.40659144079E+02  0.00000000000E+00 0. -1.
         11    1    3    3    0    0 -0.15901924596E+01  0.35925438889E+01 -0.55720512656E+00  0.39680677245E+01  0.51100000000E-03 0. -1.
        -11    1    3    3    0    0  0.16514899911E+02 -0.18854919816E+02 -0.23006108397E+01  0.25170274746E+02  0.51100000000E-03 0.  1.
        -12    1    3    3    0    0  0.20249674969E+02 -0.30099388625E+01 -0.62004030016E+01  0.21390513450E+02  0.00000000000E+00 0.  1.
</event>
<event>
 7    1  0.6046695E-013  0.5052886E+02  0.7816164E-02  0.1300439E+00
        -11   -1    0    0    0    0  0.00000000000E+00  0.00000000000E+00  0.45593999997E+02  0.45594000000E+02  0.51100000000E-03 0. -1.
         11   -1    0    0    0    0 -0.00000000000E+00 -0.00000000000E+00 -0.45593999997E+02  0.45594000000E+02  0.51100000000E-03 0.  1.
    9900012    2    1    2    0    0 -0.80183004967E+01  0.38590046836E+02  0.99840301107E+01  0.50528859393E+02  0.29999998612E+02 0.  0.
         12    1    1    2    0    0  0.80183004967E+01 -0.38590046836E+02 -0.99840301107E+01  0.40659140607E+02  0.00000000000E+00 0. -1.
         11    1    3    3    0    0 -0.17409411508E+01  0.31134122994E+01 -0.85483948814E+01  0.92627894042E+01  0.51100000000E-03 0. -1.
        -11    1    3    3    0    0  0.86537043573E+00  0.91377300811E+01  0.74097681774E+01  0.11796255411E+02  0.51100000000E-03 0.  1.
         12    1    3    3    0    0 -0.71427297816E+01  0.26338904455E+02  0.11122656815E+02  0.29469814578E+02  0.00000000000E+00 0. -1.
</event>
<event>
 7    1  0.6046695E-013  0.5052899E+02  0.7816164E-02  0.1300438E+00
        -11   -1    0    0    0    0  0.00000000000E+00  0.00000000000E+00  0.45593999997E+02  0.45594000000E+02  0.51100000000E-03 0.  1.
         11   -1    0    0    0    0 -0.00000000000E+00 -0.00000000000E+00 -0.45593999997E+02  0.45594000000E+02  0.51100000000E-03 0. -1.
    9900012    2    1    2    0    0 -0.95489062892E+01 -0.16734786521E+02  0.35803918079E+02  0.50528988194E+02  0.30000390112E+02 0.  0.
         12    1    1    2    0    0  0.95489062892E+01  0.16734786521E+02 -0.35803918079E+02  0.40659011806E+02  0.00000000000E+00 0. -1.
         11    1    3    3    0    0  0.66344280571E+01  0.25713072519E+01  0.27540174407E+01  0.76296703044E+01  0.51100000000E-03 0. -1.
        -11    1    3    3    0    0 -0.12884403297E+02 -0.14471715194E+02  0.31261734868E+02  0.36779538553E+02  0.51100000000E-03 0.  1.
         12    1    3    3    0    0 -0.32989310488E+01 -0.48343785784E+01  0.17881657709E+01  0.61197793366E+01  0.00000000000E+00 0. -1.
</event>
<event>
 7    1  0.6046695E-013  0.5052886E+02  0.7816164E-02  0.1300439E+00
        -11   -1    0    0    0    0  0.00000000000E+00  0.00000000000E+00  0.45593999997E+02  0.45594000000E+02  0.51100000000E-03 0.  1.
         11   -1    0    0    0    0 -0.00000000000E+00 -0.00000000000E+00 -0.45593999997E+02  0.45594000000E+02  0.51100000000E-03 0. -1.
    9900012    2    1    2    0    0 -0.20946503623E+02 -0.33328982016E+02  0.10177852018E+02  0.50528859233E+02  0.29999998124E+02 0.  0.
         12    1    1    2    0    0  0.20946503623E+02  0.33328982016E+02 -0.10177852018E+02  0.40659140767E+02  0.00000000000E+00 0. -1.
         11    1    3    3    0    0 -0.11644779008E+01  0.42402749237E+00 -0.29138233707E+01  0.31664135852E+01  0.51100000000E-03 0. -1.
        -11    1    3    3    0    0 -0.19818871225E+02 -0.23627914720E+02  0.18419225740E+02  0.35921217794E+02  0.51100000000E-03 0.  1.
        -12    1    3    3    0    0  0.36845502991E-01 -0.10125094788E+02 -0.53275503514E+01  0.11441227854E+02  0.00000000000E+00 0.  1.
</event>
<event>
 7    1  0.6046695E-013  0.5052886E+02  0.7816164E-02  0.1300439E+00
        -11   -1    0    0    0    0  0.00000000000E+00  0.00000000000E+00  0.45593999997E+02  0.45594000000E+02  0.51100000000E-03 0.  1.
         11   -1    0    0    0    0 -0.00000000000E+00 -0.00000000000E+00 -0.45593999997E+02  0.45594000000E+02  0.51100000000E-03 0. -1.
    9900012    2    1    2    0    0  0.32637944767E+02  0.93494262822E+01  0.22372269364E+02  0.50528860229E+02  0.30000001153E+02 0.  0.
         12    1    1    2    0    0 -0.32637944767E+02 -0.93494262822E+01 -0.22372269364E+02  0.40659139771E+02  0.00000000000E+00 0. -1.
         11    1    3    3    0    0  0.85164019478E-01  0.87620420934E+01  0.38795316963E+01  0.95828701860E+01  0.51100000000E-03 0. -1.
        -11    1    3    3    0    0  0.17864803715E+02 -0.18360349280E+01  0.18876288569E+02  0.26054491099E+02  0.51100000000E-03 0.  1.
        -12    1    3    3    0    0  0.14687977032E+02  0.24234191168E+01 -0.38355090152E+00  0.14891498944E+02  0.00000000000E+00 0.  1.
</event>
<event>
 7    1  0.6046695E-013  0.5052884E+02  0.7816164E-02  0.1300439E+00
        -11   -1    0    0    0    0  0.00000000000E+00  0.00000000000E+00  0.45593999997E+02  0.45594000000E+02  0.51100000000E-03 0.  1.
         11   -1    0    0    0    0 -0.00000000000E+00 -0.00000000000E+00 -0.45593999997E+02  0.45594000000E+02  0.51100000000E-03 0. -1.
    9900012    2    1    2    0    0 -0.11318648326E+01  0.27924747189E+02  0.29531251750E+02  0.50528838013E+02  0.29999933626E+02 0.  0.
         12    1    1    2    0    0  0.11318648326E+01 -0.27924747189E+02 -0.29531251750E+02  0.40659161987E+02  0.00000000000E+00 0. -1.
         11    1    3    3    0    0  0.60551544434E+01  0.22427826950E+02  0.63924461061E+01  0.24094308136E+02  0.51100000000E-03 0. -1.
        -11    1    3    3    0    0 -0.19334841014E+01  0.43989843575E+01  0.31688980284E+01  0.57559828981E+01  0.51100000000E-03 0.  1.
         12    1    3    3    0    0 -0.52535351746E+01  0.10979358805E+01  0.19969907615E+02  0.20678546980E+02  0.00000000000E+00 0. -1.
</event>
<event>
 7    1  0.6046695E-013  0.5052889E+02  0.7816164E-02  0.1300439E+00
        -11   -1    0    0    0    0  0.00000000000E+00  0.00000000000E+00  0.45593999997E+02  0.45594000000E+02  0.51100000000E-03 0.  1.
         11   -1    0    0    0    0 -0.00000000000E+00 -0.00000000000E+00 -0.45593999997E+02  0.45594000000E+02  0.51100000000E-03 0. -1.
    9900012    2    1    2    0    0  0.36456681174E+02  0.80191070121E+01  0.16117309766E+02  0.50528888430E+02  0.30000086873E+02 0.  0.
         12    1    1    2    0    0 -0.36456681174E+02 -0.80191070121E+01 -0.16117309766E+02  0.40659111570E+02  0.00000000000E+00 0. -1.
         11    1    3    3    0    0  0.55059449516E+01  0.10053264624E+02 -0.51172292238E+01  0.12552672807E+02  0.51100000000E-03 0. -1.
        -11    1    3    3    0    0  0.21303121490E+02  0.11231199412E+01  0.14522518758E+02  0.25806742045E+02  0.51100000000E-03 0.  1.
         12    1    3    3    0    0  0.96476147326E+01 -0.31572775532E+01  0.67120202324E+01  0.12169473578E+02  0.00000000000E+00 0. -1.
</event>
<event>
 7    1  0.6046695E-013  0.5052885E+02  0.7816164E-02  0.1300439E+00
        -11   -1    0    0    0    0  0.00000000000E+00  0.00000000000E+00  0.45593999997E+02  0.45594000000E+02  0.51100000000E-03 0.  1.
         11   -1    0    0    0    0 -0.00000000000E+00 -0.00000000000E+00 -0.45593999997E+02  0.45594000000E+02  0.51100000000E-03 0. -1.
    9900012    2    1    2    0    0  0.37074759437E+01  0.40489696985E+02  0.75499714490E-01  0.50528848016E+02  0.29999964031E+02 0.  0.
         12    1    1    2    0    0 -0.37074759437E+01 -0.40489696985E+02 -0.75499714490E-01  0.40659151984E+02  0.00000000000E+00 0. -1.
         11    1    3    3    0    0  0.27393022849E+01  0.52121968345E+01  0.20759168422E+01  0.62434128365E+01  0.51100000000E-03 0. -1.
        -11    1    3    3    0    0 -0.11446546566E+02  0.84218325559E+01 -0.35867603811E+01  0.14656586989E+02  0.51100000000E-03 0.  1.
        -12    1    3    3    0    0  0.12414720224E+02  0.26855667595E+02  0.15863432533E+01  0.29628848191E+02  0.00000000000E+00 0.  1.
</event>
<event>
 7    1  0.6046695E-013  0.5052889E+02  0.7816164E-02  0.1300439E+00
        -11   -1    0    0    0    0  0.00000000000E+00  0.00000000000E+00  0.45593999997E+02  0.45594000000E+02  0.51100000000E-03 0.  1.
         11   -1    0    0    0    0 -0.00000000000E+00 -0.00000000000E+00 -0.45593999997E+02  0.45594000000E+02  0.51100000000E-03 0. -1.
    9900012    2    1    2    0    0  0.34185667425E+02 -0.75292006093E+01 -0.20683682055E+02  0.50528887584E+02  0.30000084300E+02 0.  0.
         12    1    1    2    0    0 -0.34185667425E+02  0.75292006093E+01  0.20683682055E+02  0.40659112416E+02  0.00000000000E+00 0. -1.
         11    1    3    3    0    0  0.10329107131E+02  0.97181295361E+01 -0.49428363043E+01  0.15018792455E+02  0.51100000000E-03 0. -1.
        -11    1    3    3    0    0  0.10271784129E+02 -0.14792459595E+02 -0.94815037372E+01  0.20352526218E+02  0.51100000000E-03 0.  1.
         12    1    3    3    0    0  0.13584776165E+02 -0.24548705508E+01 -0.62593420134E+01  0.15157568912E+02  0.00000000000E+00 0. -1.
</event>
<event>
 7    1  0.6046695E-013  0.5052888E+02  0.7816164E-02  0.1300439E+00
        -11   -1    0    0    0    0  0.00000000000E+00  0.00000000000E+00  0.45593999997E+02  0.45594000000E+02  0.51100000000E-03 0.  1.
         11   -1    0    0    0    0 -0.00000000000E+00 -0.00000000000E+00 -0.45593999997E+02  0.45594000000E+02  0.51100000000E-03 0. -1.
    9900012    2    1    2    0    0  0.28897462841E+02 -0.25726727897E+02  0.12499451543E+02  0.50528878319E+02  0.30000056140E+02 0.  0.
         12    1    1    2    0    0 -0.28897462841E+02  0.25726727897E+02 -0.12499451543E+02  0.40659121681E+02  0.00000000000E+00 0. -1.
         11    1    3    3    0    0 -0.15028954616E+01  0.17101146708E+01 -0.86385602931E+00  0.24350430092E+01  0.51100000000E-03 0. -1.
        -11    1    3    3    0    0  0.30392786345E+02 -0.29385477968E+02  0.15659102123E+02  0.45082538269E+02  0.51100000000E-03 0.  1.
        -12    1    3    3    0    0  0.75719575235E-02  0.19486353997E+01 -0.22957945499E+01  0.30112970413E+01  0.00000000000E+00 0.  1.
</event>
<event>
 7    1  0.6046695E-013  0.5052886E+02  0.7816164E-02  0.1300439E+00
        -11   -1    0    0    0    0  0.00000000000E+00  0.00000000000E+00  0.45593999997E+02  0.45594000000E+02  0.51100000000E-03 0. -1.
         11   -1    0    0    0    0 -0.00000000000E+00 -0.00000000000E+00 -0.45593999997E+02  0.45594000000E+02  0.51100000000E-03 0.  1.
    9900012    2    1    2    0    0 -0.93666989311E+01 -0.33503084054E+02 -0.21046951154E+02  0.50528857819E+02  0.29999993827E+02 0.  0.
         12    1    1    2    0    0  0.93666989311E+01  0.33503084054E+02  0.21046951154E+02  0.40659142181E+02  0.00000000000E+00 0. -1.
         11    1    3    3    0    0 -0.56354935521E+01 -0.56701993751E+00  0.74773157550E+00  0.57130904033E+01  0.51100000000E-03 0. -1.
        -11    1    3    3    0    0  0.62017569800E+01 -0.18993861050E+02 -0.18804538591E+02  0.27437915721E+02  0.51100000000E-03 0.  1.
        -12    1    3    3    0    0 -0.99329623589E+01 -0.13942203066E+02 -0.29901441391E+01  0.17377851695E+02  0.00000000000E+00 0.  1.
</event>
<event>
 7    1  0.6182957E-013  0.5052886E+02  0.7816164E-02  0.1300439E+00
        -11   -1    0    0    0    0  0.00000000000E+00  0.00000000000E+00  0.45593999997E+02  0.45594000000E+02  0.51100000000E-03 0. -1.
         11   -1    0    0    0    0 -0.00000000000E+00 -0.00000000000E+00 -0.45593999997E+02  0.45594000000E+02  0.51100000000E-03 0.  1.
    9900012    2    1    2    0    0 -0.42052155751E+01 -0.19825017369E+02 -0.35248408238E+02  0.50528862835E+02  0.30000009073E+02 0.  0.
         12    1    1    2    0    0  0.42052155751E+01  0.19825017369E+02  0.35248408238E+02  0.40659137165E+02  0.00000000000E+00 0. -1.
         11    1    3    3    0    0 -0.50031175978E+01 -0.46842368907E+01  0.34064854450E+01  0.76535876747E+01  0.51100000000E-03 0. -1.
        -11    1    3    3    0    0 -0.40205552645E+01 -0.45765365270E+01 -0.19951613261E+02  0.20860882608E+02  0.51100000000E-03 0.  1.
         12    1    3    3    0    0  0.48184572872E+01 -0.10564243951E+02 -0.18703280422E+02  0.22014392552E+02  0.00000000000E+00 0. -1.
</event>
<event>
 7    1  0.6046695E-013  0.5052889E+02  0.7816164E-02  0.1300439E+00
        -11   -1    0    0    0    0  0.00000000000E+00  0.00000000000E+00  0.45593999997E+02  0.45594000000E+02  0.51100000000E-03 0. -1.
         11   -1    0    0    0    0 -0.00000000000E+00 -0.00000000000E+00 -0.45593999997E+02  0.45594000000E+02  0.51100000000E-03 0.  1.
    9900012    2    1    2    0    0  0.17541159908E+02 -0.33318453807E+02 -0.15341173368E+02  0.50528889639E+02  0.30000090548E+02 0.  0.
         12    1    1    2    0    0 -0.17541159908E+02  0.33318453807E+02  0.15341173368E+02  0.40659110361E+02  0.00000000000E+00 0. -1.
         11    1    3    3    0    0  0.86954226526E+01 -0.66057054042E+01 -0.17227806395E+02  0.20397132946E+02  0.51100000000E-03 0. -1.
        -11    1    3    3    0    0  0.10206835100E+02 -0.22843149903E+02 -0.11216425099E+01  0.25044900927E+02  0.51100000000E-03 0.  1.
         12    1    3    3    0    0 -0.13610978445E+01 -0.38695984996E+01  0.30082755360E+01  0.50868557667E+01  0.00000000000E+00 0. -1.
</event>
<event>
 7    1  0.6046695E-013  0.5052884E+02  0.7816164E-02  0.1300439E+00
        -11   -1    0    0    0    0  0.00000000000E+00  0.00000000000E+00  0.45593999997E+02  0.45594000000E+02  0.51100000000E-03 0.  1.
         11   -1    0    0    0    0 -0.00000000000E+00 -0.00000000000E+00 -0.45593999997E+02  0.45594000000E+02  0.51100000000E-03 0. -1.
    9900012    2    1    2    0    0 -0.18870635647E+02 -0.31204165264E+02  0.17982383675E+02  0.50528844301E+02  0.29999952736E+02 0.  0.
         12    1    1    2    0    0  0.18870635647E+02  0.31204165264E+02 -0.17982383675E+02  0.40659155699E+02  0.00000000000E+00 0. -1.
         11    1    3    3    0    0 -0.68710461393E+01 -0.20776354613E+01  0.10761924523E+02  0.12936261588E+02  0.51100000000E-03 0. -1.
        -11    1    3    3    0    0 -0.12948167957E+02 -0.31634874633E+02  0.63040920423E+01  0.34758623725E+02  0.51100000000E-03 0.  1.
        -12    1    3    3    0    0  0.94857844896E+00  0.25083448311E+01  0.91636710999E+00  0.28339589880E+01  0.00000000000E+00 0.  1.
</event>
<event>
 7    1  0.6046695E-013  0.5052885E+02  0.7816164E-02  0.1300439E+00
        -11   -1    0    0    0    0  0.00000000000E+00  0.00000000000E+00  0.45593999997E+02  0.45594000000E+02  0.51100000000E-03 0. -1.
         11   -1    0    0    0    0 -0.00000000000E+00 -0.00000000000E+00 -0.45593999997E+02  0.45594000000E+02  0.51100000000E-03 0.  1.
    9900012    2    1    2    0    0 -0.76472882036E+01 -0.12993130084E+01 -0.39912368143E+02  0.50528851436E+02  0.29999974424E+02 0.  0.
         12    1    1    2    0    0  0.76472882036E+01  0.12993130084E+01  0.39912368143E+02  0.40659148564E+02  0.00000000000E+00 0. -1.
         11    1    3    3    0    0 -0.79600091694E+01 -0.44302181312E+01 -0.30778293895E+02  0.32098161225E+02  0.51100000000E-03 0. -1.
        -11    1    3    3    0    0 -0.51750744515E+01  0.10233930214E+00  0.20843226392E+01  0.55799883545E+01  0.51100000000E-03 0.  1.
        -12    1    3    3    0    0  0.54877954174E+01  0.30285658207E+01 -0.11218396888E+02  0.12850701856E+02  0.00000000000E+00 0.  1.
</event>
<event>
 7    1  0.6046695E-013  0.5052886E+02  0.7816164E-02  0.1300439E+00
        -11   -1    0    0    0    0  0.00000000000E+00  0.00000000000E+00  0.45593999997E+02  0.45594000000E+02  0.51100000000E-03 0.  1.
         11   -1    0    0    0    0 -0.00000000000E+00 -0.00000000000E+00 -0.45593999997E+02  0.45594000000E+02  0.51100000000E-03 0. -1.
    9900012    2    1    2    0    0 -0.10874278664E+02  0.10859190880E+02  0.37642974142E+02  0.50528862463E+02  0.30000007941E+02 0.  0.
         12    1    1    2    0    0  0.10874278664E+02 -0.10859190880E+02 -0.37642974142E+02  0.40659137537E+02  0.00000000000E+00 0. -1.
         11    1    3    3    0    0 -0.67406562903E+01 -0.93614095060E+01  0.12797425109E+02  0.17229234598E+02  0.51100000000E-03 0. -1.
        -11    1    3    3    0    0 -0.33370408584E+00  0.63581765006E+01  0.13712574088E+02  0.15118612874E+02  0.51100000000E-03 0.  1.
         12    1    3    3    0    0 -0.37999182881E+01  0.13862423885E+02  0.11132974945E+02  0.18181014991E+02  0.00000000000E+00 0. -1.
</event>
<event>
 7    1  0.6046695E-013  0.5052885E+02  0.7816164E-02  0.1300439E+00
        -11   -1    0    0    0    0  0.00000000000E+00  0.00000000000E+00  0.45593999997E+02  0.45594000000E+02  0.51100000000E-03 0.  1.
         11   -1    0    0    0    0 -0.00000000000E+00 -0.00000000000E+00 -0.45593999997E+02  0.45594000000E+02  0.51100000000E-03 0. -1.
    9900012    2    1    2    0    0 -0.17397272934E+02  0.54551041357E+01  0.36342026934E+02  0.50528853571E+02  0.29999980915E+02 0.  0.
         12    1    1    2    0    0  0.17397272934E+02 -0.54551041357E+01 -0.36342026934E+02  0.40659146429E+02  0.00000000000E+00 0. -1.
         11    1    3    3    0    0 -0.13473304509E+02  0.11284346312E+02  0.73690150893E+01  0.19056987950E+02  0.51100000000E-03 0. -1.
        -11    1    3    3    0    0 -0.11794626956E+01 -0.65688240427E+01  0.85220525003E+01  0.10824322641E+02  0.51100000000E-03 0.  1.
        -12    1    3    3    0    0 -0.27445057299E+01  0.73958186617E+00  0.20450959344E+02  0.20647542980E+02  0.00000000000E+00 0.  1.
</event>
<event>
 7    1  0.6046695E-013  0.5052885E+02  0.7816164E-02  0.1300439E+00
        -11   -1    0    0    0    0  0.00000000000E+00  0.00000000000E+00  0.45593999997E+02  0.45594000000E+02  0.51100000000E-03 0.  1.
         11   -1    0    0    0    0 -0.00000000000E+00 -0.00000000000E+00 -0.45593999997E+02  0.45594000000E+02  0.51100000000E-03 0. -1.
    9900012    2    1    2    0    0 -0.27777426171E+02 -0.29154962764E+02 -0.56186185171E+01  0.50528854258E+02  0.29999983001E+02 0.  0.
         12    1    1    2    0    0  0.27777426171E+02  0.29154962764E+02  0.56186185171E+01  0.40659145742E+02  0.00000000000E+00 0. -1.
         11    1    3    3    0    0 -0.76880874277E+01 -0.20217707936E+02 -0.70161910968E+01  0.22739598507E+02  0.51100000000E-03 0. -1.
        -11    1    3    3    0    0 -0.12875469165E+02  0.18184212480E+01 -0.42223619303E+01  0.13671602049E+02  0.51100000000E-03 0.  1.
        -12    1    3    3    0    0 -0.72138695786E+01 -0.10755676076E+02  0.56199345100E+01  0.14117653702E+02  0.00000000000E+00 0.  1.
</event>
<event>
 7    1  0.6046695E-013  0.5052886E+02  0.7816164E-02  0.1300439E+00
        -11   -1    0    0    0    0  0.00000000000E+00  0.00000000000E+00  0.45593999997E+02  0.45594000000E+02  0.51100000000E-03 0. -1.
         11   -1    0    0    0    0 -0.00000000000E+00 -0.00000000000E+00 -0.45593999997E+02  0.45594000000E+02  0.51100000000E-03 0.  1.
    9900012    2    1    2    0    0 -0.24831395408E+02  0.30099157467E+02 -0.11428396671E+02  0.50528859225E+02  0.29999998100E+02 0.  0.
         12    1    1    2    0    0  0.24831395408E+02 -0.30099157467E+02  0.11428396671E+02  0.40659140775E+02  0.00000000000E+00 0. -1.
         11    1    3    3    0    0 -0.93099412250E+01  0.23864215056E+02 -0.13403462577E+02  0.28910700012E+02  0.51100000000E-03 0. -1.
        -11    1    3    3    0    0 -0.16309385404E+02  0.56316361027E+01  0.53783584892E+01  0.18073132483E+02  0.51100000000E-03 0.  1.
         12    1    3    3    0    0  0.78793122112E+00  0.60330630801E+00 -0.34032925835E+01  0.35450267304E+01  0.00000000000E+00 0. -1.
</event>
<event>
 7    1  0.6046695E-013  0.5052886E+02  0.7816164E-02  0.1300439E+00
        -11   -1    0    0    0    0  0.00000000000E+00  0.00000000000E+00  0.45593999997E+02  0.45594000000E+02  0.51100000000E-03 0.  1.
         11   -1    0    0    0    0 -0.00000000000E+00 -0.00000000000E+00 -0.45593999997E+02  0.45594000000E+02  0.51100000000E-03 0. -1.
    9900012    2    1    2    0    0  0.27892558137E+02 -0.22831615898E+02 -0.18811912657E+02  0.50528861522E+02  0.30000005083E+02 0.  0.
         12    1    1    2    0    0 -0.27892558137E+02  0.22831615898E+02  0.18811912657E+02  0.40659138478E+02  0.00000000000E+00 0. -1.
         11    1    3    3    0    0  0.28515139818E+01 -0.16771007852E+01 -0.11282698241E+02  0.11757681697E+02  0.51100000000E-03 0. -1.
        -11    1    3    3    0    0  0.19745915004E+02 -0.17882931688E+02  0.27213738375E+01  0.26778840171E+02  0.51100000000E-03 0.  1.
        -12    1    3    3    0    0  0.52951291519E+01 -0.32715834252E+01 -0.10250588253E+02  0.11992339654E+02  0.00000000000E+00 0.  1.
</event>
<event>
 7    1  0.6046695E-013  0.5052886E+02  0.7816164E-02  0.1300439E+00
        -11   -1    0    0    0    0  0.00000000000E+00  0.00000000000E+00  0.45593999997E+02  0.45594000000E+02  0.51100000000E-03 0.  1.
         11   -1    0    0    0    0 -0.00000000000E+00 -0.00000000000E+00 -0.45593999997E+02  0.45594000000E+02  0.51100000000E-03 0. -1.
    9900012    2    1    2    0    0  0.15498929197E+02  0.16083121894E+02  0.33974730056E+02  0.50528857135E+02  0.29999991748E+02 0.  0.
         12    1    1    2    0    0 -0.15498929197E+02 -0.16083121894E+02 -0.33974730056E+02  0.40659142865E+02  0.00000000000E+00 0. -1.
         11    1    3    3    0    0  0.48904211374E+01  0.40808583559E+01 -0.14454285381E+01  0.65313771704E+01  0.51100000000E-03 0. -1.
        -11    1    3    3    0    0  0.22510997430E+01  0.95233848516E+01  0.33726088431E+02  0.35117109081E+02  0.51100000000E-03 0.  1.
        -12    1    3    3    0    0  0.83574083163E+01  0.24788786871E+01  0.16940701632E+01  0.88803708835E+01  0.00000000000E+00 0.  1.
</event>
<event>
 7    1  0.6046695E-013  0.5052886E+02  0.7816164E-02  0.1300439E+00
        -11   -1    0    0    0    0  0.00000000000E+00  0.00000000000E+00  0.45593999997E+02  0.45594000000E+02  0.51100000000E-03 0. -1.
         11   -1    0    0    0    0 -0.00000000000E+00 -0.00000000000E+00 -0.45593999997E+02  0.45594000000E+02  0.51100000000E-03 0.  1.
    9900012    2    1    2    0    0 -0.17413352409E+02  0.12187107661E+02 -0.34661433957E+02  0.50528862784E+02  0.30000008917E+02 0.  0.
         12    1    1    2    0    0  0.17413352409E+02 -0.12187107661E+02  0.34661433957E+02  0.40659137216E+02  0.00000000000E+00 0. -1.
         11    1    3    3    0    0  0.87465132404E+00  0.11992887710E+02 -0.10281734927E+02  0.15821139148E+02  0.51100000000E-03 0. -1.
        -11    1    3    3    0    0 -0.27215142379E+01 -0.33594636914E+01  0.12594903635E+01  0.45032157707E+01  0.51100000000E-03 0.  1.
         12    1    3    3    0    0 -0.15566489495E+02  0.35536836423E+01 -0.25639189393E+02  0.30204507865E+02  0.00000000000E+00 0. -1.
</event>
<event>
 7    1  0.6046695E-013  0.5052886E+02  0.7816164E-02  0.1300439E+00
        -11   -1    0    0    0    0  0.00000000000E+00  0.00000000000E+00  0.45593999997E+02  0.45594000000E+02  0.51100000000E-03 0.  1.
         11   -1    0    0    0    0 -0.00000000000E+00 -0.00000000000E+00 -0.45593999997E+02  0.45594000000E+02  0.51100000000E-03 0. -1.
    9900012    2    1    2    0    0  0.36710920136E+01  0.14338617712E+02  0.37869416093E+02  0.50528861424E+02  0.30000004785E+02 0.  0.
         12    1    1    2    0    0 -0.36710920136E+01 -0.14338617712E+02 -0.37869416093E+02  0.40659138576E+02  0.00000000000E+00 0. -1.
         11    1    3    3    0    0  0.14948807264E+02  0.12344212830E+02  0.24186979489E+02  0.30997683882E+02  0.51100000000E-03 0. -1.
        -11    1    3    3    0    0 -0.24529290679E+01 -0.84477801146E+00  0.85500700843E+01  0.89349991387E+01  0.51100000000E-03 0.  1.
         12    1    3    3    0    0 -0.88247861822E+01  0.28391828937E+01  0.51323665203E+01  0.10596178404E+02  0.00000000000E+00 0. -1.
</event>
<event>
 7    1  0.6046695E-013  0.5052887E+02  0.7816164E-02  0.1300439E+00
        -11   -1    0    0    0    0  0.00000000000E+00  0.00000000000E+00  0.45593999997E+02  0.45594000000E+02  0.51100000000E-03 0. -1.
         11   -1    0    0    0    0 -0.00000000000E+00 -0.00000000000E+00 -0.45593999997E+02  0.45594000000E+02  0.51100000000E-03 0.  1.
    9900012    2    1    2    0    0  0.15346810043E+02 -0.37340031523E+02 -0.48334891612E+01  0.50528866339E+02  0.30000019723E+02 0.  0.
         12    1    1    2    0    0 -0.15346810043E+02  0.37340031523E+02  0.48334891612E+01  0.40659133661E+02  0.00000000000E+00 0. -1.
         11    1    3    3    0    0  0.77530561032E+01 -0.90919299917E+01 -0.11991428259E+02  0.16928302391E+02  0.51100000000E-03 0. -1.
        -11    1    3    3    0    0  0.11187255904E+02 -0.19083187067E+02  0.13300699114E+01  0.22160591362E+02  0.51100000000E-03 0.  1.
         12    1    3    3    0    0 -0.35935019642E+01 -0.91649144644E+01  0.58278691861E+01  0.11439972585E+02  0.00000000000E+00 0. -1.
</event>
<event>
 7    1  0.6046695E-013  0.5052876E+02  0.7816164E-02  0.1300439E+00
        -11   -1    0    0    0    0  0.00000000000E+00  0.00000000000E+00  0.45593999997E+02  0.45594000000E+02  0.51100000000E-03 0.  1.
         11   -1    0    0    0    0 -0.00000000000E+00 -0.00000000000E+00 -0.45593999997E+02  0.45594000000E+02  0.51100000000E-03 0. -1.
    9900012    2    1    2    0    0  0.10183691326E+02  0.31378021424E+02  0.23767333776E+02  0.50528758095E+02  0.29999690704E+02 0.  0.
         12    1    1    2    0    0 -0.10183691326E+02 -0.31378021424E+02 -0.23767333776E+02  0.40659241905E+02  0.00000000000E+00 0. -1.
         11    1    3    3    0    0 -0.71352116377E+01  0.94272557586E+01 -0.23765842756E+01  0.12059541838E+02  0.51100000000E-03 0. -1.
        -11    1    3    3    0    0  0.12197025555E+02  0.12593257594E+02  0.15529971360E+02  0.23420879145E+02  0.51100000000E-03 0.  1.
         12    1    3    3    0    0  0.51218774090E+01  0.93575080709E+01  0.10613946691E+02  0.15048337113E+02  0.00000000000E+00 0. -1.
</event>
<event>
 7    1  0.6046695E-013  0.5052884E+02  0.7816164E-02  0.1300439E+00
        -11   -1    0    0    0    0  0.00000000000E+00  0.00000000000E+00  0.45593999997E+02  0.45594000000E+02  0.51100000000E-03 0.  1.
         11   -1    0    0    0    0 -0.00000000000E+00 -0.00000000000E+00 -0.45593999997E+02  0.45594000000E+02  0.51100000000E-03 0. -1.
    9900012    2    1    2    0    0  0.23678814162E+02  0.13819134099E+01  0.33023801319E+02  0.50528838938E+02  0.29999936434E+02 0.  0.
         12    1    1    2    0    0 -0.23678814162E+02 -0.13819134099E+01 -0.33023801319E+02  0.40659161062E+02  0.00000000000E+00 0. -1.
         11    1    3    3    0    0 -0.10618789480E+01  0.48181700128E+01 -0.32575055046E+01  0.59121647090E+01  0.51100000000E-03 0. -1.
        -11    1    3    3    0    0  0.48566786034E+01 -0.19260229735E+01  0.12708765920E+02  0.13740801397E+02  0.51100000000E-03 0.  1.
         12    1    3    3    0    0  0.19884014506E+02 -0.15102336294E+01  0.23572540903E+02  0.30875872832E+02  0.00000000000E+00 0. -1.
</event>
<event>
 7    1  0.6046695E-013  0.5052885E+02  0.7816164E-02  0.1300439E+00
        -11   -1    0    0    0    0  0.00000000000E+00  0.00000000000E+00  0.45593999997E+02  0.45594000000E+02  0.51100000000E-03 0.  1.
         11   -1    0    0    0    0 -0.00000000000E+00 -0.00000000000E+00 -0.45593999997E+02  0.45594000000E+02  0.51100000000E-03 0. -1.
    9900012    2    1    2    0    0 -0.32990163642E+02  0.18765351799E+02  0.14583464029E+02  0.50528846685E+02  0.29999959982E+02 0.  0.
         12    1    1    2    0    0  0.32990163642E+02 -0.18765351799E+02 -0.14583464029E+02  0.40659153315E+02  0.00000000000E+00 0. -1.
         11    1    3    3    0    0 -0.49871593469E+01  0.13774164007E+02  0.16402031852E+02  0.21991498393E+02  0.51100000000E-03 0. -1.
        -11    1    3    3    0    0 -0.18848728562E+02  0.40174358079E+01 -0.11025784807E+01  0.19303627598E+02  0.51100000000E-03 0.  1.
         12    1    3    3    0    0 -0.91542757326E+01  0.97375198473E+00 -0.71598934192E+00  0.92337206940E+01  0.00000000000E+00 0. -1.
</event>
<event>
 7    1  0.6046695E-013  0.5052887E+02  0.7816164E-02  0.1300439E+00
        -11   -1    0    0    0    0  0.00000000000E+00  0.00000000000E+00  0.45593999997E+02  0.45594000000E+02  0.51100000000E-03 0. -1.
         11   -1    0    0    0    0 -0.00000000000E+00 -0.00000000000E+00 -0.45593999997E+02  0.45594000000E+02  0.51100000000E-03 0.  1.
    9900012    2    1    2    0    0 -0.14322126373E+02 -0.35326488018E+02 -0.14144996935E+02  0.50528868211E+02  0.30000025414E+02 0.  0.
         12    1    1    2    0    0  0.14322126373E+02  0.35326488018E+02  0.14144996935E+02  0.40659131789E+02  0.00000000000E+00 0. -1.
         11    1    3    3    0    0 -0.60252067173E+01 -0.11537016765E+02  0.88634428055E+01  0.15746951783E+02  0.51100000000E-03 0. -1.
        -11    1    3    3    0    0 -0.28290563968E+01 -0.10464831049E+02 -0.56444230483E+01  0.12221937685E+02  0.51100000000E-03 0.  1.
         12    1    3    3    0    0 -0.54678632590E+01 -0.13324640204E+02 -0.17364016692E+02  0.22559978743E+02  0.00000000000E+00 0. -1.
</event>
<event>
 7    1  0.6046695E-013  0.5052886E+02  0.7816164E-02  0.1300439E+00
        -11   -1    0    0    0    0  0.00000000000E+00  0.00000000000E+00  0.45593999997E+02  0.45594000000E+02  0.51100000000E-03 0.  1.
         11   -1    0    0    0    0 -0.00000000000E+00 -0.00000000000E+00 -0.45593999997E+02  0.45594000000E+02  0.51100000000E-03 0. -1.
    9900012    2    1    2    0    0 -0.22847808518E+02 -0.18393288248E+02  0.28157244749E+02  0.50528857873E+02  0.29999993990E+02 0.  0.
         12    1    1    2    0    0  0.22847808518E+02  0.18393288248E+02 -0.28157244749E+02  0.40659142127E+02  0.00000000000E+00 0. -1.
         11    1    3    3    0    0 -0.17830834607E+02  0.26649402177E+00  0.51904179610E+01  0.18572832867E+02  0.51100000000E-03 0. -1.
        -11    1    3    3    0    0  0.14541386092E+01 -0.11538298561E+02  0.17120402622E+02  0.20696739816E+02  0.51100000000E-03 0.  1.
        -12    1    3    3    0    0 -0.64711125198E+01 -0.71214837086E+01  0.58464241660E+01  0.11259285190E+02  0.00000000000E+00 0.  1.
</event>
<event>
 7    1  0.6046695E-013  0.5052886E+02  0.7816164E-02  0.1300439E+00
        -11   -1    0    0    0    0  0.00000000000E+00  0.00000000000E+00  0.45593999997E+02  0.45594000000E+02  0.51100000000E-03 0.  1.
         11   -1    0    0    0    0 -0.00000000000E+00 -0.00000000000E+00 -0.45593999997E+02  0.45594000000E+02  0.51100000000E-03 0. -1.
    9900012    2    1    2    0    0 -0.34169421935E+02 -0.44291534998E+01  0.21587002320E+02  0.50528862463E+02  0.30000007942E+02 0.  0.
         12    1    1    2    0    0  0.34169421935E+02  0.44291534998E+01 -0.21587002320E+02  0.40659137537E+02  0.00000000000E+00 0. -1.
         11    1    3    3    0    0 -0.25784543808E+02  0.83940374831E+01  0.17454893570E+02  0.32248656940E+02  0.51100000000E-03 0. -1.
        -11    1    3    3    0    0 -0.10253683494E+02 -0.94231030767E+01  0.33214494024E+01  0.14316596075E+02  0.51100000000E-03 0.  1.
         12    1    3    3    0    0  0.18688053671E+01 -0.34000879062E+01  0.81065934785E+00  0.39636094470E+01  0.00000000000E+00 0. -1.
</event>
<event>
 7    1  0.6046695E-013  0.5052886E+02  0.7816164E-02  0.1300439E+00
        -11   -1    0    0    0    0  0.00000000000E+00  0.00000000000E+00  0.45593999997E+02  0.45594000000E+02  0.51100000000E-03 0. -1.
         11   -1    0    0    0    0 -0.00000000000E+00 -0.00000000000E+00 -0.45593999997E+02  0.45594000000E+02  0.51100000000E-03 0.  1.
    9900012    2    1    2    0    0 -0.11116805150E+02  0.24578855222E+02 -0.30421409390E+02  0.50528860436E+02  0.30000001782E+02 0.  0.
         12    1    1    2    0    0  0.11116805150E+02 -0.24578855222E+02  0.30421409390E+02  0.40659139564E+02  0.00000000000E+00 0. -1.
         11    1    3    3    0    0 -0.14931198378E+02  0.12912297769E+02 -0.15215783075E+02  0.24923646875E+02  0.51100000000E-03 0.  1.
        -11    1    3    3    0    0  0.79892112091E+01  0.13172952131E+02 -0.85914385235E+01  0.17639925730E+02  0.51100000000E-03 0. -1.
        -12    1    3    3    0    0 -0.41748179814E+01 -0.15063946775E+01 -0.66141877913E+01  0.79652878316E+01  0.00000000000E+00 0.  1.
</event>
<event>
 7    1  0.6046695E-013  0.5052886E+02  0.7816164E-02  0.1300439E+00
        -11   -1    0    0    0    0  0.00000000000E+00  0.00000000000E+00  0.45593999997E+02  0.45594000000E+02  0.51100000000E-03 0. -1.
         11   -1    0    0    0    0 -0.00000000000E+00 -0.00000000000E+00 -0.45593999997E+02  0.45594000000E+02  0.51100000000E-03 0.  1.
    9900012    2    1    2    0    0  0.28702670899E+02  0.86856499387E+01 -0.27456901541E+02  0.50528864817E+02  0.30000015097E+02 0.  0.
         12    1    1    2    0    0 -0.28702670899E+02 -0.86856499387E+01  0.27456901541E+02  0.40659135183E+02  0.00000000000E+00 0. -1.
         11    1    3    3    0    0  0.95038989366E+01 -0.68632613351E+01 -0.32195569658E+01  0.12157055502E+02  0.51100000000E-03 0. -1.
        -11    1    3    3    0    0  0.94764912086E+01  0.17127645404E+02 -0.18705798411E+02  0.27075210381E+02  0.51100000000E-03 0.  1.
         12    1    3    3    0    0  0.97222807540E+01 -0.15787341300E+01 -0.55315461648E+01  0.11296598934E+02  0.00000000000E+00 0. -1.
</event>
<event>
 7    1  0.6046695E-013  0.5052884E+02  0.7816164E-02  0.1300439E+00
        -11   -1    0    0    0    0  0.00000000000E+00  0.00000000000E+00  0.45593999997E+02  0.45594000000E+02  0.51100000000E-03 0.  1.
         11   -1    0    0    0    0 -0.00000000000E+00 -0.00000000000E+00 -0.45593999997E+02  0.45594000000E+02  0.51100000000E-03 0. -1.
    9900012    2    1    2    0    0  0.18566303695E+02 -0.28492304218E+02  0.22285601707E+02  0.50528842655E+02  0.29999947735E+02 0.  0.
         12    1    1    2    0    0 -0.18566303695E+02  0.28492304218E+02 -0.22285601707E+02  0.40659157345E+02  0.00000000000E+00 0. -1.
         11    1    3    3    0    0 -0.15568430366E+01  0.24663272110E+01 -0.70361394126E-01  0.29174442821E+01  0.51100000000E-03 0. -1.
        -11    1    3    3    0    0  0.19971368978E+02 -0.27533429927E+02  0.25845585585E+02  0.42719312224E+02  0.51100000000E-03 0.  1.
        -12    1    3    3    0    0  0.15177775381E+00 -0.34252015015E+01 -0.34896224837E+01  0.48920861492E+01  0.00000000000E+00 0.  1.
</event>
<event>
 7    1  0.6046695E-013  0.5052885E+02  0.7816164E-02  0.1300439E+00
        -11   -1    0    0    0    0  0.00000000000E+00  0.00000000000E+00  0.45593999997E+02  0.45594000000E+02  0.51100000000E-03 0. -1.
         11   -1    0    0    0    0 -0.00000000000E+00 -0.00000000000E+00 -0.45593999997E+02  0.45594000000E+02  0.51100000000E-03 0.  1.
    9900012    2    1    2    0    0  0.70896863625E+01 -0.39860913240E+02  0.37430113616E+01  0.50528853537E+02  0.29999980812E+02 0.  0.
         12    1    1    2    0    0 -0.70896863625E+01  0.39860913240E+02 -0.37430113616E+01  0.40659146463E+02  0.00000000000E+00 0. -1.
         11    1    3    3    0    0  0.11073643846E+00 -0.88611586173E+01 -0.11516000039E+02  0.14531023768E+02  0.51100000000E-03 0.  1.
        -11    1    3    3    0    0  0.66635473736E+01 -0.14416614001E+02  0.91044421189E+01  0.18306624195E+02  0.51100000000E-03 0. -1.
        -12    1    3    3    0    0  0.31540255042E+00 -0.16583140621E+02  0.61545692813E+01  0.17691205574E+02  0.00000000000E+00 0.  1.
</event>
<event>
 7    1  0.6046695E-013  0.5052887E+02  0.7816164E-02  0.1300439E+00
        -11   -1    0    0    0    0  0.00000000000E+00  0.00000000000E+00  0.45593999997E+02  0.45594000000E+02  0.51100000000E-03 0.  1.
         11   -1    0    0    0    0 -0.00000000000E+00 -0.00000000000E+00 -0.45593999997E+02  0.45594000000E+02  0.51100000000E-03 0. -1.
    9900012    2    1    2    0    0 -0.34113294888E+02 -0.19637118396E+02  0.10189764047E+02  0.50528873124E+02  0.30000040348E+02 0.  0.
         12    1    1    2    0    0  0.34113294888E+02  0.19637118396E+02 -0.10189764047E+02  0.40659126876E+02  0.00000000000E+00 0. -1.
         11    1    3    3    0    0 -0.79147331714E+01 -0.69109465473E+01 -0.71732987654E+01  0.12722436826E+02  0.51100000000E-03 0. -1.
        -11    1    3    3    0    0 -0.34033826894E+01 -0.79458145613E+01  0.10345020400E+02  0.13481039652E+02  0.51100000000E-03 0.  1.
        -12    1    3    3    0    0 -0.22795179027E+02 -0.47803572871E+01  0.70180424125E+01  0.24325396646E+02  0.00000000000E+00 0.  1.
</event>
<event>
 7    1  0.6046695E-013  0.5052886E+02  0.7816164E-02  0.1300439E+00
        -11   -1    0    0    0    0  0.00000000000E+00  0.00000000000E+00  0.45593999997E+02  0.45594000000E+02  0.51100000000E-03 0.  1.
         11   -1    0    0    0    0 -0.00000000000E+00 -0.00000000000E+00 -0.45593999997E+02  0.45594000000E+02  0.51100000000E-03 0. -1.
    9900012    2    1    2    0    0  0.39400448525E+02 -0.19260506127E+01  0.98519485239E+01  0.50528857060E+02  0.29999991519E+02 0.  0.
         12    1    1    2    0    0 -0.39400448525E+02  0.19260506127E+01 -0.98519485239E+01  0.40659142940E+02  0.00000000000E+00 0. -1.
         11    1    3    3    0    0  0.60455803747E+01 -0.44151790279E+01 -0.37066789043E+01  0.83535810690E+01  0.51100000000E-03 0. -1.
        -11    1    3    3    0    0  0.15566607019E+02  0.11128255016E+02  0.11422173141E+02  0.22285047752E+02  0.51100000000E-03 0.  1.
        -12    1    3    3    0    0  0.17788261131E+02 -0.86391266006E+01  0.21364542872E+01  0.19890228239E+02  0.00000000000E+00 0.  1.
</event>
<event>
 7    1  0.6046695E-013  0.5052886E+02  0.7816164E-02  0.1300439E+00
        -11   -1    0    0    0    0  0.00000000000E+00  0.00000000000E+00  0.45593999997E+02  0.45594000000E+02  0.51100000000E-03 0. -1.
         11   -1    0    0    0    0 -0.00000000000E+00 -0.00000000000E+00 -0.45593999997E+02  0.45594000000E+02  0.51100000000E-03 0.  1.
    9900012    2    1    2    0    0 -0.32333038327E+02  0.24570627813E+02  0.20062170257E+01  0.50528855576E+02  0.29999987009E+02 0.  0.
         12    1    1    2    0    0  0.32333038327E+02 -0.24570627813E+02 -0.20062170257E+01  0.40659144424E+02  0.00000000000E+00 0. -1.
         11    1    3    3    0    0 -0.93199666590E+01  0.60319624659E+01  0.12341428693E+02  0.16599916029E+02  0.51100000000E-03 0. -1.
        -11    1    3    3    0    0 -0.14720030772E+02  0.13613631010E+02 -0.13032673320E+02  0.23913611801E+02  0.51100000000E-03 0.  1.
        -12    1    3    3    0    0 -0.82930408954E+01  0.49250343362E+01  0.26974616523E+01  0.10015327747E+02  0.00000000000E+00 0.  1.
</event>
<event>
 7    1  0.6046695E-013  0.5052882E+02  0.7816164E-02  0.1300439E+00
        -11   -1    0    0    0    0  0.00000000000E+00  0.00000000000E+00  0.45593999997E+02  0.45594000000E+02  0.51100000000E-03 0.  1.
         11   -1    0    0    0    0 -0.00000000000E+00 -0.00000000000E+00 -0.45593999997E+02  0.45594000000E+02  0.51100000000E-03 0. -1.
    9900012    2    1    2    0    0 -0.29354723340E+02  0.25793536343E+02  0.11232212010E+02  0.50528820396E+02  0.29999880076E+02 0.  0.
         12    1    1    2    0    0  0.29354723340E+02 -0.25793536343E+02 -0.11232212010E+02  0.40659179604E+02  0.00000000000E+00 0. -1.
         11    1    3    3    0    0 -0.90223517563E+01  0.10120253495E+00  0.12325726112E+02  0.15275359165E+02  0.51100000000E-03 0. -1.
        -11    1    3    3    0    0 -0.13117921578E+02  0.20735645228E+02  0.43875958129E+01  0.24925846964E+02  0.51100000000E-03 0.  1.
         12    1    3    3    0    0 -0.72144500051E+01  0.49566885798E+01 -0.54811099156E+01  0.10327614268E+02  0.00000000000E+00 0. -1.
</event>
<event>
 7    1  0.6046695E-013  0.5052881E+02  0.7816164E-02  0.1300439E+00
        -11   -1    0    0    0    0  0.00000000000E+00  0.00000000000E+00  0.45593999997E+02  0.45594000000E+02  0.51100000000E-03 0.  1.
         11   -1    0    0    0    0 -0.00000000000E+00 -0.00000000000E+00 -0.45593999997E+02  0.45594000000E+02  0.51100000000E-03 0. -1.
    9900012    2    1    2    0    0 -0.27293852975E+02 -0.13542005683E+02  0.26922656752E+02  0.50528809468E+02  0.29999846859E+02 0.  0.
         12    1    1    2    0    0  0.27293852975E+02  0.13542005683E+02 -0.26922656752E+02  0.40659190532E+02  0.00000000000E+00 0. -1.
         11    1    3    3    0    0 -0.16121593989E+02  0.45929226938E+01  0.37530282498E+01  0.17178066041E+02  0.51100000000E-03 0. -1.
        -11    1    3    3    0    0 -0.13347554846E+02 -0.15664080704E+02  0.18753744286E+02  0.27842836954E+02  0.51100000000E-03 0.  1.
        -12    1    3    3    0    0  0.21752958598E+01 -0.24708476730E+01  0.44158842157E+01  0.55079064723E+01  0.00000000000E+00 0.  1.
</event>
<event>
 7    1  0.6046695E-013  0.5052886E+02  0.7816164E-02  0.1300439E+00
        -11   -1    0    0    0    0  0.00000000000E+00  0.00000000000E+00  0.45593999997E+02  0.45594000000E+02  0.51100000000E-03 0.  1.
         11   -1    0    0    0    0 -0.00000000000E+00 -0.00000000000E+00 -0.45593999997E+02  0.45594000000E+02  0.51100000000E-03 0. -1.
    9900012    2    1    2    0    0  0.11032191835E+02  0.31430510354E+02  0.23314797833E+02  0.50528855447E+02  0.29999986616E+02 0.  0.
         12    1    1    2    0    0 -0.11032191835E+02 -0.31430510354E+02 -0.23314797833E+02  0.40659144553E+02  0.00000000000E+00 0. -1.
         11    1    3    3    0    0  0.31704436057E+01  0.24291144093E+02  0.69750768591E+01  0.25470828244E+02  0.51100000000E-03 0.  1.
        -11    1    3    3    0    0 -0.10978121500E+01  0.87444922487E+00  0.13751816786E+02  0.13823252806E+02  0.51100000000E-03 0. -1.
         12    1    3    3    0    0  0.89595603788E+01  0.62649170365E+01  0.25879041886E+01  0.11234774397E+02  0.00000000000E+00 0. -1.
</event>
<event>
 7    1  0.6046695E-013  0.5052888E+02  0.7816164E-02  0.1300439E+00
        -11   -1    0    0    0    0  0.00000000000E+00  0.00000000000E+00  0.45593999997E+02  0.45594000000E+02  0.51100000000E-03 0.  1.
         11   -1    0    0    0    0 -0.00000000000E+00 -0.00000000000E+00 -0.45593999997E+02  0.45594000000E+02  0.51100000000E-03 0. -1.
    9900012    2    1    2    0    0  0.75249412607E+01 -0.33160705821E+02  0.22291417131E+02  0.50528875203E+02  0.30000046668E+02 0.  0.
         12    1    1    2    0    0 -0.75249412607E+01  0.33160705821E+02 -0.22291417131E+02  0.40659124797E+02  0.00000000000E+00 0. -1.
         11    1    3    3    0    0 -0.25311599757E+01 -0.33683004991E+02  0.16838170384E+02  0.37742225401E+02  0.51100000000E-03 0. -1.
        -11    1    3    3    0    0  0.61081021321E+01  0.14650693694E+01  0.38467041002E+00  0.62931161994E+01  0.51100000000E-03 0.  1.
        -12    1    3    3    0    0  0.39479991043E+01 -0.94277019980E+00  0.50685763366E+01  0.64935336033E+01  0.00000000000E+00 0.  1.
</event>
<event>
 7    1  0.6046695E-013  0.5052886E+02  0.7816164E-02  0.1300439E+00
        -11   -1    0    0    0    0  0.00000000000E+00  0.00000000000E+00  0.45593999997E+02  0.45594000000E+02  0.51100000000E-03 0.  1.
         11   -1    0    0    0    0 -0.00000000000E+00 -0.00000000000E+00 -0.45593999997E+02  0.45594000000E+02  0.51100000000E-03 0. -1.
    9900012    2    1    2    0    0  0.15980427647E+02  0.13258464088E+02  0.34957183213E+02  0.50528860856E+02  0.30000003057E+02 0.  0.
         12    1    1    2    0    0 -0.15980427647E+02 -0.13258464088E+02 -0.34957183213E+02  0.40659139144E+02  0.00000000000E+00 0. -1.
         11    1    3    3    0    0  0.42420167727E+01  0.19559357469E+02  0.16775260623E+02  0.26114603963E+02  0.51100000000E-03 0. -1.
        -11    1    3    3    0    0  0.66380551363E-01 -0.39261302840E+01  0.72590362425E+01  0.82530305231E+01  0.51100000000E-03 0.  1.
         12    1    3    3    0    0  0.11672030323E+02 -0.23747630966E+01  0.10922886347E+02  0.16161226370E+02  0.00000000000E+00 0. -1.
</event>
<event>
 7    1  0.6046695E-013  0.5052886E+02  0.7816164E-02  0.1300439E+00
        -11   -1    0    0    0    0  0.00000000000E+00  0.00000000000E+00  0.45593999997E+02  0.45594000000E+02  0.51100000000E-03 0.  1.
         11   -1    0    0    0    0 -0.00000000000E+00 -0.00000000000E+00 -0.45593999997E+02  0.45594000000E+02  0.51100000000E-03 0. -1.
    9900012    2    1    2    0    0  0.16017696656E+02  0.29029217078E+02  0.23535153440E+02  0.50528862063E+02  0.30000006727E+02 0.  0.
         12    1    1    2    0    0 -0.16017696656E+02 -0.29029217078E+02 -0.23535153440E+02  0.40659137937E+02  0.00000000000E+00 0. -1.
         11    1    3    3    0    0 -0.22680623268E+01  0.10037421382E+02 -0.47062052968E+01  0.11315577903E+02  0.51100000000E-03 0. -1.
        -11    1    3    3    0    0  0.14491091965E+02  0.17535414049E+02  0.26089619090E+02  0.34614313755E+02  0.51100000000E-03 0.  1.
        -12    1    3    3    0    0  0.37946670176E+01  0.14563816462E+01  0.21517396472E+01  0.45989704047E+01  0.00000000000E+00 0.  1.
</event>
<event>
 7    1  0.6046695E-013  0.5052886E+02  0.7816164E-02  0.1300439E+00
        -11   -1    0    0    0    0  0.00000000000E+00  0.00000000000E+00  0.45593999997E+02  0.45594000000E+02  0.51100000000E-03 0. -1.
         11   -1    0    0    0    0 -0.00000000000E+00 -0.00000000000E+00 -0.45593999997E+02  0.45594000000E+02  0.51100000000E-03 0.  1.
    9900012    2    1    2    0    0  0.13560283584E+02 -0.37083919236E+02  0.96988259237E+01  0.50528861038E+02  0.30000003612E+02 0.  0.
         12    1    1    2    0    0 -0.13560283584E+02  0.37083919236E+02 -0.96988259237E+01  0.40659138962E+02  0.00000000000E+00 0. -1.
         11    1    3    3    0    0  0.11964029225E+02 -0.20742465799E+01  0.59999692222E+01  0.13544006981E+02  0.51100000000E-03 0. -1.
        -11    1    3    3    0    0  0.74431079570E+00 -0.15899852973E+02  0.73143181668E+01  0.17517379189E+02  0.51100000000E-03 0.  1.
         12    1    3    3    0    0  0.85194356329E+00 -0.19109819683E+02 -0.36154614653E+01  0.19467474868E+02  0.00000000000E+00 0. -1.
</event>
<event>
 7    1  0.6046695E-013  0.5052886E+02  0.7816164E-02  0.1300439E+00
        -11   -1    0    0    0    0  0.00000000000E+00  0.00000000000E+00  0.45593999997E+02  0.45594000000E+02  0.51100000000E-03 0.  1.
         11   -1    0    0    0    0 -0.00000000000E+00 -0.00000000000E+00 -0.45593999997E+02  0.45594000000E+02  0.51100000000E-03 0. -1.
    9900012    2    1    2    0    0 -0.26053942429E+01 -0.40574753635E+02  0.25911385866E+00  0.50528857711E+02  0.29999993499E+02 0.  0.
         12    1    1    2    0    0  0.26053942429E+01  0.40574753635E+02 -0.25911385866E+00  0.40659142289E+02  0.00000000000E+00 0. -1.
         11    1    3    3    0    0  0.63101924069E+01 -0.51267464402E+01  0.80692555251E+01  0.11454909090E+02  0.51100000000E-03 0. -1.
        -11    1    3    3    0    0 -0.10788102652E+02 -0.26307513821E+02 -0.30419181227E+01  0.28595833759E+02  0.51100000000E-03 0.  1.
         12    1    3    3    0    0  0.18725160019E+01 -0.91404933740E+01 -0.47682235437E+01  0.10478114862E+02  0.00000000000E+00 0. -1.
</event>
<event>
 7    1  0.6046695E-013  0.5052886E+02  0.7816164E-02  0.1300439E+00
        -11   -1    0    0    0    0  0.00000000000E+00  0.00000000000E+00  0.45593999997E+02  0.45594000000E+02  0.51100000000E-03 0. -1.
         11   -1    0    0    0    0 -0.00000000000E+00 -0.00000000000E+00 -0.45593999997E+02  0.45594000000E+02  0.51100000000E-03 0.  1.
    9900012    2    1    2    0    0  0.39256550135E+02 -0.80569107972E+01 -0.68684028846E+01  0.50528862057E+02  0.30000006708E+02 0.  0.
         12    1    1    2    0    0 -0.39256550135E+02  0.80569107972E+01  0.68684028846E+01  0.40659137943E+02  0.00000000000E+00 0. -1.
         11    1    3    3    0    0  0.69536578339E+01  0.97216142640E+00  0.65105859605E+01  0.95752903308E+01  0.51100000000E-03 0. -1.
        -11    1    3    3    0    0  0.24417097892E+02 -0.33691420541E+01 -0.17683060587E+02  0.30335398788E+02  0.51100000000E-03 0.  1.
        -12    1    3    3    0    0  0.78857944088E+01 -0.56599301694E+01  0.43040717414E+01  0.10618172938E+02  0.00000000000E+00 0.  1.
</event>
<event>
 7    1  0.6046695E-013  0.5052888E+02  0.7816164E-02  0.1300439E+00
        -11   -1    0    0    0    0  0.00000000000E+00  0.00000000000E+00  0.45593999997E+02  0.45594000000E+02  0.51100000000E-03 0. -1.
         11   -1    0    0    0    0 -0.00000000000E+00 -0.00000000000E+00 -0.45593999997E+02  0.45594000000E+02  0.51100000000E-03 0.  1.
    9900012    2    1    2    0    0 -0.15833196049E+02 -0.22417983233E+02 -0.29998471894E+02  0.50528875743E+02  0.30000048309E+02 0.  0.
         12    1    1    2    0    0  0.15833196049E+02  0.22417983233E+02  0.29998471894E+02  0.40659124257E+02  0.00000000000E+00 0. -1.
         11    1    3    3    0    0  0.30521011439E+01 -0.16745082858E+02 -0.13331856374E+02  0.21620627095E+02  0.51100000000E-03 0.  1.
        -11    1    3    3    0    0 -0.20855235895E+02 -0.54052093437E+01 -0.15905420734E+02  0.26779461557E+02  0.51100000000E-03 0. -1.
         12    1    3    3    0    0  0.19699387024E+01 -0.26769103130E+00 -0.76119478540E+00  0.21287870914E+01  0.00000000000E+00 0. -1.
</event>
<event>
 7    1  0.6046695E-013  0.5052885E+02  0.7816164E-02  0.1300439E+00
        -11   -1    0    0    0    0  0.00000000000E+00  0.00000000000E+00  0.45593999997E+02  0.45594000000E+02  0.51100000000E-03 0.  1.
         11   -1    0    0    0    0 -0.00000000000E+00 -0.00000000000E+00 -0.45593999997E+02  0.45594000000E+02  0.51100000000E-03 0. -1.
    9900012    2    1    2    0    0  0.10099378507E+02 -0.94684822335E+01  0.38229789294E+02  0.50528851072E+02  0.29999973319E+02 0.  0.
         12    1    1    2    0    0 -0.10099378507E+02  0.94684822335E+01 -0.38229789294E+02  0.40659148928E+02  0.00000000000E+00 0. -1.
         11    1    3    3    0    0 -0.68662572475E+01 -0.26335689687E+01  0.88887172010E+01  0.11536484206E+02  0.51100000000E-03 0. -1.
        -11    1    3    3    0    0  0.15113580537E+02 -0.59810619172E+00  0.28716635815E+02  0.32456481948E+02  0.51100000000E-03 0.  1.
        -12    1    3    3    0    0  0.18520552181E+01 -0.62368070731E+01  0.62443627897E+00  0.65358849182E+01  0.00000000000E+00 0.  1.
</event>
<event>
 7    1  0.6046695E-013  0.5052886E+02  0.7816164E-02  0.1300439E+00
        -11   -1    0    0    0    0  0.00000000000E+00  0.00000000000E+00  0.45593999997E+02  0.45594000000E+02  0.51100000000E-03 0.  1.
         11   -1    0    0    0    0 -0.00000000000E+00 -0.00000000000E+00 -0.45593999997E+02  0.45594000000E+02  0.51100000000E-03 0. -1.
    9900012    2    1    2    0    0 -0.65139466079E+01 -0.10298652138E+01  0.40120736048E+02  0.50528861005E+02  0.30000003511E+02 0.  0.
         12    1    1    2    0    0  0.65139466079E+01  0.10298652138E+01 -0.40120736048E+02  0.40659138995E+02  0.00000000000E+00 0. -1.
         11    1    3    3    0    0 -0.25584647471E+01 -0.78240632158E+01  0.41845755264E+01  0.92343045035E+01  0.51100000000E-03 0. -1.
        -11    1    3    3    0    0 -0.45795418790E+01  0.67062831665E+01  0.38143829548E+02  0.38998694473E+02  0.51100000000E-03 0.  1.
        -12    1    3    3    0    0  0.62406001818E+00  0.87914835362E-01 -0.22076690264E+01  0.22958620286E+01  0.00000000000E+00 0.  1.
</event>
<event>
 7    1  0.6046695E-013  0.5052886E+02  0.7816164E-02  0.1300439E+00
        -11   -1    0    0    0    0  0.00000000000E+00  0.00000000000E+00  0.45593999997E+02  0.45594000000E+02  0.51100000000E-03 0.  1.
         11   -1    0    0    0    0 -0.00000000000E+00 -0.00000000000E+00 -0.45593999997E+02  0.45594000000E+02  0.51100000000E-03 0. -1.
    9900012    2    1    2    0    0 -0.11849114330E+02 -0.23381685273E+02  0.31081524257E+02  0.50528857525E+02  0.29999992934E+02 0.  0.
         12    1    1    2    0    0  0.11849114330E+02  0.23381685273E+02 -0.31081524257E+02  0.40659142475E+02  0.00000000000E+00 0. -1.
         11    1    3    3    0    0 -0.16017866248E+02 -0.12275436631E+02  0.35150763806E+01  0.20484485491E+02  0.51100000000E-03 0. -1.
        -11    1    3    3    0    0  0.90054870567E+00 -0.42040905179E+01  0.10576501412E+02  0.11416993800E+02  0.51100000000E-03 0.  1.
         12    1    3    3    0    0  0.32682032121E+01 -0.69021581241E+01  0.16989946465E+02  0.18627378234E+02  0.00000000000E+00 0. -1.
</event>
<event>
 7    1  0.6046695E-013  0.5052886E+02  0.7816164E-02  0.1300439E+00
        -11   -1    0    0    0    0  0.00000000000E+00  0.00000000000E+00  0.45593999997E+02  0.45594000000E+02  0.51100000000E-03 0. -1.
         11   -1    0    0    0    0 -0.00000000000E+00 -0.00000000000E+00 -0.45593999997E+02  0.45594000000E+02  0.51100000000E-03 0.  1.
    9900012    2    1    2    0    0 -0.36674324589E+01 -0.19614623073E+02 -0.35425726263E+02  0.50528861047E+02  0.30000003639E+02 0.  0.
         12    1    1    2    0    0  0.36674324589E+01  0.19614623073E+02  0.35425726263E+02  0.40659138953E+02  0.00000000000E+00 0. -1.
         11    1    3    3    0    0  0.68995031456E+01 -0.12374320355E+02 -0.86317844972E+01  0.16590197460E+02  0.51100000000E-03 0. -1.
        -11    1    3    3    0    0 -0.11092416736E+02 -0.48511321478E+00 -0.72673830327E+01  0.13269962331E+02  0.51100000000E-03 0.  1.
         12    1    3    3    0    0  0.52548113107E+00 -0.67551895032E+01 -0.19526558733E+02  0.20668701256E+02  0.00000000000E+00 0. -1.
</event>
<event>
 7    1  0.6046695E-013  0.5052886E+02  0.7816164E-02  0.1300439E+00
        -11   -1    0    0    0    0  0.00000000000E+00  0.00000000000E+00  0.45593999997E+02  0.45594000000E+02  0.51100000000E-03 0.  1.
         11   -1    0    0    0    0 -0.00000000000E+00 -0.00000000000E+00 -0.45593999997E+02  0.45594000000E+02  0.51100000000E-03 0. -1.
    9900012    2    1    2    0    0 -0.69335865280E+01 -0.37476664266E+02 -0.14163009172E+02  0.50528858156E+02  0.29999994852E+02 0.  0.
         12    1    1    2    0    0  0.69335865280E+01  0.37476664266E+02  0.14163009172E+02  0.40659141844E+02  0.00000000000E+00 0. -1.
         11    1    3    3    0    0 -0.27226109531E+01 -0.35148160839E+00 -0.57588671766E+01  0.63797101143E+01  0.51100000000E-03 0. -1.
        -11    1    3    3    0    0 -0.42234839325E+01 -0.25004775297E+02  0.52445766919E+01  0.25895601733E+02  0.51100000000E-03 0.  1.
        -12    1    3    3    0    0  0.12508357638E-01 -0.12120407360E+02 -0.13648718688E+02  0.18253546309E+02  0.00000000000E+00 0.  1.
</event>
<event>
 7    1  0.6046695E-013  0.5052892E+02  0.7816164E-02  0.1300439E+00
        -11   -1    0    0    0    0  0.00000000000E+00  0.00000000000E+00  0.45593999997E+02  0.45594000000E+02  0.51100000000E-03 0. -1.
         11   -1    0    0    0    0 -0.00000000000E+00 -0.00000000000E+00 -0.45593999997E+02  0.45594000000E+02  0.51100000000E-03 0.  1.
    9900012    2    1    2    0    0 -0.58889452908E+01 -0.26007980580E+02  0.30693095275E+02  0.50528919488E+02  0.30000181277E+02 0.  0.
         12    1    1    2    0    0  0.58889452908E+01  0.26007980580E+02 -0.30693095275E+02  0.40659080512E+02  0.00000000000E+00 0. -1.
         11    1    3    3    0    0  0.34784157360E+01 -0.88542156881E+00 -0.25183092933E+01  0.43846584068E+01  0.51100000000E-03 0. -1.
        -11    1    3    3    0    0 -0.80916293248E+01 -0.27620170110E+02  0.27625425271E+02  0.39893763719E+02  0.51100000000E-03 0.  1.
         12    1    3    3    0    0 -0.12757317020E+01  0.24976110981E+01  0.55859792971E+01  0.62504973627E+01  0.00000000000E+00 0. -1.
</event>
<event>
 7    1  0.6046695E-013  0.5052886E+02  0.7816164E-02  0.1300439E+00
        -11   -1    0    0    0    0  0.00000000000E+00  0.00000000000E+00  0.45593999997E+02  0.45594000000E+02  0.51100000000E-03 0. -1.
         11   -1    0    0    0    0 -0.00000000000E+00 -0.00000000000E+00 -0.45593999997E+02  0.45594000000E+02  0.51100000000E-03 0.  1.
    9900012    2    1    2    0    0 -0.20850706386E+02 -0.34632133798E+02 -0.43622040303E+01  0.50528862378E+02  0.30000007684E+02 0.  0.
         12    1    1    2    0    0  0.20850706386E+02  0.34632133798E+02  0.43622040303E+01  0.40659137622E+02  0.00000000000E+00 0. -1.
         11    1    3    3    0    0 -0.80337903755E+01 -0.20691548905E+02  0.85771877733E+01  0.23796010890E+02  0.51100000000E-03 0. -1.
        -11    1    3    3    0    0 -0.33640393684E+01 -0.91138441794E+01 -0.12862094422E+02  0.16118696901E+02  0.51100000000E-03 0.  1.
        -12    1    3    3    0    0 -0.94528766418E+01 -0.48267407132E+01 -0.77297381279E-01  0.10614154587E+02  0.00000000000E+00 0.  1.
</event>
<event>
 7    1  0.6046695E-013  0.5052890E+02  0.7816164E-02  0.1300439E+00
        -11   -1    0    0    0    0  0.00000000000E+00  0.00000000000E+00  0.45593999997E+02  0.45594000000E+02  0.51100000000E-03 0.  1.
         11   -1    0    0    0    0 -0.00000000000E+00 -0.00000000000E+00 -0.45593999997E+02  0.45594000000E+02  0.51100000000E-03 0. -1.
    9900012    2    1    2    0    0 -0.40585321290E+01 -0.33692646766E+02  0.22394117897E+02  0.50528897138E+02  0.30000113342E+02 0.  0.
         12    1    1    2    0    0  0.40585321290E+01  0.33692646766E+02 -0.22394117897E+02  0.40659102862E+02  0.00000000000E+00 0. -1.
         11    1    3    3    0    0 -0.67046931084E+01 -0.14435684425E+01  0.49320278547E+00  0.68760489218E+01  0.51100000000E-03 0. -1.
        -11    1    3    3    0    0 -0.30183702193E+00 -0.30820778347E+02  0.11749169075E+02  0.32985670491E+02  0.51100000000E-03 0.  1.
        -12    1    3    3    0    0  0.29479980014E+01 -0.14282999759E+01  0.10151746037E+02  0.10667177726E+02  0.00000000000E+00 0.  1.
</event>
<event>
 7    1  0.6046695E-013  0.5052886E+02  0.7816164E-02  0.1300439E+00
        -11   -1    0    0    0    0  0.00000000000E+00  0.00000000000E+00  0.45593999997E+02  0.45594000000E+02  0.51100000000E-03 0.  1.
         11   -1    0    0    0    0 -0.00000000000E+00 -0.00000000000E+00 -0.45593999997E+02  0.45594000000E+02  0.51100000000E-03 0. -1.
    9900012    2    1    2    0    0 -0.39172593556E+02  0.15739556917E+01  0.10779442281E+02  0.50528858367E+02  0.29999995492E+02 0.  0.
         12    1    1    2    0    0  0.39172593556E+02 -0.15739556917E+01 -0.10779442281E+02  0.40659141633E+02  0.00000000000E+00 0. -1.
         11    1    3    3    0    0 -0.25525915425E+02 -0.78285740044E+01  0.15309234585E+02  0.30777127759E+02  0.51100000000E-03 0. -1.
        -11    1    3    3    0    0 -0.14191322999E+02  0.59159985776E+01 -0.22208061859E+01  0.15534628029E+02  0.51100000000E-03 0.  1.
         12    1    3    3    0    0  0.54464486738E+00  0.34865311185E+01 -0.23089861180E+01  0.42171025794E+01  0.00000000000E+00 0. -1.
</event>
<event>
 7    1  0.6046695E-013  0.5052886E+02  0.7816164E-02  0.1300439E+00
        -11   -1    0    0    0    0  0.00000000000E+00  0.00000000000E+00  0.45593999997E+02  0.45594000000E+02  0.51100000000E-03 0.  1.
         11   -1    0    0    0    0 -0.00000000000E+00 -0.00000000000E+00 -0.45593999997E+02  0.45594000000E+02  0.51100000000E-03 0. -1.
    9900012    2    1    2    0    0  0.23129834526E+01 -0.14890654467E+02  0.37763530109E+02  0.50528859709E+02  0.29999999572E+02 0.  0.
         12    1    1    2    0    0 -0.23129834526E+01  0.14890654467E+02 -0.37763530109E+02  0.40659140291E+02  0.00000000000E+00 0. -1.
         11    1    3    3    0    0 -0.31424938895E+01 -0.16028869699E+02  0.10947090250E+02  0.19663130902E+02  0.51100000000E-03 0. -1.
        -11    1    3    3    0    0  0.97159968654E+01 -0.17813163645E+01  0.14885221116E+02  0.17864587625E+02  0.51100000000E-03 0.  1.
         12    1    3    3    0    0 -0.42605195232E+01  0.29195315960E+01  0.11931218744E+02  0.13001141183E+02  0.00000000000E+00 0. -1.
</event>
<event>
 7    1  0.6046695E-013  0.5052886E+02  0.7816164E-02  0.1300439E+00
        -11   -1    0    0    0    0  0.00000000000E+00  0.00000000000E+00  0.45593999997E+02  0.45594000000E+02  0.51100000000E-03 0. -1.
         11   -1    0    0    0    0 -0.00000000000E+00 -0.00000000000E+00 -0.45593999997E+02  0.45594000000E+02  0.51100000000E-03 0.  1.
    9900012    2    1    2    0    0 -0.71334968016E+01 -0.38714306686E+02 -0.10172580547E+02  0.50528859407E+02  0.29999998654E+02 0.  0.
         12    1    1    2    0    0  0.71334968016E+01  0.38714306686E+02  0.10172580547E+02  0.40659140593E+02  0.00000000000E+00 0. -1.
         11    1    3    3    0    0 -0.83424094293E+01 -0.21930353404E+02 -0.15529246055E+01  0.23514841496E+02  0.51100000000E-03 0. -1.
        -11    1    3    3    0    0  0.33025690708E+01 -0.13407575985E+02 -0.14431908521E+02  0.19973733754E+02  0.51100000000E-03 0.  1.
        -12    1    3    3    0    0 -0.20936564431E+01 -0.33763772968E+01  0.58122525800E+01  0.70402841566E+01  0.00000000000E+00 0.  1.
</event>
<event>
 7    1  0.6046695E-013  0.5052886E+02  0.7816164E-02  0.1300439E+00
        -11   -1    0    0    0    0  0.00000000000E+00  0.00000000000E+00  0.45593999997E+02  0.45594000000E+02  0.51100000000E-03 0.  1.
         11   -1    0    0    0    0 -0.00000000000E+00 -0.00000000000E+00 -0.45593999997E+02  0.45594000000E+02  0.51100000000E-03 0. -1.
    9900012    2    1    2    0    0  0.13025208395E+02  0.38007668389E+02  0.62391432220E+01  0.50528858122E+02  0.29999994747E+02 0.  0.
         12    1    1    2    0    0 -0.13025208395E+02 -0.38007668389E+02 -0.62391432220E+01  0.40659141878E+02  0.00000000000E+00 0. -1.
         11    1    3    3    0    0  0.39671072122E+01 -0.22037530718E+01 -0.46813310178E+01  0.65199177598E+01  0.51100000000E-03 0.  1.
        -11    1    3    3    0    0  0.15059382895E+01  0.23059060293E+02  0.10184965820E+02  0.25253151105E+02  0.51100000000E-03 0. -1.
        -12    1    3    3    0    0  0.75521628935E+01  0.17152361168E+02  0.73550841989E+00  0.18755789257E+02  0.00000000000E+00 0.  1.
</event>
<event>
 7    1  0.6046695E-013  0.5052886E+02  0.7816164E-02  0.1300439E+00
        -11   -1    0    0    0    0  0.00000000000E+00  0.00000000000E+00  0.45593999997E+02  0.45594000000E+02  0.51100000000E-03 0. -1.
         11   -1    0    0    0    0 -0.00000000000E+00 -0.00000000000E+00 -0.45593999997E+02  0.45594000000E+02  0.51100000000E-03 0.  1.
    9900012    2    1    2    0    0  0.30971500015E+02 -0.12338875116E+02 -0.23274114284E+02  0.50528855296E+02  0.29999986159E+02 0.  0.
         12    1    1    2    0    0 -0.30971500015E+02  0.12338875116E+02  0.23274114284E+02  0.40659144704E+02  0.00000000000E+00 0. -1.
         11    1    3    3    0    0 -0.44364252872E+01 -0.52648965932E+00  0.13029153487E+01  0.46536705252E+01  0.51100000000E-03 0. -1.
        -11    1    3    3    0    0  0.12812901086E+02 -0.87762406950E+01 -0.67464671461E+01  0.16932443834E+02  0.51100000000E-03 0.  1.
         12    1    3    3    0    0  0.22595024217E+02 -0.30361447620E+01 -0.17830562487E+02  0.28942740937E+02  0.00000000000E+00 0. -1.
</event>
<event>
 7    1  0.6046695E-013  0.5052885E+02  0.7816164E-02  0.1300439E+00
        -11   -1    0    0    0    0  0.00000000000E+00  0.00000000000E+00  0.45593999997E+02  0.45594000000E+02  0.51100000000E-03 0. -1.
         11   -1    0    0    0    0 -0.00000000000E+00 -0.00000000000E+00 -0.45593999997E+02  0.45594000000E+02  0.51100000000E-03 0.  1.
    9900012    2    1    2    0    0 -0.24425120060E+02  0.38999622205E+01 -0.32270267742E+02  0.50528851271E+02  0.29999973923E+02 0.  0.
         12    1    1    2    0    0  0.24425120060E+02 -0.38999622205E+01  0.32270267742E+02  0.40659148729E+02  0.00000000000E+00 0. -1.
         11    1    3    3    0    0 -0.24583628105E+01 -0.56510435724E+01 -0.68270603027E+01  0.91970970313E+01  0.51100000000E-03 0. -1.
        -11    1    3    3    0    0 -0.69853477932E+01  0.13099066067E+02 -0.20198520722E+02  0.25067126984E+02  0.51100000000E-03 0.  1.
        -12    1    3    3    0    0 -0.14981409456E+02 -0.35480602741E+01 -0.52446867173E+01  0.16264627256E+02  0.00000000000E+00 0.  1.
</event>
<event>
 7    1  0.6046695E-013  0.5052885E+02  0.7816164E-02  0.1300439E+00
        -11   -1    0    0    0    0  0.00000000000E+00  0.00000000000E+00  0.45593999997E+02  0.45594000000E+02  0.51100000000E-03 0. -1.
         11   -1    0    0    0    0 -0.00000000000E+00 -0.00000000000E+00 -0.45593999997E+02  0.45594000000E+02  0.51100000000E-03 0.  1.
    9900012    2    1    2    0    0  0.25941861289E+02  0.56276583380E+01 -0.30797989706E+02  0.50528845122E+02  0.29999955232E+02 0.  0.
         12    1    1    2    0    0 -0.25941861289E+02 -0.56276583380E+01  0.30797989706E+02  0.40659154878E+02  0.00000000000E+00 0. -1.
         11    1    3    3    0    0  0.20135007366E+02 -0.62271375968E+01 -0.19139982149E+02  0.28469890784E+02  0.51100000000E-03 0. -1.
        -11    1    3    3    0    0 -0.25657100644E+01 -0.25571492235E+00  0.87618805910E+00  0.27232267684E+01  0.51100000000E-03 0.  1.
         12    1    3    3    0    0  0.83725639869E+01  0.12110510857E+02 -0.12534195615E+02  0.19335727570E+02  0.00000000000E+00 0. -1.
</event>
<event>
 7    1  0.6046695E-013  0.5052886E+02  0.7816164E-02  0.1300439E+00
        -11   -1    0    0    0    0  0.00000000000E+00  0.00000000000E+00  0.45593999997E+02  0.45594000000E+02  0.51100000000E-03 0.  1.
         11   -1    0    0    0    0 -0.00000000000E+00 -0.00000000000E+00 -0.45593999997E+02  0.45594000000E+02  0.51100000000E-03 0. -1.
    9900012    2    1    2    0    0  0.24526177991E+02 -0.13266445015E+02  0.29591115032E+02  0.50528855161E+02  0.29999985748E+02 0.  0.
         12    1    1    2    0    0 -0.24526177991E+02  0.13266445015E+02 -0.29591115032E+02  0.40659144839E+02  0.00000000000E+00 0. -1.
         11    1    3    3    0    0  0.19731099866E+02 -0.92912053992E+01  0.15568930692E+02  0.26796163958E+02  0.51100000000E-03 0. -1.
        -11    1    3    3    0    0  0.73094053804E+00 -0.19933403642E+01  0.17747533294E+02  0.17874076708E+02  0.51100000000E-03 0.  1.
        -12    1    3    3    0    0  0.40641375872E+01 -0.19818992518E+01 -0.37253489544E+01  0.58586144952E+01  0.00000000000E+00 0.  1.
</event>
<event>
 7    1  0.6046695E-013  0.5052886E+02  0.7816164E-02  0.1300439E+00
        -11   -1    0    0    0    0  0.00000000000E+00  0.00000000000E+00  0.45593999997E+02  0.45594000000E+02  0.51100000000E-03 0. -1.
         11   -1    0    0    0    0 -0.00000000000E+00 -0.00000000000E+00 -0.45593999997E+02  0.45594000000E+02  0.51100000000E-03 0.  1.
    9900012    2    1    2    0    0 -0.29742071518E+02  0.26981785553E+02  0.63685351013E+01  0.50528858234E+02  0.29999995088E+02 0.  0.
         12    1    1    2    0    0  0.29742071518E+02 -0.26981785553E+02 -0.63685351013E+01  0.40659141766E+02  0.00000000000E+00 0. -1.
         11    1    3    3    0    0 -0.17623222690E+02  0.99907584422E+01  0.16024444721E+02  0.25829751473E+02  0.51100000000E-03 0. -1.
        -11    1    3    3    0    0 -0.96288610216E+01  0.57418500267E+01 -0.48835587894E+01  0.12228366735E+02  0.51100000000E-03 0.  1.
         12    1    3    3    0    0 -0.24899878054E+01  0.11249177084E+02 -0.47723508307E+01  0.12470740026E+02  0.00000000000E+00 0. -1.
</event>
<event>
 7    1  0.6596751E-013  0.5052887E+02  0.7816164E-02  0.1300439E+00
        -11   -1    0    0    0    0  0.00000000000E+00  0.00000000000E+00  0.45593999997E+02  0.45594000000E+02  0.51100000000E-03 0. -1.
         11   -1    0    0    0    0 -0.00000000000E+00 -0.00000000000E+00 -0.45593999997E+02  0.45594000000E+02  0.51100000000E-03 0.  1.
    9900012    2    1    2    0    0 -0.22857227967E+02 -0.19548410262E+02 -0.27360041966E+02  0.50528866826E+02  0.30000021204E+02 0.  0.
         12    1    1    2    0    0  0.22857227967E+02  0.19548410262E+02  0.27360041966E+02  0.40659133174E+02  0.00000000000E+00 0. -1.
         11    1    3    3    0    0 -0.13782859032E+00 -0.52421184078E+01 -0.16796948622E+02  0.17596485029E+02  0.51100000000E-03 0.  1.
        -11    1    3    3    0    0 -0.20550906970E+02 -0.11720356431E+02 -0.14499113685E+02  0.27747627468E+02  0.51100000000E-03 0. -1.
         12    1    3    3    0    0 -0.21684924061E+01 -0.25859354230E+01  0.39360203411E+01  0.51847543290E+01  0.00000000000E+00 0. -1.
</event>
<event>
 7    1  0.6046695E-013  0.5052886E+02  0.7816164E-02  0.1300439E+00
        -11   -1    0    0    0    0  0.00000000000E+00  0.00000000000E+00  0.45593999997E+02  0.45594000000E+02  0.51100000000E-03 0. -1.
         11   -1    0    0    0    0 -0.00000000000E+00 -0.00000000000E+00 -0.45593999997E+02  0.45594000000E+02  0.51100000000E-03 0.  1.
    9900012    2    1    2    0    0 -0.36061286709E+02  0.16444533168E+02 -0.90733973869E+01  0.50528860678E+02  0.30000002518E+02 0.  0.
         12    1    1    2    0    0  0.36061286709E+02 -0.16444533168E+02  0.90733973869E+01  0.40659139322E+02  0.00000000000E+00 0. -1.
         11    1    3    3    0    0 -0.17832534542E+01 -0.32885374528E+01  0.17803431534E+01  0.41429570919E+01  0.51100000000E-03 0. -1.
        -11    1    3    3    0    0 -0.25831215116E+02  0.24246119172E+02 -0.73074815878E+01  0.36173543602E+02  0.51100000000E-03 0.  1.
        -12    1    3    3    0    0 -0.84468181388E+01 -0.45130485516E+01 -0.35462589525E+01  0.10212359985E+02  0.00000000000E+00 0.  1.
</event>
<event>
 7    1  0.6046695E-013  0.5052885E+02  0.7816164E-02  0.1300439E+00
        -11   -1    0    0    0    0  0.00000000000E+00  0.00000000000E+00  0.45593999997E+02  0.45594000000E+02  0.51100000000E-03 0.  1.
         11   -1    0    0    0    0 -0.00000000000E+00 -0.00000000000E+00 -0.45593999997E+02  0.45594000000E+02  0.51100000000E-03 0. -1.
    9900012    2    1    2    0    0  0.20325319147E+02 -0.12979865088E+01  0.35190381228E+02  0.50528852218E+02  0.29999976802E+02 0.  0.
         12    1    1    2    0    0 -0.20325319147E+02  0.12979865088E+01 -0.35190381228E+02  0.40659147782E+02  0.00000000000E+00 0. -1.
         11    1    3    3    0    0 -0.47181954316E+01 -0.40383195743E+01  0.50847041837E+01  0.80264319602E+01  0.51100000000E-03 0. -1.
        -11    1    3    3    0    0  0.19666871366E+02 -0.45199985478E+01  0.24989444098E+02  0.32119908668E+02  0.51100000000E-03 0.  1.
         12    1    3    3    0    0  0.53766432124E+01  0.72603316133E+01  0.51162329457E+01  0.10382511590E+02  0.00000000000E+00 0. -1.
</event>
<event>
 7    1  0.6046695E-013  0.5052886E+02  0.7816164E-02  0.1300439E+00
        -11   -1    0    0    0    0  0.00000000000E+00  0.00000000000E+00  0.45593999997E+02  0.45594000000E+02  0.51100000000E-03 0.  1.
         11   -1    0    0    0    0 -0.00000000000E+00 -0.00000000000E+00 -0.45593999997E+02  0.45594000000E+02  0.51100000000E-03 0. -1.
    9900012    2    1    2    0    0 -0.57086551645E+00 -0.40654874994E+02  0.14553147210E+00  0.50528856777E+02  0.29999990659E+02 0.  0.
         12    1    1    2    0    0  0.57086551645E+00  0.40654874994E+02 -0.14553147210E+00  0.40659143223E+02  0.00000000000E+00 0. -1.
         11    1    3    3    0    0 -0.64203688693E+01 -0.15679023921E+01  0.50793253070E+01  0.83354064187E+01  0.51100000000E-03 0. -1.
        -11    1    3    3    0    0  0.66325702264E+01 -0.82779115708E+01  0.14918751239E+01  0.10711699185E+02  0.51100000000E-03 0.  1.
         12    1    3    3    0    0 -0.78306687361E+00 -0.30809061031E+02 -0.64256689589E+01  0.31481751173E+02  0.00000000000E+00 0. -1.
</event>
<event>
 7    1  0.6046695E-013  0.5052887E+02  0.7816164E-02  0.1300439E+00
        -11   -1    0    0    0    0  0.00000000000E+00  0.00000000000E+00  0.45593999997E+02  0.45594000000E+02  0.51100000000E-03 0. -1.
         11   -1    0    0    0    0 -0.00000000000E+00 -0.00000000000E+00 -0.45593999997E+02  0.45594000000E+02  0.51100000000E-03 0.  1.
    9900012    2    1    2    0    0 -0.22779176176E+02  0.32494577104E+02 -0.88530680740E+01  0.50528865445E+02  0.30000017006E+02 0.  0.
         12    1    1    2    0    0  0.22779176176E+02 -0.32494577104E+02  0.88530680740E+01  0.40659134555E+02  0.00000000000E+00 0. -1.
         11    1    3    3    0    0 -0.12152357710E+02 -0.33942456554E+00 -0.52459868886E+01  0.13240671647E+02  0.51100000000E-03 0. -1.
        -11    1    3    3    0    0 -0.36688435089E+01  0.18198089271E+02  0.45959476206E+01  0.19124685634E+02  0.51100000000E-03 0.  1.
         12    1    3    3    0    0 -0.69579749565E+01  0.14635912399E+02 -0.82030288059E+01  0.18163508165E+02  0.00000000000E+00 0. -1.
</event>
<event>
 7    1  0.6046695E-013  0.5052886E+02  0.7816164E-02  0.1300439E+00
        -11   -1    0    0    0    0  0.00000000000E+00  0.00000000000E+00  0.45593999997E+02  0.45594000000E+02  0.51100000000E-03 0. -1.
         11   -1    0    0    0    0 -0.00000000000E+00 -0.00000000000E+00 -0.45593999997E+02  0.45594000000E+02  0.51100000000E-03 0.  1.
    9900012    2    1    2    0    0  0.20992762537E+02 -0.34350006608E+02  0.57049993756E+01  0.50528855262E+02  0.29999986054E+02 0.  0.
         12    1    1    2    0    0 -0.20992762537E+02  0.34350006608E+02 -0.57049993756E+01  0.40659144738E+02  0.00000000000E+00 0. -1.
         11    1    3    3    0    0  0.93386559067E+01 -0.18752023594E+02  0.14278010718E+02  0.25351735115E+02  0.51100000000E-03 0. -1.
        -11    1    3    3    0    0  0.43494762874E+01 -0.83034392673E+01 -0.11120669903E+02  0.14544220398E+02  0.51100000000E-03 0.  1.
         12    1    3    3    0    0  0.73046303433E+01 -0.72945437475E+01  0.25476585597E+01  0.10632899749E+02  0.00000000000E+00 0. -1.
</event>
<event>
 7    1  0.6046695E-013  0.5052886E+02  0.7816164E-02  0.1300439E+00
        -11   -1    0    0    0    0  0.00000000000E+00  0.00000000000E+00  0.45593999997E+02  0.45594000000E+02  0.51100000000E-03 0. -1.
         11   -1    0    0    0    0 -0.00000000000E+00 -0.00000000000E+00 -0.45593999997E+02  0.45594000000E+02  0.51100000000E-03 0.  1.
    9900012    2    1    2    0    0  0.11631011822E+02  0.29841417461E+02  0.25047454422E+02  0.50528860744E+02  0.30000002717E+02 0.  0.
         12    1    1    2    0    0 -0.11631011822E+02 -0.29841417461E+02 -0.25047454422E+02  0.40659139256E+02  0.00000000000E+00 0. -1.
         11    1    3    3    0    0  0.68100051443E+00  0.67015502967E+01 -0.40853851046E+01  0.78781285718E+01  0.51100000000E-03 0. -1.
        -11    1    3    3    0    0  0.12656435986E+02  0.12767383246E+02  0.26132419250E+02  0.31718997193E+02  0.51100000000E-03 0.  1.
        -12    1    3    3    0    0 -0.17064246792E+01  0.10372483917E+02  0.30004202764E+01  0.10931734978E+02  0.00000000000E+00 0.  1.
</event>
<event>
 7    1  0.6046695E-013  0.5052887E+02  0.7816164E-02  0.1300439E+00
        -11   -1    0    0    0    0  0.00000000000E+00  0.00000000000E+00  0.45593999997E+02  0.45594000000E+02  0.51100000000E-03 0.  1.
         11   -1    0    0    0    0 -0.00000000000E+00 -0.00000000000E+00 -0.45593999997E+02  0.45594000000E+02  0.51100000000E-03 0. -1.
    9900012    2    1    2    0    0  0.32995907340E+02  0.10210473721E+02 -0.21451836077E+02  0.50528868851E+02  0.30000027358E+02 0.  0.
         12    1    1    2    0    0 -0.32995907340E+02 -0.10210473721E+02  0.21451836077E+02  0.40659131149E+02  0.00000000000E+00 0. -1.
         11    1    3    3    0    0  0.16944921636E+01 -0.70755816958E+01  0.12060777258E+01  0.73749429671E+01  0.51100000000E-03 0. -1.
        -11    1    3    3    0    0  0.29895527212E+02  0.17208636630E+02 -0.23279218053E+02  0.41614921787E+02  0.51100000000E-03 0.  1.
        -12    1    3    3    0    0  0.14058879639E+01  0.77418786599E-01  0.62130425093E+00  0.15390040960E+01  0.00000000000E+00 0.  1.
</event>
<event>
 7    1  0.6046695E-013  0.5052886E+02  0.7816164E-02  0.1300439E+00
        -11   -1    0    0    0    0  0.00000000000E+00  0.00000000000E+00  0.45593999997E+02  0.45594000000E+02  0.51100000000E-03 0. -1.
         11   -1    0    0    0    0 -0.00000000000E+00 -0.00000000000E+00 -0.45593999997E+02  0.45594000000E+02  0.51100000000E-03 0.  1.
    9900012    2    1    2    0    0 -0.39659692378E+02 -0.89555123605E+01  0.27005843556E+00  0.50528864093E+02  0.30000012896E+02 0.  0.
         12    1    1    2    0    0  0.39659692378E+02  0.89555123605E+01 -0.27005843556E+00  0.40659135907E+02  0.00000000000E+00 0. -1.
         11    1    3    3    0    0 -0.26432799319E+02 -0.15513692219E+02  0.40151648217E+01  0.30910986315E+02  0.51100000000E-03 0. -1.
        -11    1    3    3    0    0 -0.15209080659E+02  0.36551876846E+01 -0.38203030952E+01  0.16101901984E+02  0.51100000000E-03 0.  1.
         12    1    3    3    0    0  0.19821875998E+01  0.29029921741E+01  0.75196709082E-01  0.35159757947E+01  0.00000000000E+00 0. -1.
</event>
<event>
 7    1  0.6046695E-013  0.5052887E+02  0.7816164E-02  0.1300439E+00
        -11   -1    0    0    0    0  0.00000000000E+00  0.00000000000E+00  0.45593999997E+02  0.45594000000E+02  0.51100000000E-03 0.  1.
         11   -1    0    0    0    0 -0.00000000000E+00 -0.00000000000E+00 -0.45593999997E+02  0.45594000000E+02  0.51100000000E-03 0. -1.
    9900012    2    1    2    0    0 -0.43871810629E+01 -0.12325885304E+02  0.38496626473E+02  0.50528867496E+02  0.30000023240E+02 0.  0.
         12    1    1    2    0    0  0.43871810629E+01  0.12325885304E+02 -0.38496626473E+02  0.40659132504E+02  0.00000000000E+00 0. -1.
         11    1    3    3    0    0 -0.65361455575E+01 -0.27803400735E+01 -0.11692379598E+01  0.71985142454E+01  0.51100000000E-03 0. -1.
        -11    1    3    3    0    0 -0.22481107975E+01 -0.21445576423E+01  0.30858690133E+02  0.31014704362E+02  0.51100000000E-03 0.  1.
         12    1    3    3    0    0  0.43970752922E+01 -0.74009875886E+01  0.88071742994E+01  0.12315648889E+02  0.00000000000E+00 0. -1.
</event>
<event>
 7    1  0.6046695E-013  0.5052886E+02  0.7816164E-02  0.1300439E+00
        -11   -1    0    0    0    0  0.00000000000E+00  0.00000000000E+00  0.45593999997E+02  0.45594000000E+02  0.51100000000E-03 0. -1.
         11   -1    0    0    0    0 -0.00000000000E+00 -0.00000000000E+00 -0.45593999997E+02  0.45594000000E+02  0.51100000000E-03 0.  1.
    9900012    2    1    2    0    0 -0.13721177848E+01 -0.40172008249E+02 -0.61231398531E+01  0.50528858400E+02  0.29999995593E+02 0.  0.
         12    1    1    2    0    0  0.13721177848E+01  0.40172008249E+02  0.61231398531E+01  0.40659141600E+02  0.00000000000E+00 0. -1.
         11    1    3    3    0    0 -0.59380805816E+01  0.86878579936E+00  0.31980290599E+01  0.68002191059E+01  0.51100000000E-03 0. -1.
        -11    1    3    3    0    0 -0.99698670119E+00 -0.32567186328E+02 -0.68326397151E+01  0.33291148577E+02  0.51100000000E-03 0.  1.
        -12    1    3    3    0    0  0.55629494980E+01 -0.84736077203E+01 -0.24885291980E+01  0.10437490718E+02  0.00000000000E+00 0.  1.
</event>
<event>
 7    1  0.6046695E-013  0.5052886E+02  0.7816164E-02  0.1300439E+00
        -11   -1    0    0    0    0  0.00000000000E+00  0.00000000000E+00  0.45593999997E+02  0.45594000000E+02  0.51100000000E-03 0.  1.
         11   -1    0    0    0    0 -0.00000000000E+00 -0.00000000000E+00 -0.45593999997E+02  0.45594000000E+02  0.51100000000E-03 0. -1.
    9900012    2    1    2    0    0  0.23789765120E+02  0.17100395706E+02  0.28192010260E+02  0.50528857113E+02  0.29999991682E+02 0.  0.
         12    1    1    2    0    0 -0.23789765120E+02 -0.17100395706E+02 -0.28192010260E+02  0.40659142887E+02  0.00000000000E+00 0. -1.
         11    1    3    3    0    0  0.18454164629E+01  0.62927910917E+01  0.99004129793E+01  0.11875308799E+02  0.51100000000E-03 0. -1.
        -11    1    3    3    0    0  0.21237950771E+02  0.16325290237E+02  0.98440059651E+01  0.28538922684E+02  0.51100000000E-03 0.  1.
        -12    1    3    3    0    0  0.70639788545E+00 -0.55176856224E+01  0.84475913160E+01  0.10114625630E+02  0.00000000000E+00 0.  1.
</event>
<event>
 7    1  0.6046695E-013  0.5052883E+02  0.7816164E-02  0.1300439E+00
        -11   -1    0    0    0    0  0.00000000000E+00  0.00000000000E+00  0.45593999997E+02  0.45594000000E+02  0.51100000000E-03 0.  1.
         11   -1    0    0    0    0 -0.00000000000E+00 -0.00000000000E+00 -0.45593999997E+02  0.45594000000E+02  0.51100000000E-03 0. -1.
    9900012    2    1    2    0    0 -0.10400326068E+02 -0.13504812950E+02  0.36913704927E+02  0.50528826785E+02  0.29999899495E+02 0.  0.
         12    1    1    2    0    0  0.10400326068E+02  0.13504812950E+02 -0.36913704927E+02  0.40659173215E+02  0.00000000000E+00 0. -1.
         11    1    3    3    0    0 -0.48948598963E+01 -0.14475857614E+02  0.16752312222E+02  0.22674877554E+02  0.51100000000E-03 0.  1.
        -11    1    3    3    0    0 -0.21863946639E+01  0.95516007010E+01  0.82908352833E+01  0.12835550145E+02  0.51100000000E-03 0. -1.
         12    1    3    3    0    0 -0.33190715078E+01 -0.85805560376E+01  0.11870557422E+02  0.15018399086E+02  0.00000000000E+00 0. -1.
</event>
<event>
 7    1  0.6046695E-013  0.5052887E+02  0.7816164E-02  0.1300439E+00
        -11   -1    0    0    0    0  0.00000000000E+00  0.00000000000E+00  0.45593999997E+02  0.45594000000E+02  0.51100000000E-03 0. -1.
         11   -1    0    0    0    0 -0.00000000000E+00 -0.00000000000E+00 -0.45593999997E+02  0.45594000000E+02  0.51100000000E-03 0.  1.
    9900012    2    1    2    0    0 -0.17884084978E+02  0.21756591187E+02 -0.29325335093E+02  0.50528867768E+02  0.30000024066E+02 0.  0.
         12    1    1    2    0    0  0.17884084978E+02 -0.21756591187E+02  0.29325335093E+02  0.40659132232E+02  0.00000000000E+00 0. -1.
         11    1    3    3    0    0 -0.18046328017E+02  0.43384231481E+01 -0.48018722149E+01  0.19171589588E+02  0.51100000000E-03 0. -1.
        -11    1    3    3    0    0 -0.48777336667E+00  0.10633517831E+02 -0.75040062105E+01  0.13023814103E+02  0.51100000000E-03 0.  1.
         12    1    3    3    0    0  0.65001640591E+00  0.67846502080E+01 -0.17019456668E+02  0.18333464076E+02  0.00000000000E+00 0. -1.
</event>
<event>
 7    1  0.6046695E-013  0.5052881E+02  0.7816164E-02  0.1300439E+00
        -11   -1    0    0    0    0  0.00000000000E+00  0.00000000000E+00  0.45593999997E+02  0.45594000000E+02  0.51100000000E-03 0. -1.
         11   -1    0    0    0    0 -0.00000000000E+00 -0.00000000000E+00 -0.45593999997E+02  0.45594000000E+02  0.51100000000E-03 0.  1.
    9900012    2    1    2    0    0  0.12070453465E+02  0.13553702669E+02 -0.36383661901E+02  0.50528812155E+02  0.29999855025E+02 0.  0.
         12    1    1    2    0    0 -0.12070453465E+02 -0.13553702669E+02  0.36383661901E+02  0.40659187845E+02  0.00000000000E+00 0. -1.
         11    1    3    3    0    0  0.82727572391E+01  0.30206525500E+01  0.13196982898E+01  0.89053050482E+01  0.51100000000E-03 0. -1.
        -11    1    3    3    0    0 -0.50475934561E+01  0.35271961914E+01 -0.16369256085E+02  0.17489192598E+02  0.51100000000E-03 0.  1.
         12    1    3    3    0    0  0.88452896816E+01  0.70058539276E+01 -0.21334104106E+02  0.24134314509E+02  0.00000000000E+00 0. -1.
</event>
<event>
 7    1  0.6046695E-013  0.5052886E+02  0.7816164E-02  0.1300439E+00
        -11   -1    0    0    0    0  0.00000000000E+00  0.00000000000E+00  0.45593999997E+02  0.45594000000E+02  0.51100000000E-03 0. -1.
         11   -1    0    0    0    0 -0.00000000000E+00 -0.00000000000E+00 -0.45593999997E+02  0.45594000000E+02  0.51100000000E-03 0.  1.
    9900012    2    1    2    0    0 -0.34111429277E+02 -0.21151060953E+02  0.64968301756E+01  0.50528858480E+02  0.29999995836E+02 0.  0.
         12    1    1    2    0    0  0.34111429277E+02  0.21151060953E+02 -0.64968301756E+01  0.40659141520E+02  0.00000000000E+00 0. -1.
         11    1    3    3    0    0 -0.50625810441E+01  0.49187915747E+01  0.70352678139E+00  0.70936018761E+01  0.51100000000E-03 0. -1.
        -11    1    3    3    0    0 -0.91799379800E+01 -0.18646177542E+02  0.76431171717E+01  0.22144264237E+02  0.51100000000E-03 0.  1.
         12    1    3    3    0    0 -0.19868910253E+02 -0.74236749857E+01 -0.18498137774E+01  0.21290992367E+02  0.00000000000E+00 0. -1.
</event>
<event>
 7    1  0.6046695E-013  0.5052886E+02  0.7816164E-02  0.1300439E+00
        -11   -1    0    0    0    0  0.00000000000E+00  0.00000000000E+00  0.45593999997E+02  0.45594000000E+02  0.51100000000E-03 0.  1.
         11   -1    0    0    0    0 -0.00000000000E+00 -0.00000000000E+00 -0.45593999997E+02  0.45594000000E+02  0.51100000000E-03 0. -1.
    9900012    2    1    2    0    0  0.16764216441E+02 -0.20017035403E+02  0.31168019042E+02  0.50528855023E+02  0.29999985329E+02 0.  0.
         12    1    1    2    0    0 -0.16764216441E+02  0.20017035403E+02 -0.31168019042E+02  0.40659144977E+02  0.00000000000E+00 0. -1.
         11    1    3    3    0    0  0.17579084905E+01  0.51665479491E+00 -0.34924279978E+01  0.39438848892E+01  0.51100000000E-03 0. -1.
        -11    1    3    3    0    0  0.19081814626E+02 -0.15133008584E+02  0.27490610303E+02  0.36726792037E+02  0.51100000000E-03 0.  1.
        -12    1    3    3    0    0 -0.40755066756E+01 -0.54006816140E+01  0.71698367370E+01  0.98581780970E+01  0.00000000000E+00 0.  1.
</event>
<event>
 7    1  0.6046695E-013  0.5052886E+02  0.7816164E-02  0.1300439E+00
        -11   -1    0    0    0    0  0.00000000000E+00  0.00000000000E+00  0.45593999997E+02  0.45594000000E+02  0.51100000000E-03 0.  1.
         11   -1    0    0    0    0 -0.00000000000E+00 -0.00000000000E+00 -0.45593999997E+02  0.45594000000E+02  0.51100000000E-03 0. -1.
    9900012    2    1    2    0    0 -0.27326556756E+02 -0.95371836111E+01  0.28556384054E+02  0.50528860245E+02  0.30000001202E+02 0.  0.
         12    1    1    2    0    0  0.27326556756E+02  0.95371836111E+01 -0.28556384054E+02  0.40659139755E+02  0.00000000000E+00 0. -1.
         11    1    3    3    0    0  0.36296247842E+01 -0.60995022598E+01  0.23457762485E+01  0.74753441634E+01  0.51100000000E-03 0. -1.
        -11    1    3    3    0    0 -0.19581923406E+02 -0.29638591169E+01  0.24559874871E+02  0.31550335007E+02  0.51100000000E-03 0.  1.
         12    1    3    3    0    0 -0.11374258135E+02 -0.47382223437E+00  0.16507329342E+01  0.11503181075E+02  0.00000000000E+00 0. -1.
</event>
<event>
 7    1  0.6046695E-013  0.5052886E+02  0.7816164E-02  0.1300439E+00
        -11   -1    0    0    0    0  0.00000000000E+00  0.00000000000E+00  0.45593999997E+02  0.45594000000E+02  0.51100000000E-03 0. -1.
         11   -1    0    0    0    0 -0.00000000000E+00 -0.00000000000E+00 -0.45593999997E+02  0.45594000000E+02  0.51100000000E-03 0.  1.
    9900012    2    1    2    0    0  0.15306238658E+02  0.36178968926E+02  0.10486525811E+02  0.50528856403E+02  0.29999989524E+02 0.  0.
         12    1    1    2    0    0 -0.15306238658E+02 -0.36178968926E+02 -0.10486525811E+02  0.40659143597E+02  0.00000000000E+00 0. -1.
         11    1    3    3    0    0  0.76265313949E+01  0.12600355883E+02  0.15571840629E+02  0.21433972342E+02  0.51100000000E-03 0. -1.
        -11    1    3    3    0    0  0.48020933145E+01  0.23645941896E+02 -0.75743582430E+01  0.25289554591E+02  0.51100000000E-03 0.  1.
        -12    1    3    3    0    0  0.28776139486E+01 -0.67328852551E-01  0.24890434246E+01  0.38053294708E+01  0.00000000000E+00 0.  1.
</event>
<event>
 7    1  0.6046695E-013  0.5052886E+02  0.7816164E-02  0.1300439E+00
        -11   -1    0    0    0    0  0.00000000000E+00  0.00000000000E+00  0.45593999997E+02  0.45594000000E+02  0.51100000000E-03 0. -1.
         11   -1    0    0    0    0 -0.00000000000E+00 -0.00000000000E+00 -0.45593999997E+02  0.45594000000E+02  0.51100000000E-03 0.  1.
    9900012    2    1    2    0    0 -0.40017907165E+02 -0.14256290635E+01 -0.70498229776E+01  0.50528864297E+02  0.30000013518E+02 0.  0.
         12    1    1    2    0    0  0.40017907165E+02  0.14256290635E+01  0.70498229776E+01  0.40659135703E+02  0.00000000000E+00 0. -1.
         11    1    3    3    0    0 -0.42114149027E+01 -0.50389682342E+01  0.35881619269E+01  0.74834565959E+01  0.51100000000E-03 0. -1.
        -11    1    3    3    0    0 -0.20583726036E+02  0.12206197747E+02 -0.35946311970E+01  0.24199223431E+02  0.51100000000E-03 0.  1.
        -12    1    3    3    0    0 -0.15222766227E+02 -0.85928585767E+01 -0.70433537074E+01  0.18846184270E+02  0.00000000000E+00 0.  1.
</event>
<event>
 7    1  0.6046695E-013  0.5052886E+02  0.7816164E-02  0.1300439E+00
        -11   -1    0    0    0    0  0.00000000000E+00  0.00000000000E+00  0.45593999997E+02  0.45594000000E+02  0.51100000000E-03 0.  1.
         11   -1    0    0    0    0 -0.00000000000E+00 -0.00000000000E+00 -0.45593999997E+02  0.45594000000E+02  0.51100000000E-03 0. -1.
    9900012    2    1    2    0    0  0.22544571581E+02 -0.33121243746E+02 -0.69203344430E+01  0.50528861742E+02  0.30000005752E+02 0.  0.
         12    1    1    2    0    0 -0.22544571581E+02  0.33121243746E+02  0.69203344430E+01  0.40659138258E+02  0.00000000000E+00 0. -1.
         11    1    3    3    0    0  0.40768476558E+01  0.23912316036E+01  0.32532792083E+01  0.57378132820E+01  0.51100000000E-03 0. -1.
        -11    1    3    3    0    0  0.21053718778E+02 -0.27275081245E+02 -0.52536363203E+01  0.34853835171E+02  0.51100000000E-03 0.  1.
        -12    1    3    3    0    0 -0.25859948531E+01 -0.82373941045E+01 -0.49199773311E+01  0.99372132890E+01  0.00000000000E+00 0.  1.
</event>
<event>
 7    1  0.6046695E-013  0.5052886E+02  0.7816164E-02  0.1300439E+00
        -11   -1    0    0    0    0  0.00000000000E+00  0.00000000000E+00  0.45593999997E+02  0.45594000000E+02  0.51100000000E-03 0.  1.
         11   -1    0    0    0    0 -0.00000000000E+00 -0.00000000000E+00 -0.45593999997E+02  0.45594000000E+02  0.51100000000E-03 0. -1.
    9900012    2    1    2    0    0  0.13328971579E+02  0.26577114103E+02  0.27733753464E+02  0.50528861315E+02  0.30000004452E+02 0.  0.
         12    1    1    2    0    0 -0.13328971579E+02 -0.26577114103E+02 -0.27733753464E+02  0.40659138685E+02  0.00000000000E+00 0. -1.
         11    1    3    3    0    0 -0.53393240351E+01 -0.25015772909E+00  0.44028561818E+01  0.69250345025E+01  0.51100000000E-03 0.  1.
        -11    1    3    3    0    0  0.18052573530E+02  0.27387032223E+02  0.25326785923E+02  0.41441416849E+02  0.51100000000E-03 0. -1.
         12    1    3    3    0    0  0.61572208465E+00 -0.55976039029E+00 -0.19958886411E+01  0.21624099629E+01  0.00000000000E+00 0. -1.
</event>
<event>
 7    1  0.6046695E-013  0.5052887E+02  0.7816164E-02  0.1300439E+00
        -11   -1    0    0    0    0  0.00000000000E+00  0.00000000000E+00  0.45593999997E+02  0.45594000000E+02  0.51100000000E-03 0.  1.
         11   -1    0    0    0    0 -0.00000000000E+00 -0.00000000000E+00 -0.45593999997E+02  0.45594000000E+02  0.51100000000E-03 0. -1.
    9900012    2    1    2    0    0 -0.32301429028E+01  0.29704890821E+00  0.40529533869E+02  0.50528866009E+02  0.30000018722E+02 0.  0.
         12    1    1    2    0    0  0.32301429028E+01 -0.29704890821E+00 -0.40529533869E+02  0.40659133991E+02  0.00000000000E+00 0. -1.
         11    1    3    3    0    0  0.47915173159E+01  0.53838171630E+01  0.50950393723E+01  0.88262988789E+01  0.51100000000E-03 0. -1.
        -11    1    3    3    0    0  0.54106884553E+00 -0.83634541172E+01  0.29766237846E+02  0.30923599985E+02  0.51100000000E-03 0.  1.
        -12    1    3    3    0    0 -0.85627290643E+01  0.32766858625E+01  0.56682566507E+01  0.10778967146E+02  0.00000000000E+00 0.  1.
</event>
<event>
 7    1  0.6046695E-013  0.5052889E+02  0.7816164E-02  0.1300439E+00
        -11   -1    0    0    0    0  0.00000000000E+00  0.00000000000E+00  0.45593999997E+02  0.45594000000E+02  0.51100000000E-03 0.  1.
         11   -1    0    0    0    0 -0.00000000000E+00 -0.00000000000E+00 -0.45593999997E+02  0.45594000000E+02  0.51100000000E-03 0. -1.
    9900012    2    1    2    0    0 -0.17672612746E+02  0.36320785035E+02  0.46521451332E+01  0.50528891289E+02  0.30000095563E+02 0.  0.
         12    1    1    2    0    0  0.17672612746E+02 -0.36320785035E+02 -0.46521451332E+01  0.40659108711E+02  0.00000000000E+00 0. -1.
         11    1    3    3    0    0 -0.13049655764E+02  0.29863775034E+01  0.44805897807E+01  0.14116927825E+02  0.51100000000E-03 0. -1.
        -11    1    3    3    0    0 -0.18155425123E+01  0.11178291370E+02 -0.65583528835E+01  0.13086725541E+02  0.51100000000E-03 0.  1.
        -12    1    3    3    0    0 -0.28074144689E+01  0.22156116161E+02  0.67299082359E+01  0.23325237924E+02  0.00000000000E+00 0.  1.
</event>
<event>
 7    1  0.6046695E-013  0.5052886E+02  0.7816164E-02  0.1300439E+00
        -11   -1    0    0    0    0  0.00000000000E+00  0.00000000000E+00  0.45593999997E+02  0.45594000000E+02  0.51100000000E-03 0.  1.
         11   -1    0    0    0    0 -0.00000000000E+00 -0.00000000000E+00 -0.45593999997E+02  0.45594000000E+02  0.51100000000E-03 0. -1.
    9900012    2    1    2    0    0  0.28050399610E+02 -0.20784875948E+02  0.20840581641E+02  0.50528857983E+02  0.29999994324E+02 0.  0.
         12    1    1    2    0    0 -0.28050399610E+02  0.20784875948E+02 -0.20840581641E+02  0.40659142017E+02  0.00000000000E+00 0. -1.
         11    1    3    3    0    0  0.29281650726E+02 -0.18226216254E+02  0.79954223720E+01  0.35405321738E+02  0.51100000000E-03 0. -1.
        -11    1    3    3    0    0  0.24850582938E+01 -0.33521582471E+01  0.63483514104E+01  0.75969760779E+01  0.51100000000E-03 0.  1.
         12    1    3    3    0    0 -0.37163094099E+01  0.79349855380E+00  0.64968078589E+01  0.75265601666E+01  0.00000000000E+00 0. -1.
</event>
<event>
 7    1  0.6046695E-013  0.5052886E+02  0.7816164E-02  0.1300439E+00
        -11   -1    0    0    0    0  0.00000000000E+00  0.00000000000E+00  0.45593999997E+02  0.45594000000E+02  0.51100000000E-03 0. -1.
         11   -1    0    0    0    0 -0.00000000000E+00 -0.00000000000E+00 -0.45593999997E+02  0.45594000000E+02  0.51100000000E-03 0.  1.
    9900012    2    1    2    0    0  0.20856757147E+02  0.14589884146E+02 -0.31706419199E+02  0.50528855193E+02  0.29999985844E+02 0.  0.
         12    1    1    2    0    0 -0.20856757147E+02 -0.14589884146E+02  0.31706419199E+02  0.40659144807E+02  0.00000000000E+00 0. -1.
         11    1    3    3    0    0  0.15978749425E+01  0.98848187635E+01 -0.13705215845E+02  0.16973384693E+02  0.51100000000E-03 0. -1.
        -11    1    3    3    0    0  0.20535503310E+02  0.34422074129E+01 -0.63529336006E+01  0.21769599300E+02  0.51100000000E-03 0.  1.
        -12    1    3    3    0    0 -0.12766211063E+01  0.12628579691E+01 -0.11648269753E+02  0.11785871200E+02  0.00000000000E+00 0.  1.
</event>
<event>
 7    1  0.6046695E-013  0.5052888E+02  0.7816164E-02  0.1300439E+00
        -11   -1    0    0    0    0  0.00000000000E+00  0.00000000000E+00  0.45593999997E+02  0.45594000000E+02  0.51100000000E-03 0.  1.
         11   -1    0    0    0    0 -0.00000000000E+00 -0.00000000000E+00 -0.45593999997E+02  0.45594000000E+02  0.51100000000E-03 0. -1.
    9900012    2    1    2    0    0  0.14413290753E+02  0.12029244636E+02  0.36065475662E+02  0.50528877880E+02  0.30000054805E+02 0.  0.
         12    1    1    2    0    0 -0.14413290753E+02 -0.12029244636E+02 -0.36065475662E+02  0.40659122120E+02  0.00000000000E+00 0. -1.
         11    1    3    3    0    0  0.45230465002E+01 -0.85068326442E+01  0.15391457966E+02  0.18158224855E+02  0.51100000000E-03 0. -1.
        -11    1    3    3    0    0  0.11620875046E+02  0.19732342230E+02  0.18231280535E+02  0.29270969525E+02  0.51100000000E-03 0.  1.
        -12    1    3    3    0    0 -0.17306307929E+01  0.80373504939E+00  0.24427371601E+01  0.30996835007E+01  0.00000000000E+00 0.  1.
</event>
<event>
 7    1  0.6046695E-013  0.5052887E+02  0.7816164E-02  0.1300439E+00
        -11   -1    0    0    0    0  0.00000000000E+00  0.00000000000E+00  0.45593999997E+02  0.45594000000E+02  0.51100000000E-03 0.  1.
         11   -1    0    0    0    0 -0.00000000000E+00 -0.00000000000E+00 -0.45593999997E+02  0.45594000000E+02  0.51100000000E-03 0. -1.
    9900012    2    1    2    0    0 -0.81197110518E+01  0.11720182888E+01  0.39822879920E+02  0.50528866960E+02  0.30000021611E+02 0.  0.
         12    1    1    2    0    0  0.81197110518E+01 -0.11720182888E+01 -0.39822879920E+02  0.40659133040E+02  0.00000000000E+00 0. -1.
         11    1    3    3    0    0  0.45381525097E+01 -0.94530435851E+01  0.61272273653E+01  0.12144866268E+02  0.51100000000E-03 0. -1.
        -11    1    3    3    0    0 -0.11726090020E+02  0.11789040621E+02  0.32360967955E+02  0.36382893139E+02  0.51100000000E-03 0.  1.
        -12    1    3    3    0    0 -0.93177354133E+00 -0.11639787473E+01  0.13346845999E+01  0.20011075527E+01  0.00000000000E+00 0.  1.
</event>
<event>
 7    1  0.6046695E-013  0.5052885E+02  0.7816164E-02  0.1300439E+00
        -11   -1    0    0    0    0  0.00000000000E+00  0.00000000000E+00  0.45593999997E+02  0.45594000000E+02  0.51100000000E-03 0.  1.
         11   -1    0    0    0    0 -0.00000000000E+00 -0.00000000000E+00 -0.45593999997E+02  0.45594000000E+02  0.51100000000E-03 0. -1.
    9900012    2    1    2    0    0  0.89546144646E+00  0.24910353105E+02  0.32122254623E+02  0.50528846233E+02  0.29999958610E+02 0.  0.
         12    1    1    2    0    0 -0.89546144646E+00 -0.24910353105E+02 -0.32122254623E+02  0.40659153767E+02  0.00000000000E+00 0. -1.
         11    1    3    3    0    0 -0.23139124654E+01  0.93039077865E+01  0.26101244988E+01  0.99362790399E+01  0.51100000000E-03 0. -1.
        -11    1    3    3    0    0  0.71100451831E+01 -0.32223016232E+01  0.43889287047E+01  0.89553707736E+01  0.51100000000E-03 0.  1.
        -12    1    3    3    0    0 -0.39006712713E+01  0.18828746941E+02  0.25123201419E+02  0.31637196420E+02  0.00000000000E+00 0.  1.
</event>
<event>
 7    1  0.6046695E-013  0.5052887E+02  0.7816164E-02  0.1300439E+00
        -11   -1    0    0    0    0  0.00000000000E+00  0.00000000000E+00  0.45593999997E+02  0.45594000000E+02  0.51100000000E-03 0. -1.
         11   -1    0    0    0    0 -0.00000000000E+00 -0.00000000000E+00 -0.45593999997E+02  0.45594000000E+02  0.51100000000E-03 0.  1.
    9900012    2    1    2    0    0  0.12095014704E+02  0.21246186815E+01 -0.38760309057E+02  0.50528868880E+02  0.30000027448E+02 0.  0.
         12    1    1    2    0    0 -0.12095014704E+02 -0.21246186815E+01  0.38760309057E+02  0.40659131120E+02  0.00000000000E+00 0. -1.
         11    1    3    3    0    0  0.24746697047E+01  0.78828997738E+01 -0.58629609560E+01  0.10131061663E+02  0.51100000000E-03 0. -1.
        -11    1    3    3    0    0  0.32700988782E+01 -0.12593073241E+02 -0.24964956129E+02  0.28151875162E+02  0.51100000000E-03 0.  1.
        -12    1    3    3    0    0  0.63502461214E+01  0.68347921485E+01 -0.79323919713E+01  0.12245932055E+02  0.00000000000E+00 0.  1.
</event>
<event>
 7    1  0.6046695E-013  0.5052886E+02  0.7816164E-02  0.1300439E+00
        -11   -1    0    0    0    0  0.00000000000E+00  0.00000000000E+00  0.45593999997E+02  0.45594000000E+02  0.51100000000E-03 0.  1.
         11   -1    0    0    0    0 -0.00000000000E+00 -0.00000000000E+00 -0.45593999997E+02  0.45594000000E+02  0.51100000000E-03 0. -1.
    9900012    2    1    2    0    0 -0.17986410989E+02 -0.25625357502E+02  0.25942163438E+02  0.50528858700E+02  0.29999996505E+02 0.  0.
         12    1    1    2    0    0  0.17986410989E+02  0.25625357502E+02 -0.25942163438E+02  0.40659141300E+02  0.00000000000E+00 0. -1.
         11    1    3    3    0    0 -0.19057946851E+01 -0.43810149576E+01 -0.24078741064E+01  0.53500657392E+01  0.51100000000E-03 0. -1.
        -11    1    3    3    0    0 -0.68596148194E+01 -0.76486608610E+01  0.26771715603E+02  0.28675443938E+02  0.51100000000E-03 0.  1.
        -12    1    3    3    0    0 -0.92210014849E+01 -0.13595681684E+02  0.15783219412E+01  0.16503349023E+02  0.00000000000E+00 0.  1.
</event>
<event>
 7    1  0.6046695E-013  0.5052886E+02  0.7816164E-02  0.1300439E+00
        -11   -1    0    0    0    0  0.00000000000E+00  0.00000000000E+00  0.45593999997E+02  0.45594000000E+02  0.51100000000E-03 0.  1.
         11   -1    0    0    0    0 -0.00000000000E+00 -0.00000000000E+00 -0.45593999997E+02  0.45594000000E+02  0.51100000000E-03 0. -1.
    9900012    2    1    2    0    0 -0.22044826393E+02 -0.85442918098E+01  0.33078484214E+02  0.50528863129E+02  0.30000009966E+02 0.  0.
         12    1    1    2    0    0  0.22044826393E+02  0.85442918098E+01 -0.33078484214E+02  0.40659136871E+02  0.00000000000E+00 0. -1.
         11    1    3    3    0    0  0.15605638549E+00 -0.13514643322E+01  0.18408169052E+02  0.18458372018E+02  0.51100000000E-03 0. -1.
        -11    1    3    3    0    0 -0.24792482369E+02 -0.56891971059E+01  0.12325008010E+02  0.28265526148E+02  0.51100000000E-03 0.  1.
         12    1    3    3    0    0  0.25915995903E+01 -0.15036303717E+01  0.23453071519E+01  0.38049649628E+01  0.00000000000E+00 0. -1.
</event>
<event>
 7    1  0.6046695E-013  0.5052885E+02  0.7816164E-02  0.1300439E+00
        -11   -1    0    0    0    0  0.00000000000E+00  0.00000000000E+00  0.45593999997E+02  0.45594000000E+02  0.51100000000E-03 0. -1.
         11   -1    0    0    0    0 -0.00000000000E+00 -0.00000000000E+00 -0.45593999997E+02  0.45594000000E+02  0.51100000000E-03 0.  1.
    9900012    2    1    2    0    0  0.31936443005E+02 -0.56898113430E+00 -0.25157623100E+02  0.50528854271E+02  0.29999983043E+02 0.  0.
         12    1    1    2    0    0 -0.31936443005E+02  0.56898113430E+00  0.25157623100E+02  0.40659145729E+02  0.00000000000E+00 0. -1.
         11    1    3    3    0    0  0.85696029309E+01 -0.94330203395E+01  0.68118346125E+00  0.12762600765E+02  0.51100000000E-03 0. -1.
        -11    1    3    3    0    0  0.15814528767E+02  0.57018412888E+01 -0.90614370004E+01  0.19097642655E+02  0.51100000000E-03 0.  1.
         12    1    3    3    0    0  0.75523113075E+01  0.31621979164E+01 -0.16777369561E+02  0.18668610851E+02  0.00000000000E+00 0. -1.
</event>
<event>
 7    1  0.6046695E-013  0.5052884E+02  0.7816164E-02  0.1300439E+00
        -11   -1    0    0    0    0  0.00000000000E+00  0.00000000000E+00  0.45593999997E+02  0.45594000000E+02  0.51100000000E-03 0.  1.
         11   -1    0    0    0    0 -0.00000000000E+00 -0.00000000000E+00 -0.45593999997E+02  0.45594000000E+02  0.51100000000E-03 0. -1.
    9900012    2    1    2    0    0  0.13981721166E+02 -0.36471160166E+02  0.11293044396E+02  0.50528844791E+02  0.29999954226E+02 0.  0.
         12    1    1    2    0    0 -0.13981721166E+02  0.36471160166E+02 -0.11293044396E+02  0.40659155209E+02  0.00000000000E+00 0. -1.
         11    1    3    3    0    0  0.15992482485E-01 -0.14572111943E+02 -0.72356867637E+00  0.14590073822E+02  0.51100000000E-03 0. -1.
        -11    1    3    3    0    0  0.46774761133E+01  0.37689914677E+01  0.48399911588E+01  0.77142461818E+01  0.51100000000E-03 0.  1.
        -12    1    3    3    0    0  0.92882525700E+01 -0.25668039691E+02  0.71766219133E+01  0.28224524787E+02  0.00000000000E+00 0.  1.
</event>
<event>
 7    1  0.6046695E-013  0.5052885E+02  0.7816164E-02  0.1300439E+00
        -11   -1    0    0    0    0  0.00000000000E+00  0.00000000000E+00  0.45593999997E+02  0.45594000000E+02  0.51100000000E-03 0.  1.
         11   -1    0    0    0    0 -0.00000000000E+00 -0.00000000000E+00 -0.45593999997E+02  0.45594000000E+02  0.51100000000E-03 0. -1.
    9900012    2    1    2    0    0  0.38082081756E+01 -0.39166870399E+02 -0.10228395809E+02  0.50528852602E+02  0.29999977968E+02 0.  0.
         12    1    1    2    0    0 -0.38082081756E+01  0.39166870399E+02  0.10228395809E+02  0.40659147398E+02  0.00000000000E+00 0. -1.
         11    1    3    3    0    0  0.29192893365E+01 -0.28651997621E+02 -0.19747869136E+02  0.34920446068E+02  0.51100000000E-03 0. -1.
        -11    1    3    3    0    0  0.32519910445E+01 -0.84124478548E+01  0.57873085067E+01  0.10716233698E+02  0.51100000000E-03 0.  1.
         12    1    3    3    0    0 -0.23630722054E+01 -0.21024249229E+01  0.37321648203E+01  0.48921728353E+01  0.00000000000E+00 0. -1.
</event>
<event>
 7    1  0.6046695E-013  0.5052886E+02  0.7816164E-02  0.1300439E+00
        -11   -1    0    0    0    0  0.00000000000E+00  0.00000000000E+00  0.45593999997E+02  0.45594000000E+02  0.51100000000E-03 0. -1.
         11   -1    0    0    0    0 -0.00000000000E+00 -0.00000000000E+00 -0.45593999997E+02  0.45594000000E+02  0.51100000000E-03 0.  1.
    9900012    2    1    2    0    0 -0.14822280333E+02 -0.10445443305E+02 -0.36391730165E+02  0.50528864440E+02  0.30000013951E+02 0.  0.
         12    1    1    2    0    0  0.14822280333E+02  0.10445443305E+02  0.36391730165E+02  0.40659135560E+02  0.00000000000E+00 0. -1.
         11    1    3    3    0    0 -0.13891095453E+02  0.18617958845E+01 -0.11702780739E+02  0.18258803194E+02  0.51100000000E-03 0. -1.
        -11    1    3    3    0    0  0.48558090628E+01 -0.38353311166E+01 -0.20099822937E+02  0.21030728204E+02  0.51100000000E-03 0.  1.
         12    1    3    3    0    0 -0.57869939435E+01 -0.84719080730E+01 -0.45891264884E+01  0.11239333042E+02  0.00000000000E+00 0. -1.
</event>
<event>
 7    1  0.6046695E-013  0.5052887E+02  0.7816164E-02  0.1300439E+00
        -11   -1    0    0    0    0  0.00000000000E+00  0.00000000000E+00  0.45593999997E+02  0.45594000000E+02  0.51100000000E-03 0.  1.
         11   -1    0    0    0    0 -0.00000000000E+00 -0.00000000000E+00 -0.45593999997E+02  0.45594000000E+02  0.51100000000E-03 0. -1.
    9900012    2    1    2    0    0  0.27414630112E+02  0.36278687220E+01  0.29806736973E+02  0.50528868865E+02  0.30000027402E+02 0.  0.
         12    1    1    2    0    0 -0.27414630112E+02 -0.36278687220E+01 -0.29806736973E+02  0.40659131135E+02  0.00000000000E+00 0. -1.
         11    1    3    3    0    0  0.89948335537E+00 -0.54864039148E+00 -0.17870792383E+01  0.20745430945E+01  0.51100000000E-03 0. -1.
        -11    1    3    3    0    0  0.23448466410E+02  0.44107825087E+01  0.35934555967E+02  0.43134416562E+02  0.51100000000E-03 0.  1.
        -12    1    3    3    0    0  0.30666803464E+01 -0.23427339519E+00 -0.43407397550E+01  0.53199092089E+01  0.00000000000E+00 0.  1.
</event>
<event>
 7    1  0.6046695E-013  0.5052886E+02  0.7816164E-02  0.1300439E+00
        -11   -1    0    0    0    0  0.00000000000E+00  0.00000000000E+00  0.45593999997E+02  0.45594000000E+02  0.51100000000E-03 0.  1.
         11   -1    0    0    0    0 -0.00000000000E+00 -0.00000000000E+00 -0.45593999997E+02  0.45594000000E+02  0.51100000000E-03 0. -1.
    9900012    2    1    2    0    0  0.34420166101E+02  0.83079629957E+01  0.19984891967E+02  0.50528856003E+02  0.29999988308E+02 0.  0.
         12    1    1    2    0    0 -0.34420166101E+02 -0.83079629957E+01 -0.19984891967E+02  0.40659143997E+02  0.00000000000E+00 0. -1.
         11    1    3    3    0    0  0.66091668383E+01 -0.10348093973E+01  0.18189844328E+02  0.19380979174E+02  0.51100000000E-03 0. -1.
        -11    1    3    3    0    0  0.16573407938E+02  0.32381794102E+01 -0.36026107643E+01  0.17266802285E+02  0.51100000000E-03 0.  1.
         12    1    3    3    0    0  0.11237591325E+02  0.61045929828E+01  0.53976584034E+01  0.13881074545E+02  0.00000000000E+00 0. -1.
</event>
<event>
 7    1  0.6046695E-013  0.5052883E+02  0.7816164E-02  0.1300439E+00
        -11   -1    0    0    0    0  0.00000000000E+00  0.00000000000E+00  0.45593999997E+02  0.45594000000E+02  0.51100000000E-03 0.  1.
         11   -1    0    0    0    0 -0.00000000000E+00 -0.00000000000E+00 -0.45593999997E+02  0.45594000000E+02  0.51100000000E-03 0. -1.
    9900012    2    1    2    0    0  0.31767498059E+02 -0.22609130814E+02  0.11524805447E+02  0.50528832895E+02  0.29999918067E+02 0.  0.
         12    1    1    2    0    0 -0.31767498059E+02  0.22609130814E+02 -0.11524805447E+02  0.40659167105E+02  0.00000000000E+00 0. -1.
         11    1    3    3    0    0  0.19627470199E+02 -0.36334430088E+01 -0.35797015057E+01  0.20279392438E+02  0.51100000000E-03 0. -1.
        -11    1    3    3    0    0  0.13852972068E+02 -0.19360392977E+02  0.15554391554E+02  0.28437101614E+02  0.51100000000E-03 0.  1.
         12    1    3    3    0    0 -0.17129442079E+01  0.38470517153E+00 -0.44988460071E+00  0.18123388432E+01  0.00000000000E+00 0. -1.
</event>
<event>
 7    1  0.6046695E-013  0.5052887E+02  0.7816164E-02  0.1300439E+00
        -11   -1    0    0    0    0  0.00000000000E+00  0.00000000000E+00  0.45593999997E+02  0.45594000000E+02  0.51100000000E-03 0.  1.
         11   -1    0    0    0    0 -0.00000000000E+00 -0.00000000000E+00 -0.45593999997E+02  0.45594000000E+02  0.51100000000E-03 0. -1.
    9900012    2    1    2    0    0  0.87940611371E+01  0.11533541814E+02  0.37984299117E+02  0.50528867232E+02  0.30000022437E+02 0.  0.
         12    1    1    2    0    0 -0.87940611371E+01 -0.11533541814E+02 -0.37984299117E+02  0.40659132768E+02  0.00000000000E+00 0. -1.
         11    1    3    3    0    0 -0.36005999497E+00  0.48053127995E+01 -0.39009545767E+01  0.61998484797E+01  0.51100000000E-03 0. -1.
        -11    1    3    3    0    0  0.78928230594E+01  0.43714433626E+01  0.16519941281E+02  0.18823247145E+02  0.51100000000E-03 0.  1.
         12    1    3    3    0    0  0.12612980727E+01  0.23567856523E+01  0.25365312413E+02  0.25505771607E+02  0.00000000000E+00 0. -1.
</event>
<event>
 7    1  0.6046695E-013  0.5052883E+02  0.7816164E-02  0.1300439E+00
        -11   -1    0    0    0    0  0.00000000000E+00  0.00000000000E+00  0.45593999997E+02  0.45594000000E+02  0.51100000000E-03 0. -1.
         11   -1    0    0    0    0 -0.00000000000E+00 -0.00000000000E+00 -0.45593999997E+02  0.45594000000E+02  0.51100000000E-03 0.  1.
    9900012    2    1    2    0    0  0.35305008527E+02 -0.19897596061E+02  0.32879042927E+01  0.50528827963E+02  0.29999903075E+02 0.  0.
         12    1    1    2    0    0 -0.35305008527E+02  0.19897596061E+02 -0.32879042927E+01  0.40659172037E+02  0.00000000000E+00 0. -1.
         11    1    3    3    0    0  0.12291462590E+02 -0.15960241735E+02 -0.91093764339E+01  0.22108598058E+02  0.51100000000E-03 0. -1.
        -11    1    3    3    0    0  0.21882524376E+02 -0.31792831168E+01  0.75192926903E+01  0.23355780377E+02  0.51100000000E-03 0.  1.
        -12    1    3    3    0    0  0.11310215616E+01 -0.75807120903E+00  0.48779880362E+01  0.50644495271E+01  0.00000000000E+00 0.  1.
</event>
<event>
 7    1  0.6046695E-013  0.5052886E+02  0.7816164E-02  0.1300439E+00
        -11   -1    0    0    0    0  0.00000000000E+00  0.00000000000E+00  0.45593999997E+02  0.45594000000E+02  0.51100000000E-03 0.  1.
         11   -1    0    0    0    0 -0.00000000000E+00 -0.00000000000E+00 -0.45593999997E+02  0.45594000000E+02  0.51100000000E-03 0. -1.
    9900012    2    1    2    0    0  0.37174161207E+02  0.77159502480E+01  0.14550312217E+02  0.50528859142E+02  0.29999997849E+02 0.  0.
         12    1    1    2    0    0 -0.37174161207E+02 -0.77159502480E+01 -0.14550312217E+02  0.40659140858E+02  0.00000000000E+00 0. -1.
         11    1    3    3    0    0  0.24606935566E+01  0.71154707834E+00 -0.28812951025E+01  0.38552786869E+01  0.51100000000E-03 0. -1.
        -11    1    3    3    0    0  0.34048259879E+02  0.13339405654E+02  0.16891636888E+02  0.40280902932E+02  0.51100000000E-03 0.  1.
        -12    1    3    3    0    0  0.66520777126E+00 -0.63350024841E+01  0.53997043152E+00  0.63926775235E+01  0.00000000000E+00 0.  1.
</event>
<event>
 7    1  0.6046695E-013  0.5052886E+02  0.7816164E-02  0.1300439E+00
        -11   -1    0    0    0    0  0.00000000000E+00  0.00000000000E+00  0.45593999997E+02  0.45594000000E+02  0.51100000000E-03 0. -1.
         11   -1    0    0    0    0 -0.00000000000E+00 -0.00000000000E+00 -0.45593999997E+02  0.45594000000E+02  0.51100000000E-03 0.  1.
    9900012    2    1    2    0    0 -0.25629311266E+02 -0.31381417261E+02  0.33927465417E+01  0.50528859891E+02  0.30000000126E+02 0.  0.
         12    1    1    2    0    0  0.25629311266E+02  0.31381417261E+02 -0.33927465417E+01  0.40659140109E+02  0.00000000000E+00 0. -1.
         11    1    3    3    0    0 -0.63338441286E+01  0.13288148994E+01  0.52081536950E+01  0.83071171687E+01  0.51100000000E-03 0. -1.
        -11    1    3    3    0    0 -0.21155865460E+02 -0.19930343279E+02 -0.31638380192E+01  0.29236947478E+02  0.51100000000E-03 0.  1.
        -12    1    3    3    0    0  0.18603983223E+01 -0.12779888882E+02  0.13484308660E+01  0.12984795245E+02  0.00000000000E+00 0.  1.
</event>
<event>
 7    1  0.6046695E-013  0.5052888E+02  0.7816164E-02  0.1300439E+00
        -11   -1    0    0    0    0  0.00000000000E+00  0.00000000000E+00  0.45593999997E+02  0.45594000000E+02  0.51100000000E-03 0.  1.
         11   -1    0    0    0    0 -0.00000000000E+00 -0.00000000000E+00 -0.45593999997E+02  0.45594000000E+02  0.51100000000E-03 0. -1.
    9900012    2    1    2    0    0  0.46265135862E+01  0.27331797064E+02  0.29744456256E+02  0.50528875112E+02  0.30000046390E+02 0.  0.
         12    1    1    2    0    0 -0.46265135862E+01 -0.27331797064E+02 -0.29744456256E+02  0.40659124888E+02  0.00000000000E+00 0. -1.
         11    1    3    3    0    0  0.67277890811E+01  0.73299805193E+01 -0.10821954746E+01  0.10008142067E+02  0.51100000000E-03 0. -1.
        -11    1    3    3    0    0 -0.92228934141E+01  0.89507672922E+01  0.18294033847E+02  0.22357318102E+02  0.51100000000E-03 0.  1.
         12    1    3    3    0    0  0.71216179192E+01  0.11051049253E+02  0.12532617883E+02  0.18163414943E+02  0.00000000000E+00 0. -1.
</event>
<event>
 7    1  0.6046695E-013  0.5052886E+02  0.7816164E-02  0.1300439E+00
        -11   -1    0    0    0    0  0.00000000000E+00  0.00000000000E+00  0.45593999997E+02  0.45594000000E+02  0.51100000000E-03 0.  1.
         11   -1    0    0    0    0 -0.00000000000E+00 -0.00000000000E+00 -0.45593999997E+02  0.45594000000E+02  0.51100000000E-03 0. -1.
    9900012    2    1    2    0    0 -0.14941638858E+02 -0.11746480231E+02  0.35943473303E+02  0.50528860281E+02  0.30000001311E+02 0.  0.
         12    1    1    2    0    0  0.14941638858E+02  0.11746480231E+02 -0.35943473303E+02  0.40659139719E+02  0.00000000000E+00 0. -1.
         11    1    3    3    0    0 -0.44423222820E+01  0.80944796806E+01  0.12346499967E+02  0.15417227061E+02  0.51100000000E-03 0. -1.
        -11    1    3    3    0    0 -0.12097013939E+02 -0.15873837663E+02  0.23503397010E+02  0.30833847306E+02  0.51100000000E-03 0.  1.
         12    1    3    3    0    0  0.15976973634E+01 -0.39671222483E+01  0.93576325569E-01  0.42777859141E+01  0.00000000000E+00 0. -1.
</event>
<event>
 7    1  0.6046695E-013  0.5052887E+02  0.7816164E-02  0.1300439E+00
        -11   -1    0    0    0    0  0.00000000000E+00  0.00000000000E+00  0.45593999997E+02  0.45594000000E+02  0.51100000000E-03 0.  1.
         11   -1    0    0    0    0 -0.00000000000E+00 -0.00000000000E+00 -0.45593999997E+02  0.45594000000E+02  0.51100000000E-03 0. -1.
    9900012    2    1    2    0    0  0.66895923578E+01  0.38340280929E+02  0.11765927909E+02  0.50528870064E+02  0.30000031046E+02 0.  0.
         12    1    1    2    0    0 -0.66895923578E+01 -0.38340280929E+02 -0.11765927909E+02  0.40659129936E+02  0.00000000000E+00 0. -1.
         11    1    3    3    0    0  0.16356767571E+02  0.13945410679E+02  0.23156005938E+01  0.21618980798E+02  0.51100000000E-03 0. -1.
        -11    1    3    3    0    0  0.94482031030E+00  0.58068617162E+01  0.26419257222E+01  0.64491937630E+01  0.51100000000E-03 0.  1.
         12    1    3    3    0    0 -0.10611995523E+02  0.18588008534E+02  0.68084015925E+01  0.22460695503E+02  0.00000000000E+00 0. -1.
</event>
<event>
 7    1  0.6046695E-013  0.5052886E+02  0.7816164E-02  0.1300439E+00
        -11   -1    0    0    0    0  0.00000000000E+00  0.00000000000E+00  0.45593999997E+02  0.45594000000E+02  0.51100000000E-03 0.  1.
         11   -1    0    0    0    0 -0.00000000000E+00 -0.00000000000E+00 -0.45593999997E+02  0.45594000000E+02  0.51100000000E-03 0. -1.
    9900012    2    1    2    0    0  0.38132755319E+02  0.14001389058E+02  0.17377669902E+01  0.50528858864E+02  0.29999997003E+02 0.  0.
         12    1    1    2    0    0 -0.38132755319E+02 -0.14001389058E+02 -0.17377669902E+01  0.40659141136E+02  0.00000000000E+00 0. -1.
         11    1    3    3    0    0  0.72515457521E+01 -0.47434024451E+01  0.10005878253E+02  0.13236403682E+02  0.51100000000E-03 0. -1.
        -11    1    3    3    0    0  0.25136542640E+02  0.15776034465E+02 -0.51772095644E+01  0.30125280721E+02  0.51100000000E-03 0.  1.
        -12    1    3    3    0    0  0.57446669269E+01  0.29687570378E+01 -0.30909016988E+01  0.71671744616E+01  0.00000000000E+00 0.  1.
</event>
<event>
 7    1  0.6046695E-013  0.5052886E+02  0.7816164E-02  0.1300439E+00
        -11   -1    0    0    0    0  0.00000000000E+00  0.00000000000E+00  0.45593999997E+02  0.45594000000E+02  0.51100000000E-03 0.  1.
         11   -1    0    0    0    0 -0.00000000000E+00 -0.00000000000E+00 -0.45593999997E+02  0.45594000000E+02  0.51100000000E-03 0. -1.
    9900012    2    1    2    0    0 -0.33897926484E+02 -0.14925388915E+02  0.16772872648E+02  0.50528856981E+02  0.29999991278E+02 0.  0.
         12    1    1    2    0    0  0.33897926484E+02  0.14925388915E+02 -0.16772872648E+02  0.40659143019E+02  0.00000000000E+00 0. -1.
         11    1    3    3    0    0  0.20858661137E+01 -0.76485886037E+01  0.64345775170E+01  0.10210559885E+02  0.51100000000E-03 0. -1.
        -11    1    3    3    0    0 -0.20809472771E+02 -0.47310549085E+01 -0.74854122649E+00  0.21353626197E+02  0.51100000000E-03 0.  1.
        -12    1    3    3    0    0 -0.15174319827E+02 -0.25457454025E+01  0.11086836358E+02  0.18964670899E+02  0.00000000000E+00 0.  1.
</event>
<event>
 7    1  0.6046695E-013  0.5052886E+02  0.7816164E-02  0.1300439E+00
        -11   -1    0    0    0    0  0.00000000000E+00  0.00000000000E+00  0.45593999997E+02  0.45594000000E+02  0.51100000000E-03 0.  1.
         11   -1    0    0    0    0 -0.00000000000E+00 -0.00000000000E+00 -0.45593999997E+02  0.45594000000E+02  0.51100000000E-03 0. -1.
    9900012    2    1    2    0    0  0.28417761189E+01  0.84043052505E+01  0.39679430858E+02  0.50528864846E+02  0.30000015187E+02 0.  0.
         12    1    1    2    0    0 -0.28417761189E+01 -0.84043052505E+01 -0.39679430858E+02  0.40659135154E+02  0.00000000000E+00 0. -1.
         11    1    3    3    0    0  0.20041782418E+01 -0.62968367325E+01  0.11747483202E+02  0.13478510493E+02  0.51100000000E-03 0. -1.
        -11    1    3    3    0    0  0.42629812363E+01  0.18632668756E+02  0.22442976744E+02  0.29479426036E+02  0.51100000000E-03 0.  1.
         12    1    3    3    0    0 -0.34253833593E+01 -0.39315267731E+01  0.54889709115E+01  0.75709283177E+01  0.00000000000E+00 0. -1.
</event>
<event>
 7    1  0.6046695E-013  0.5052884E+02  0.7816164E-02  0.1300439E+00
        -11   -1    0    0    0    0  0.00000000000E+00  0.00000000000E+00  0.45593999997E+02  0.45594000000E+02  0.51100000000E-03 0. -1.
         11   -1    0    0    0    0 -0.00000000000E+00 -0.00000000000E+00 -0.45593999997E+02  0.45594000000E+02  0.51100000000E-03 0.  1.
    9900012    2    1    2    0    0 -0.33171856381E+02  0.60857848387E+01 -0.22710320090E+02  0.50528837792E+02  0.29999932953E+02 0.  0.
         12    1    1    2    0    0  0.33171856381E+02 -0.60857848387E+01  0.22710320090E+02  0.40659162208E+02  0.00000000000E+00 0. -1.
         11    1    3    3    0    0 -0.21166933998E+01 -0.82658105851E+01 -0.96653586418E+01  0.12892756630E+02  0.51100000000E-03 0. -1.
        -11    1    3    3    0    0 -0.16992134546E+02  0.83628049918E+01 -0.11769704919E+02  0.22297872049E+02  0.51100000000E-03 0.  1.
        -12    1    3    3    0    0 -0.14063028434E+02  0.59887904319E+01 -0.12752565291E+01  0.15338209113E+02  0.00000000000E+00 0.  1.
</event>
<event>
 7    1  0.6046695E-013  0.5052886E+02  0.7816164E-02  0.1300439E+00
        -11   -1    0    0    0    0  0.00000000000E+00  0.00000000000E+00  0.45593999997E+02  0.45594000000E+02  0.51100000000E-03 0.  1.
         11   -1    0    0    0    0 -0.00000000000E+00 -0.00000000000E+00 -0.45593999997E+02  0.45594000000E+02  0.51100000000E-03 0. -1.
    9900012    2    1    2    0    0  0.14893261437E+01 -0.33030265666E+02  0.23663242468E+02  0.50528860973E+02  0.30000003412E+02 0.  0.
         12    1    1    2    0    0 -0.14893261437E+01  0.33030265666E+02 -0.23663242468E+02  0.40659139027E+02  0.00000000000E+00 0. -1.
         11    1    3    3    0    0 -0.63786286575E+01 -0.93739761722E+01  0.85398127637E+00  0.11370471279E+02  0.51100000000E-03 0. -1.
        -11    1    3    3    0    0  0.10466646918E+02 -0.76437405770E+01  0.18109017845E+02  0.22269126504E+02  0.51100000000E-03 0.  1.
        -12    1    3    3    0    0 -0.25986921166E+01 -0.16012548917E+02  0.47002433468E+01  0.16889263189E+02  0.00000000000E+00 0.  1.
</event>
<event>
 7    1  0.6046695E-013  0.5052885E+02  0.7816164E-02  0.1300439E+00
        -11   -1    0    0    0    0  0.00000000000E+00  0.00000000000E+00  0.45593999997E+02  0.45594000000E+02  0.51100000000E-03 0.  1.
         11   -1    0    0    0    0 -0.00000000000E+00 -0.00000000000E+00 -0.45593999997E+02  0.45594000000E+02  0.51100000000E-03 0. -1.
    9900012    2    1    2    0    0  0.26429041420E+01  0.19370739182E+02  0.35650469314E+02  0.50528850463E+02  0.29999971467E+02 0.  0.
         12    1    1    2    0    0 -0.26429041420E+01 -0.19370739182E+02 -0.35650469314E+02  0.40659149537E+02  0.00000000000E+00 0. -1.
         11    1    3    3    0    0  0.81979033702E+00  0.67418255547E+01 -0.10826741449E+01  0.68772415671E+01  0.51100000000E-03 0. -1.
        -11    1    3    3    0    0  0.57765023898E+01 -0.35781257130E+01  0.12572155425E+02  0.14290908150E+02  0.51100000000E-03 0.  1.
        -12    1    3    3    0    0 -0.39533885848E+01  0.16207039340E+02  0.24160988034E+02  0.29360700746E+02  0.00000000000E+00 0.  1.
</event>
<event>
 7    1  0.6046695E-013  0.5052886E+02  0.7816164E-02  0.1300439E+00
        -11   -1    0    0    0    0  0.00000000000E+00  0.00000000000E+00  0.45593999997E+02  0.45594000000E+02  0.51100000000E-03 0.  1.
         11   -1    0    0    0    0 -0.00000000000E+00 -0.00000000000E+00 -0.45593999997E+02  0.45594000000E+02  0.51100000000E-03 0. -1.
    9900012    2    1    2    0    0 -0.33348513742E+02  0.17868941377E+02  0.14891044866E+02  0.50528860167E+02  0.30000000964E+02 0.  0.
         12    1    1    2    0    0  0.33348513742E+02 -0.17868941377E+02 -0.14891044866E+02  0.40659139833E+02  0.00000000000E+00 0. -1.
         11    1    3    3    0    0  0.17278171426E+01 -0.16278943827E+01  0.28354028162E+01  0.36979591115E+01  0.51100000000E-03 0. -1.
        -11    1    3    3    0    0 -0.33270158597E+02  0.23447650083E+02  0.95203865627E+01  0.41801118502E+02  0.51100000000E-03 0.  1.
        -12    1    3    3    0    0 -0.18061722879E+01 -0.39508143233E+01  0.25352554871E+01  0.50297825535E+01  0.00000000000E+00 0.  1.
</event>
<event>
 7    1  0.6046695E-013  0.5052885E+02  0.7816164E-02  0.1300439E+00
        -11   -1    0    0    0    0  0.00000000000E+00  0.00000000000E+00  0.45593999997E+02  0.45594000000E+02  0.51100000000E-03 0.  1.
         11   -1    0    0    0    0 -0.00000000000E+00 -0.00000000000E+00 -0.45593999997E+02  0.45594000000E+02  0.51100000000E-03 0. -1.
    9900012    2    1    2    0    0 -0.53423961978E+01 -0.38729845167E+02  0.11163524929E+02  0.50528851059E+02  0.29999973279E+02 0.  0.
         12    1    1    2    0    0  0.53423961978E+01  0.38729845167E+02 -0.11163524929E+02  0.40659148941E+02  0.00000000000E+00 0. -1.
         11    1    3    3    0    0 -0.19002175395E+00 -0.99030013695E+01  0.53697513632E+00  0.99193692818E+01  0.51100000000E-03 0. -1.
        -11    1    3    3    0    0 -0.77365590509E+01  0.93233221305E+00 -0.22056698461E+01  0.80986769928E+01  0.51100000000E-03 0.  1.
        -12    1    3    3    0    0  0.25841846070E+01 -0.29759176010E+02  0.12832219639E+02  0.32510804785E+02  0.00000000000E+00 0.  1.
</event>
<event>
 7    1  0.6046695E-013  0.5052886E+02  0.7816164E-02  0.1300439E+00
        -11   -1    0    0    0    0  0.00000000000E+00  0.00000000000E+00  0.45593999997E+02  0.45594000000E+02  0.51100000000E-03 0.  1.
         11   -1    0    0    0    0 -0.00000000000E+00 -0.00000000000E+00 -0.45593999997E+02  0.45594000000E+02  0.51100000000E-03 0. -1.
    9900012    2    1    2    0    0  0.25107267342E+02  0.31722286059E+02  0.40604207404E+01  0.50528864215E+02  0.30000013267E+02 0.  0.
         12    1    1    2    0    0 -0.25107267342E+02 -0.31722286059E+02 -0.40604207404E+01  0.40659135785E+02  0.00000000000E+00 0. -1.
         11    1    3    3    0    0  0.95410744093E+00  0.77323665684E+01 -0.51269625046E+01  0.93266048775E+01  0.51100000000E-03 0. -1.
        -11    1    3    3    0    0  0.19158547288E+02  0.54744852781E+01 -0.28806364118E-01  0.19925379628E+02  0.51100000000E-03 0.  1.
        -12    1    3    3    0    0  0.49946126133E+01  0.18515434213E+02  0.92161896090E+01  0.21276879709E+02  0.00000000000E+00 0.  1.
</event>
<event>
 7    1  0.6046695E-013  0.5052885E+02  0.7816164E-02  0.1300439E+00
        -11   -1    0    0    0    0  0.00000000000E+00  0.00000000000E+00  0.45593999997E+02  0.45594000000E+02  0.51100000000E-03 0.  1.
         11   -1    0    0    0    0 -0.00000000000E+00 -0.00000000000E+00 -0.45593999997E+02  0.45594000000E+02  0.51100000000E-03 0. -1.
    9900012    2    1    2    0    0 -0.25027508129E+02 -0.15208051870E+02  0.28204702429E+02  0.50528852887E+02  0.29999978837E+02 0.  0.
         12    1    1    2    0    0  0.25027508129E+02  0.15208051870E+02 -0.28204702429E+02  0.40659147113E+02  0.00000000000E+00 0. -1.
         11    1    3    3    0    0 -0.18396732666E+02 -0.11313726066E+02  0.77064915873E+01  0.22930987400E+02  0.51100000000E-03 0. -1.
        -11    1    3    3    0    0 -0.39542679949E+01 -0.76945066988E+01  0.21199871511E+02  0.22897078876E+02  0.51100000000E-03 0.  1.
        -12    1    3    3    0    0 -0.26765074687E+01  0.38001808956E+01 -0.70166066999E+00  0.47007866114E+01  0.00000000000E+00 0.  1.
</event>
<event>
 7    1  0.6046695E-013  0.5052886E+02  0.7816164E-02  0.1300439E+00
        -11   -1    0    0    0    0  0.00000000000E+00  0.00000000000E+00  0.45593999997E+02  0.45594000000E+02  0.51100000000E-03 0.  1.
         11   -1    0    0    0    0 -0.00000000000E+00 -0.00000000000E+00 -0.45593999997E+02  0.45594000000E+02  0.51100000000E-03 0. -1.
    9900012    2    1    2    0    0 -0.35871299488E+02 -0.11485710756E+02 -0.15313204305E+02  0.50528857060E+02  0.29999991521E+02 0.  0.
         12    1    1    2    0    0  0.35871299488E+02  0.11485710756E+02  0.15313204305E+02  0.40659142940E+02  0.00000000000E+00 0. -1.
         11    1    3    3    0    0 -0.18378069376E+02 -0.14033506865E+02 -0.25828725703E+01  0.23267229742E+02  0.51100000000E-03 0. -1.
        -11    1    3    3    0    0 -0.92805236300E+01  0.73085087267E+01 -0.55884583945E+00  0.11826019093E+02  0.51100000000E-03 0.  1.
         12    1    3    3    0    0 -0.82127064823E+01 -0.47607126177E+01 -0.12171485895E+02  0.15435608225E+02  0.00000000000E+00 0. -1.
</event>
<event>
 7    1  0.8186632E-013  0.5052886E+02  0.7816164E-02  0.1300439E+00
        -11   -1    0    0    0    0  0.00000000000E+00  0.00000000000E+00  0.45593999997E+02  0.45594000000E+02  0.51100000000E-03 0. -1.
         11   -1    0    0    0    0 -0.00000000000E+00 -0.00000000000E+00 -0.45593999997E+02  0.45594000000E+02  0.51100000000E-03 0.  1.
    9900012    2    1    2    0    0 -0.26147115439E+02  0.10210918446E+00 -0.31136534322E+02  0.50528857835E+02  0.29999993875E+02 0.  0.
         12    1    1    2    0    0  0.26147115439E+02 -0.10210918446E+00  0.31136534322E+02  0.40659142165E+02  0.00000000000E+00 0. -1.
         11    1    3    3    0    0  0.16806825239E+01 -0.11337640239E+00  0.37326080417E+01  0.40951081803E+01  0.51100000000E-03 0. -1.
        -11    1    3    3    0    0 -0.18918424931E+02  0.62061276626E+01 -0.23380324756E+02  0.30709321197E+02  0.51100000000E-03 0.  1.
         12    1    3    3    0    0 -0.89093730313E+01 -0.59906420758E+01 -0.11488817608E+02  0.15724428458E+02  0.00000000000E+00 0. -1.
</event>
<event>
 7    1  0.6046695E-013  0.5052890E+02  0.7816164E-02  0.1300439E+00
        -11   -1    0    0    0    0  0.00000000000E+00  0.00000000000E+00  0.45593999997E+02  0.45594000000E+02  0.51100000000E-03 0.  1.
         11   -1    0    0    0    0 -0.00000000000E+00 -0.00000000000E+00 -0.45593999997E+02  0.45594000000E+02  0.51100000000E-03 0. -1.
    9900012    2    1    2    0    0 -0.10080188135E+02 -0.26117739114E+01  0.39303063070E+02  0.50528901110E+02  0.30000125415E+02 0.  0.
         12    1    1    2    0    0  0.10080188135E+02  0.26117739114E+01 -0.39303063070E+02  0.40659098890E+02  0.00000000000E+00 0. -1.
         11    1    3    3    0    0 -0.94872651763E+01  0.82618494728E+01  0.24963552325E+02  0.27954343172E+02  0.51100000000E-03 0.  1.
        -11    1    3    3    0    0  0.54439899006E+01 -0.73713581100E+00  0.32506892542E+01  0.63833671467E+01  0.51100000000E-03 0. -1.
         12    1    3    3    0    0 -0.60369128595E+01 -0.10136487573E+02  0.11088821491E+02  0.16191190792E+02  0.00000000000E+00 0. -1.
</event>
<event>
 7    1  0.6046695E-013  0.5052887E+02  0.7816164E-02  0.1300439E+00
        -11   -1    0    0    0    0  0.00000000000E+00  0.00000000000E+00  0.45593999997E+02  0.45594000000E+02  0.51100000000E-03 0.  1.
         11   -1    0    0    0    0 -0.00000000000E+00 -0.00000000000E+00 -0.45593999997E+02  0.45594000000E+02  0.51100000000E-03 0. -1.
    9900012    2    1    2    0    0 -0.38699949621E+02  0.21230857592E+01  0.12287045249E+02  0.50528867265E+02  0.30000022539E+02 0.  0.
         12    1    1    2    0    0  0.38699949621E+02 -0.21230857592E+01 -0.12287045249E+02  0.40659132735E+02  0.00000000000E+00 0. -1.
         11    1    3    3    0    0  0.58324827436E+00  0.49012096056E+01 -0.17970530452E+01  0.52527549016E+01  0.51100000000E-03 0. -1.
        -11    1    3    3    0    0 -0.20357954307E+02  0.63855786187E+01  0.11061580069E+02  0.24032903939E+02  0.51100000000E-03 0.  1.
         12    1    3    3    0    0 -0.18925243588E+02 -0.91637024651E+01  0.30225182256E+01  0.21243208425E+02  0.00000000000E+00 0. -1.
</event>
<event>
 7    1  0.6046695E-013  0.5052883E+02  0.7816164E-02  0.1300439E+00
        -11   -1    0    0    0    0  0.00000000000E+00  0.00000000000E+00  0.45593999997E+02  0.45594000000E+02  0.51100000000E-03 0.  1.
         11   -1    0    0    0    0 -0.00000000000E+00 -0.00000000000E+00 -0.45593999997E+02  0.45594000000E+02  0.51100000000E-03 0. -1.
    9900012    2    1    2    0    0  0.32919522083E+02 -0.84539379071E+01  0.22316013530E+02  0.50528825634E+02  0.29999895995E+02 0.  0.
         12    1    1    2    0    0 -0.32919522083E+02  0.84539379071E+01 -0.22316013530E+02  0.40659174366E+02  0.00000000000E+00 0. -1.
         11    1    3    3    0    0  0.86941488056E+01  0.53569114768E+01 -0.25142835980E+01  0.10516955182E+02  0.51100000000E-03 0. -1.
        -11    1    3    3    0    0  0.77618870984E+01 -0.60806664080E+01  0.18113471205E+02  0.20623269252E+02  0.51100000000E-03 0.  1.
        -12    1    3    3    0    0  0.16463486179E+02 -0.77301829759E+01  0.67168259233E+01  0.19388601200E+02  0.00000000000E+00 0.  1.
</event>
<event>
 7    1  0.6046695E-013  0.5052885E+02  0.7816164E-02  0.1300439E+00
        -11   -1    0    0    0    0  0.00000000000E+00  0.00000000000E+00  0.45593999997E+02  0.45594000000E+02  0.51100000000E-03 0.  1.
         11   -1    0    0    0    0 -0.00000000000E+00 -0.00000000000E+00 -0.45593999997E+02  0.45594000000E+02  0.51100000000E-03 0. -1.
    9900012    2    1    2    0    0  0.40532961337E+02 -0.24120423306E+01  0.21041230957E+01  0.50528852973E+02  0.29999979097E+02 0.  0.
         12    1    1    2    0    0 -0.40532961337E+02  0.24120423306E+01 -0.21041230957E+01  0.40659147027E+02  0.00000000000E+00 0. -1.
         11    1    3    3    0    0 -0.33021956033E+01 -0.11313363166E+01  0.39741708551E+00  0.35131692622E+01  0.51100000000E-03 0. -1.
        -11    1    3    3    0    0  0.28980627611E+02  0.60148645357E+01 -0.31576984435E+01  0.29766196127E+02  0.51100000000E-03 0.  1.
        -12    1    3    3    0    0  0.14854529329E+02 -0.72955705497E+01  0.48644044537E+01  0.17249487584E+02  0.00000000000E+00 0.  1.
</event>
<event>
 7    1  0.6046695E-013  0.5052886E+02  0.7816164E-02  0.1300439E+00
        -11   -1    0    0    0    0  0.00000000000E+00  0.00000000000E+00  0.45593999997E+02  0.45594000000E+02  0.51100000000E-03 0.  1.
         11   -1    0    0    0    0 -0.00000000000E+00 -0.00000000000E+00 -0.45593999997E+02  0.45594000000E+02  0.51100000000E-03 0. -1.
    9900012    2    1    2    0    0  0.10169290475E+02 -0.13351313159E+02  0.37033683021E+02  0.50528859454E+02  0.29999998796E+02 0.  0.
         12    1    1    2    0    0 -0.10169290475E+02  0.13351313159E+02 -0.37033683021E+02  0.40659140546E+02  0.00000000000E+00 0. -1.
         11    1    3    3    0    0 -0.58054131606E+01 -0.15494282340E+02  0.16304213968E+02  0.23229356439E+02  0.51100000000E-03 0. -1.
        -11    1    3    3    0    0  0.10800585245E+02  0.47451007879E+01  0.12034362752E+02  0.16852136667E+02  0.51100000000E-03 0.  1.
         12    1    3    3    0    0  0.51741183904E+01 -0.26021316073E+01  0.86951063015E+01  0.10447366348E+02  0.00000000000E+00 0. -1.
</event>
<event>
 7    1  0.6046695E-013  0.5052886E+02  0.7816164E-02  0.1300439E+00
        -11   -1    0    0    0    0  0.00000000000E+00  0.00000000000E+00  0.45593999997E+02  0.45594000000E+02  0.51100000000E-03 0.  1.
         11   -1    0    0    0    0 -0.00000000000E+00 -0.00000000000E+00 -0.45593999997E+02  0.45594000000E+02  0.51100000000E-03 0. -1.
    9900012    2    1    2    0    0 -0.83872603331E+01  0.80068110585E+01  0.38970636121E+02  0.50528860328E+02  0.30000001452E+02 0.  0.
         12    1    1    2    0    0  0.83872603331E+01 -0.80068110585E+01 -0.38970636121E+02  0.40659139672E+02  0.00000000000E+00 0. -1.
         11    1    3    3    0    0 -0.98100122661E+01  0.23839692089E+01  0.10531527019E+02  0.14588787182E+02  0.51100000000E-03 0. -1.
        -11    1    3    3    0    0  0.41990733719E+01  0.32120989186E+01 -0.17185698621E+01  0.55590718000E+01  0.51100000000E-03 0.  1.
        -12    1    3    3    0    0 -0.27763214389E+01  0.24107429311E+01  0.30157678964E+02  0.30381001345E+02  0.00000000000E+00 0.  1.
</event>
<event>
 7    1  0.6046695E-013  0.5052888E+02  0.7816164E-02  0.1300439E+00
        -11   -1    0    0    0    0  0.00000000000E+00  0.00000000000E+00  0.45593999997E+02  0.45594000000E+02  0.51100000000E-03 0. -1.
         11   -1    0    0    0    0 -0.00000000000E+00 -0.00000000000E+00 -0.45593999997E+02  0.45594000000E+02  0.51100000000E-03 0.  1.
    9900012    2    1    2    0    0 -0.38296843032E+02  0.26092648862E+01 -0.13405496106E+02  0.50528883244E+02  0.30000071110E+02 0.  0.
         12    1    1    2    0    0  0.38296843032E+02 -0.26092648862E+01  0.13405496106E+02  0.40659116756E+02  0.00000000000E+00 0. -1.
         11    1    3    3    0    0 -0.10260060803E+02  0.66805924971E+01 -0.13835963372E+02  0.18475200851E+02  0.51100000000E-03 0. -1.
        -11    1    3    3    0    0 -0.18514591632E+02 -0.58816514653E+01 -0.61054237018E+01  0.20363205202E+02  0.51100000000E-03 0.  1.
         12    1    3    3    0    0 -0.95221905972E+01  0.18103238544E+01  0.65358909672E+01  0.11690477191E+02  0.00000000000E+00 0. -1.
</event>
<event>
 7    1  0.6046695E-013  0.5052886E+02  0.7816164E-02  0.1300439E+00
        -11   -1    0    0    0    0  0.00000000000E+00  0.00000000000E+00  0.45593999997E+02  0.45594000000E+02  0.51100000000E-03 0.  1.
         11   -1    0    0    0    0 -0.00000000000E+00 -0.00000000000E+00 -0.45593999997E+02  0.45594000000E+02  0.51100000000E-03 0. -1.
    9900012    2    1    2    0    0  0.22104005982E+02 -0.24054925907E+02  0.24206182159E+02  0.50528858401E+02  0.29999995595E+02 0.  0.
         12    1    1    2    0    0 -0.22104005982E+02  0.24054925907E+02 -0.24206182159E+02  0.40659141599E+02  0.00000000000E+00 0. -1.
         11    1    3    3    0    0 -0.41401859930E+01  0.45844950864E+00 -0.14544731550E+01  0.44121206272E+01  0.51100000000E-03 0. -1.
        -11    1    3    3    0    0  0.12700199435E+02 -0.83290472021E+01  0.36433608970E+01  0.15618648209E+02  0.51100000000E-03 0.  1.
         12    1    3    3    0    0  0.13543992541E+02 -0.16184328213E+02  0.22017294417E+02  0.30498089565E+02  0.00000000000E+00 0. -1.
</event>
<event>
 7    1  0.6046695E-013  0.5052884E+02  0.7816164E-02  0.1300439E+00
        -11   -1    0    0    0    0  0.00000000000E+00  0.00000000000E+00  0.45593999997E+02  0.45594000000E+02  0.51100000000E-03 0.  1.
         11   -1    0    0    0    0 -0.00000000000E+00 -0.00000000000E+00 -0.45593999997E+02  0.45594000000E+02  0.51100000000E-03 0. -1.
    9900012    2    1    2    0    0  0.30841565282E+01 -0.27429972503E+02  0.29853847922E+02  0.50528835612E+02  0.29999926326E+02 0.  0.
         12    1    1    2    0    0 -0.30841565282E+01  0.27429972503E+02 -0.29853847922E+02  0.40659164388E+02  0.00000000000E+00 0. -1.
         11    1    3    3    0    0  0.21971472783E+01 -0.14159015571E+02  0.13713204431E+01  0.14393946579E+02  0.51100000000E-03 0. -1.
        -11    1    3    3    0    0  0.65066054697E+01 -0.12607829362E+02  0.26642420101E+02  0.30184628954E+02  0.51100000000E-03 0.  1.
         12    1    3    3    0    0 -0.56195962198E+01 -0.66312756961E+00  0.18401073774E+01  0.59502600790E+01  0.00000000000E+00 0. -1.
</event>
<event>
 7    1  0.6046695E-013  0.5052888E+02  0.7816164E-02  0.1300439E+00
        -11   -1    0    0    0    0  0.00000000000E+00  0.00000000000E+00  0.45593999997E+02  0.45594000000E+02  0.51100000000E-03 0.  1.
         11   -1    0    0    0    0 -0.00000000000E+00 -0.00000000000E+00 -0.45593999997E+02  0.45594000000E+02  0.51100000000E-03 0. -1.
    9900012    2    1    2    0    0  0.93107469614E+01 -0.12694685858E+02  0.37487589591E+02  0.50528875178E+02  0.30000046590E+02 0.  0.
         12    1    1    2    0    0 -0.93107469614E+01  0.12694685858E+02 -0.37487589591E+02  0.40659124822E+02  0.00000000000E+00 0. -1.
         11    1    3    3    0    0 -0.51847402942E+01 -0.13006897413E+01  0.18764619777E+02  0.19511132242E+02  0.51100000000E-03 0. -1.
        -11    1    3    3    0    0  0.17677872158E+02 -0.63932624329E+01  0.14460702011E+02  0.23716932168E+02  0.51100000000E-03 0.  1.
        -12    1    3    3    0    0 -0.31823849019E+01 -0.50007336841E+01  0.42622678021E+01  0.73008107672E+01  0.00000000000E+00 0.  1.
</event>
<event>
 7    1  0.6046695E-013  0.5052887E+02  0.7816164E-02  0.1300439E+00
        -11   -1    0    0    0    0  0.00000000000E+00  0.00000000000E+00  0.45593999997E+02  0.45594000000E+02  0.51100000000E-03 0.  1.
         11   -1    0    0    0    0 -0.00000000000E+00 -0.00000000000E+00 -0.45593999997E+02  0.45594000000E+02  0.51100000000E-03 0. -1.
    9900012    2    1    2    0    0  0.65216846322E+01 -0.13185240204E+02  0.37904910357E+02  0.50528866231E+02  0.30000019396E+02 0.  0.
         12    1    1    2    0    0 -0.65216846322E+01  0.13185240204E+02 -0.37904910357E+02  0.40659133769E+02  0.00000000000E+00 0. -1.
         11    1    3    3    0    0 -0.50564061008E+01 -0.95382439824E+01  0.63500769582E+00  0.10814276488E+02  0.51100000000E-03 0. -1.
        -11    1    3    3    0    0  0.79654239303E+01  0.78112421655E+00  0.21854314089E+02  0.23273787358E+02  0.51100000000E-03 0.  1.
         12    1    3    3    0    0  0.36126668027E+01 -0.44281204386E+01  0.15415588572E+02  0.16440802385E+02  0.00000000000E+00 0. -1.
</event>
<event>
 7    1  0.6046695E-013  0.5052886E+02  0.7816164E-02  0.1300439E+00
        -11   -1    0    0    0    0  0.00000000000E+00  0.00000000000E+00  0.45593999997E+02  0.45594000000E+02  0.51100000000E-03 0.  1.
         11   -1    0    0    0    0 -0.00000000000E+00 -0.00000000000E+00 -0.45593999997E+02  0.45594000000E+02  0.51100000000E-03 0. -1.
    9900012    2    1    2    0    0 -0.40355257735E+02  0.82724929250E+00  0.48923301082E+01  0.50528855123E+02  0.29999985631E+02 0.  0.
         12    1    1    2    0    0  0.40355257735E+02 -0.82724929250E+00 -0.48923301082E+01  0.40659144877E+02  0.00000000000E+00 0. -1.
         11    1    3    3    0    0 -0.18010718988E+02 -0.55207439344E+01  0.16030250414E+02  0.24735269164E+02  0.51100000000E-03 0. -1.
        -11    1    3    3    0    0 -0.17647445348E+02  0.49167122913E+01 -0.93519772422E+01  0.20568564988E+02  0.51100000000E-03 0.  1.
         12    1    3    3    0    0 -0.46970933994E+01  0.14312809356E+01 -0.17859430631E+01  0.52250209706E+01  0.00000000000E+00 0. -1.
</event>
<event>
 7    1  0.6046695E-013  0.5052896E+02  0.7816164E-02  0.1300438E+00
        -11   -1    0    0    0    0  0.00000000000E+00  0.00000000000E+00  0.45593999997E+02  0.45594000000E+02  0.51100000000E-03 0.  1.
         11   -1    0    0    0    0 -0.00000000000E+00 -0.00000000000E+00 -0.45593999997E+02  0.45594000000E+02  0.51100000000E-03 0. -1.
    9900012    2    1    2    0    0 -0.83980129396E+01  0.22694824774E+02  0.32673776939E+02  0.50528961739E+02  0.30000309700E+02 0.  0.
         12    1    1    2    0    0  0.83980129396E+01 -0.22694824774E+02 -0.32673776939E+02  0.40659038261E+02  0.00000000000E+00 0. -1.
         11    1    3    3    0    0  0.28136235786E+00  0.21355774914E+01 -0.12969558165E+01  0.25143489514E+01  0.51100000000E-03 0. -1.
        -11    1    3    3    0    0 -0.65653508504E+00  0.21998782604E+01  0.26549520065E+02  0.26648593183E+02  0.51100000000E-03 0.  1.
        -12    1    3    3    0    0 -0.80228402124E+01  0.18359369022E+02  0.74212126905E+01  0.21366019605E+02  0.00000000000E+00 0.  1.
</event>
<event>
 7    1  0.6046695E-013  0.5052885E+02  0.7816164E-02  0.1300439E+00
        -11   -1    0    0    0    0  0.00000000000E+00  0.00000000000E+00  0.45593999997E+02  0.45594000000E+02  0.51100000000E-03 0.  1.
         11   -1    0    0    0    0 -0.00000000000E+00 -0.00000000000E+00 -0.45593999997E+02  0.45594000000E+02  0.51100000000E-03 0. -1.
    9900012    2    1    2    0    0 -0.23288706154E+02  0.13303908224E+02  0.30558277643E+02  0.50528854155E+02  0.29999982688E+02 0.  0.
         12    1    1    2    0    0  0.23288706154E+02 -0.13303908224E+02 -0.30558277643E+02  0.40659145845E+02  0.00000000000E+00 0. -1.
         11    1    3    3    0    0 -0.17157114954E+02  0.11401915368E+02  0.26356382873E+01  0.20768169323E+02  0.51100000000E-03 0. -1.
        -11    1    3    3    0    0  0.19674941633E+01  0.73790092612E+00  0.63343729272E+01  0.66738153782E+01  0.51100000000E-03 0.  1.
         12    1    3    3    0    0 -0.80990853638E+01  0.11640919295E+01  0.21588266429E+02  0.23086869453E+02  0.00000000000E+00 0. -1.
</event>
<event>
 7    1  0.6046695E-013  0.5052886E+02  0.7816164E-02  0.1300439E+00
        -11   -1    0    0    0    0  0.00000000000E+00  0.00000000000E+00  0.45593999997E+02  0.45594000000E+02  0.51100000000E-03 0.  1.
         11   -1    0    0    0    0 -0.00000000000E+00 -0.00000000000E+00 -0.45593999997E+02  0.45594000000E+02  0.51100000000E-03 0. -1.
    9900012    2    1    2    0    0 -0.48466013844E+01 -0.46392764468E+01  0.40101784504E+02  0.50528861404E+02  0.30000004724E+02 0.  0.
         12    1    1    2    0    0  0.48466013844E+01  0.46392764468E+01 -0.40101784504E+02  0.40659138596E+02  0.00000000000E+00 0. -1.
         11    1    3    3    0    0  0.32391619385E+01  0.96850639199E+01  0.90103713868E+01  0.13619083155E+02  0.51100000000E-03 0. -1.
        -11    1    3    3    0    0 -0.42954545179E+01 -0.67777523331E+00  0.14280479387E+02  0.14927906771E+02  0.51100000000E-03 0.  1.
         12    1    3    3    0    0 -0.37903088051E+01 -0.13646565133E+02  0.16810933731E+02  0.21981871478E+02  0.00000000000E+00 0. -1.
</event>
<event>
 7    1  0.6046695E-013  0.5052883E+02  0.7816164E-02  0.1300439E+00
        -11   -1    0    0    0    0  0.00000000000E+00  0.00000000000E+00  0.45593999997E+02  0.45594000000E+02  0.51100000000E-03 0.  1.
         11   -1    0    0    0    0 -0.00000000000E+00 -0.00000000000E+00 -0.45593999997E+02  0.45594000000E+02  0.51100000000E-03 0. -1.
    9900012    2    1    2    0    0  0.29412743484E+02 -0.24148362027E+01  0.27968327116E+02  0.50528828405E+02  0.29999904418E+02 0.  0.
         12    1    1    2    0    0 -0.29412743484E+02  0.24148362027E+01 -0.27968327116E+02  0.40659171595E+02  0.00000000000E+00 0. -1.
         11    1    3    3    0    0  0.15593784646E+02  0.67993374409E+01  0.44334206321E+01  0.17579884186E+02  0.51100000000E-03 0. -1.
        -11    1    3    3    0    0 -0.36031535364E+01 -0.13411988330E+01  0.28782091279E+01  0.48026677755E+01  0.51100000000E-03 0.  1.
         12    1    3    3    0    0  0.17422112374E+02 -0.78729748106E+01  0.20656697356E+02  0.28146276443E+02  0.00000000000E+00 0. -1.
</event>
<event>
 7    1  0.6046695E-013  0.5052887E+02  0.7816164E-02  0.1300439E+00
        -11   -1    0    0    0    0  0.00000000000E+00  0.00000000000E+00  0.45593999997E+02  0.45594000000E+02  0.51100000000E-03 0. -1.
         11   -1    0    0    0    0 -0.00000000000E+00 -0.00000000000E+00 -0.45593999997E+02  0.45594000000E+02  0.51100000000E-03 0.  1.
    9900012    2    1    2    0    0 -0.93575903598E+01 -0.39171120831E+02 -0.55878141532E+01  0.50528869765E+02  0.30000030137E+02 0.  0.
         12    1    1    2    0    0  0.93575903598E+01  0.39171120831E+02  0.55878141532E+01  0.40659130235E+02  0.00000000000E+00 0. -1.
         11    1    3    3    0    0 -0.68086744074E+01 -0.16858422718E+02  0.44212058431E+00  0.18186806608E+02  0.51100000000E-03 0. -1.
        -11    1    3    3    0    0  0.25243297003E+01  0.28764641527E+01  0.32518649130E+01  0.50220426254E+01  0.51100000000E-03 0.  1.
        -12    1    3    3    0    0 -0.50732456528E+01 -0.25189162266E+02 -0.92817996505E+01  0.27320020532E+02  0.00000000000E+00 0.  1.
</event>
<event>
 7    1  0.6046695E-013  0.5052886E+02  0.7816164E-02  0.1300439E+00
        -11   -1    0    0    0    0  0.00000000000E+00  0.00000000000E+00  0.45593999997E+02  0.45594000000E+02  0.51100000000E-03 0.  1.
         11   -1    0    0    0    0 -0.00000000000E+00 -0.00000000000E+00 -0.45593999997E+02  0.45594000000E+02  0.51100000000E-03 0. -1.
    9900012    2    1    2    0    0 -0.20828497784E+02 -0.83312839312E+01  0.33910598767E+02  0.50528864242E+02  0.30000013350E+02 0.  0.
         12    1    1    2    0    0  0.20828497784E+02  0.83312839312E+01 -0.33910598767E+02  0.40659135758E+02  0.00000000000E+00 0. -1.
         11    1    3    3    0    0 -0.10602152950E+01  0.78264060995E+01  0.15571781180E+02  0.17460156308E+02  0.51100000000E-03 0. -1.
        -11    1    3    3    0    0 -0.14960532329E+02 -0.95187550691E+01  0.17357131750E+02  0.24813186987E+02  0.51100000000E-03 0.  1.
         12    1    3    3    0    0 -0.48077501602E+01 -0.66389349615E+01  0.98168583689E+00  0.82555209471E+01  0.00000000000E+00 0. -1.
</event>
<event>
 7    1  0.6046695E-013  0.5052882E+02  0.7816164E-02  0.1300439E+00
        -11   -1    0    0    0    0  0.00000000000E+00  0.00000000000E+00  0.45593999997E+02  0.45594000000E+02  0.51100000000E-03 0. -1.
         11   -1    0    0    0    0 -0.00000000000E+00 -0.00000000000E+00 -0.45593999997E+02  0.45594000000E+02  0.51100000000E-03 0.  1.
    9900012    2    1    2    0    0  0.28710493223E+02  0.23839312193E+02  0.16141988331E+02  0.50528818820E+02  0.29999875285E+02 0.  0.
         12    1    1    2    0    0 -0.28710493223E+02 -0.23839312193E+02 -0.16141988331E+02  0.40659181180E+02  0.00000000000E+00 0. -1.
         11    1    3    3    0    0  0.20584297959E+02  0.68410479574E+01  0.11112219933E+02  0.24372006313E+02  0.51100000000E-03 0. -1.
        -11    1    3    3    0    0 -0.37288568133E+01  0.12405727851E+02  0.26610315068E+01  0.13224505495E+02  0.51100000000E-03 0.  1.
        -12    1    3    3    0    0  0.11855052077E+02  0.45925363844E+01  0.23687368919E+01  0.12932307012E+02  0.00000000000E+00 0.  1.
</event>
<event>
 7    1  0.6046695E-013  0.5052886E+02  0.7816164E-02  0.1300439E+00
        -11   -1    0    0    0    0  0.00000000000E+00  0.00000000000E+00  0.45593999997E+02  0.45594000000E+02  0.51100000000E-03 0.  1.
         11   -1    0    0    0    0 -0.00000000000E+00 -0.00000000000E+00 -0.45593999997E+02  0.45594000000E+02  0.51100000000E-03 0. -1.
    9900012    2    1    2    0    0 -0.38079051464E+02 -0.79421946891E+01  0.11835241208E+02  0.50528861405E+02  0.30000004726E+02 0.  0.
         12    1    1    2    0    0  0.38079051464E+02  0.79421946891E+01 -0.11835241208E+02  0.40659138595E+02  0.00000000000E+00 0. -1.
         11    1    3    3    0    0  0.77414239063E-01  0.19723355791E+00  0.53720652001E+01  0.53762420720E+01  0.51100000000E-03 0. -1.
        -11    1    3    3    0    0 -0.23846773985E+02 -0.14655293525E+02 -0.40890100868E+00  0.27993096615E+02  0.51100000000E-03 0.  1.
        -12    1    3    3    0    0 -0.14309691718E+02  0.65158652784E+01  0.68720770161E+01  0.17159522718E+02  0.00000000000E+00 0.  1.
</event>
<event>
 7    1  0.6046695E-013  0.5052885E+02  0.7816164E-02  0.1300439E+00
        -11   -1    0    0    0    0  0.00000000000E+00  0.00000000000E+00  0.45593999997E+02  0.45594000000E+02  0.51100000000E-03 0.  1.
         11   -1    0    0    0    0 -0.00000000000E+00 -0.00000000000E+00 -0.45593999997E+02  0.45594000000E+02  0.51100000000E-03 0. -1.
    9900012    2    1    2    0    0 -0.38576729867E+01  0.24668677853E+02  0.32089576529E+02  0.50528853062E+02  0.29999979369E+02 0.  0.
         12    1    1    2    0    0  0.38576729867E+01 -0.24668677853E+02 -0.32089576529E+02  0.40659146938E+02  0.00000000000E+00 0. -1.
         11    1    3    3    0    0  0.49926183402E+01  0.21033160448E+02  0.12252766407E+02  0.24848548473E+02  0.51100000000E-03 0. -1.
        -11    1    3    3    0    0 -0.72313312969E+01 -0.22461574672E+00  0.22122625564E+01  0.75654947253E+01  0.51100000000E-03 0.  1.
         12    1    3    3    0    0 -0.16189600301E+01  0.38601331517E+01  0.17624547566E+02  0.18114809865E+02  0.00000000000E+00 0. -1.
</event>
<event>
 7    1  0.6046695E-013  0.5052886E+02  0.7816164E-02  0.1300439E+00
        -11   -1    0    0    0    0  0.00000000000E+00  0.00000000000E+00  0.45593999997E+02  0.45594000000E+02  0.51100000000E-03 0. -1.
         11   -1    0    0    0    0 -0.00000000000E+00 -0.00000000000E+00 -0.45593999997E+02  0.45594000000E+02  0.51100000000E-03 0.  1.
    9900012    2    1    2    0    0  0.22474818602E+02  0.26169610027E+02 -0.21522076418E+02  0.50528859164E+02  0.29999997915E+02 0.  0.
         12    1    1    2    0    0 -0.22474818602E+02 -0.26169610027E+02  0.21522076418E+02  0.40659140836E+02  0.00000000000E+00 0. -1.
         11    1    3    3    0    0 -0.35944814813E+01 -0.30335745895E+01  0.90638044086E+00  0.47900310723E+01  0.51100000000E-03 0. -1.
        -11    1    3    3    0    0  0.81805299275E+01  0.12072075696E+02 -0.11914348721E+02  0.18831032559E+02  0.51100000000E-03 0.  1.
         12    1    3    3    0    0  0.17888770156E+02  0.17131108921E+02 -0.10514108138E+02  0.26907795533E+02  0.00000000000E+00 0. -1.
</event>
<event>
 7    1  0.6046695E-013  0.5052886E+02  0.7816164E-02  0.1300439E+00
        -11   -1    0    0    0    0  0.00000000000E+00  0.00000000000E+00  0.45593999997E+02  0.45594000000E+02  0.51100000000E-03 0. -1.
         11   -1    0    0    0    0 -0.00000000000E+00 -0.00000000000E+00 -0.45593999997E+02  0.45594000000E+02  0.51100000000E-03 0.  1.
    9900012    2    1    2    0    0  0.32939664792E+02 -0.23594695011E+02 -0.33815090396E+01  0.50528858928E+02  0.29999997198E+02 0.  0.
         12    1    1    2    0    0 -0.32939664792E+02  0.23594695011E+02  0.33815090396E+01  0.40659141072E+02  0.00000000000E+00 0. -1.
         11    1    3    3    0    0  0.10855364383E+01 -0.14053820101E+02  0.40625102206E+01  0.14669432107E+02  0.51100000000E-03 0. -1.
        -11    1    3    3    0    0  0.19980085491E+02 -0.91097318221E+01 -0.23199957119E+00  0.21960074092E+02  0.51100000000E-03 0.  1.
        -12    1    3    3    0    0  0.11874042863E+02 -0.43114308802E+00 -0.72120196889E+01  0.13899352729E+02  0.00000000000E+00 0.  1.
</event>
<event>
 7    1  0.6046695E-013  0.5052886E+02  0.7816164E-02  0.1300439E+00
        -11   -1    0    0    0    0  0.00000000000E+00  0.00000000000E+00  0.45593999997E+02  0.45594000000E+02  0.51100000000E-03 0. -1.
         11   -1    0    0    0    0 -0.00000000000E+00 -0.00000000000E+00 -0.45593999997E+02  0.45594000000E+02  0.51100000000E-03 0.  1.
    9900012    2    1    2    0    0  0.72101408150E+01 -0.21485752002E+01 -0.39957017157E+02  0.50528859256E+02  0.29999998195E+02 0.  0.
         12    1    1    2    0    0 -0.72101408150E+01  0.21485752002E+01  0.39957017157E+02  0.40659140744E+02  0.00000000000E+00 0. -1.
         11    1    3    3    0    0 -0.47472080282E+01  0.53636006036E+01 -0.56584938471E+01  0.91281295114E+01  0.51100000000E-03 0. -1.
        -11    1    3    3    0    0  0.13084500445E+02 -0.70834160898E+01 -0.36206002446E+02  0.39144010382E+02  0.51100000000E-03 0.  1.
        -12    1    3    3    0    0 -0.11271516019E+01 -0.42875971404E+00  0.19074791363E+01  0.22567193626E+01  0.00000000000E+00 0.  1.
</event>
<event>
 7    1  0.6046695E-013  0.5052886E+02  0.7816164E-02  0.1300439E+00
        -11   -1    0    0    0    0  0.00000000000E+00  0.00000000000E+00  0.45593999997E+02  0.45594000000E+02  0.51100000000E-03 0. -1.
         11   -1    0    0    0    0 -0.00000000000E+00 -0.00000000000E+00 -0.45593999997E+02  0.45594000000E+02  0.51100000000E-03 0.  1.
    9900012    2    1    2    0    0  0.12509226009E+02  0.36231419372E+02 -0.13563517608E+02  0.50528862098E+02  0.30000006833E+02 0.  0.
         12    1    1    2    0    0 -0.12509226009E+02 -0.36231419372E+02  0.13563517608E+02  0.40659137902E+02  0.00000000000E+00 0. -1.
         11    1    3    3    0    0  0.15239862757E+02  0.11209778955E+02  0.79932653482E+00  0.18935455744E+02  0.51100000000E-03 0. -1.
        -11    1    3    3    0    0 -0.59800107080E+01  0.99250282940E+01 -0.10588273839E+02  0.15696440929E+02  0.51100000000E-03 0.  1.
        -12    1    3    3    0    0  0.32493739601E+01  0.15096612123E+02 -0.37745703036E+01  0.15896965425E+02  0.00000000000E+00 0.  1.
</event>
<event>
 7    1  0.6046695E-013  0.5052886E+02  0.7816164E-02  0.1300439E+00
        -11   -1    0    0    0    0  0.00000000000E+00  0.00000000000E+00  0.45593999997E+02  0.45594000000E+02  0.51100000000E-03 0.  1.
         11   -1    0    0    0    0 -0.00000000000E+00 -0.00000000000E+00 -0.45593999997E+02  0.45594000000E+02  0.51100000000E-03 0. -1.
    9900012    2    1    2    0    0 -0.37291574892E+02  0.13279212084E+02 -0.92826190774E+01  0.50528855292E+02  0.29999986144E+02 0.  0.
         12    1    1    2    0    0  0.37291574892E+02 -0.13279212084E+02  0.92826190774E+01  0.40659144708E+02  0.00000000000E+00 0. -1.
         11    1    3    3    0    0 -0.10686188626E+02  0.78321878071E+01 -0.13281063186E+02  0.18759649059E+02  0.51100000000E-03 0. -1.
        -11    1    3    3    0    0 -0.27297083354E+02  0.16489911376E+01  0.49546132808E+01  0.27792051461E+02  0.51100000000E-03 0.  1.
         12    1    3    3    0    0  0.69169708803E+00  0.37980331394E+01 -0.95616917204E+00  0.39771547714E+01  0.00000000000E+00 0. -1.
</event>
<event>
 7    1  0.6046695E-013  0.5052886E+02  0.7816164E-02  0.1300439E+00
        -11   -1    0    0    0    0  0.00000000000E+00  0.00000000000E+00  0.45593999997E+02  0.45594000000E+02  0.51100000000E-03 0.  1.
         11   -1    0    0    0    0 -0.00000000000E+00 -0.00000000000E+00 -0.45593999997E+02  0.45594000000E+02  0.51100000000E-03 0. -1.
    9900012    2    1    2    0    0  0.10264746512E+02 -0.33655819674E+02  0.20373676771E+02  0.50528856821E+02  0.29999990793E+02 0.  0.
         12    1    1    2    0    0 -0.10264746512E+02  0.33655819674E+02 -0.20373676771E+02  0.40659143179E+02  0.00000000000E+00 0. -1.
         11    1    3    3    0    0  0.21478106273E+01 -0.29637439264E+02  0.22605732505E+02  0.37336443844E+02  0.51100000000E-03 0. -1.
        -11    1    3    3    0    0  0.31125769653E+01  0.29032435678E+01  0.34641012843E+00  0.42704752449E+01  0.51100000000E-03 0.  1.
         12    1    3    3    0    0  0.50043589198E+01 -0.69216239779E+01 -0.25784658616E+01  0.89219377318E+01  0.00000000000E+00 0. -1.
</event>
<event>
 7    1  0.6046695E-013  0.5052886E+02  0.7816164E-02  0.1300439E+00
        -11   -1    0    0    0    0  0.00000000000E+00  0.00000000000E+00  0.45593999997E+02  0.45594000000E+02  0.51100000000E-03 0. -1.
         11   -1    0    0    0    0 -0.00000000000E+00 -0.00000000000E+00 -0.45593999997E+02  0.45594000000E+02  0.51100000000E-03 0.  1.
    9900012    2    1    2    0    0  0.30257746268E+02 -0.25704178076E+02 -0.87709543482E+01  0.50528860561E+02  0.30000002160E+02 0.  0.
         12    1    1    2    0    0 -0.30257746268E+02  0.25704178076E+02  0.87709543482E+01  0.40659139439E+02  0.00000000000E+00 0. -1.
         11    1    3    3    0    0  0.18847465384E+01  0.33398260156E+00  0.51803073255E+01  0.55226260184E+01  0.51100000000E-03 0. -1.
        -11    1    3    3    0    0  0.28735206647E+02 -0.27913220925E+02 -0.15060059034E+02  0.42797960019E+02  0.51100000000E-03 0.  1.
        -12    1    3    3    0    0 -0.36220691728E+00  0.18750602474E+01  0.11087973601E+01  0.22082745228E+01  0.00000000000E+00 0.  1.
</event>
<event>
 7    1  0.6046695E-013  0.5052886E+02  0.7816164E-02  0.1300439E+00
        -11   -1    0    0    0    0  0.00000000000E+00  0.00000000000E+00  0.45593999997E+02  0.45594000000E+02  0.51100000000E-03 0. -1.
         11   -1    0    0    0    0 -0.00000000000E+00 -0.00000000000E+00 -0.45593999997E+02  0.45594000000E+02  0.51100000000E-03 0.  1.
    9900012    2    1    2    0    0  0.51368125807E+01  0.29658009256E+02 -0.27334617060E+02  0.50528860236E+02  0.30000001173E+02 0.  0.
         12    1    1    2    0    0 -0.51368125807E+01 -0.29658009256E+02  0.27334617060E+02  0.40659139764E+02  0.00000000000E+00 0. -1.
         11    1    3    3    0    0  0.10346939822E+02  0.17664771787E+02 -0.26160540118E+02  0.33218627086E+02  0.51100000000E-03 0. -1.
        -11    1    3    3    0    0 -0.52208776759E+01  0.23800162535E+00 -0.18281316990E+01  0.55368108375E+01  0.51100000000E-03 0.  1.
         12    1    3    3    0    0  0.10750434026E-01  0.11755235844E+02  0.65405475690E+00  0.11773422312E+02  0.00000000000E+00 0. -1.
</event>
<event>
 7    1  0.6046695E-013  0.5052886E+02  0.7816164E-02  0.1300439E+00
        -11   -1    0    0    0    0  0.00000000000E+00  0.00000000000E+00  0.45593999997E+02  0.45594000000E+02  0.51100000000E-03 0. -1.
         11   -1    0    0    0    0 -0.00000000000E+00 -0.00000000000E+00 -0.45593999997E+02  0.45594000000E+02  0.51100000000E-03 0.  1.
    9900012    2    1    2    0    0  0.32535706517E+02 -0.62048718240E+01 -0.23581621430E+02  0.50528862009E+02  0.30000006562E+02 0.  0.
         12    1    1    2    0    0 -0.32535706517E+02  0.62048718240E+01  0.23581621430E+02  0.40659137991E+02  0.00000000000E+00 0. -1.
         11    1    3    3    0    0  0.91045957216E+01 -0.10604020497E+02  0.31981075760E+01  0.14337601134E+02  0.51100000000E-03 0. -1.
        -11    1    3    3    0    0  0.19813469652E+02  0.53881816727E+01 -0.23525030094E+02  0.31225520373E+02  0.51100000000E-03 0.  1.
         12    1    3    3    0    0  0.36176411440E+01 -0.98903299943E+00 -0.32546989120E+01  0.49657405015E+01  0.00000000000E+00 0. -1.
</event>
<event>
 7    1  0.6046695E-013  0.5052887E+02  0.7816164E-02  0.1300439E+00
        -11   -1    0    0    0    0  0.00000000000E+00  0.00000000000E+00  0.45593999997E+02  0.45594000000E+02  0.51100000000E-03 0. -1.
         11   -1    0    0    0    0 -0.00000000000E+00 -0.00000000000E+00 -0.45593999997E+02  0.45594000000E+02  0.51100000000E-03 0.  1.
    9900012    2    1    2    0    0 -0.10051207010E+02  0.10653697771E+02 -0.37929368202E+02  0.50528868052E+02  0.30000024931E+02 0.  0.
         12    1    1    2    0    0  0.10051207010E+02 -0.10653697771E+02  0.37929368202E+02  0.40659131948E+02  0.00000000000E+00 0. -1.
         11    1    3    3    0    0  0.30390127568E+01 -0.59732223708E+01 -0.30578772789E+01  0.73665186988E+01  0.51100000000E-03 0. -1.
        -11    1    3    3    0    0 -0.45286243516E+01  0.12140711747E+02 -0.29223373912E+02  0.31967341198E+02  0.51100000000E-03 0.  1.
        -12    1    3    3    0    0 -0.85615954150E+01  0.44862083948E+01 -0.56481170113E+01  0.11195008155E+02  0.00000000000E+00 0.  1.
</event>
<event>
 7    1  0.6046695E-013  0.5052886E+02  0.7816164E-02  0.1300439E+00
        -11   -1    0    0    0    0  0.00000000000E+00  0.00000000000E+00  0.45593999997E+02  0.45594000000E+02  0.51100000000E-03 0.  1.
         11   -1    0    0    0    0 -0.00000000000E+00 -0.00000000000E+00 -0.45593999997E+02  0.45594000000E+02  0.51100000000E-03 0. -1.
    9900012    2    1    2    0    0  0.44018575472E+01  0.32585054244E+02  0.23916592984E+02  0.50528861668E+02  0.30000005525E+02 0.  0.
         12    1    1    2    0    0 -0.44018575472E+01 -0.32585054244E+02 -0.23916592984E+02  0.40659138332E+02  0.00000000000E+00 0. -1.
         11    1    3    3    0    0  0.21884616704E+01  0.18615057583E+02  0.85196241897E+01  0.20588679654E+02  0.51100000000E-03 0. -1.
        -11    1    3    3    0    0 -0.83286467047E+01  0.10568535428E+01  0.83536739590E+01  0.11843443934E+02  0.51100000000E-03 0.  1.
        -12    1    3    3    0    0  0.10542042581E+02  0.12913143118E+02  0.70432948351E+01  0.18096738079E+02  0.00000000000E+00 0.  1.
</event>
<event>
 7    1  0.6046695E-013  0.5052886E+02  0.7816164E-02  0.1300439E+00
        -11   -1    0    0    0    0  0.00000000000E+00  0.00000000000E+00  0.45593999997E+02  0.45594000000E+02  0.51100000000E-03 0.  1.
         11   -1    0    0    0    0 -0.00000000000E+00 -0.00000000000E+00 -0.45593999997E+02  0.45594000000E+02  0.51100000000E-03 0. -1.
    9900012    2    1    2    0    0 -0.10008220377E+02 -0.38584817583E+01  0.39218791122E+02  0.50528856703E+02  0.29999990433E+02 0.  0.
         12    1    1    2    0    0  0.10008220377E+02  0.38584817583E+01 -0.39218791122E+02  0.40659143297E+02  0.00000000000E+00 0. -1.
         11    1    3    3    0    0 -0.52190949479E+01 -0.74218259644E+01  0.83987262280E+01  0.12363699092E+02  0.51100000000E-03 0. -1.
        -11    1    3    3    0    0 -0.49358213457E+01  0.87464472217E+01  0.39378894283E+01  0.10787476293E+02  0.51100000000E-03 0.  1.
        -12    1    3    3    0    0  0.14669591631E+00 -0.51831030156E+01  0.26882175466E+02  0.27377681318E+02  0.00000000000E+00 0.  1.
</event>
<event>
 7    1  0.6046695E-013  0.5052886E+02  0.7816164E-02  0.1300439E+00
        -11   -1    0    0    0    0  0.00000000000E+00  0.00000000000E+00  0.45593999997E+02  0.45594000000E+02  0.51100000000E-03 0.  1.
         11   -1    0    0    0    0 -0.00000000000E+00 -0.00000000000E+00 -0.45593999997E+02  0.45594000000E+02  0.51100000000E-03 0. -1.
    9900012    2    1    2    0    0  0.85265061689E+01  0.36673181982E+02  0.15347379660E+02  0.50528860233E+02  0.30000001164E+02 0.  0.
         12    1    1    2    0    0 -0.85265061689E+01 -0.36673181982E+02 -0.15347379660E+02  0.40659139767E+02  0.00000000000E+00 0. -1.
         11    1    3    3    0    0  0.41227942636E+01  0.13634649098E+02 -0.82451614989E+01  0.16458547232E+02  0.51100000000E-03 0. -1.
        -11    1    3    3    0    0 -0.11502344853E+01  0.65414061085E+01  0.99086201095E+01  0.11928695905E+02  0.51100000000E-03 0.  1.
         12    1    3    3    0    0  0.55539463906E+01  0.16497126776E+02  0.13683921050E+02  0.22141617097E+02  0.00000000000E+00 0. -1.
</event>
<event>
 7    1  0.6046695E-013  0.5052886E+02  0.7816164E-02  0.1300439E+00
        -11   -1    0    0    0    0  0.00000000000E+00  0.00000000000E+00  0.45593999997E+02  0.45594000000E+02  0.51100000000E-03 0.  1.
         11   -1    0    0    0    0 -0.00000000000E+00 -0.00000000000E+00 -0.45593999997E+02  0.45594000000E+02  0.51100000000E-03 0. -1.
    9900012    2    1    2    0    0 -0.13226366825E+02  0.13683468332E+02  0.35930367511E+02  0.50528863334E+02  0.30000010589E+02 0.  0.
         12    1    1    2    0    0  0.13226366825E+02 -0.13683468332E+02 -0.35930367511E+02  0.40659136666E+02  0.00000000000E+00 0. -1.
         11    1    3    3    0    0  0.39401606293E+01 -0.16626765597E+01  0.18259891090E+02  0.18754012424E+02  0.51100000000E-03 0. -1.
        -11    1    3    3    0    0 -0.17464785877E+01  0.87661120089E+01  0.28049112957E+01  0.93681606971E+01  0.51100000000E-03 0.  1.
         12    1    3    3    0    0 -0.15420048867E+02  0.65800328832E+01  0.14865565125E+02  0.22406690213E+02  0.00000000000E+00 0. -1.
</event>
<event>
 7    1  0.6046695E-013  0.5052886E+02  0.7816164E-02  0.1300439E+00
        -11   -1    0    0    0    0  0.00000000000E+00  0.00000000000E+00  0.45593999997E+02  0.45594000000E+02  0.51100000000E-03 0.  1.
         11   -1    0    0    0    0 -0.00000000000E+00 -0.00000000000E+00 -0.45593999997E+02  0.45594000000E+02  0.51100000000E-03 0. -1.
    9900012    2    1    2    0    0  0.24994617691E+02  0.29270912731E+01  0.31935359067E+02  0.50528856680E+02  0.29999990363E+02 0.  0.
         12    1    1    2    0    0 -0.24994617691E+02 -0.29270912731E+01 -0.31935359067E+02  0.40659143320E+02  0.00000000000E+00 0. -1.
         11    1    3    3    0    0  0.22352506372E+02 -0.57646058545E+01  0.93227084461E+01  0.24895343235E+02  0.51100000000E-03 0. -1.
        -11    1    3    3    0    0  0.31684209867E+01  0.68348384164E+01  0.83713706254E+01  0.11262049287E+02  0.51100000000E-03 0.  1.
         12    1    3    3    0    0 -0.52630966751E+00  0.18568587112E+01  0.14241279995E+02  0.14371464158E+02  0.00000000000E+00 0. -1.
</event>
<event>
 7    1  0.6046695E-013  0.5052887E+02  0.7816164E-02  0.1300439E+00
        -11   -1    0    0    0    0  0.00000000000E+00  0.00000000000E+00  0.45593999997E+02  0.45594000000E+02  0.51100000000E-03 0.  1.
         11   -1    0    0    0    0 -0.00000000000E+00 -0.00000000000E+00 -0.45593999997E+02  0.45594000000E+02  0.51100000000E-03 0. -1.
    9900012    2    1    2    0    0  0.25126824584E+02  0.25407137111E+02  0.19398061639E+02  0.50528871563E+02  0.30000035604E+02 0.  0.
         12    1    1    2    0    0 -0.25126824584E+02 -0.25407137111E+02 -0.19398061639E+02  0.40659128437E+02  0.00000000000E+00 0. -1.
         11    1    3    3    0    0  0.28634784261E+01 -0.51082800179E+01 -0.12866502406E+01  0.59957904017E+01  0.51100000000E-03 0. -1.
        -11    1    3    3    0    0  0.10301664895E+02  0.70326048885E+01  0.10412206181E+02  0.16247949684E+02  0.51100000000E-03 0.  1.
         12    1    3    3    0    0  0.11961681263E+02  0.23482812240E+02  0.10272505699E+02  0.28285131477E+02  0.00000000000E+00 0. -1.
</event>
<event>
 7    1  0.6046695E-013  0.5052886E+02  0.7816164E-02  0.1300439E+00
        -11   -1    0    0    0    0  0.00000000000E+00  0.00000000000E+00  0.45593999997E+02  0.45594000000E+02  0.51100000000E-03 0.  1.
         11   -1    0    0    0    0 -0.00000000000E+00 -0.00000000000E+00 -0.45593999997E+02  0.45594000000E+02  0.51100000000E-03 0. -1.
    9900012    2    1    2    0    0 -0.27343903171E+02 -0.63588540335E+01  0.29411588088E+02  0.50528861063E+02  0.30000003686E+02 0.  0.
         12    1    1    2    0    0  0.27343903171E+02  0.63588540335E+01 -0.29411588088E+02  0.40659138937E+02  0.00000000000E+00 0. -1.
         11    1    3    3    0    0 -0.17427826311E+02  0.43674362881E+00  0.10673006483E+02  0.20440962369E+02  0.51100000000E-03 0. -1.
        -11    1    3    3    0    0 -0.31484175211E+01 -0.93253304232E+01 -0.17214181425E+00  0.98439805696E+01  0.51100000000E-03 0.  1.
        -12    1    3    3    0    0 -0.67676593397E+01  0.25297327608E+01  0.18910723419E+02  0.20243918124E+02  0.00000000000E+00 0.  1.
</event>
<event>
 7    1  0.6046695E-013  0.5052886E+02  0.7816164E-02  0.1300439E+00
        -11   -1    0    0    0    0  0.00000000000E+00  0.00000000000E+00  0.45593999997E+02  0.45594000000E+02  0.51100000000E-03 0.  1.
         11   -1    0    0    0    0 -0.00000000000E+00 -0.00000000000E+00 -0.45593999997E+02  0.45594000000E+02  0.51100000000E-03 0. -1.
    9900012    2    1    2    0    0  0.39976029438E+02 -0.73899230431E+01 -0.68704209214E+00  0.50528856882E+02  0.29999990980E+02 0.  0.
         12    1    1    2    0    0 -0.39976029438E+02  0.73899230431E+01  0.68704209214E+00  0.40659143118E+02  0.00000000000E+00 0. -1.
         11    1    3    3    0    0  0.74196213923E+01 -0.53973434209E+01 -0.91770099843E+01  0.12976887536E+02  0.51100000000E-03 0. -1.
        -11    1    3    3    0    0  0.32085089447E+02  0.92146163727E+00  0.42396108972E+01  0.32377096182E+02  0.51100000000E-03 0.  1.
        -12    1    3    3    0    0  0.47131859899E+00 -0.29140412595E+01  0.42503569950E+01  0.51748731645E+01  0.00000000000E+00 0.  1.
</event>
<event>
 7    1  0.6046695E-013  0.5052886E+02  0.7816164E-02  0.1300439E+00
        -11   -1    0    0    0    0  0.00000000000E+00  0.00000000000E+00  0.45593999997E+02  0.45594000000E+02  0.51100000000E-03 0.  1.
         11   -1    0    0    0    0 -0.00000000000E+00 -0.00000000000E+00 -0.45593999997E+02  0.45594000000E+02  0.51100000000E-03 0. -1.
    9900012    2    1    2    0    0 -0.19644688669E+02 -0.27216711959E+02  0.22945633881E+02  0.50528864286E+02  0.30000013485E+02 0.  0.
         12    1    1    2    0    0  0.19644688669E+02  0.27216711959E+02 -0.22945633881E+02  0.40659135714E+02  0.00000000000E+00 0. -1.
         11    1    3    3    0    0 -0.13841616172E+02 -0.14387209746E+02 -0.24022747137E+01  0.20108532184E+02  0.51100000000E-03 0. -1.
        -11    1    3    3    0    0 -0.62369937104E+00 -0.10955770579E+02  0.13842042599E+02  0.17664089375E+02  0.51100000000E-03 0.  1.
         12    1    3    3    0    0 -0.51793731263E+01 -0.18737316347E+01  0.11505865995E+02  0.12756242728E+02  0.00000000000E+00 0. -1.
</event>
<event>
 7    1  0.6046695E-013  0.5052886E+02  0.7816164E-02  0.1300439E+00
        -11   -1    0    0    0    0  0.00000000000E+00  0.00000000000E+00  0.45593999997E+02  0.45594000000E+02  0.51100000000E-03 0. -1.
         11   -1    0    0    0    0 -0.00000000000E+00 -0.00000000000E+00 -0.45593999997E+02  0.45594000000E+02  0.51100000000E-03 0.  1.
    9900012    2    1    2    0    0  0.88562061821E+01  0.37939801963E+02 -0.11632060092E+02  0.50528858556E+02  0.29999996068E+02 0.  0.
         12    1    1    2    0    0 -0.88562061821E+01 -0.37939801963E+02  0.11632060092E+02  0.40659141444E+02  0.00000000000E+00 0. -1.
         11    1    3    3    0    0 -0.95063022266E+01  0.11974657721E+02 -0.34541395374E+01  0.15674606526E+02  0.51100000000E-03 0.  1.
        -11    1    3    3    0    0  0.10764604019E+02  0.12486790226E+02  0.15801225103E+01  0.16561805978E+02  0.51100000000E-03 0. -1.
        -12    1    3    3    0    0  0.75979043896E+01  0.13478354016E+02 -0.97580430652E+01  0.18292446052E+02  0.00000000000E+00 0.  1.
</event>
<event>
 7    1  0.6046695E-013  0.5052887E+02  0.7816164E-02  0.1300439E+00
        -11   -1    0    0    0    0  0.00000000000E+00  0.00000000000E+00  0.45593999997E+02  0.45594000000E+02  0.51100000000E-03 0.  1.
         11   -1    0    0    0    0 -0.00000000000E+00 -0.00000000000E+00 -0.45593999997E+02  0.45594000000E+02  0.51100000000E-03 0. -1.
    9900012    2    1    2    0    0 -0.22182398872E+02  0.20616547713E+01  0.34012586057E+02  0.50528865105E+02  0.30000015973E+02 0.  0.
         12    1    1    2    0    0  0.22182398872E+02 -0.20616547713E+01 -0.34012586057E+02  0.40659134895E+02  0.00000000000E+00 0. -1.
         11    1    3    3    0    0  0.10823784270E+01 -0.77919220076E+01  0.54859280819E+00  0.78858446575E+01  0.51100000000E-03 0. -1.
        -11    1    3    3    0    0 -0.69227879249E+01 -0.78472796213E-01  0.12333905354E+02  0.14144128540E+02  0.51100000000E-03 0.  1.
         12    1    3    3    0    0 -0.16341989374E+02  0.99320495752E+01  0.21130087895E+02  0.28498891907E+02  0.00000000000E+00 0. -1.
</event>
<event>
 7    1  0.6046695E-013  0.5052883E+02  0.7816164E-02  0.1300439E+00
        -11   -1    0    0    0    0  0.00000000000E+00  0.00000000000E+00  0.45593999997E+02  0.45594000000E+02  0.51100000000E-03 0. -1.
         11   -1    0    0    0    0 -0.00000000000E+00 -0.00000000000E+00 -0.45593999997E+02  0.45594000000E+02  0.51100000000E-03 0.  1.
    9900012    2    1    2    0    0 -0.38496142444E+02  0.10620046410E+02  0.76439151322E+01  0.50528833661E+02  0.29999920395E+02 0.  0.
         12    1    1    2    0    0  0.38496142444E+02 -0.10620046410E+02 -0.76439151322E+01  0.40659166339E+02  0.00000000000E+00 0. -1.
         11    1    3    3    0    0 -0.25663575374E+01  0.29678201043E+00  0.41714854075E+01  0.49066853717E+01  0.51100000000E-03 0. -1.
        -11    1    3    3    0    0 -0.38013139933E+02  0.14478487764E+02  0.42894961346E+01  0.40902630635E+02  0.51100000000E-03 0.  1.
        -12    1    3    3    0    0  0.20833550261E+01 -0.41552233642E+01 -0.81706640994E+00  0.47195176543E+01  0.00000000000E+00 0.  1.
</event>
<event>
 7    1  0.6046695E-013  0.5052886E+02  0.7816164E-02  0.1300439E+00
        -11   -1    0    0    0    0  0.00000000000E+00  0.00000000000E+00  0.45593999997E+02  0.45594000000E+02  0.51100000000E-03 0. -1.
         11   -1    0    0    0    0 -0.00000000000E+00 -0.00000000000E+00 -0.45593999997E+02  0.45594000000E+02  0.51100000000E-03 0.  1.
    9900012    2    1    2    0    0  0.62469817654E+01 -0.40175461046E+02  0.27122153287E+00  0.50528855732E+02  0.29999987484E+02 0.  0.
         12    1    1    2    0    0 -0.62469817654E+01  0.40175461046E+02 -0.27122153287E+00  0.40659144268E+02  0.00000000000E+00 0. -1.
         11    1    3    3    0    0 -0.22909137659E+01  0.28519040879E+01  0.29887439015E+01  0.47237943625E+01  0.51100000000E-03 0. -1.
        -11    1    3    3    0    0  0.94652475211E+01 -0.35180468798E+02 -0.65622329744E+01  0.37017822699E+02  0.51100000000E-03 0.  1.
        -12    1    3    3    0    0 -0.92735198980E+00 -0.78468963363E+01  0.38447106058E+01  0.87872386714E+01  0.00000000000E+00 0.  1.
</event>
<event>
 7    1  0.6046695E-013  0.5052885E+02  0.7816164E-02  0.1300439E+00
        -11   -1    0    0    0    0  0.00000000000E+00  0.00000000000E+00  0.45593999997E+02  0.45594000000E+02  0.51100000000E-03 0.  1.
         11   -1    0    0    0    0 -0.00000000000E+00 -0.00000000000E+00 -0.45593999997E+02  0.45594000000E+02  0.51100000000E-03 0. -1.
    9900012    2    1    2    0    0 -0.16150086651E+02  0.33973486087E+02  0.15431894097E+02  0.50528850831E+02  0.29999972586E+02 0.  0.
         12    1    1    2    0    0  0.16150086651E+02 -0.33973486087E+02 -0.15431894097E+02  0.40659149169E+02  0.00000000000E+00 0. -1.
         11    1    3    3    0    0 -0.68967576607E+01  0.61007098418E+01  0.38022591143E+01  0.99619828065E+01  0.51100000000E-03 0. -1.
        -11    1    3    3    0    0 -0.49905142736E+01  0.13542370020E+02 -0.75181946397E+01  0.16273422177E+02  0.51100000000E-03 0.  1.
        -12    1    3    3    0    0 -0.42628147171E+01  0.14330406225E+02  0.19147829622E+02  0.24293445847E+02  0.00000000000E+00 0.  1.
</event>
<event>
 7    1  0.6046695E-013  0.5052886E+02  0.7816164E-02  0.1300439E+00
        -11   -1    0    0    0    0  0.00000000000E+00  0.00000000000E+00  0.45593999997E+02  0.45594000000E+02  0.51100000000E-03 0.  1.
         11   -1    0    0    0    0 -0.00000000000E+00 -0.00000000000E+00 -0.45593999997E+02  0.45594000000E+02  0.51100000000E-03 0. -1.
    9900012    2    1    2    0    0 -0.14521269277E+02  0.92789270526E+01  0.36826619228E+02  0.50528860407E+02  0.30000001693E+02 0.  0.
         12    1    1    2    0    0  0.14521269277E+02 -0.92789270526E+01 -0.36826619228E+02  0.40659139593E+02  0.00000000000E+00 0. -1.
         11    1    3    3    0    0 -0.71938827204E+01  0.24682557983E+01  0.24874453779E+02  0.26011203093E+02  0.51100000000E-03 0. -1.
        -11    1    3    3    0    0 -0.24016281330E+01  0.12377416991E+02  0.31480562738E+01  0.12995327145E+02  0.51100000000E-03 0.  1.
         12    1    3    3    0    0 -0.49257584233E+01 -0.55667457365E+01  0.88041091753E+01  0.11522330168E+02  0.00000000000E+00 0. -1.
</event>
<event>
 7    1  0.6046695E-013  0.5052886E+02  0.7816164E-02  0.1300439E+00
        -11   -1    0    0    0    0  0.00000000000E+00  0.00000000000E+00  0.45593999997E+02  0.45594000000E+02  0.51100000000E-03 0.  1.
         11   -1    0    0    0    0 -0.00000000000E+00 -0.00000000000E+00 -0.45593999997E+02  0.45594000000E+02  0.51100000000E-03 0. -1.
    9900012    2    1    2    0    0  0.75129914097E+01 -0.32649980026E+02  0.23036919628E+02  0.50528857098E+02  0.29999991634E+02 0.  0.
         12    1    1    2    0    0 -0.75129914097E+01  0.32649980026E+02 -0.23036919628E+02  0.40659142902E+02  0.00000000000E+00 0. -1.
         11    1    3    3    0    0 -0.20877103510E+01  0.57597501986E+00  0.95916413286E+01  0.98331004964E+01  0.51100000000E-03 0. -1.
        -11    1    3    3    0    0  0.97004255685E+01 -0.25151262195E+02  0.17003075236E+02  0.31871441981E+02  0.51100000000E-03 0.  1.
        -12    1    3    3    0    0 -0.99723807782E-01 -0.80746928506E+01 -0.35577969369E+01  0.88243146200E+01  0.00000000000E+00 0.  1.
</event>
<event>
 7    1  0.6046695E-013  0.5052887E+02  0.7816164E-02  0.1300439E+00
        -11   -1    0    0    0    0  0.00000000000E+00  0.00000000000E+00  0.45593999997E+02  0.45594000000E+02  0.51100000000E-03 0.  1.
         11   -1    0    0    0    0 -0.00000000000E+00 -0.00000000000E+00 -0.45593999997E+02  0.45594000000E+02  0.51100000000E-03 0. -1.
    9900012    2    1    2    0    0 -0.24213973336E+00  0.60178296612E+01  0.40210597643E+02  0.50528867345E+02  0.30000022781E+02 0.  0.
         12    1    1    2    0    0  0.24213973336E+00 -0.60178296612E+01 -0.40210597643E+02  0.40659132655E+02  0.00000000000E+00 0. -1.
         11    1    3    3    0    0  0.14556302782E+01  0.93543985107E+01  0.11308844253E+00  0.94676512537E+01  0.51100000000E-03 0. -1.
        -11    1    3    3    0    0 -0.26661934063E+01 -0.53086354661E+01  0.20573850703E+02  0.21414330034E+02  0.51100000000E-03 0.  1.
         12    1    3    3    0    0  0.96842339468E+00  0.19720666166E+01  0.19523658497E+02  0.19646886057E+02  0.00000000000E+00 0. -1.
</event>
<event>
 7    1  0.6046695E-013  0.5052887E+02  0.7816164E-02  0.1300439E+00
        -11   -1    0    0    0    0  0.00000000000E+00  0.00000000000E+00  0.45593999997E+02  0.45594000000E+02  0.51100000000E-03 0.  1.
         11   -1    0    0    0    0 -0.00000000000E+00 -0.00000000000E+00 -0.45593999997E+02  0.45594000000E+02  0.51100000000E-03 0. -1.
    9900012    2    1    2    0    0 -0.22788744932E+02 -0.22845612182E+02  0.24736941186E+02  0.50528866330E+02  0.30000019698E+02 0.  0.
         12    1    1    2    0    0  0.22788744932E+02  0.22845612182E+02 -0.24736941186E+02  0.40659133670E+02  0.00000000000E+00 0. -1.
         11    1    3    3    0    0 -0.44655661352E+01 -0.15118183125E+02  0.60359095503E+01  0.16879956939E+02  0.51100000000E-03 0. -1.
        -11    1    3    3    0    0 -0.18736455158E+02 -0.61653727581E+01  0.22259112727E+02  0.29741127631E+02  0.51100000000E-03 0.  1.
         12    1    3    3    0    0  0.41327636163E+00 -0.15620562988E+01 -0.35580810911E+01  0.39077817599E+01  0.00000000000E+00 0. -1.
</event>
<event>
 7    1  0.6046695E-013  0.5052885E+02  0.7816164E-02  0.1300439E+00
        -11   -1    0    0    0    0  0.00000000000E+00  0.00000000000E+00  0.45593999997E+02  0.45594000000E+02  0.51100000000E-03 0. -1.
         11   -1    0    0    0    0 -0.00000000000E+00 -0.00000000000E+00 -0.45593999997E+02  0.45594000000E+02  0.51100000000E-03 0.  1.
    9900012    2    1    2    0    0 -0.10437758127E+02  0.28669457830E+02  0.26875303563E+02  0.50528849141E+02  0.29999967450E+02 0.  0.
         12    1    1    2    0    0  0.10437758127E+02 -0.28669457830E+02 -0.26875303563E+02  0.40659150859E+02  0.00000000000E+00 0. -1.
         11    1    3    3    0    0 -0.36587655344E+01 -0.35720772461E+01  0.11789194034E+02  0.12850346195E+02  0.51100000000E-03 0. -1.
        -11    1    3    3    0    0 -0.25644933593E+01  0.17427753374E+02  0.13503714316E+02  0.22195799477E+02  0.51100000000E-03 0.  1.
        -12    1    3    3    0    0 -0.42144992338E+01  0.14813781702E+02  0.15823952124E+01  0.15482703469E+02  0.00000000000E+00 0.  1.
</event>
<event>
 7    1  0.6046695E-013  0.5052886E+02  0.7816164E-02  0.1300439E+00
        -11   -1    0    0    0    0  0.00000000000E+00  0.00000000000E+00  0.45593999997E+02  0.45594000000E+02  0.51100000000E-03 0. -1.
         11   -1    0    0    0    0 -0.00000000000E+00 -0.00000000000E+00 -0.45593999997E+02  0.45594000000E+02  0.51100000000E-03 0.  1.
    9900012    2    1    2    0    0  0.14295256575E+02  0.33836468974E+02 -0.17432870322E+02  0.50528856369E+02  0.29999989419E+02 0.  0.
         12    1    1    2    0    0 -0.14295256575E+02 -0.33836468974E+02  0.17432870322E+02  0.40659143631E+02  0.00000000000E+00 0. -1.
         11    1    3    3    0    0 -0.65085513840E+01  0.19407073291E+02 -0.79649831581E+01  0.21964441532E+02  0.51100000000E-03 0. -1.
        -11    1    3    3    0    0  0.51229393094E+01  0.60790270524E+01 -0.70678794759E+01  0.10637386785E+02  0.51100000000E-03 0.  1.
         12    1    3    3    0    0  0.15680868650E+02  0.83503686303E+01 -0.24000076875E+01  0.17927028052E+02  0.00000000000E+00 0. -1.
</event>
<event>
 7    1  0.6046695E-013  0.5052885E+02  0.7816164E-02  0.1300439E+00
        -11   -1    0    0    0    0  0.00000000000E+00  0.00000000000E+00  0.45593999997E+02  0.45594000000E+02  0.51100000000E-03 0.  1.
         11   -1    0    0    0    0 -0.00000000000E+00 -0.00000000000E+00 -0.45593999997E+02  0.45594000000E+02  0.51100000000E-03 0. -1.
    9900012    2    1    2    0    0  0.10563415176E+02  0.26701786293E+02  0.28785326597E+02  0.50528853935E+02  0.29999982022E+02 0.  0.
         12    1    1    2    0    0 -0.10563415176E+02 -0.26701786293E+02 -0.28785326597E+02  0.40659146065E+02  0.00000000000E+00 0. -1.
         11    1    3    3    0    0  0.22911030278E+01 -0.13615224114E+01  0.80214309607E+01  0.84525884366E+01  0.51100000000E-03 0. -1.
        -11    1    3    3    0    0  0.67068319028E+01  0.10761869110E+02 -0.26170831095E+01  0.12947916635E+02  0.51100000000E-03 0.  1.
        -12    1    3    3    0    0  0.15654802455E+01  0.17301439594E+02  0.23380978746E+02  0.29128348864E+02  0.00000000000E+00 0.  1.
</event>
<event>
 7    1  0.6046695E-013  0.5052886E+02  0.7816164E-02  0.1300439E+00
        -11   -1    0    0    0    0  0.00000000000E+00  0.00000000000E+00  0.45593999997E+02  0.45594000000E+02  0.51100000000E-03 0.  1.
         11   -1    0    0    0    0 -0.00000000000E+00 -0.00000000000E+00 -0.45593999997E+02  0.45594000000E+02  0.51100000000E-03 0. -1.
    9900012    2    1    2    0    0 -0.16845719636E+02 -0.62757332995E+01  0.36469194729E+02  0.50528864954E+02  0.30000015515E+02 0.  0.
         12    1    1    2    0    0  0.16845719636E+02  0.62757332995E+01 -0.36469194729E+02  0.40659135046E+02  0.00000000000E+00 0. -1.
         11    1    3    3    0    0 -0.17388586958E+01 -0.58837927084E+00 -0.36659027085E+00  0.18719531025E+01  0.51100000000E-03 0.  1.
        -11    1    3    3    0    0 -0.15035177558E+02  0.76426090947E+01  0.12804025876E+02  0.21175672761E+02  0.51100000000E-03 0. -1.
        -12    1    3    3    0    0 -0.71683382191E-01 -0.13329963123E+02  0.24031759124E+02  0.27481239091E+02  0.00000000000E+00 0.  1.
</event>
<event>
 7    1  0.6046695E-013  0.5052886E+02  0.7816164E-02  0.1300439E+00
        -11   -1    0    0    0    0  0.00000000000E+00  0.00000000000E+00  0.45593999997E+02  0.45594000000E+02  0.51100000000E-03 0. -1.
         11   -1    0    0    0    0 -0.00000000000E+00 -0.00000000000E+00 -0.45593999997E+02  0.45594000000E+02  0.51100000000E-03 0.  1.
    9900012    2    1    2    0    0 -0.11391230929E+02 -0.13656123927E+02 -0.36563857504E+02  0.50528861563E+02  0.30000005208E+02 0.  0.
         12    1    1    2    0    0  0.11391230929E+02  0.13656123927E+02  0.36563857504E+02  0.40659138437E+02  0.00000000000E+00 0. -1.
         11    1    3    3    0    0  0.52218439180E+01  0.10753168316E+00 -0.23563837134E+01  0.57299006477E+01  0.51100000000E-03 0. -1.
        -11    1    3    3    0    0 -0.16762182115E+02 -0.72969922602E+01 -0.33664079549E+02  0.38307794213E+02  0.51100000000E-03 0.  1.
        -12    1    3    3    0    0  0.14910726835E+00 -0.64666633504E+01 -0.54339424227E+00  0.64911667031E+01  0.00000000000E+00 0.  1.
</event>
<event>
 7    1  0.6046695E-013  0.5052886E+02  0.7816164E-02  0.1300439E+00
        -11   -1    0    0    0    0  0.00000000000E+00  0.00000000000E+00  0.45593999997E+02  0.45594000000E+02  0.51100000000E-03 0. -1.
         11   -1    0    0    0    0 -0.00000000000E+00 -0.00000000000E+00 -0.45593999997E+02  0.45594000000E+02  0.51100000000E-03 0.  1.
    9900012    2    1    2    0    0  0.16841258505E+02  0.30133791677E+02 -0.21482376295E+02  0.50528857361E+02  0.29999992435E+02 0.  0.
         12    1    1    2    0    0 -0.16841258505E+02 -0.30133791677E+02  0.21482376295E+02  0.40659142639E+02  0.00000000000E+00 0. -1.
         11    1    3    3    0    0 -0.28138444944E+01  0.14088977072E+01 -0.16542983063E+01  0.35551957380E+01  0.51100000000E-03 0. -1.
        -11    1    3    3    0    0  0.17440693217E+02  0.98153293249E+01 -0.75902786393E+00  0.20027346135E+02  0.51100000000E-03 0.  1.
        -12    1    3    3    0    0  0.22144097827E+01  0.18909564645E+02 -0.19069050125E+02  0.26946315488E+02  0.00000000000E+00 0.  1.
</event>
<event>
 7    1  0.6046695E-013  0.5052886E+02  0.7816164E-02  0.1300439E+00
        -11   -1    0    0    0    0  0.00000000000E+00  0.00000000000E+00  0.45593999997E+02  0.45594000000E+02  0.51100000000E-03 0.  1.
         11   -1    0    0    0    0 -0.00000000000E+00 -0.00000000000E+00 -0.45593999997E+02  0.45594000000E+02  0.51100000000E-03 0. -1.
    9900012    2    1    2    0    0  0.38416981731E+02  0.10238960536E+02  0.85126201259E+01  0.50528862041E+02  0.30000006660E+02 0.  0.
         12    1    1    2    0    0 -0.38416981731E+02 -0.10238960536E+02 -0.85126201259E+01  0.40659137959E+02  0.00000000000E+00 0. -1.
         11    1    3    3    0    0  0.31003251770E+01  0.30293593453E+01  0.65758933059E+01  0.78760019857E+01  0.51100000000E-03 0. -1.
        -11    1    3    3    0    0  0.14766962801E+02 -0.79655060035E+01 -0.16394143005E+01  0.16858237030E+02  0.51100000000E-03 0.  1.
        -12    1    3    3    0    0  0.20549693753E+02  0.15175107195E+02  0.35761411205E+01  0.25794623025E+02  0.00000000000E+00 0.  1.
</event>
<event>
 7    1  0.6046695E-013  0.5052888E+02  0.7816164E-02  0.1300439E+00
        -11   -1    0    0    0    0  0.00000000000E+00  0.00000000000E+00  0.45593999997E+02  0.45594000000E+02  0.51100000000E-03 0. -1.
         11   -1    0    0    0    0 -0.00000000000E+00 -0.00000000000E+00 -0.45593999997E+02  0.45594000000E+02  0.51100000000E-03 0.  1.
    9900012    2    1    2    0    0 -0.29846553548E+02 -0.21994281222E+02 -0.16691269618E+02  0.50528884828E+02  0.30000075923E+02 0.  0.
         12    1    1    2    0    0  0.29846553548E+02  0.21994281222E+02  0.16691269618E+02  0.40659115172E+02  0.00000000000E+00 0. -1.
         11    1    3    3    0    0 -0.25034806718E+02 -0.16166887117E+02 -0.54931734756E+01  0.30303213386E+02  0.51100000000E-03 0. -1.
        -11    1    3    3    0    0 -0.54911403837E+01 -0.76089138288E+01 -0.13989639310E+02  0.16845123943E+02  0.51100000000E-03 0.  1.
         12    1    3    3    0    0  0.67939355405E+00  0.17815197240E+01  0.27915431682E+01  0.33805474983E+01  0.00000000000E+00 0. -1.
</event>
<event>
 7    1  0.6046695E-013  0.5052884E+02  0.7816164E-02  0.1300439E+00
        -11   -1    0    0    0    0  0.00000000000E+00  0.00000000000E+00  0.45593999997E+02  0.45594000000E+02  0.51100000000E-03 0. -1.
         11   -1    0    0    0    0 -0.00000000000E+00 -0.00000000000E+00 -0.45593999997E+02  0.45594000000E+02  0.51100000000E-03 0.  1.
    9900012    2    1    2    0    0 -0.19561788151E+02  0.67140300236E+00 -0.35637805766E+02  0.50528836980E+02  0.29999930484E+02 0.  0.
         12    1    1    2    0    0  0.19561788151E+02 -0.67140300236E+00  0.35637805766E+02  0.40659163020E+02  0.00000000000E+00 0. -1.
         11    1    3    3    0    0 -0.98720482470E+01 -0.14422632539E+01 -0.90621240817E+00  0.10017918001E+02  0.51100000000E-03 0. -1.
        -11    1    3    3    0    0 -0.15641532097E+00  0.89578831670E+01 -0.12603867493E+02  0.15463686903E+02  0.51100000000E-03 0.  1.
         12    1    3    3    0    0 -0.95333245833E+01 -0.68442169107E+01 -0.22127725865E+02  0.25047232076E+02  0.00000000000E+00 0. -1.
</event>
<event>
 7    1  0.6046695E-013  0.5052886E+02  0.7816164E-02  0.1300439E+00
        -11   -1    0    0    0    0  0.00000000000E+00  0.00000000000E+00  0.45593999997E+02  0.45594000000E+02  0.51100000000E-03 0.  1.
         11   -1    0    0    0    0 -0.00000000000E+00 -0.00000000000E+00 -0.45593999997E+02  0.45594000000E+02  0.51100000000E-03 0. -1.
    9900012    2    1    2    0    0 -0.26690321097E+02 -0.28041911409E+02  0.12427549219E+02  0.50528855699E+02  0.29999987382E+02 0.  0.
         12    1    1    2    0    0  0.26690321097E+02  0.28041911409E+02 -0.12427549219E+02  0.40659144301E+02  0.00000000000E+00 0. -1.
         11    1    3    3    0    0 -0.10643049977E+02  0.42970361341E+01 -0.19428575862E+01  0.11641036389E+02  0.51100000000E-03 0. -1.
        -11    1    3    3    0    0 -0.11522413497E+02 -0.22015610416E+02  0.93618571549E+01  0.26553671770E+02  0.51100000000E-03 0.  1.
         12    1    3    3    0    0 -0.45248576218E+01 -0.10323337127E+02  0.50085496504E+01  0.12334147540E+02  0.00000000000E+00 0. -1.
</event>
<event>
 7    1  0.6046695E-013  0.5052887E+02  0.7816164E-02  0.1300439E+00
        -11   -1    0    0    0    0  0.00000000000E+00  0.00000000000E+00  0.45593999997E+02  0.45594000000E+02  0.51100000000E-03 0. -1.
         11   -1    0    0    0    0 -0.00000000000E+00 -0.00000000000E+00 -0.45593999997E+02  0.45594000000E+02  0.51100000000E-03 0.  1.
    9900012    2    1    2    0    0  0.11040098915E+02 -0.28187274620E+02 -0.27143297170E+02  0.50528870450E+02  0.30000032219E+02 0.  0.
         12    1    1    2    0    0 -0.11040098915E+02  0.28187274620E+02  0.27143297170E+02  0.40659129550E+02  0.00000000000E+00 0. -1.
         11    1    3    3    0    0 -0.83782060650E+01 -0.15263954928E+02 -0.87128268588E+01  0.19470388004E+02  0.51100000000E-03 0. -1.
        -11    1    3    3    0    0  0.79571364914E+01 -0.42220871306E+01 -0.20183061100E+01  0.92312296416E+01  0.51100000000E-03 0.  1.
        -12    1    3    3    0    0  0.11461168488E+02 -0.87012325615E+01 -0.16412164201E+02  0.21827252804E+02  0.00000000000E+00 0.  1.
</event>
<event>
 7    1  0.6046695E-013  0.5052887E+02  0.7816164E-02  0.1300439E+00
        -11   -1    0    0    0    0  0.00000000000E+00  0.00000000000E+00  0.45593999997E+02  0.45594000000E+02  0.51100000000E-03 0.  1.
         11   -1    0    0    0    0 -0.00000000000E+00 -0.00000000000E+00 -0.45593999997E+02  0.45594000000E+02  0.51100000000E-03 0. -1.
    9900012    2    1    2    0    0 -0.59443395572E+01  0.21589928202E+02  0.33936773883E+02  0.50528870717E+02  0.30000033030E+02 0.  0.
         12    1    1    2    0    0  0.59443395572E+01 -0.21589928202E+02 -0.33936773883E+02  0.40659129283E+02  0.00000000000E+00 0. -1.
         11    1    3    3    0    0 -0.45921645480E+01  0.18115498242E+02  0.41499731870E+01  0.19143707309E+02  0.51100000000E-03 0. -1.
        -11    1    3    3    0    0 -0.31844887765E+01  0.44989467960E+01  0.94478512727E+01  0.10938161864E+02  0.51100000000E-03 0.  1.
         12    1    3    3    0    0  0.18323137672E+01 -0.10245168368E+01  0.20338949423E+02  0.20447001544E+02  0.00000000000E+00 0. -1.
</event>
<event>
 7    1  0.6046695E-013  0.5052888E+02  0.7816164E-02  0.1300439E+00
        -11   -1    0    0    0    0  0.00000000000E+00  0.00000000000E+00  0.45593999997E+02  0.45594000000E+02  0.51100000000E-03 0. -1.
         11   -1    0    0    0    0 -0.00000000000E+00 -0.00000000000E+00 -0.45593999997E+02  0.45594000000E+02  0.51100000000E-03 0.  1.
    9900012    2    1    2    0    0  0.39957306483E+02 -0.65622079581E+01 -0.36762968167E+01  0.50528879585E+02  0.30000059986E+02 0.  0.
         12    1    1    2    0    0 -0.39957306483E+02  0.65622079581E+01  0.36762968167E+01  0.40659120415E+02  0.00000000000E+00 0. -1.
         11    1    3    3    0    0  0.67366301492E+01  0.50593118355E+01 -0.56908454217E+01  0.10166835490E+02  0.51100000000E-03 0. -1.
        -11    1    3    3    0    0  0.32575989606E+02 -0.43600050253E+01  0.30113456748E+01  0.33004135281E+02  0.51100000000E-03 0.  1.
        -12    1    3    3    0    0  0.64468672752E+00 -0.72615147682E+01 -0.99679706993E+00  0.73579088133E+01  0.00000000000E+00 0.  1.
</event>
<event>
 7    1  0.6046695E-013  0.5052883E+02  0.7816164E-02  0.1300439E+00
        -11   -1    0    0    0    0  0.00000000000E+00  0.00000000000E+00  0.45593999997E+02  0.45594000000E+02  0.51100000000E-03 0.  1.
         11   -1    0    0    0    0 -0.00000000000E+00 -0.00000000000E+00 -0.45593999997E+02  0.45594000000E+02  0.51100000000E-03 0. -1.
    9900012    2    1    2    0    0 -0.29913482469E+02 -0.97981945240E+00  0.27520747504E+02  0.50528831012E+02  0.29999912344E+02 0.  0.
         12    1    1    2    0    0  0.29913482469E+02  0.97981945240E+00 -0.27520747504E+02  0.40659168988E+02  0.00000000000E+00 0. -1.
         11    1    3    3    0    0 -0.11192822735E+02 -0.13893436309E+02  0.13412594368E+02  0.22320495989E+02  0.51100000000E-03 0. -1.
        -11    1    3    3    0    0 -0.14553770351E+02  0.67509151339E+01  0.58078794139E+01  0.17062196521E+02  0.51100000000E-03 0.  1.
         12    1    3    3    0    0 -0.41668893833E+01  0.61627017224E+01  0.83002737217E+01  0.11146138502E+02  0.00000000000E+00 0. -1.
</event>
<event>
 7    1  0.6046695E-013  0.5052889E+02  0.7816164E-02  0.1300439E+00
        -11   -1    0    0    0    0  0.00000000000E+00  0.00000000000E+00  0.45593999997E+02  0.45594000000E+02  0.51100000000E-03 0. -1.
         11   -1    0    0    0    0 -0.00000000000E+00 -0.00000000000E+00 -0.45593999997E+02  0.45594000000E+02  0.51100000000E-03 0.  1.
    9900012    2    1    2    0    0  0.33625727092E+02 -0.41725023968E+01 -0.22473629603E+02  0.50528888767E+02  0.30000087897E+02 0.  0.
         12    1    1    2    0    0 -0.33625727092E+02  0.41725023968E+01  0.22473629603E+02  0.40659111233E+02  0.00000000000E+00 0. -1.
         11    1    3    3    0    0  0.13012203519E+02 -0.14752872807E+02 -0.17195963756E+02  0.26127875272E+02  0.51100000000E-03 0. -1.
        -11    1    3    3    0    0  0.58668023495E+01  0.59669822909E+01 -0.20642858856E+01  0.86189050318E+01  0.51100000000E-03 0.  1.
         12    1    3    3    0    0  0.14746721223E+02  0.46133881190E+01 -0.32133799617E+01  0.15782108464E+02  0.00000000000E+00 0. -1.
</event>
<event>
 7    1  0.6046695E-013  0.5052882E+02  0.7816164E-02  0.1300439E+00
        -11   -1    0    0    0    0  0.00000000000E+00  0.00000000000E+00  0.45593999997E+02  0.45594000000E+02  0.51100000000E-03 0. -1.
         11   -1    0    0    0    0 -0.00000000000E+00 -0.00000000000E+00 -0.45593999997E+02  0.45594000000E+02  0.51100000000E-03 0.  1.
    9900012    2    1    2    0    0 -0.15762768838E+02  0.23006542323E+02 -0.29587216493E+02  0.50528815910E+02  0.29999866440E+02 0.  0.
         12    1    1    2    0    0  0.15762768838E+02 -0.23006542323E+02  0.29587216493E+02  0.40659184090E+02  0.00000000000E+00 0. -1.
         11    1    3    3    0    0 -0.77938679199E+01 -0.54507932001E+01 -0.76219504949E+01  0.12188094735E+02  0.51100000000E-03 0. -1.
        -11    1    3    3    0    0 -0.45072377796E+01  0.25861988622E+02 -0.21605333585E+02  0.33999236572E+02  0.51100000000E-03 0.  1.
        -12    1    3    3    0    0 -0.34616631383E+01  0.25953469007E+01 -0.35993241281E+00  0.43414846032E+01  0.00000000000E+00 0.  1.
</event>
<event>
 7    1  0.6046695E-013  0.5052886E+02  0.7816164E-02  0.1300439E+00
        -11   -1    0    0    0    0  0.00000000000E+00  0.00000000000E+00  0.45593999997E+02  0.45594000000E+02  0.51100000000E-03 0.  1.
         11   -1    0    0    0    0 -0.00000000000E+00 -0.00000000000E+00 -0.45593999997E+02  0.45594000000E+02  0.51100000000E-03 0. -1.
    9900012    2    1    2    0    0  0.18192013724E+02 -0.37012639172E+01  0.36173428870E+02  0.50528859894E+02  0.30000000134E+02 0.  0.
         12    1    1    2    0    0 -0.18192013724E+02  0.37012639172E+01 -0.36173428870E+02  0.40659140106E+02  0.00000000000E+00 0. -1.
         11    1    3    3    0    0  0.24871163146E+02 -0.51629493976E+01  0.24350121304E+02  0.35187486562E+02  0.51100000000E-03 0. -1.
        -11    1    3    3    0    0 -0.41985064140E+01  0.37780516190E+01  0.10009568425E+02  0.11493154070E+02  0.51100000000E-03 0.  1.
         12    1    3    3    0    0 -0.24806430087E+01 -0.23163661385E+01  0.18137391409E+01  0.38482192629E+01  0.00000000000E+00 0. -1.
</event>
<event>
 7    1  0.6046695E-013  0.5052886E+02  0.7816164E-02  0.1300439E+00
        -11   -1    0    0    0    0  0.00000000000E+00  0.00000000000E+00  0.45593999997E+02  0.45594000000E+02  0.51100000000E-03 0.  1.
         11   -1    0    0    0    0 -0.00000000000E+00 -0.00000000000E+00 -0.45593999997E+02  0.45594000000E+02  0.51100000000E-03 0. -1.
    9900012    2    1    2    0    0 -0.15495704604E+01  0.13240130186E+02  0.38411762174E+02  0.50528859708E+02  0.29999999569E+02 0.  0.
         12    1    1    2    0    0  0.15495704604E+01 -0.13240130186E+02 -0.38411762174E+02  0.40659140292E+02  0.00000000000E+00 0. -1.
         11    1    3    3    0    0 -0.39040645165E+00  0.19407439871E+02  0.14171798762E+02  0.24034163601E+02  0.51100000000E-03 0. -1.
        -11    1    3    3    0    0 -0.21529135098E+01 -0.22136101080E+01  0.15756603367E+01  0.34666716096E+01  0.51100000000E-03 0.  1.
         12    1    3    3    0    0  0.99374950106E+00 -0.39536995773E+01  0.22664303075E+02  0.23028024498E+02  0.00000000000E+00 0. -1.
</event>
<event>
 7    1  0.6046695E-013  0.5052886E+02  0.7816164E-02  0.1300439E+00
        -11   -1    0    0    0    0  0.00000000000E+00  0.00000000000E+00  0.45593999997E+02  0.45594000000E+02  0.51100000000E-03 0.  1.
         11   -1    0    0    0    0 -0.00000000000E+00 -0.00000000000E+00 -0.45593999997E+02  0.45594000000E+02  0.51100000000E-03 0. -1.
    9900012    2    1    2    0    0 -0.16980507846E+02 -0.35927438729E+02  0.86050519889E+01  0.50528863018E+02  0.30000009631E+02 0.  0.
         12    1    1    2    0    0  0.16980507846E+02  0.35927438729E+02 -0.86050519889E+01  0.40659136982E+02  0.00000000000E+00 0. -1.
         11    1    3    3    0    0  0.36483338307E+01 -0.14255962311E+02  0.10729274987E+02  0.18211538737E+02  0.51100000000E-03 0.  1.
        -11    1    3    3    0    0 -0.25493511782E+01  0.11004644897E+01 -0.16645429348E+01  0.32374244340E+01  0.51100000000E-03 0. -1.
         12    1    3    3    0    0 -0.18079490498E+02 -0.22771940908E+02 -0.45968006317E+00  0.29079899847E+02  0.00000000000E+00 0. -1.
</event>
<event>
 7    1  0.6046695E-013  0.5052886E+02  0.7816164E-02  0.1300439E+00
        -11   -1    0    0    0    0  0.00000000000E+00  0.00000000000E+00  0.45593999997E+02  0.45594000000E+02  0.51100000000E-03 0.  1.
         11   -1    0    0    0    0 -0.00000000000E+00 -0.00000000000E+00 -0.45593999997E+02  0.45594000000E+02  0.51100000000E-03 0. -1.
    9900012    2    1    2    0    0 -0.33675728984E+02  0.10667206468E+02  0.20132594676E+02  0.50528863453E+02  0.30000010950E+02 0.  0.
         12    1    1    2    0    0  0.33675728984E+02 -0.10667206468E+02 -0.20132594676E+02  0.40659136547E+02  0.00000000000E+00 0. -1.
         11    1    3    3    0    0 -0.11436888052E+02  0.12881520673E+02  0.44299079059E+01  0.17786513641E+02  0.51100000000E-03 0. -1.
        -11    1    3    3    0    0 -0.84589335473E+01 -0.84320082610E+01  0.15681895425E+01  0.12046225084E+02  0.51100000000E-03 0.  1.
        -12    1    3    3    0    0 -0.13779907384E+02  0.62176940558E+01  0.14134497227E+02  0.20696124728E+02  0.00000000000E+00 0.  1.
</event>
