<event>
 7    1  0.5467297E-010  0.4778727E+02  0.7816164E-02  0.1312668E+00
        -11   -1    0    0    0    0  0.00000000000E+00  0.00000000000E+00  0.45593999997E+02  0.45594000000E+02  0.51100000000E-03 0.  1.
         11   -1    0    0    0    0 -0.00000000000E+00 -0.00000000000E+00 -0.45593999997E+02  0.45594000000E+02  0.51100000000E-03 0. -1.
    9900012    2    1    2    0    0 -0.93189115542E+01 -0.29845932782E+02  0.30099860937E+02  0.47787269077E+02  0.19999991030E+02 0.  0.
         12    1    1    2    0    0  0.93189115542E+01  0.29845932782E+02 -0.30099860937E+02  0.43400730923E+02  0.00000000000E+00 0. -1.
         11    1    3    3    0    0  0.33456675389E+01 -0.33934722897E+01  0.19974754760E+00  0.47695958745E+01  0.51100000000E-03 0. -1.
        -11    1    3    3    0    0 -0.44254723152E+01 -0.18468859195E+02  0.22127283300E+02  0.29159907951E+02  0.51100000000E-03 0.  1.
         12    1    3    3    0    0 -0.82391067779E+01 -0.79836012972E+01  0.77728300895E+01  0.13857765252E+02  0.00000000000E+00 0. -1.
</event>
<event>
 7    1  0.5467297E-010  0.4778727E+02  0.7816164E-02  0.1312668E+00
        -11   -1    0    0    0    0  0.00000000000E+00  0.00000000000E+00  0.45593999997E+02  0.45594000000E+02  0.51100000000E-03 0. -1.
         11   -1    0    0    0    0 -0.00000000000E+00 -0.00000000000E+00 -0.45593999997E+02  0.45594000000E+02  0.51100000000E-03 0.  1.
    9900012    2    1    2    0    0  0.20790831807E+02 -0.31450661540E+02 -0.21499308562E+02  0.47787273426E+02  0.20000010860E+02 0.  0.
         12    1    1    2    0    0 -0.20790831807E+02  0.31450661540E+02  0.21499308562E+02  0.43400726574E+02  0.00000000000E+00 0. -1.
         11    1    3    3    0    0  0.16607862436E+01 -0.30466380490E+01 -0.14376488662E+00  0.34728781943E+01  0.51100000000E-03 0. -1.
        -11    1    3    3    0    0  0.14168963709E+02 -0.60502804860E+01 -0.12208292675E+02  0.19657259139E+02  0.51100000000E-03 0.  1.
        -12    1    3    3    0    0  0.49610818546E+01 -0.22353743005E+02 -0.91472509995E+01  0.24657136093E+02  0.00000000000E+00 0.  1.
</event>
<event>
 7    1  0.5467297E-010  0.4778732E+02  0.7816164E-02  0.1312668E+00
        -11   -1    0    0    0    0  0.00000000000E+00  0.00000000000E+00  0.45593999997E+02  0.45594000000E+02  0.51100000000E-03 0.  1.
         11   -1    0    0    0    0 -0.00000000000E+00 -0.00000000000E+00 -0.45593999997E+02  0.45594000000E+02  0.51100000000E-03 0. -1.
    9900012    2    1    2    0    0  0.35267600113E+02  0.24280176426E+02  0.70914145107E+01  0.47787323222E+02  0.20000237896E+02 0.  0.
         12    1    1    2    0    0 -0.35267600113E+02 -0.24280176426E+02 -0.70914145107E+01  0.43400676778E+02  0.00000000000E+00 0. -1.
         11    1    3    3    0    0 -0.41400665167E+00 -0.22205442080E+01 -0.33288794311E+00  0.22832066773E+01  0.51100000000E-03 0. -1.
        -11    1    3    3    0    0  0.31323602108E+02  0.20340526588E+02  0.61467589617E+01  0.37850861508E+02  0.51100000000E-03 0.  1.
         12    1    3    3    0    0  0.43580046571E+01  0.61601940464E+01  0.12775434921E+01  0.76532550366E+01  0.00000000000E+00 0. -1.
</event>
<event>
 7    1  0.5467297E-010  0.4778727E+02  0.7816164E-02  0.1312668E+00
        -11   -1    0    0    0    0  0.00000000000E+00  0.00000000000E+00  0.45593999997E+02  0.45594000000E+02  0.51100000000E-03 0.  1.
         11   -1    0    0    0    0 -0.00000000000E+00 -0.00000000000E+00 -0.45593999997E+02  0.45594000000E+02  0.51100000000E-03 0. -1.
    9900012    2    1    2    0    0  0.33715909966E+02  0.14224294481E+02  0.23335169508E+02  0.47787271039E+02  0.19999999976E+02 0.  0.
         12    1    1    2    0    0 -0.33715909966E+02 -0.14224294481E+02 -0.23335169508E+02  0.43400728961E+02  0.00000000000E+00 0. -1.
         11    1    3    3    0    0  0.78534433433E+01 -0.17872490920E+01 -0.14507158079E+01  0.81838504556E+01  0.51100000000E-03 0. -1.
        -11    1    3    3    0    0  0.17377499121E+02  0.79619273157E+01  0.13997318597E+02  0.23691658668E+02  0.51100000000E-03 0.  1.
         12    1    3    3    0    0  0.84849675018E+01  0.80496162568E+01  0.10788566720E+02  0.15911761915E+02  0.00000000000E+00 0. -1.
</event>
<event>
 7    1  0.5467297E-010  0.4778727E+02  0.7816164E-02  0.1312668E+00
        -11   -1    0    0    0    0  0.00000000000E+00  0.00000000000E+00  0.45593999997E+02  0.45594000000E+02  0.51100000000E-03 0. -1.
         11   -1    0    0    0    0 -0.00000000000E+00 -0.00000000000E+00 -0.45593999997E+02  0.45594000000E+02  0.51100000000E-03 0.  1.
    9900012    2    1    2    0    0  0.42891545627E+02  0.52949913474E+01 -0.39876833095E+01  0.47787271460E+02  0.20000001894E+02 0.  0.
         12    1    1    2    0    0 -0.42891545627E+02 -0.52949913474E+01  0.39876833095E+01  0.43400728540E+02  0.00000000000E+00 0. -1.
         11    1    3    3    0    0  0.20924441839E+02 -0.49985001934E+01  0.30528742017E+01  0.21728720893E+02  0.51100000000E-03 0. -1.
        -11    1    3    3    0    0  0.22029274159E+02  0.91785792049E+01 -0.61893794529E+01  0.24654485484E+02  0.51100000000E-03 0.  1.
        -12    1    3    3    0    0 -0.62170371587E-01  0.11149123359E+01 -0.85117805832E+00  0.14040650835E+01  0.00000000000E+00 0.  1.
</event>
<event>
 7    1  0.5467297E-010  0.4778727E+02  0.7816164E-02  0.1312668E+00
        -11   -1    0    0    0    0  0.00000000000E+00  0.00000000000E+00  0.45593999997E+02  0.45594000000E+02  0.51100000000E-03 0.  1.
         11   -1    0    0    0    0 -0.00000000000E+00 -0.00000000000E+00 -0.45593999997E+02  0.45594000000E+02  0.51100000000E-03 0. -1.
    9900012    2    1    2    0    0 -0.50547828184E+01 -0.23806888868E+02  0.35934731371E+02  0.47787266070E+02  0.19999977320E+02 0.  0.
         12    1    1    2    0    0  0.50547828184E+01  0.23806888868E+02 -0.35934731371E+02  0.43400733930E+02  0.00000000000E+00 0. -1.
         11    1    3    3    0    0 -0.60541354331E+00  0.22657329272E+01  0.82847269670E+01  0.86102713334E+01  0.51100000000E-03 0. -1.
        -11    1    3    3    0    0 -0.40936265895E+01 -0.66035770388E+01  0.11501749517E+02  0.13880030640E+02  0.51100000000E-03 0.  1.
         12    1    3    3    0    0 -0.35574268566E+00 -0.19469044757E+02  0.16148254887E+02  0.25296964096E+02  0.00000000000E+00 0. -1.
</event>
<event>
 7    1  0.5467297E-010  0.4778728E+02  0.7816164E-02  0.1312668E+00
        -11   -1    0    0    0    0  0.00000000000E+00  0.00000000000E+00  0.45593999997E+02  0.45594000000E+02  0.51100000000E-03 0. -1.
         11   -1    0    0    0    0 -0.00000000000E+00 -0.00000000000E+00 -0.45593999997E+02  0.45594000000E+02  0.51100000000E-03 0.  1.
    9900012    2    1    2    0    0  0.32695192971E+02  0.18302318898E+02 -0.21901423750E+02  0.47787275551E+02  0.20000020547E+02 0.  0.
         12    1    1    2    0    0 -0.32695192971E+02 -0.18302318898E+02  0.21901423750E+02  0.43400724449E+02  0.00000000000E+00 0. -1.
         11    1    3    3    0    0  0.15920243173E+02  0.46920665976E-01 -0.43665362236E+01  0.16508270142E+02  0.51100000000E-03 0. -1.
        -11    1    3    3    0    0  0.14115051261E+02  0.10763751837E+02 -0.13859746116E+02  0.22520781256E+02  0.51100000000E-03 0.  1.
         12    1    3    3    0    0  0.26598985366E+01  0.74916463949E+01 -0.36751414104E+01  0.87582241532E+01  0.00000000000E+00 0. -1.
</event>
<event>
 7    1  0.5467297E-010  0.4778727E+02  0.7816164E-02  0.1312668E+00
        -11   -1    0    0    0    0  0.00000000000E+00  0.00000000000E+00  0.45593999997E+02  0.45594000000E+02  0.51100000000E-03 0.  1.
         11   -1    0    0    0    0 -0.00000000000E+00 -0.00000000000E+00 -0.45593999997E+02  0.45594000000E+02  0.51100000000E-03 0. -1.
    9900012    2    1    2    0    0 -0.36920373295E+02 -0.13798918687E+02  0.18168627933E+02  0.47787272332E+02  0.20000005871E+02 0.  0.
         12    1    1    2    0    0  0.36920373295E+02  0.13798918687E+02 -0.18168627933E+02  0.43400727668E+02  0.00000000000E+00 0. -1.
         11    1    3    3    0    0 -0.10801753041E+02  0.23960281949E+00  0.14013037410E+01  0.10894903887E+02  0.51100000000E-03 0. -1.
        -11    1    3    3    0    0 -0.60566527571E+01 -0.33501263002E+01 -0.22256279412E+01  0.72704751455E+01  0.51100000000E-03 0.  1.
        -12    1    3    3    0    0 -0.20061967497E+02 -0.10688395206E+02  0.18992952133E+02  0.29621893300E+02  0.00000000000E+00 0.  1.
</event>
<event>
 7    1  0.5467297E-010  0.4778727E+02  0.7816164E-02  0.1312668E+00
        -11   -1    0    0    0    0  0.00000000000E+00  0.00000000000E+00  0.45593999997E+02  0.45594000000E+02  0.51100000000E-03 0.  1.
         11   -1    0    0    0    0 -0.00000000000E+00 -0.00000000000E+00 -0.45593999997E+02  0.45594000000E+02  0.51100000000E-03 0. -1.
    9900012    2    1    2    0    0  0.10591145741E+02 -0.12289437171E+02  0.40254446816E+02  0.47787272787E+02  0.20000007946E+02 0.  0.
         12    1    1    2    0    0 -0.10591145741E+02  0.12289437171E+02 -0.40254446816E+02  0.43400727213E+02  0.00000000000E+00 0. -1.
         11    1    3    3    0    0  0.12784528251E+02 -0.31680262876E+01  0.12610762043E+02  0.18234908081E+02  0.51100000000E-03 0. -1.
        -11    1    3    3    0    0 -0.25479743154E+00 -0.22616334548E+01  0.23421376983E+01  0.32658102936E+01  0.51100000000E-03 0.  1.
         12    1    3    3    0    0 -0.19385850783E+01 -0.68597774287E+01  0.25301547076E+02  0.26286554413E+02  0.00000000000E+00 0. -1.
</event>
<event>
 7    1  0.5467297E-010  0.4778727E+02  0.7816164E-02  0.1312668E+00
        -11   -1    0    0    0    0  0.00000000000E+00  0.00000000000E+00  0.45593999997E+02  0.45594000000E+02  0.51100000000E-03 0. -1.
         11   -1    0    0    0    0 -0.00000000000E+00 -0.00000000000E+00 -0.45593999997E+02  0.45594000000E+02  0.51100000000E-03 0.  1.
    9900012    2    1    2    0    0 -0.40608193998E+02  0.12889003533E+01 -0.15262258527E+02  0.47787271674E+02  0.20000002868E+02 0.  0.
         12    1    1    2    0    0  0.40608193998E+02 -0.12889003533E+01  0.15262258527E+02  0.43400728326E+02  0.00000000000E+00 0. -1.
         11    1    3    3    0    0 -0.15566074097E+01  0.40662931437E+01  0.19492087208E+01  0.47704487689E+01  0.51100000000E-03 0. -1.
        -11    1    3    3    0    0 -0.27565317756E+02 -0.39358181641E+01 -0.11346683131E+02  0.30068000033E+02  0.51100000000E-03 0.  1.
         12    1    3    3    0    0 -0.11486268833E+02  0.11584253738E+01 -0.58647841163E+01  0.12948822872E+02  0.00000000000E+00 0. -1.
</event>
<event>
 7    1  0.5467297E-010  0.4778728E+02  0.7816164E-02  0.1312668E+00
        -11   -1    0    0    0    0  0.00000000000E+00  0.00000000000E+00  0.45593999997E+02  0.45594000000E+02  0.51100000000E-03 0.  1.
         11   -1    0    0    0    0 -0.00000000000E+00 -0.00000000000E+00 -0.45593999997E+02  0.45594000000E+02  0.51100000000E-03 0. -1.
    9900012    2    1    2    0    0  0.53658347972E+01  0.33997760654E+02  0.26438283334E+02  0.47787277216E+02  0.20000028137E+02 0.  0.
         12    1    1    2    0    0 -0.53658347972E+01 -0.33997760654E+02 -0.26438283334E+02  0.43400722784E+02  0.00000000000E+00 0. -1.
         11    1    3    3    0    0  0.15907881413E+01  0.73858768939E+01  0.14397317497E+02  0.16259290753E+02  0.51100000000E-03 0. -1.
        -11    1    3    3    0    0  0.32662033794E+01  0.27492686066E+02  0.10355402219E+02  0.29559266348E+02  0.51100000000E-03 0.  1.
        -12    1    3    3    0    0  0.50884327658E+00 -0.88080230591E+00  0.16855636180E+01  0.19687201153E+01  0.00000000000E+00 0.  1.
</event>
<event>
 7    1  0.5467297E-010  0.4778727E+02  0.7816164E-02  0.1312668E+00
        -11   -1    0    0    0    0  0.00000000000E+00  0.00000000000E+00  0.45593999997E+02  0.45594000000E+02  0.51100000000E-03 0. -1.
         11   -1    0    0    0    0 -0.00000000000E+00 -0.00000000000E+00 -0.45593999997E+02  0.45594000000E+02  0.51100000000E-03 0.  1.
    9900012    2    1    2    0    0  0.17934543164E+02 -0.35923927554E+02  0.16475646159E+02  0.47787270446E+02  0.19999997274E+02 0.  0.
         12    1    1    2    0    0 -0.17934543164E+02  0.35923927554E+02 -0.16475646159E+02  0.43400729554E+02  0.00000000000E+00 0. -1.
         11    1    3    3    0    0  0.18572154060E+01 -0.45673775585E+01  0.55035336465E+01  0.73891183294E+01  0.51100000000E-03 0. -1.
        -11    1    3    3    0    0  0.14386959678E+01  0.14027368070E+01  0.30506613157E+01  0.36529510484E+01  0.51100000000E-03 0.  1.
        -12    1    3    3    0    0  0.14638631790E+02 -0.32759286803E+02  0.79214511963E+01  0.36745201069E+02  0.00000000000E+00 0.  1.
</event>
<event>
 7    1  0.5467297E-010  0.4778727E+02  0.7816164E-02  0.1312668E+00
        -11   -1    0    0    0    0  0.00000000000E+00  0.00000000000E+00  0.45593999997E+02  0.45594000000E+02  0.51100000000E-03 0.  1.
         11   -1    0    0    0    0 -0.00000000000E+00 -0.00000000000E+00 -0.45593999997E+02  0.45594000000E+02  0.51100000000E-03 0. -1.
    9900012    2    1    2    0    0 -0.29695150550E+02  0.24805560116E+02  0.19659743027E+02  0.47787271035E+02  0.19999999956E+02 0.  0.
         12    1    1    2    0    0  0.29695150550E+02 -0.24805560116E+02 -0.19659743027E+02  0.43400728965E+02  0.00000000000E+00 0. -1.
         11    1    3    3    0    0 -0.49337735686E+01 -0.24428090413E+01  0.42398620317E+01  0.69488033465E+01  0.51100000000E-03 0. -1.
        -11    1    3    3    0    0 -0.49675289513E+01  0.73011723907E+01  0.76477709033E+01  0.11682117197E+02  0.51100000000E-03 0.  1.
         12    1    3    3    0    0 -0.19793848030E+02  0.19947196767E+02  0.77721100916E+01  0.29156350491E+02  0.00000000000E+00 0. -1.
</event>
<event>
 7    1  0.5467297E-010  0.4778727E+02  0.7816164E-02  0.1312668E+00
        -11   -1    0    0    0    0  0.00000000000E+00  0.00000000000E+00  0.45593999997E+02  0.45594000000E+02  0.51100000000E-03 0.  1.
         11   -1    0    0    0    0 -0.00000000000E+00 -0.00000000000E+00 -0.45593999997E+02  0.45594000000E+02  0.51100000000E-03 0. -1.
    9900012    2    1    2    0    0  0.11696377406E+02 -0.18204342811E+02  0.37622065440E+02  0.47787272476E+02  0.20000006527E+02 0.  0.
         12    1    1    2    0    0 -0.11696377406E+02  0.18204342811E+02 -0.37622065440E+02  0.43400727524E+02  0.00000000000E+00 0. -1.
         11    1    3    3    0    0 -0.10569116048E+01  0.92241774519E+00  0.10426129470E+02  0.10520080448E+02  0.51100000000E-03 0. -1.
        -11    1    3    3    0    0  0.12605003074E+02 -0.97920673416E+01  0.14959095956E+02  0.21875676844E+02  0.51100000000E-03 0.  1.
         12    1    3    3    0    0  0.14828593765E+00 -0.93346932148E+01  0.12236840015E+02  0.15391515184E+02  0.00000000000E+00 0. -1.
</event>
<event>
 7    1  0.5467297E-010  0.4778727E+02  0.7816164E-02  0.1312668E+00
        -11   -1    0    0    0    0  0.00000000000E+00  0.00000000000E+00  0.45593999997E+02  0.45594000000E+02  0.51100000000E-03 0.  1.
         11   -1    0    0    0    0 -0.00000000000E+00 -0.00000000000E+00 -0.45593999997E+02  0.45594000000E+02  0.51100000000E-03 0. -1.
    9900012    2    1    2    0    0  0.10170207465E+02 -0.57464518953E+01  0.41799144286E+02  0.47787270832E+02  0.19999999034E+02 0.  0.
         12    1    1    2    0    0 -0.10170207465E+02  0.57464518953E+01 -0.41799144286E+02  0.43400729168E+02  0.00000000000E+00 0. -1.
         11    1    3    3    0    0 -0.22379355365E+01  0.34179446544E+01  0.87305631646E+01  0.96391615070E+01  0.51100000000E-03 0. -1.
        -11    1    3    3    0    0  0.12822577329E+02 -0.35005046908E+01  0.24386827268E+02  0.27773897222E+02  0.51100000000E-03 0.  1.
        -12    1    3    3    0    0 -0.41443432728E+00 -0.56638918588E+01  0.86817538527E+01  0.10374212103E+02  0.00000000000E+00 0.  1.
</event>
<event>
 7    1  0.5467297E-010  0.4778727E+02  0.7816164E-02  0.1312668E+00
        -11   -1    0    0    0    0  0.00000000000E+00  0.00000000000E+00  0.45593999997E+02  0.45594000000E+02  0.51100000000E-03 0.  1.
         11   -1    0    0    0    0 -0.00000000000E+00 -0.00000000000E+00 -0.45593999997E+02  0.45594000000E+02  0.51100000000E-03 0. -1.
    9900012    2    1    2    0    0  0.30114358613E+02  0.25208822762E+02  0.18473329921E+02  0.47787271227E+02  0.20000000832E+02 0.  0.
         12    1    1    2    0    0 -0.30114358613E+02 -0.25208822762E+02 -0.18473329921E+02  0.43400728773E+02  0.00000000000E+00 0. -1.
         11    1    3    3    0    0  0.94107935877E+01  0.18347092981E+01  0.11692174988E+02  0.15120719241E+02  0.51100000000E-03 0. -1.
        -11    1    3    3    0    0  0.16440249647E+02  0.20632132745E+02  0.77708772955E+01  0.27501877104E+02  0.51100000000E-03 0.  1.
         12    1    3    3    0    0  0.42633153781E+01  0.27419807185E+01 -0.98972236265E+00  0.51646748812E+01  0.00000000000E+00 0. -1.
</event>
<event>
 7    1  0.5467297E-010  0.4778725E+02  0.7816164E-02  0.1312668E+00
        -11   -1    0    0    0    0  0.00000000000E+00  0.00000000000E+00  0.45593999997E+02  0.45594000000E+02  0.51100000000E-03 0. -1.
         11   -1    0    0    0    0 -0.00000000000E+00 -0.00000000000E+00 -0.45593999997E+02  0.45594000000E+02  0.51100000000E-03 0.  1.
    9900012    2    1    2    0    0 -0.27198781103E+02 -0.25178628403E+02 -0.22580697202E+02  0.47787252220E+02  0.19999914170E+02 0.  0.
         12    1    1    2    0    0  0.27198781103E+02  0.25178628403E+02  0.22580697202E+02  0.43400747780E+02  0.00000000000E+00 0. -1.
         11    1    3    3    0    0 -0.10385682185E+02 -0.97989719358E+01 -0.93596098511E+01  0.17072918388E+02  0.51100000000E-03 0.  1.
        -11    1    3    3    0    0 -0.16502559258E+02 -0.70229359934E+01 -0.42129179564E+01  0.18422941405E+02  0.51100000000E-03 0. -1.
        -12    1    3    3    0    0 -0.31053966000E+00 -0.83567204738E+01 -0.90081693945E+01  0.12291392427E+02  0.00000000000E+00 0.  1.
</event>
<event>
 7    1  0.5467297E-010  0.4778727E+02  0.7816164E-02  0.1312668E+00
        -11   -1    0    0    0    0  0.00000000000E+00  0.00000000000E+00  0.45593999997E+02  0.45594000000E+02  0.51100000000E-03 0.  1.
         11   -1    0    0    0    0 -0.00000000000E+00 -0.00000000000E+00 -0.45593999997E+02  0.45594000000E+02  0.51100000000E-03 0. -1.
    9900012    2    1    2    0    0 -0.17852178405E+02  0.68488677325E+01  0.38961725016E+02  0.47787270983E+02  0.19999999718E+02 0.  0.
         12    1    1    2    0    0  0.17852178405E+02 -0.68488677325E+01 -0.38961725016E+02  0.43400729017E+02  0.00000000000E+00 0. -1.
         11    1    3    3    0    0 -0.13434069711E+02  0.91940167930E+01  0.24465268206E+02  0.29386281195E+02  0.51100000000E-03 0. -1.
        -11    1    3    3    0    0 -0.48032292797E+01  0.32022254900E+01  0.73708379090E+01  0.93623988029E+01  0.51100000000E-03 0.  1.
         12    1    3    3    0    0  0.38512058638E+00 -0.55473745505E+01  0.71256189010E+01  0.90385909849E+01  0.00000000000E+00 0. -1.
</event>
<event>
 7    1  0.5467297E-010  0.4778727E+02  0.7816164E-02  0.1312668E+00
        -11   -1    0    0    0    0  0.00000000000E+00  0.00000000000E+00  0.45593999997E+02  0.45594000000E+02  0.51100000000E-03 0.  1.
         11   -1    0    0    0    0 -0.00000000000E+00 -0.00000000000E+00 -0.45593999997E+02  0.45594000000E+02  0.51100000000E-03 0. -1.
    9900012    2    1    2    0    0 -0.24222507033E+02 -0.22118769587E+02  0.28419244909E+02  0.47787270788E+02  0.19999998830E+02 0.  0.
         12    1    1    2    0    0  0.24222507033E+02  0.22118769587E+02 -0.28419244909E+02  0.43400729212E+02  0.00000000000E+00 0. -1.
         11    1    3    3    0    0 -0.30256533159E+01  0.25792075494E+01  0.88678620861E+00  0.40734849468E+01  0.51100000000E-03 0. -1.
        -11    1    3    3    0    0 -0.15005858585E+02 -0.17773675111E+02  0.13527397848E+02  0.26908545328E+02  0.51100000000E-03 0.  1.
         12    1    3    3    0    0 -0.61909951312E+01 -0.69243020248E+01  0.14005060852E+02  0.16805240513E+02  0.00000000000E+00 0. -1.
</event>
<event>
 7    1  0.5467297E-010  0.4778727E+02  0.7816164E-02  0.1312668E+00
        -11   -1    0    0    0    0  0.00000000000E+00  0.00000000000E+00  0.45593999997E+02  0.45594000000E+02  0.51100000000E-03 0.  1.
         11   -1    0    0    0    0 -0.00000000000E+00 -0.00000000000E+00 -0.45593999997E+02  0.45594000000E+02  0.51100000000E-03 0. -1.
    9900012    2    1    2    0    0  0.64389405175E+01  0.40041654213E+02  0.15454094371E+02  0.47787273509E+02  0.20000011239E+02 0.  0.
         12    1    1    2    0    0 -0.64389405175E+01 -0.40041654213E+02 -0.15454094371E+02  0.43400726491E+02  0.00000000000E+00 0. -1.
         11    1    3    3    0    0  0.27866895078E+01  0.56797754385E+01 -0.38090890028E+01  0.73847577304E+01  0.51100000000E-03 0. -1.
        -11    1    3    3    0    0  0.58402257083E+01  0.28588884151E+02  0.17309062178E+02  0.33926923926E+02  0.51100000000E-03 0.  1.
         12    1    3    3    0    0 -0.21879746986E+01  0.57729946234E+01  0.19541211958E+01  0.64755918534E+01  0.00000000000E+00 0. -1.
</event>
<event>
 7    1  0.5467297E-010  0.4778727E+02  0.7816164E-02  0.1312668E+00
        -11   -1    0    0    0    0  0.00000000000E+00  0.00000000000E+00  0.45593999997E+02  0.45594000000E+02  0.51100000000E-03 0.  1.
         11   -1    0    0    0    0 -0.00000000000E+00 -0.00000000000E+00 -0.45593999997E+02  0.45594000000E+02  0.51100000000E-03 0. -1.
    9900012    2    1    2    0    0  0.20351374720E+02  0.13419104701E+02  0.35907834539E+02  0.47787269531E+02  0.19999993099E+02 0.  0.
         12    1    1    2    0    0 -0.20351374720E+02 -0.13419104701E+02 -0.35907834539E+02  0.43400730469E+02  0.00000000000E+00 0. -1.
         11    1    3    3    0    0  0.94235341049E-01  0.46075822076E+01  0.35124453417E+01  0.57944772533E+01  0.51100000000E-03 0. -1.
        -11    1    3    3    0    0  0.18281001167E+01  0.23270514509E+01  0.16622318247E+02  0.16883677996E+02  0.51100000000E-03 0.  1.
        -12    1    3    3    0    0  0.18429039262E+02  0.64844710429E+01  0.15773070950E+02  0.25109114282E+02  0.00000000000E+00 0.  1.
</event>
<event>
 7    1  0.5467297E-010  0.4778727E+02  0.7816164E-02  0.1312668E+00
        -11   -1    0    0    0    0  0.00000000000E+00  0.00000000000E+00  0.45593999997E+02  0.45594000000E+02  0.51100000000E-03 0.  1.
         11   -1    0    0    0    0 -0.00000000000E+00 -0.00000000000E+00 -0.45593999997E+02  0.45594000000E+02  0.51100000000E-03 0. -1.
    9900012    2    1    2    0    0 -0.26806455505E+02 -0.33089999917E+02  0.83719490315E+01  0.47787266344E+02  0.19999978571E+02 0.  0.
         12    1    1    2    0    0  0.26806455505E+02  0.33089999917E+02 -0.83719490315E+01  0.43400733656E+02  0.00000000000E+00 0. -1.
         11    1    3    3    0    0 -0.36656036318E+01 -0.95703717054E+01  0.66963397834E+01  0.12242125278E+02  0.51100000000E-03 0.  1.
        -11    1    3    3    0    0 -0.24752129050E+02 -0.20797213936E+02  0.12547893246E+01  0.32353770979E+02  0.51100000000E-03 0. -1.
        -12    1    3    3    0    0  0.16112771771E+01 -0.27224142753E+01  0.42081992350E+00  0.31913700875E+01  0.00000000000E+00 0.  1.
</event>
<event>
 7    1  0.5467297E-010  0.4778727E+02  0.7816164E-02  0.1312668E+00
        -11   -1    0    0    0    0  0.00000000000E+00  0.00000000000E+00  0.45593999997E+02  0.45594000000E+02  0.51100000000E-03 0.  1.
         11   -1    0    0    0    0 -0.00000000000E+00 -0.00000000000E+00 -0.45593999997E+02  0.45594000000E+02  0.51100000000E-03 0. -1.
    9900012    2    1    2    0    0 -0.58852816334E+01 -0.38679432841E+02 -0.18785309896E+02  0.47787274976E+02  0.20000017924E+02 0.  0.
         12    1    1    2    0    0  0.58852816334E+01  0.38679432841E+02  0.18785309896E+02  0.43400725024E+02  0.00000000000E+00 0. -1.
         11    1    3    3    0    0 -0.14475008276E+00 -0.80464033357E+01  0.33441893402E+01  0.87148816304E+01  0.51100000000E-03 0. -1.
        -11    1    3    3    0    0 -0.47363436519E+01 -0.23581576572E+02 -0.12534339991E+02  0.27122562270E+02  0.51100000000E-03 0.  1.
         12    1    3    3    0    0 -0.10041878987E+01 -0.70514529329E+01 -0.95951592445E+01  0.11949831075E+02  0.00000000000E+00 0. -1.
</event>
<event>
 7    1  0.5467297E-010  0.4778727E+02  0.7816164E-02  0.1312668E+00
        -11   -1    0    0    0    0  0.00000000000E+00  0.00000000000E+00  0.45593999997E+02  0.45594000000E+02  0.51100000000E-03 0. -1.
         11   -1    0    0    0    0 -0.00000000000E+00 -0.00000000000E+00 -0.45593999997E+02  0.45594000000E+02  0.51100000000E-03 0.  1.
    9900012    2    1    2    0    0 -0.30594484834E+02 -0.25889679988E+02 -0.16653082113E+02  0.47787272172E+02  0.20000005142E+02 0.  0.
         12    1    1    2    0    0  0.30594484834E+02  0.25889679988E+02  0.16653082113E+02  0.43400727828E+02  0.00000000000E+00 0. -1.
         11    1    3    3    0    0 -0.54305635995E+01 -0.53224638897E+01  0.34356049625E+00  0.76116802968E+01  0.51100000000E-03 0.  1.
        -11    1    3    3    0    0 -0.27824331637E+01  0.37593383364E+00 -0.76209820422E+01  0.81217379979E+01  0.51100000000E-03 0. -1.
        -12    1    3    3    0    0 -0.22381488070E+02 -0.20943149932E+02 -0.93756605672E+01  0.32053853877E+02  0.00000000000E+00 0.  1.
</event>
<event>
 7    1  0.5467297E-010  0.4778727E+02  0.7816164E-02  0.1312668E+00
        -11   -1    0    0    0    0  0.00000000000E+00  0.00000000000E+00  0.45593999997E+02  0.45594000000E+02  0.51100000000E-03 0.  1.
         11   -1    0    0    0    0 -0.00000000000E+00 -0.00000000000E+00 -0.45593999997E+02  0.45594000000E+02  0.51100000000E-03 0. -1.
    9900012    2    1    2    0    0 -0.14304151856E+02 -0.14037385795E+02  0.38496317442E+02  0.47787269397E+02  0.19999992489E+02 0.  0.
         12    1    1    2    0    0  0.14304151856E+02  0.14037385795E+02 -0.38496317442E+02  0.43400730603E+02  0.00000000000E+00 0. -1.
         11    1    3    3    0    0 -0.45606551823E+01 -0.44669232732E+01 -0.70637324011E-01  0.63841968260E+01  0.51100000000E-03 0. -1.
        -11    1    3    3    0    0 -0.93500425154E+01 -0.57825264120E+01  0.24972857580E+02  0.27285610177E+02  0.51100000000E-03 0.  1.
         12    1    3    3    0    0 -0.39345415788E+00 -0.37879361096E+01  0.13594097186E+02  0.14117462394E+02  0.00000000000E+00 0. -1.
</event>
<event>
 7    1  0.5467297E-010  0.4778727E+02  0.7816164E-02  0.1312668E+00
        -11   -1    0    0    0    0  0.00000000000E+00  0.00000000000E+00  0.45593999997E+02  0.45594000000E+02  0.51100000000E-03 0.  1.
         11   -1    0    0    0    0 -0.00000000000E+00 -0.00000000000E+00 -0.45593999997E+02  0.45594000000E+02  0.51100000000E-03 0. -1.
    9900012    2    1    2    0    0 -0.28308077132E+02 -0.26238890462E+02  0.19844310776E+02  0.47787271046E+02  0.20000000006E+02 0.  0.
         12    1    1    2    0    0  0.28308077132E+02  0.26238890462E+02 -0.19844310776E+02  0.43400728954E+02  0.00000000000E+00 0. -1.
         11    1    3    3    0    0 -0.47263154402E+01 -0.14612767348E+00 -0.30101412321E+01  0.56053868230E+01  0.51100000000E-03 0. -1.
        -11    1    3    3    0    0 -0.10860924427E+01 -0.26508726769E+01  0.27734875983E+01  0.39873495536E+01  0.51100000000E-03 0.  1.
         12    1    3    3    0    0 -0.22495669249E+02 -0.23441890112E+02  0.20080964409E+02  0.38194534669E+02  0.00000000000E+00 0. -1.
</event>
<event>
 7    1  0.5467297E-010  0.4778727E+02  0.7816164E-02  0.1312668E+00
        -11   -1    0    0    0    0  0.00000000000E+00  0.00000000000E+00  0.45593999997E+02  0.45594000000E+02  0.51100000000E-03 0.  1.
         11   -1    0    0    0    0 -0.00000000000E+00 -0.00000000000E+00 -0.45593999997E+02  0.45594000000E+02  0.51100000000E-03 0. -1.
    9900012    2    1    2    0    0 -0.23065498598E+02 -0.12563660831E+02  0.34550835265E+02  0.47787274009E+02  0.20000013515E+02 0.  0.
         12    1    1    2    0    0  0.23065498598E+02  0.12563660831E+02 -0.34550835265E+02  0.43400725991E+02  0.00000000000E+00 0. -1.
         11    1    3    3    0    0 -0.34441313242E+01 -0.28769406508E+01  0.13124197008E+02  0.13870233432E+02  0.51100000000E-03 0. -1.
        -11    1    3    3    0    0 -0.16626876517E+02 -0.10747799852E+02  0.23020262001E+02  0.30362817512E+02  0.51100000000E-03 0.  1.
         12    1    3    3    0    0 -0.29944907567E+01  0.10610796719E+01 -0.15936237438E+01  0.35542230654E+01  0.00000000000E+00 0. -1.
</event>
<event>
 7    1  0.5467297E-010  0.4778727E+02  0.7816164E-02  0.1312668E+00
        -11   -1    0    0    0    0  0.00000000000E+00  0.00000000000E+00  0.45593999997E+02  0.45594000000E+02  0.51100000000E-03 0.  1.
         11   -1    0    0    0    0 -0.00000000000E+00 -0.00000000000E+00 -0.45593999997E+02  0.45594000000E+02  0.51100000000E-03 0. -1.
    9900012    2    1    2    0    0 -0.23057783888E+02 -0.12377539790E+02  0.34623087454E+02  0.47787273348E+02  0.20000010504E+02 0.  0.
         12    1    1    2    0    0  0.23057783888E+02  0.12377539790E+02 -0.34623087454E+02  0.43400726652E+02  0.00000000000E+00 0. -1.
         11    1    3    3    0    0 -0.18056315941E+01 -0.29092241124E+01  0.19766366127E+01  0.39536037926E+01  0.51100000000E-03 0. -1.
        -11    1    3    3    0    0 -0.55478163308E+01 -0.11215373017E+02  0.90790265248E+01  0.15459352537E+02  0.51100000000E-03 0.  1.
        -12    1    3    3    0    0 -0.15704335963E+02  0.17470573393E+01  0.23567424316E+02  0.28374317019E+02  0.00000000000E+00 0.  1.
</event>
<event>
 7    1  0.5467297E-010  0.4778727E+02  0.7816164E-02  0.1312668E+00
        -11   -1    0    0    0    0  0.00000000000E+00  0.00000000000E+00  0.45593999997E+02  0.45594000000E+02  0.51100000000E-03 0.  1.
         11   -1    0    0    0    0 -0.00000000000E+00 -0.00000000000E+00 -0.45593999997E+02  0.45594000000E+02  0.51100000000E-03 0. -1.
    9900012    2    1    2    0    0 -0.28934566904E+02  0.17576845069E+02  0.27156372569E+02  0.47787271716E+02  0.20000003060E+02 0.  0.
         12    1    1    2    0    0  0.28934566904E+02 -0.17576845069E+02 -0.27156372569E+02  0.43400728284E+02  0.00000000000E+00 0. -1.
         11    1    3    3    0    0 -0.30170879844E+01 -0.13877320473E+01  0.37035116380E+01  0.49743963307E+01  0.51100000000E-03 0. -1.
        -11    1    3    3    0    0 -0.21201222773E+02  0.61196928409E+01  0.13188388225E+02  0.25707510027E+02  0.51100000000E-03 0.  1.
        -12    1    3    3    0    0 -0.47162561462E+01  0.12844884276E+02  0.10264472706E+02  0.17105365358E+02  0.00000000000E+00 0.  1.
</event>
<event>
 7    1  0.5467297E-010  0.4778727E+02  0.7816164E-02  0.1312668E+00
        -11   -1    0    0    0    0  0.00000000000E+00  0.00000000000E+00  0.45593999997E+02  0.45594000000E+02  0.51100000000E-03 0. -1.
         11   -1    0    0    0    0 -0.00000000000E+00 -0.00000000000E+00 -0.45593999997E+02  0.45594000000E+02  0.51100000000E-03 0.  1.
    9900012    2    1    2    0    0  0.41571336587E+02  0.31081325793E+01 -0.12074218022E+02  0.47787271267E+02  0.20000001015E+02 0.  0.
         12    1    1    2    0    0 -0.41571336587E+02 -0.31081325793E+01  0.12074218022E+02  0.43400728733E+02  0.00000000000E+00 0. -1.
         11    1    3    3    0    0  0.29888737360E+02  0.32673880931E+01 -0.63932496658E+01  0.30738999455E+02  0.51100000000E-03 0. -1.
        -11    1    3    3    0    0  0.98663678983E+01  0.11462472079E+01  0.10189430988E+01  0.99848557058E+01  0.51100000000E-03 0.  1.
         12    1    3    3    0    0  0.18162313284E+01 -0.13055027218E+01 -0.66999114546E+01  0.70634161065E+01  0.00000000000E+00 0. -1.
</event>
<event>
 7    1  0.5467297E-010  0.4778727E+02  0.7816164E-02  0.1312668E+00
        -11   -1    0    0    0    0  0.00000000000E+00  0.00000000000E+00  0.45593999997E+02  0.45594000000E+02  0.51100000000E-03 0.  1.
         11   -1    0    0    0    0 -0.00000000000E+00 -0.00000000000E+00 -0.45593999997E+02  0.45594000000E+02  0.51100000000E-03 0. -1.
    9900012    2    1    2    0    0  0.25626043291E+02 -0.84538685047E+01  0.33992080901E+02  0.47787267846E+02  0.19999985419E+02 0.  0.
         12    1    1    2    0    0 -0.25626043291E+02  0.84538685047E+01 -0.33992080901E+02  0.43400732154E+02  0.00000000000E+00 0. -1.
         11    1    3    3    0    0  0.11476878237E+01  0.26851712471E+01  0.10646549477E+02  0.11039762135E+02  0.51100000000E-03 0. -1.
        -11    1    3    3    0    0  0.13967767441E+02 -0.94915555290E+01  0.18525747285E+02  0.25067737560E+02  0.51100000000E-03 0.  1.
         12    1    3    3    0    0  0.10510588026E+02 -0.16474842229E+01  0.48197841394E+01  0.11679768152E+02  0.00000000000E+00 0. -1.
</event>
<event>
 7    1  0.5467297E-010  0.4778728E+02  0.7816164E-02  0.1312668E+00
        -11   -1    0    0    0    0  0.00000000000E+00  0.00000000000E+00  0.45593999997E+02  0.45594000000E+02  0.51100000000E-03 0.  1.
         11   -1    0    0    0    0 -0.00000000000E+00 -0.00000000000E+00 -0.45593999997E+02  0.45594000000E+02  0.51100000000E-03 0. -1.
    9900012    2    1    2    0    0  0.21331911172E+02  0.37104294985E+02  0.72002522606E+01  0.47787276813E+02  0.20000026299E+02 0.  0.
         12    1    1    2    0    0 -0.21331911172E+02 -0.37104294985E+02 -0.72002522606E+01  0.43400723187E+02  0.00000000000E+00 0. -1.
         11    1    3    3    0    0  0.48750213113E+01  0.12164606636E+01  0.37436445060E+01  0.62658186839E+01  0.51100000000E-03 0. -1.
        -11    1    3    3    0    0  0.73688956750E+00  0.13416831653E+02 -0.19261183392E+01  0.13574399064E+02  0.51100000000E-03 0.  1.
        -12    1    3    3    0    0  0.15720000293E+02  0.22471002668E+02  0.53827260939E+01  0.27947059064E+02  0.00000000000E+00 0.  1.
</event>
<event>
 7    1  0.5467297E-010  0.4778727E+02  0.7816164E-02  0.1312668E+00
        -11   -1    0    0    0    0  0.00000000000E+00  0.00000000000E+00  0.45593999997E+02  0.45594000000E+02  0.51100000000E-03 0. -1.
         11   -1    0    0    0    0 -0.00000000000E+00 -0.00000000000E+00 -0.45593999997E+02  0.45594000000E+02  0.51100000000E-03 0.  1.
    9900012    2    1    2    0    0  0.60747424608E+01  0.38506086634E+02 -0.19078844677E+02  0.47787268232E+02  0.19999987176E+02 0.  0.
         12    1    1    2    0    0 -0.60747424608E+01 -0.38506086634E+02  0.19078844677E+02  0.43400731768E+02  0.00000000000E+00 0. -1.
         11    1    3    3    0    0  0.61089668942E+01  0.90622219467E+01 -0.58321771739E+01  0.12387801822E+02  0.51100000000E-03 0. -1.
        -11    1    3    3    0    0 -0.18453669217E+01  0.25365348611E+02 -0.16102390640E+02  0.30101383254E+02  0.51100000000E-03 0.  1.
        -12    1    3    3    0    0  0.18111424883E+01  0.40785160757E+01  0.28557231364E+01  0.52980831556E+01  0.00000000000E+00 0.  1.
</event>
<event>
 7    1  0.5467297E-010  0.4778731E+02  0.7816164E-02  0.1312668E+00
        -11   -1    0    0    0    0  0.00000000000E+00  0.00000000000E+00  0.45593999997E+02  0.45594000000E+02  0.51100000000E-03 0.  1.
         11   -1    0    0    0    0 -0.00000000000E+00 -0.00000000000E+00 -0.45593999997E+02  0.45594000000E+02  0.51100000000E-03 0. -1.
    9900012    2    1    2    0    0  0.25518396140E+02  0.15008166614E+02  0.31736198592E+02  0.47787309824E+02  0.20000176812E+02 0.  0.
         12    1    1    2    0    0 -0.25518396140E+02 -0.15008166614E+02 -0.31736198592E+02  0.43400690176E+02  0.00000000000E+00 0. -1.
         11    1    3    3    0    0  0.54859769332E+00  0.25384078565E+01  0.32824540279E+01  0.41855678923E+01  0.51100000000E-03 0. -1.
        -11    1    3    3    0    0  0.24750699951E+02  0.14552160573E+02  0.29580948685E+02  0.41223719517E+02  0.51100000000E-03 0.  1.
        -12    1    3    3    0    0  0.21909849602E+00 -0.20824018159E+01 -0.11272041217E+01  0.23780224149E+01  0.00000000000E+00 0.  1.
</event>
<event>
 7    1  0.5467297E-010  0.4778728E+02  0.7816164E-02  0.1312668E+00
        -11   -1    0    0    0    0  0.00000000000E+00  0.00000000000E+00  0.45593999997E+02  0.45594000000E+02  0.51100000000E-03 0. -1.
         11   -1    0    0    0    0 -0.00000000000E+00 -0.00000000000E+00 -0.45593999997E+02  0.45594000000E+02  0.51100000000E-03 0.  1.
    9900012    2    1    2    0    0 -0.14869548172E+02 -0.40707024222E+02 -0.23359801511E+01  0.47787284717E+02  0.20000062338E+02 0.  0.
         12    1    1    2    0    0  0.14869548172E+02  0.40707024222E+02  0.23359801511E+01  0.43400715283E+02  0.00000000000E+00 0. -1.
         11    1    3    3    0    0 -0.10543050023E+02 -0.26165639547E+02 -0.86391297301E+01  0.29503070339E+02  0.51100000000E-03 0. -1.
        -11    1    3    3    0    0 -0.46588016094E+01 -0.52014651956E+01 -0.50823859071E-01  0.69829976330E+01  0.51100000000E-03 0.  1.
         12    1    3    3    0    0  0.33230345971E+00 -0.93399194794E+01  0.63539734380E+01  0.11301216745E+02  0.00000000000E+00 0. -1.
</event>
<event>
 7    1  0.5467297E-010  0.4778727E+02  0.7816164E-02  0.1312668E+00
        -11   -1    0    0    0    0  0.00000000000E+00  0.00000000000E+00  0.45593999997E+02  0.45594000000E+02  0.51100000000E-03 0.  1.
         11   -1    0    0    0    0 -0.00000000000E+00 -0.00000000000E+00 -0.45593999997E+02  0.45594000000E+02  0.51100000000E-03 0. -1.
    9900012    2    1    2    0    0  0.12273504605E+02 -0.31159922470E+02  0.27605136041E+02  0.47787271671E+02  0.20000002856E+02 0.  0.
         12    1    1    2    0    0 -0.12273504605E+02  0.31159922470E+02 -0.27605136041E+02  0.43400728329E+02  0.00000000000E+00 0. -1.
         11    1    3    3    0    0 -0.19666236339E+01 -0.77270932976E+00  0.41377114545E+00  0.21531128738E+01  0.51100000000E-03 0. -1.
        -11    1    3    3    0    0  0.15136142463E+02 -0.19875232883E+02  0.23922587679E+02  0.34589274238E+02  0.51100000000E-03 0.  1.
        -12    1    3    3    0    0 -0.89601422392E+00 -0.10511980257E+02  0.32687772166E+01  0.11044884559E+02  0.00000000000E+00 0.  1.
</event>
<event>
 7    1  0.5467297E-010  0.4778727E+02  0.7816164E-02  0.1312668E+00
        -11   -1    0    0    0    0  0.00000000000E+00  0.00000000000E+00  0.45593999997E+02  0.45594000000E+02  0.51100000000E-03 0. -1.
         11   -1    0    0    0    0 -0.00000000000E+00 -0.00000000000E+00 -0.45593999997E+02  0.45594000000E+02  0.51100000000E-03 0.  1.
    9900012    2    1    2    0    0  0.34998887988E+02 -0.21449730095E+02  0.14092916671E+02  0.47787269801E+02  0.19999994330E+02 0.  0.
         12    1    1    2    0    0 -0.34998887988E+02  0.21449730095E+02 -0.14092916671E+02  0.43400730199E+02  0.00000000000E+00 0. -1.
         11    1    3    3    0    0  0.13976694732E+02 -0.65788285124E+01  0.78387928821E+01  0.17322691890E+02  0.51100000000E-03 0. -1.
        -11    1    3    3    0    0  0.18971723860E+02 -0.12867500282E+02 -0.70869218332E+00  0.22934714182E+02  0.51100000000E-03 0.  1.
        -12    1    3    3    0    0  0.20504693962E+01 -0.20034013012E+01  0.69628159718E+01  0.75298637288E+01  0.00000000000E+00 0.  1.
</event>
<event>
 7    1  0.5467297E-010  0.4778727E+02  0.7816164E-02  0.1312668E+00
        -11   -1    0    0    0    0  0.00000000000E+00  0.00000000000E+00  0.45593999997E+02  0.45594000000E+02  0.51100000000E-03 0. -1.
         11   -1    0    0    0    0 -0.00000000000E+00 -0.00000000000E+00 -0.45593999997E+02  0.45594000000E+02  0.51100000000E-03 0.  1.
    9900012    2    1    2    0    0 -0.25868772999E+02 -0.34681663284E+02 -0.34076306779E+01  0.47787272685E+02  0.20000007479E+02 0.  0.
         12    1    1    2    0    0  0.25868772999E+02  0.34681663284E+02  0.34076306779E+01  0.43400727315E+02  0.00000000000E+00 0. -1.
         11    1    3    3    0    0 -0.25315603028E+02 -0.29104906466E+02  0.28310372808E+01  0.38678031354E+02  0.51100000000E-03 0. -1.
        -11    1    3    3    0    0  0.13004117349E+01 -0.36836407635E+01 -0.30034155511E+01  0.49275536718E+01  0.51100000000E-03 0.  1.
         12    1    3    3    0    0 -0.18535817056E+01 -0.18931160552E+01 -0.32352524076E+01  0.41816876591E+01  0.00000000000E+00 0. -1.
</event>
<event>
 7    1  0.5467297E-010  0.4778727E+02  0.7816164E-02  0.1312668E+00
        -11   -1    0    0    0    0  0.00000000000E+00  0.00000000000E+00  0.45593999997E+02  0.45594000000E+02  0.51100000000E-03 0.  1.
         11   -1    0    0    0    0 -0.00000000000E+00 -0.00000000000E+00 -0.45593999997E+02  0.45594000000E+02  0.51100000000E-03 0. -1.
    9900012    2    1    2    0    0  0.31119927908E+02  0.14158838560E+02  0.26733888928E+02  0.47787269136E+02  0.19999991297E+02 0.  0.
         12    1    1    2    0    0 -0.31119927908E+02 -0.14158838560E+02 -0.26733888928E+02  0.43400730864E+02  0.00000000000E+00 0. -1.
         11    1    3    3    0    0  0.21709903921E+02 -0.21265534333E+00  0.15241331785E+02  0.26526653490E+02  0.51100000000E-03 0. -1.
        -11    1    3    3    0    0  0.19174030495E+01  0.27537984681E+01  0.49152474645E+01  0.59514282618E+01  0.51100000000E-03 0.  1.
         12    1    3    3    0    0  0.74926209370E+01  0.11617695435E+02  0.65773096786E+01  0.15309187384E+02  0.00000000000E+00 0. -1.
</event>
<event>
 7    1  0.5467297E-010  0.4778727E+02  0.7816164E-02  0.1312668E+00
        -11   -1    0    0    0    0  0.00000000000E+00  0.00000000000E+00  0.45593999997E+02  0.45594000000E+02  0.51100000000E-03 0.  1.
         11   -1    0    0    0    0 -0.00000000000E+00 -0.00000000000E+00 -0.45593999997E+02  0.45594000000E+02  0.51100000000E-03 0. -1.
    9900012    2    1    2    0    0  0.21486847561E+02  0.37379010055E+02 -0.49747749681E+01  0.47787269628E+02  0.19999993543E+02 0.  0.
         12    1    1    2    0    0 -0.21486847561E+02 -0.37379010055E+02  0.49747749681E+01  0.43400730372E+02  0.00000000000E+00 0. -1.
         11    1    3    3    0    0  0.17707164386E+01  0.15805749715E+02 -0.64063852414E+01  0.17146397082E+02  0.51100000000E-03 0. -1.
        -11    1    3    3    0    0  0.16263465058E+02  0.11849986043E+02  0.24562113742E+01  0.20272035900E+02  0.51100000000E-03 0.  1.
        -12    1    3    3    0    0  0.34526660640E+01  0.97232742962E+01 -0.10246011010E+01  0.10368836647E+02  0.00000000000E+00 0.  1.
</event>
<event>
 7    1  0.5467297E-010  0.4778727E+02  0.7816164E-02  0.1312668E+00
        -11   -1    0    0    0    0  0.00000000000E+00  0.00000000000E+00  0.45593999997E+02  0.45594000000E+02  0.51100000000E-03 0. -1.
         11   -1    0    0    0    0 -0.00000000000E+00 -0.00000000000E+00 -0.45593999997E+02  0.45594000000E+02  0.51100000000E-03 0.  1.
    9900012    2    1    2    0    0 -0.36078753735E+02 -0.15855000204E+02 -0.18181464213E+02  0.47787272547E+02  0.20000006851E+02 0.  0.
         12    1    1    2    0    0  0.36078753735E+02  0.15855000204E+02  0.18181464213E+02  0.43400727453E+02  0.00000000000E+00 0. -1.
         11    1    3    3    0    0 -0.16299814894E+02 -0.15627381975E+02 -0.97497828282E+01  0.24595879704E+02  0.51100000000E-03 0. -1.
        -11    1    3    3    0    0 -0.74084486893E+01  0.28153894866E+01 -0.19683616403E-01  0.79253970026E+01  0.51100000000E-03 0.  1.
        -12    1    3    3    0    0 -0.12370490151E+02 -0.30430077157E+01 -0.84119977685E+01  0.15265995840E+02  0.00000000000E+00 0.  1.
</event>
<event>
 7    1  0.5467297E-010  0.4778727E+02  0.7816164E-02  0.1312668E+00
        -11   -1    0    0    0    0  0.00000000000E+00  0.00000000000E+00  0.45593999997E+02  0.45594000000E+02  0.51100000000E-03 0. -1.
         11   -1    0    0    0    0 -0.00000000000E+00 -0.00000000000E+00 -0.45593999997E+02  0.45594000000E+02  0.51100000000E-03 0.  1.
    9900012    2    1    2    0    0 -0.36569493634E+02  0.26118816617E+01 -0.23226577358E+02  0.47787266294E+02  0.19999978341E+02 0.  0.
         12    1    1    2    0    0  0.36569493634E+02 -0.26118816617E+01  0.23226577358E+02  0.43400733706E+02  0.00000000000E+00 0. -1.
         11    1    3    3    0    0 -0.13537477930E+02  0.43023344158E+01 -0.17763480629E+02  0.22744551753E+02  0.51100000000E-03 0. -1.
        -11    1    3    3    0    0 -0.87851805851E+01  0.23172316140E+01 -0.46851159225E+01  0.10222488529E+02  0.51100000000E-03 0.  1.
         12    1    3    3    0    0 -0.14246835119E+02 -0.40076843681E+01 -0.77798080620E+00  0.14820226012E+02  0.00000000000E+00 0. -1.
</event>
<event>
 7    1  0.5467297E-010  0.4778729E+02  0.7816164E-02  0.1312668E+00
        -11   -1    0    0    0    0  0.00000000000E+00  0.00000000000E+00  0.45593999997E+02  0.45594000000E+02  0.51100000000E-03 0.  1.
         11   -1    0    0    0    0 -0.00000000000E+00 -0.00000000000E+00 -0.45593999997E+02  0.45594000000E+02  0.51100000000E-03 0. -1.
    9900012    2    1    2    0    0 -0.12946210335E+02  0.38337814202E+02  0.15691689034E+02  0.47787291889E+02  0.20000095038E+02 0.  0.
         12    1    1    2    0    0  0.12946210335E+02 -0.38337814202E+02 -0.15691689034E+02  0.43400708111E+02  0.00000000000E+00 0. -1.
         11    1    3    3    0    0 -0.12148938583E+01  0.16066920602E+02 -0.12366619920E+01  0.16160174438E+02  0.51100000000E-03 0. -1.
        -11    1    3    3    0    0 -0.27537455396E+01  0.81459806106E+01  0.12408706054E+01  0.86879154419E+01  0.51100000000E-03 0.  1.
         12    1    3    3    0    0 -0.89775709375E+01  0.14124912989E+02  0.15687480420E+02  0.22939202009E+02  0.00000000000E+00 0. -1.
</event>
<event>
 7    1  0.6412576E-010  0.4778728E+02  0.7816164E-02  0.1312668E+00
        -11   -1    0    0    0    0  0.00000000000E+00  0.00000000000E+00  0.45593999997E+02  0.45594000000E+02  0.51100000000E-03 0. -1.
         11   -1    0    0    0    0 -0.00000000000E+00 -0.00000000000E+00 -0.45593999997E+02  0.45594000000E+02  0.51100000000E-03 0.  1.
    9900012    2    1    2    0    0  0.20863844592E+02 -0.18338231031E+02 -0.33347135074E+02  0.47787284037E+02  0.20000059238E+02 0.  0.
         12    1    1    2    0    0 -0.20863844592E+02  0.18338231031E+02  0.33347135074E+02  0.43400715963E+02  0.00000000000E+00 0. -1.
         11    1    3    3    0    0 -0.13025475842E+01 -0.84041641059E+01 -0.82832140578E+01  0.11871741234E+02  0.51100000000E-03 0. -1.
        -11    1    3    3    0    0  0.16524908258E+02 -0.94864544509E+01 -0.23056149212E+02  0.29910724293E+02  0.51100000000E-03 0.  1.
        -12    1    3    3    0    0  0.56414839183E+01 -0.44761247381E+00 -0.20077718033E+01  0.60048185102E+01  0.00000000000E+00 0.  1.
</event>
<event>
 7    1  0.5467297E-010  0.4778727E+02  0.7816164E-02  0.1312668E+00
        -11   -1    0    0    0    0  0.00000000000E+00  0.00000000000E+00  0.45593999997E+02  0.45594000000E+02  0.51100000000E-03 0.  1.
         11   -1    0    0    0    0 -0.00000000000E+00 -0.00000000000E+00 -0.45593999997E+02  0.45594000000E+02  0.51100000000E-03 0. -1.
    9900012    2    1    2    0    0  0.14276085274E+02  0.39562364505E+02  0.10706814651E+02  0.47787272172E+02  0.20000005142E+02 0.  0.
         12    1    1    2    0    0 -0.14276085274E+02 -0.39562364505E+02 -0.10706814651E+02  0.43400727828E+02  0.00000000000E+00 0. -1.
         11    1    3    3    0    0 -0.28813212367E+00  0.50405350759E+01  0.21566778368E+01  0.54901068774E+01  0.51100000000E-03 0. -1.
        -11    1    3    3    0    0  0.24597677405E+01 -0.11858205889E+01 -0.17108209937E+01  0.32223495372E+01  0.51100000000E-03 0.  1.
        -12    1    3    3    0    0  0.12104449657E+02  0.35707650018E+02  0.10260957808E+02  0.39074815757E+02  0.00000000000E+00 0.  1.
</event>
<event>
 7    1  0.5467297E-010  0.4778730E+02  0.7816164E-02  0.1312668E+00
        -11   -1    0    0    0    0  0.00000000000E+00  0.00000000000E+00  0.45593999997E+02  0.45594000000E+02  0.51100000000E-03 0.  1.
         11   -1    0    0    0    0 -0.00000000000E+00 -0.00000000000E+00 -0.45593999997E+02  0.45594000000E+02  0.51100000000E-03 0. -1.
    9900012    2    1    2    0    0  0.55812272171E+01 -0.63563205646E+01  0.42568389302E+02  0.47787300972E+02  0.20000136452E+02 0.  0.
         12    1    1    2    0    0 -0.55812272171E+01  0.63563205646E+01 -0.42568389302E+02  0.43400699028E+02  0.00000000000E+00 0. -1.
         11    1    3    3    0    0  0.58768949304E+01 -0.11036198833E+02  0.26992106112E+02  0.29747426297E+02  0.51100000000E-03 0. -1.
        -11    1    3    3    0    0 -0.34968252985E+01  0.47375604831E+01  0.96736160094E+01  0.11324800813E+02  0.51100000000E-03 0.  1.
        -12    1    3    3    0    0  0.32011575853E+01 -0.57682214528E-01  0.59026671805E+01  0.67150738616E+01  0.00000000000E+00 0.  1.
</event>
<event>
 7    1  0.5467297E-010  0.4778727E+02  0.7816164E-02  0.1312668E+00
        -11   -1    0    0    0    0  0.00000000000E+00  0.00000000000E+00  0.45593999997E+02  0.45594000000E+02  0.51100000000E-03 0. -1.
         11   -1    0    0    0    0 -0.00000000000E+00 -0.00000000000E+00 -0.45593999997E+02  0.45594000000E+02  0.51100000000E-03 0.  1.
    9900012    2    1    2    0    0 -0.21680854111E+02  0.36655020440E+02 -0.83649903179E+01  0.47787273953E+02  0.20000013260E+02 0.  0.
         12    1    1    2    0    0  0.21680854111E+02 -0.36655020440E+02  0.83649903179E+01  0.43400726047E+02  0.00000000000E+00 0. -1.
         11    1    3    3    0    0 -0.65728708039E+01  0.38620476550E+01  0.40456631563E+01  0.86304943850E+01  0.51100000000E-03 0. -1.
        -11    1    3    3    0    0 -0.78690577476E+01  0.99342415703E+01 -0.73520464851E+01  0.14651409939E+02  0.51100000000E-03 0.  1.
         12    1    3    3    0    0 -0.72389255597E+01  0.22858731214E+02 -0.50586069891E+01  0.24505369629E+02  0.00000000000E+00 0. -1.
</event>
<event>
 7    1  0.5467297E-010  0.4778727E+02  0.7816164E-02  0.1312668E+00
        -11   -1    0    0    0    0  0.00000000000E+00  0.00000000000E+00  0.45593999997E+02  0.45594000000E+02  0.51100000000E-03 0.  1.
         11   -1    0    0    0    0 -0.00000000000E+00 -0.00000000000E+00 -0.45593999997E+02  0.45594000000E+02  0.51100000000E-03 0. -1.
    9900012    2    1    2    0    0 -0.39269116863E+02 -0.24276694255E+01 -0.18321194849E+02  0.47787270758E+02  0.19999998694E+02 0.  0.
         12    1    1    2    0    0  0.39269116863E+02  0.24276694255E+01  0.18321194849E+02  0.43400729242E+02  0.00000000000E+00 0. -1.
         11    1    3    3    0    0 -0.60390861838E+01  0.31894039978E+00 -0.88105753287E+01  0.10686370890E+02  0.51100000000E-03 0. -1.
        -11    1    3    3    0    0 -0.30991165515E+02  0.75800369586E+00 -0.10667154551E+02  0.32784372742E+02  0.51100000000E-03 0.  1.
        -12    1    3    3    0    0 -0.22388651640E+01 -0.35046135211E+01  0.11565350310E+01  0.43165271264E+01  0.00000000000E+00 0.  1.
</event>
<event>
 7    1  0.5467297E-010  0.4778727E+02  0.7816164E-02  0.1312668E+00
        -11   -1    0    0    0    0  0.00000000000E+00  0.00000000000E+00  0.45593999997E+02  0.45594000000E+02  0.51100000000E-03 0.  1.
         11   -1    0    0    0    0 -0.00000000000E+00 -0.00000000000E+00 -0.45593999997E+02  0.45594000000E+02  0.51100000000E-03 0. -1.
    9900012    2    1    2    0    0  0.91236386882E+01 -0.24670822632E+02  0.34521484734E+02  0.47787272120E+02  0.20000004904E+02 0.  0.
         12    1    1    2    0    0 -0.91236386882E+01  0.24670822632E+02 -0.34521484734E+02  0.43400727880E+02  0.00000000000E+00 0. -1.
         11    1    3    3    0    0  0.39730385003E+01  0.32216662087E+00  0.16021091925E+01  0.42959958545E+01  0.51100000000E-03 0. -1.
        -11    1    3    3    0    0  0.10978351197E+01 -0.21205332339E+02  0.31092074058E+02  0.37650875567E+02  0.51100000000E-03 0.  1.
        -12    1    3    3    0    0  0.40527650682E+01 -0.37876569143E+01  0.18273014843E+01  0.58404006980E+01  0.00000000000E+00 0.  1.
</event>
<event>
 7    1  0.5467297E-010  0.4778727E+02  0.7816164E-02  0.1312668E+00
        -11   -1    0    0    0    0  0.00000000000E+00  0.00000000000E+00  0.45593999997E+02  0.45594000000E+02  0.51100000000E-03 0.  1.
         11   -1    0    0    0    0 -0.00000000000E+00 -0.00000000000E+00 -0.45593999997E+02  0.45594000000E+02  0.51100000000E-03 0. -1.
    9900012    2    1    2    0    0  0.21470512671E+02  0.20176054753E+02  0.31867964372E+02  0.47787271285E+02  0.20000001098E+02 0.  0.
         12    1    1    2    0    0 -0.21470512671E+02 -0.20176054753E+02 -0.31867964372E+02  0.43400728715E+02  0.00000000000E+00 0. -1.
         11    1    3    3    0    0  0.15209125912E+02  0.37582551559E+01  0.19715880628E+02  0.25182492768E+02  0.51100000000E-03 0. -1.
        -11    1    3    3    0    0  0.71703225155E+01  0.95542451623E+01  0.61194968995E+01  0.13421824323E+02  0.51100000000E-03 0.  1.
         12    1    3    3    0    0 -0.90893575664E+00  0.68635544350E+01  0.60325868442E+01  0.91829541938E+01  0.00000000000E+00 0. -1.
</event>
<event>
 7    1  0.5467297E-010  0.4778727E+02  0.7816164E-02  0.1312668E+00
        -11   -1    0    0    0    0  0.00000000000E+00  0.00000000000E+00  0.45593999997E+02  0.45594000000E+02  0.51100000000E-03 0.  1.
         11   -1    0    0    0    0 -0.00000000000E+00 -0.00000000000E+00 -0.45593999997E+02  0.45594000000E+02  0.51100000000E-03 0. -1.
    9900012    2    1    2    0    0 -0.38973782889E+02  0.10623064722E+02  0.15868778319E+02  0.47787269797E+02  0.19999994313E+02 0.  0.
         12    1    1    2    0    0  0.38973782889E+02 -0.10623064722E+02 -0.15868778319E+02  0.43400730203E+02  0.00000000000E+00 0. -1.
         11    1    3    3    0    0  0.85392682225E+00  0.38573648877E+01  0.18979200947E+01  0.43829848097E+01  0.51100000000E-03 0. -1.
        -11    1    3    3    0    0 -0.28107103306E+01 -0.91071638232E+00 -0.35616720855E+00  0.29759624045E+01  0.51100000000E-03 0.  1.
         12    1    3    3    0    0 -0.37016999381E+02  0.76764162164E+01  0.14327025433E+02  0.40428322583E+02  0.00000000000E+00 0. -1.
</event>
<event>
 7    1  0.5467297E-010  0.4778727E+02  0.7816164E-02  0.1312668E+00
        -11   -1    0    0    0    0  0.00000000000E+00  0.00000000000E+00  0.45593999997E+02  0.45594000000E+02  0.51100000000E-03 0.  1.
         11   -1    0    0    0    0 -0.00000000000E+00 -0.00000000000E+00 -0.45593999997E+02  0.45594000000E+02  0.51100000000E-03 0. -1.
    9900012    2    1    2    0    0  0.23658528874E+02  0.34739066925E+02 -0.10821024984E+02  0.47787270271E+02  0.19999996473E+02 0.  0.
         12    1    1    2    0    0 -0.23658528874E+02 -0.34739066925E+02  0.10821024984E+02  0.43400729729E+02  0.00000000000E+00 0. -1.
         11    1    3    3    0    0  0.68588932184E+00  0.17196405945E+02 -0.64938672704E+01  0.18394486511E+02  0.51100000000E-03 0. -1.
        -11    1    3    3    0    0  0.10529492885E+02  0.92249074381E+01 -0.33474447614E+01  0.14393558433E+02  0.51100000000E-03 0.  1.
         12    1    3    3    0    0  0.12443146667E+02  0.83177535418E+01 -0.97971295197E+00  0.14999225328E+02  0.00000000000E+00 0. -1.
</event>
<event>
 7    1  0.5467297E-010  0.4778727E+02  0.7816164E-02  0.1312668E+00
        -11   -1    0    0    0    0  0.00000000000E+00  0.00000000000E+00  0.45593999997E+02  0.45594000000E+02  0.51100000000E-03 0.  1.
         11   -1    0    0    0    0 -0.00000000000E+00 -0.00000000000E+00 -0.45593999997E+02  0.45594000000E+02  0.51100000000E-03 0. -1.
    9900012    2    1    2    0    0 -0.22630247414E+02  0.34743061817E+02  0.12822422757E+02  0.47787274571E+02  0.20000016077E+02 0.  0.
         12    1    1    2    0    0  0.22630247414E+02 -0.34743061817E+02 -0.12822422757E+02  0.43400725429E+02  0.00000000000E+00 0. -1.
         11    1    3    3    0    0 -0.58892126524E+01  0.30853747347E+01  0.41096242366E+01  0.78160971429E+01  0.51100000000E-03 0. -1.
        -11    1    3    3    0    0  0.22423342260E+01  0.16528488183E+01 -0.13093701863E+01  0.30780549935E+01  0.51100000000E-03 0.  1.
        -12    1    3    3    0    0 -0.18983368988E+02  0.30004838264E+02  0.10022168706E+02  0.36893122434E+02  0.00000000000E+00 0.  1.
</event>
<event>
 7    1  0.5467297E-010  0.4778727E+02  0.7816164E-02  0.1312668E+00
        -11   -1    0    0    0    0  0.00000000000E+00  0.00000000000E+00  0.45593999997E+02  0.45594000000E+02  0.51100000000E-03 0. -1.
         11   -1    0    0    0    0 -0.00000000000E+00 -0.00000000000E+00 -0.45593999997E+02  0.45594000000E+02  0.51100000000E-03 0.  1.
    9900012    2    1    2    0    0 -0.10405447981E+02 -0.20541609776E+02 -0.36788480137E+02  0.47787270160E+02  0.19999995969E+02 0.  0.
         12    1    1    2    0    0  0.10405447981E+02  0.20541609776E+02  0.36788480137E+02  0.43400729840E+02  0.00000000000E+00 0. -1.
         11    1    3    3    0    0 -0.84415298230E+00 -0.10624007338E+02 -0.34430341583E+01  0.11199848689E+02  0.51100000000E-03 0. -1.
        -11    1    3    3    0    0 -0.62990871103E+01 -0.95713253432E+01 -0.28679150768E+02  0.30883368603E+02  0.51100000000E-03 0.  1.
         12    1    3    3    0    0 -0.32622078879E+01 -0.34627709406E+00 -0.46662952104E+01  0.57040528680E+01  0.00000000000E+00 0. -1.
</event>
<event>
 7    1  0.5467297E-010  0.4778727E+02  0.7816164E-02  0.1312668E+00
        -11   -1    0    0    0    0  0.00000000000E+00  0.00000000000E+00  0.45593999997E+02  0.45594000000E+02  0.51100000000E-03 0. -1.
         11   -1    0    0    0    0 -0.00000000000E+00 -0.00000000000E+00 -0.45593999997E+02  0.45594000000E+02  0.51100000000E-03 0.  1.
    9900012    2    1    2    0    0 -0.14643943691E+02 -0.20787261289E+02 -0.35171978908E+02  0.47787269372E+02  0.19999992376E+02 0.  0.
         12    1    1    2    0    0  0.14643943691E+02  0.20787261289E+02  0.35171978908E+02  0.43400730628E+02  0.00000000000E+00 0. -1.
         11    1    3    3    0    0 -0.14169486520E+01 -0.18029476088E+01 -0.84727482297E+01  0.87775751998E+01  0.51100000000E-03 0. -1.
        -11    1    3    3    0    0  0.80607056048E+00 -0.13251668891E+02 -0.12875858885E+02  0.18494437554E+02  0.51100000000E-03 0.  1.
        -12    1    3    3    0    0 -0.14033065599E+02 -0.57326447890E+01 -0.13823371793E+02  0.20515256619E+02  0.00000000000E+00 0.  1.
</event>
<event>
 7    1  0.5467297E-010  0.4778727E+02  0.7816164E-02  0.1312668E+00
        -11   -1    0    0    0    0  0.00000000000E+00  0.00000000000E+00  0.45593999997E+02  0.45594000000E+02  0.51100000000E-03 0.  1.
         11   -1    0    0    0    0 -0.00000000000E+00 -0.00000000000E+00 -0.45593999997E+02  0.45594000000E+02  0.51100000000E-03 0. -1.
    9900012    2    1    2    0    0  0.40623896147E+02  0.85069758177E+01  0.12686754328E+02  0.47787270616E+02  0.19999998045E+02 0.  0.
         12    1    1    2    0    0 -0.40623896147E+02 -0.85069758177E+01 -0.12686754328E+02  0.43400729384E+02  0.00000000000E+00 0. -1.
         11    1    3    3    0    0  0.57429678096E+01  0.13556067449E+01  0.89851994874E+00  0.59688095353E+01  0.51100000000E-03 0. -1.
        -11    1    3    3    0    0  0.13141158075E+02 -0.56349022202E+01  0.83832440610E+00  0.14322881926E+02  0.51100000000E-03 0.  1.
        -12    1    3    3    0    0  0.21739770262E+02  0.12786271293E+02  0.10949909973E+02  0.27495579155E+02  0.00000000000E+00 0.  1.
</event>
<event>
 7    1  0.5467297E-010  0.4778727E+02  0.7816164E-02  0.1312668E+00
        -11   -1    0    0    0    0  0.00000000000E+00  0.00000000000E+00  0.45593999997E+02  0.45594000000E+02  0.51100000000E-03 0.  1.
         11   -1    0    0    0    0 -0.00000000000E+00 -0.00000000000E+00 -0.45593999997E+02  0.45594000000E+02  0.51100000000E-03 0. -1.
    9900012    2    1    2    0    0  0.29416794018E+02  0.30134509681E+02  0.10497010052E+02  0.47787266549E+02  0.19999979506E+02 0.  0.
         12    1    1    2    0    0 -0.29416794018E+02 -0.30134509681E+02 -0.10497010052E+02  0.43400733451E+02  0.00000000000E+00 0. -1.
         11    1    3    3    0    0  0.13474096483E+02  0.12892865093E+02 -0.39351707991E+01  0.19059454762E+02  0.51100000000E-03 0. -1.
        -11    1    3    3    0    0  0.59055581411E+01  0.52927650666E+01  0.94717625093E+01  0.12353269377E+02  0.51100000000E-03 0.  1.
        -12    1    3    3    0    0  0.10037139394E+02  0.11948879521E+02  0.49604183421E+01  0.16374542411E+02  0.00000000000E+00 0.  1.
</event>
<event>
 7    1  0.6538029E-010  0.4778726E+02  0.7816164E-02  0.1312668E+00
        -11   -1    0    0    0    0  0.00000000000E+00  0.00000000000E+00  0.45593999997E+02  0.45594000000E+02  0.51100000000E-03 0. -1.
         11   -1    0    0    0    0 -0.00000000000E+00 -0.00000000000E+00 -0.45593999997E+02  0.45594000000E+02  0.51100000000E-03 0.  1.
    9900012    2    1    2    0    0 -0.25230608472E+02  0.34208448426E+02 -0.87648457114E+01  0.47787261896E+02  0.19999958290E+02 0.  0.
         12    1    1    2    0    0  0.25230608472E+02 -0.34208448426E+02  0.87648457114E+01  0.43400738104E+02  0.00000000000E+00 0. -1.
         11    1    3    3    0    0 -0.23465834631E+01  0.44755392790E+00  0.26429402746E+01  0.35625681782E+01  0.51100000000E-03 0. -1.
        -11    1    3    3    0    0 -0.21159782745E+02  0.32355080157E+02 -0.70017106654E+01  0.39288822460E+02  0.51100000000E-03 0.  1.
        -12    1    3    3    0    0 -0.17242422643E+01  0.14058143415E+01 -0.44060753206E+01  0.49358712584E+01  0.00000000000E+00 0.  1.
</event>
<event>
 7    1  0.5467297E-010  0.4778727E+02  0.7816164E-02  0.1312668E+00
        -11   -1    0    0    0    0  0.00000000000E+00  0.00000000000E+00  0.45593999997E+02  0.45594000000E+02  0.51100000000E-03 0. -1.
         11   -1    0    0    0    0 -0.00000000000E+00 -0.00000000000E+00 -0.45593999997E+02  0.45594000000E+02  0.51100000000E-03 0.  1.
    9900012    2    1    2    0    0 -0.34009950155E+02  0.26248355505E+02 -0.61620240988E+01  0.47787269392E+02  0.19999992466E+02 0.  0.
         12    1    1    2    0    0  0.34009950155E+02 -0.26248355505E+02  0.61620240988E+01  0.43400730608E+02  0.00000000000E+00 0. -1.
         11    1    3    3    0    0 -0.31982972405E+01 -0.20723278101E+01  0.25611384490E+01  0.45916313231E+01  0.51100000000E-03 0. -1.
        -11    1    3    3    0    0 -0.12856918764E+02  0.12471346329E+02 -0.68359739662E+01  0.19171994672E+02  0.51100000000E-03 0.  1.
         12    1    3    3    0    0 -0.17954734151E+02  0.15849336987E+02 -0.18871885816E+01  0.24023643397E+02  0.00000000000E+00 0. -1.
</event>
<event>
 7    1  0.5467297E-010  0.4778727E+02  0.7816164E-02  0.1312668E+00
        -11   -1    0    0    0    0  0.00000000000E+00  0.00000000000E+00  0.45593999997E+02  0.45594000000E+02  0.51100000000E-03 0.  1.
         11   -1    0    0    0    0 -0.00000000000E+00 -0.00000000000E+00 -0.45593999997E+02  0.45594000000E+02  0.51100000000E-03 0. -1.
    9900012    2    1    2    0    0 -0.48847956548E+01  0.28902810435E+02  0.32006087972E+02  0.47787270203E+02  0.19999996164E+02 0.  0.
         12    1    1    2    0    0  0.48847956548E+01 -0.28902810435E+02 -0.32006087972E+02  0.43400729797E+02  0.00000000000E+00 0. -1.
         11    1    3    3    0    0 -0.64693875684E+01  0.25772137084E+02  0.19078405553E+02  0.32711490092E+02  0.51100000000E-03 0. -1.
        -11    1    3    3    0    0  0.40201283923E+01  0.25855206616E+01  0.57537776199E+01  0.74801274416E+01  0.51100000000E-03 0.  1.
         12    1    3    3    0    0 -0.24355364786E+01  0.54515268909E+00  0.71739047999E+01  0.75956526692E+01  0.00000000000E+00 0. -1.
</event>
<event>
 7    1  0.5467297E-010  0.4778727E+02  0.7816164E-02  0.1312668E+00
        -11   -1    0    0    0    0  0.00000000000E+00  0.00000000000E+00  0.45593999997E+02  0.45594000000E+02  0.51100000000E-03 0. -1.
         11   -1    0    0    0    0 -0.00000000000E+00 -0.00000000000E+00 -0.45593999997E+02  0.45594000000E+02  0.51100000000E-03 0.  1.
    9900012    2    1    2    0    0 -0.30398220096E+02  0.13131635053E+02 -0.28055870086E+02  0.47787268780E+02  0.19999989675E+02 0.  0.
         12    1    1    2    0    0  0.30398220096E+02 -0.13131635053E+02  0.28055870086E+02  0.43400731220E+02  0.00000000000E+00 0. -1.
         11    1    3    3    0    0 -0.53678990593E+01  0.39597209148E+01 -0.92109989891E+01  0.11372608877E+02  0.51100000000E-03 0. -1.
        -11    1    3    3    0    0 -0.35088450989E+01  0.89572886424E+01 -0.52748681700E+01  0.10971292003E+02  0.51100000000E-03 0.  1.
        -12    1    3    3    0    0 -0.21521475938E+02  0.21462549600E+00 -0.13570002927E+02  0.25443367899E+02  0.00000000000E+00 0.  1.
</event>
<event>
 7    1  0.5467297E-010  0.4778721E+02  0.7816164E-02  0.1312668E+00
        -11   -1    0    0    0    0  0.00000000000E+00  0.00000000000E+00  0.45593999997E+02  0.45594000000E+02  0.51100000000E-03 0.  1.
         11   -1    0    0    0    0 -0.00000000000E+00 -0.00000000000E+00 -0.45593999997E+02  0.45594000000E+02  0.51100000000E-03 0. -1.
    9900012    2    1    2    0    0 -0.29807484243E+02  0.31088234331E+02  0.53538712482E+01  0.47787212357E+02  0.19999732419E+02 0.  0.
         12    1    1    2    0    0  0.29807484243E+02 -0.31088234331E+02 -0.53538712482E+01  0.43400787643E+02  0.00000000000E+00 0. -1.
         11    1    3    3    0    0 -0.23929888164E+01 -0.25411177634E+01 -0.94258761777E-01  0.34917846351E+01  0.51100000000E-03 0. -1.
        -11    1    3    3    0    0 -0.19707196190E+02  0.22092656679E+02  0.64132895821E+00  0.29611996959E+02  0.51100000000E-03 0.  1.
         12    1    3    3    0    0 -0.77072992367E+01  0.11536695415E+02  0.48068010518E+01  0.14683430763E+02  0.00000000000E+00 0. -1.
</event>
<event>
 7    1  0.5467297E-010  0.4778727E+02  0.7816164E-02  0.1312668E+00
        -11   -1    0    0    0    0  0.00000000000E+00  0.00000000000E+00  0.45593999997E+02  0.45594000000E+02  0.51100000000E-03 0.  1.
         11   -1    0    0    0    0 -0.00000000000E+00 -0.00000000000E+00 -0.45593999997E+02  0.45594000000E+02  0.51100000000E-03 0. -1.
    9900012    2    1    2    0    0 -0.20704713131E+02  0.35775834733E+02  0.13229807106E+02  0.47787270827E+02  0.19999999008E+02 0.  0.
         12    1    1    2    0    0  0.20704713131E+02 -0.35775834733E+02 -0.13229807106E+02  0.43400729173E+02  0.00000000000E+00 0. -1.
         11    1    3    3    0    0 -0.10279258017E+02  0.12486888882E+02  0.62416491394E+01  0.17336196918E+02  0.51100000000E-03 0.  1.
        -11    1    3    3    0    0  0.26351252032E+01  0.58986743376E+00  0.28705394625E+01  0.39410437060E+01  0.51100000000E-03 0. -1.
        -12    1    3    3    0    0 -0.13060580318E+02  0.22699078417E+02  0.41176185040E+01  0.26510030203E+02  0.00000000000E+00 0.  1.
</event>
<event>
 7    1  0.5467297E-010  0.4778727E+02  0.7816164E-02  0.1312668E+00
        -11   -1    0    0    0    0  0.00000000000E+00  0.00000000000E+00  0.45593999997E+02  0.45594000000E+02  0.51100000000E-03 0.  1.
         11   -1    0    0    0    0 -0.00000000000E+00 -0.00000000000E+00 -0.45593999997E+02  0.45594000000E+02  0.51100000000E-03 0. -1.
    9900012    2    1    2    0    0 -0.32797755041E+02  0.27809910110E+02 -0.58770394967E+01  0.47787269254E+02  0.19999991838E+02 0.  0.
         12    1    1    2    0    0  0.32797755041E+02 -0.27809910110E+02  0.58770394967E+01  0.43400730746E+02  0.00000000000E+00 0. -1.
         11    1    3    3    0    0 -0.15459091286E+02  0.27715780744E+01  0.43681786808E+00  0.15711650408E+02  0.51100000000E-03 0. -1.
        -11    1    3    3    0    0 -0.11593220604E+02  0.21941296266E+02 -0.39200673893E+01  0.25123498451E+02  0.51100000000E-03 0.  1.
        -12    1    3    3    0    0 -0.57454431498E+01  0.30970357692E+01 -0.23937899756E+01  0.69521203953E+01  0.00000000000E+00 0.  1.
</event>
<event>
 7    1  0.5467297E-010  0.4778725E+02  0.7816164E-02  0.1312668E+00
        -11   -1    0    0    0    0  0.00000000000E+00  0.00000000000E+00  0.45593999997E+02  0.45594000000E+02  0.51100000000E-03 0.  1.
         11   -1    0    0    0    0 -0.00000000000E+00 -0.00000000000E+00 -0.45593999997E+02  0.45594000000E+02  0.51100000000E-03 0. -1.
    9900012    2    1    2    0    0  0.27432055547E+02 -0.32402580019E+01  0.33475486511E+02  0.47787249538E+02  0.19999901945E+02 0.  0.
         12    1    1    2    0    0 -0.27432055547E+02  0.32402580019E+01 -0.33475486511E+02  0.43400750462E+02  0.00000000000E+00 0. -1.
         11    1    3    3    0    0  0.86499205365E+00  0.21264758480E+01  0.13447586356E+02  0.13642129227E+02  0.51100000000E-03 0. -1.
        -11    1    3    3    0    0  0.16097231520E+02 -0.41349215850E+01  0.15305297466E+02  0.22593595772E+02  0.51100000000E-03 0.  1.
         12    1    3    3    0    0  0.10469831974E+02 -0.12318122649E+01  0.47226026887E+01  0.11551524539E+02  0.00000000000E+00 0. -1.
</event>
<event>
 7    1  0.5467297E-010  0.4778727E+02  0.7816164E-02  0.1312668E+00
        -11   -1    0    0    0    0  0.00000000000E+00  0.00000000000E+00  0.45593999997E+02  0.45594000000E+02  0.51100000000E-03 0. -1.
         11   -1    0    0    0    0 -0.00000000000E+00 -0.00000000000E+00 -0.45593999997E+02  0.45594000000E+02  0.51100000000E-03 0.  1.
    9900012    2    1    2    0    0 -0.12629976919E+02  0.39524031972E+02 -0.12726261820E+02  0.47787272354E+02  0.20000005970E+02 0.  0.
         12    1    1    2    0    0  0.12629976919E+02 -0.39524031972E+02  0.12726261820E+02  0.43400727646E+02  0.00000000000E+00 0. -1.
         11    1    3    3    0    0 -0.24202833641E+01  0.13971629856E+02 -0.14224575434E+02  0.20084888821E+02  0.51100000000E-03 0. -1.
        -11    1    3    3    0    0 -0.58152150671E+01  0.11665205210E+02 -0.21466276310E+00  0.13036096779E+02  0.51100000000E-03 0.  1.
         12    1    3    3    0    0 -0.43944784877E+01  0.13887196906E+02  0.17129763776E+01  0.14666286755E+02  0.00000000000E+00 0. -1.
</event>
<event>
 7    1  0.5467297E-010  0.4778727E+02  0.7816164E-02  0.1312668E+00
        -11   -1    0    0    0    0  0.00000000000E+00  0.00000000000E+00  0.45593999997E+02  0.45594000000E+02  0.51100000000E-03 0.  1.
         11   -1    0    0    0    0 -0.00000000000E+00 -0.00000000000E+00 -0.45593999997E+02  0.45594000000E+02  0.51100000000E-03 0. -1.
    9900012    2    1    2    0    0  0.42221028037E+02 -0.22060123305E+01 -0.98051747647E+01  0.47787272459E+02  0.20000006451E+02 0.  0.
         12    1    1    2    0    0 -0.42221028037E+02  0.22060123305E+01  0.98051747647E+01  0.43400727541E+02  0.00000000000E+00 0. -1.
         11    1    3    3    0    0  0.11741753663E+02  0.28252341728E+01 -0.48163377822E+01  0.13001839758E+02  0.51100000000E-03 0. -1.
        -11    1    3    3    0    0  0.71666272437E+01 -0.51991330620E+01  0.41076824935E+01  0.97603579020E+01  0.51100000000E-03 0.  1.
        -12    1    3    3    0    0  0.23312647131E+02  0.16788655881E+00 -0.90965194759E+01  0.25025074799E+02  0.00000000000E+00 0.  1.
</event>
<event>
 7    1  0.5467297E-010  0.4778727E+02  0.7816164E-02  0.1312668E+00
        -11   -1    0    0    0    0  0.00000000000E+00  0.00000000000E+00  0.45593999997E+02  0.45594000000E+02  0.51100000000E-03 0.  1.
         11   -1    0    0    0    0 -0.00000000000E+00 -0.00000000000E+00 -0.45593999997E+02  0.45594000000E+02  0.51100000000E-03 0. -1.
    9900012    2    1    2    0    0  0.34060434879E+02 -0.12799279322E+02  0.23657737053E+02  0.47787270769E+02  0.19999998746E+02 0.  0.
         12    1    1    2    0    0 -0.34060434879E+02  0.12799279322E+02 -0.23657737053E+02  0.43400729231E+02  0.00000000000E+00 0. -1.
         11    1    3    3    0    0  0.12200018944E+02 -0.11779369053E+02  0.16231970394E+02  0.23474898523E+02  0.51100000000E-03 0. -1.
        -11    1    3    3    0    0  0.14763171898E+02 -0.14602744390E+00  0.85694062790E+01  0.17070655897E+02  0.51100000000E-03 0.  1.
         12    1    3    3    0    0  0.70972440365E+01 -0.87388282463E+00 -0.11436396202E+01  0.72417163494E+01  0.00000000000E+00 0. -1.
</event>
<event>
 7    1  0.5467297E-010  0.4778727E+02  0.7816164E-02  0.1312668E+00
        -11   -1    0    0    0    0  0.00000000000E+00  0.00000000000E+00  0.45593999997E+02  0.45594000000E+02  0.51100000000E-03 0.  1.
         11   -1    0    0    0    0 -0.00000000000E+00 -0.00000000000E+00 -0.45593999997E+02  0.45594000000E+02  0.51100000000E-03 0. -1.
    9900012    2    1    2    0    0  0.28675181126E+02  0.25060806526E+01  0.32481946191E+02  0.47787270960E+02  0.19999999614E+02 0.  0.
         12    1    1    2    0    0 -0.28675181126E+02 -0.25060806526E+01 -0.32481946191E+02  0.43400729040E+02  0.00000000000E+00 0. -1.
         11    1    3    3    0    0  0.53777039479E+01 -0.73060839332E+00  0.15852268264E+01  0.56538865153E+01  0.51100000000E-03 0. -1.
        -11    1    3    3    0    0  0.20411631738E+02  0.66892546497E+01  0.30901532327E+02  0.37633569302E+02  0.51100000000E-03 0.  1.
        -12    1    3    3    0    0  0.28858454407E+01 -0.34525656038E+01 -0.48129622144E-02  0.44998151429E+01  0.00000000000E+00 0.  1.
</event>
<event>
 7    1  0.5467297E-010  0.4778727E+02  0.7816164E-02  0.1312668E+00
        -11   -1    0    0    0    0  0.00000000000E+00  0.00000000000E+00  0.45593999997E+02  0.45594000000E+02  0.51100000000E-03 0.  1.
         11   -1    0    0    0    0 -0.00000000000E+00 -0.00000000000E+00 -0.45593999997E+02  0.45594000000E+02  0.51100000000E-03 0. -1.
    9900012    2    1    2    0    0  0.23170583169E+01  0.10747158972E+02  0.41985152097E+02  0.47787272105E+02  0.20000004838E+02 0.  0.
         12    1    1    2    0    0 -0.23170583169E+01 -0.10747158972E+02 -0.41985152097E+02  0.43400727895E+02  0.00000000000E+00 0. -1.
         11    1    3    3    0    0  0.15161143360E+01 -0.14722032147E+01  0.19186413555E+02  0.19302446745E+02  0.51100000000E-03 0. -1.
        -11    1    3    3    0    0  0.32649217806E+00  0.46686118410E+01  0.23436581982E+00  0.46858789211E+01  0.51100000000E-03 0.  1.
        -12    1    3    3    0    0  0.47445180291E+00  0.75507503454E+01  0.22564372722E+02  0.23798946440E+02  0.00000000000E+00 0.  1.
</event>
<event>
 7    1  0.5467297E-010  0.4778726E+02  0.7816164E-02  0.1312668E+00
        -11   -1    0    0    0    0  0.00000000000E+00  0.00000000000E+00  0.45593999997E+02  0.45594000000E+02  0.51100000000E-03 0.  1.
         11   -1    0    0    0    0 -0.00000000000E+00 -0.00000000000E+00 -0.45593999997E+02  0.45594000000E+02  0.51100000000E-03 0. -1.
    9900012    2    1    2    0    0 -0.40389490030E+02 -0.14673880928E+02  0.60819597411E+01  0.47787263593E+02  0.19999966024E+02 0.  0.
         12    1    1    2    0    0  0.40389490030E+02  0.14673880928E+02 -0.60819597411E+01  0.43400736407E+02  0.00000000000E+00 0. -1.
         11    1    3    3    0    0 -0.34504079438E+01 -0.75197690517E+01 -0.12536162985E+00  0.82745366861E+01  0.51100000000E-03 0. -1.
        -11    1    3    3    0    0 -0.36198597947E+02 -0.68555594830E+01  0.38723217768E+01  0.37045000545E+02  0.51100000000E-03 0.  1.
        -12    1    3    3    0    0 -0.74048413976E+00 -0.29855239371E+00  0.23349995942E+01  0.24677263620E+01  0.00000000000E+00 0.  1.
</event>
<event>
 7    1  0.5467297E-010  0.4778727E+02  0.7816164E-02  0.1312668E+00
        -11   -1    0    0    0    0  0.00000000000E+00  0.00000000000E+00  0.45593999997E+02  0.45594000000E+02  0.51100000000E-03 0. -1.
         11   -1    0    0    0    0 -0.00000000000E+00 -0.00000000000E+00 -0.45593999997E+02  0.45594000000E+02  0.51100000000E-03 0.  1.
    9900012    2    1    2    0    0  0.45499796072E+01  0.14361706468E+02 -0.40702119084E+02  0.47787269303E+02  0.19999992059E+02 0.  0.
         12    1    1    2    0    0 -0.45499796072E+01 -0.14361706468E+02  0.40702119084E+02  0.43400730697E+02  0.00000000000E+00 0. -1.
         11    1    3    3    0    0  0.10352783094E+01 -0.33679486001E+01 -0.43942408615E+00  0.35507707247E+01  0.51100000000E-03 0. -1.
        -11    1    3    3    0    0  0.30222618715E+01  0.11996053768E+02 -0.30350925865E+02  0.32775266192E+02  0.51100000000E-03 0.  1.
         12    1    3    3    0    0  0.49243942633E+00  0.57336013002E+01 -0.99117691329E+01  0.11461232386E+02  0.00000000000E+00 0. -1.
</event>
<event>
 7    1  0.5467297E-010  0.4778727E+02  0.7816164E-02  0.1312668E+00
        -11   -1    0    0    0    0  0.00000000000E+00  0.00000000000E+00  0.45593999997E+02  0.45594000000E+02  0.51100000000E-03 0. -1.
         11   -1    0    0    0    0 -0.00000000000E+00 -0.00000000000E+00 -0.45593999997E+02  0.45594000000E+02  0.51100000000E-03 0.  1.
    9900012    2    1    2    0    0  0.42325232619E+02 -0.79974087384E+01 -0.53141038073E+01  0.47787267724E+02  0.19999984862E+02 0.  0.
         12    1    1    2    0    0 -0.42325232619E+02  0.79974087384E+01  0.53141038073E+01  0.43400732276E+02  0.00000000000E+00 0. -1.
         11    1    3    3    0    0  0.19110485271E+01 -0.15545374815E+01 -0.57765464663E+01  0.62799030719E+01  0.51100000000E-03 0. -1.
        -11    1    3    3    0    0  0.35626417990E+02 -0.47554300068E+01  0.25181424674E+01  0.36030498402E+02  0.51100000000E-03 0.  1.
        -12    1    3    3    0    0  0.47877661024E+01 -0.16874412501E+01 -0.20556998085E+01  0.54768662505E+01  0.00000000000E+00 0.  1.
</event>
<event>
 7    1  0.5467297E-010  0.4778730E+02  0.7816164E-02  0.1312668E+00
        -11   -1    0    0    0    0  0.00000000000E+00  0.00000000000E+00  0.45593999997E+02  0.45594000000E+02  0.51100000000E-03 0. -1.
         11   -1    0    0    0    0 -0.00000000000E+00 -0.00000000000E+00 -0.45593999997E+02  0.45594000000E+02  0.51100000000E-03 0.  1.
    9900012    2    1    2    0    0  0.28084537540E+02  0.32396338359E+02  0.67347596308E+01  0.47787297526E+02  0.20000120742E+02 0.  0.
         12    1    1    2    0    0 -0.28084537540E+02 -0.32396338359E+02 -0.67347596308E+01  0.43400702474E+02  0.00000000000E+00 0. -1.
         11    1    3    3    0    0  0.15243474619E+02  0.91671677230E+01 -0.38360171178E+01  0.18196579627E+02  0.51100000000E-03 0. -1.
        -11    1    3    3    0    0  0.20755609460E+01  0.10181952381E+02  0.18323930476E+01  0.10551671530E+02  0.51100000000E-03 0.  1.
         12    1    3    3    0    0  0.10765501975E+02  0.13047218254E+02  0.87383837011E+01  0.19039046370E+02  0.00000000000E+00 0. -1.
</event>
<event>
 7    1  0.5467297E-010  0.4778727E+02  0.7816164E-02  0.1312668E+00
        -11   -1    0    0    0    0  0.00000000000E+00  0.00000000000E+00  0.45593999997E+02  0.45594000000E+02  0.51100000000E-03 0.  1.
         11   -1    0    0    0    0 -0.00000000000E+00 -0.00000000000E+00 -0.45593999997E+02  0.45594000000E+02  0.51100000000E-03 0. -1.
    9900012    2    1    2    0    0 -0.32733425124E+02  0.23419944279E+02  0.16237378132E+02  0.47787270064E+02  0.19999995531E+02 0.  0.
         12    1    1    2    0    0  0.32733425124E+02 -0.23419944279E+02 -0.16237378132E+02  0.43400729936E+02  0.00000000000E+00 0. -1.
         11    1    3    3    0    0 -0.11526566030E+02 -0.27578941874E+00  0.40390968964E+01  0.12216877189E+02  0.51100000000E-03 0. -1.
        -11    1    3    3    0    0 -0.14296922979E+02  0.15876727312E+02  0.13157445446E+02  0.25091648964E+02  0.51100000000E-03 0.  1.
         12    1    3    3    0    0 -0.69099361149E+01  0.78190063858E+01 -0.95916421119E+00  0.10478743911E+02  0.00000000000E+00 0. -1.
</event>
<event>
 7    1  0.5467297E-010  0.4778727E+02  0.7816164E-02  0.1312668E+00
        -11   -1    0    0    0    0  0.00000000000E+00  0.00000000000E+00  0.45593999997E+02  0.45594000000E+02  0.51100000000E-03 0.  1.
         11   -1    0    0    0    0 -0.00000000000E+00 -0.00000000000E+00 -0.45593999997E+02  0.45594000000E+02  0.51100000000E-03 0. -1.
    9900012    2    1    2    0    0  0.21999352780E+02 -0.23509509729E+02  0.29102493112E+02  0.47787266414E+02  0.19999978890E+02 0.  0.
         12    1    1    2    0    0 -0.21999352780E+02  0.23509509729E+02 -0.29102493112E+02  0.43400733586E+02  0.00000000000E+00 0. -1.
         11    1    3    3    0    0  0.14679880624E+02 -0.10502565377E+02  0.23484644018E+02  0.29619778520E+02  0.51100000000E-03 0. -1.
        -11    1    3    3    0    0  0.77483546014E+01 -0.55886441862E+01  0.48010164948E+01  0.10692039212E+02  0.51100000000E-03 0.  1.
         12    1    3    3    0    0 -0.42888244558E+00 -0.74183001664E+01  0.81683259869E+00  0.74754486826E+01  0.00000000000E+00 0. -1.
</event>
<event>
 7    1  0.5467297E-010  0.4778727E+02  0.7816164E-02  0.1312668E+00
        -11   -1    0    0    0    0  0.00000000000E+00  0.00000000000E+00  0.45593999997E+02  0.45594000000E+02  0.51100000000E-03 0. -1.
         11   -1    0    0    0    0 -0.00000000000E+00 -0.00000000000E+00 -0.45593999997E+02  0.45594000000E+02  0.51100000000E-03 0.  1.
    9900012    2    1    2    0    0  0.37796535617E+02  0.20804976263E+02 -0.47114785288E+01  0.47787272220E+02  0.20000005358E+02 0.  0.
         12    1    1    2    0    0 -0.37796535617E+02 -0.20804976263E+02  0.47114785288E+01  0.43400727780E+02  0.00000000000E+00 0. -1.
         11    1    3    3    0    0  0.26211381937E+01 -0.13476820221E+01 -0.31273827162E+01  0.42973404772E+01  0.51100000000E-03 0. -1.
        -11    1    3    3    0    0  0.24142359625E+02  0.18670357787E+02  0.37518541789E+01  0.30749182073E+02  0.51100000000E-03 0.  1.
        -12    1    3    3    0    0  0.11033037798E+02  0.34823004985E+01 -0.53359499915E+01  0.12740749669E+02  0.00000000000E+00 0.  1.
</event>
<event>
 7    1  0.5467297E-010  0.4778728E+02  0.7816164E-02  0.1312668E+00
        -11   -1    0    0    0    0  0.00000000000E+00  0.00000000000E+00  0.45593999997E+02  0.45594000000E+02  0.51100000000E-03 0. -1.
         11   -1    0    0    0    0 -0.00000000000E+00 -0.00000000000E+00 -0.45593999997E+02  0.45594000000E+02  0.51100000000E-03 0.  1.
    9900012    2    1    2    0    0  0.14068976761E+02  0.23065296677E+02 -0.33965843238E+02  0.47787279675E+02  0.20000039348E+02 0.  0.
         12    1    1    2    0    0 -0.14068976761E+02 -0.23065296677E+02  0.33965843238E+02  0.43400720325E+02  0.00000000000E+00 0. -1.
         11    1    3    3    0    0  0.28761459771E+01  0.14262909113E+02 -0.66320071684E+01  0.15990194226E+02  0.51100000000E-03 0. -1.
        -11    1    3    3    0    0  0.70902474542E+01  0.62120165289E+01 -0.24325680249E+02  0.26088301557E+02  0.51100000000E-03 0.  1.
         12    1    3    3    0    0  0.41025833293E+01  0.25903710349E+01 -0.30081558213E+01  0.57087838913E+01  0.00000000000E+00 0. -1.
</event>
<event>
 7    1  0.5467297E-010  0.4778727E+02  0.7816164E-02  0.1312668E+00
        -11   -1    0    0    0    0  0.00000000000E+00  0.00000000000E+00  0.45593999997E+02  0.45594000000E+02  0.51100000000E-03 0.  1.
         11   -1    0    0    0    0 -0.00000000000E+00 -0.00000000000E+00 -0.45593999997E+02  0.45594000000E+02  0.51100000000E-03 0. -1.
    9900012    2    1    2    0    0 -0.34302131379E+02  0.11994222045E+02  0.23730271286E+02  0.47787270111E+02  0.19999995744E+02 0.  0.
         12    1    1    2    0    0  0.34302131379E+02 -0.11994222045E+02 -0.23730271286E+02  0.43400729889E+02  0.00000000000E+00 0. -1.
         11    1    3    3    0    0 -0.95232215687E+00 -0.32080649460E+01  0.11633052073E+01  0.35428628897E+01  0.51100000000E-03 0. -1.
        -11    1    3    3    0    0 -0.23471792054E+02  0.15117967265E+02  0.14327286860E+02  0.31380712316E+02  0.51100000000E-03 0.  1.
         12    1    3    3    0    0 -0.98780171681E+01  0.84319726231E-01  0.82396792183E+01  0.12863694905E+02  0.00000000000E+00 0. -1.
</event>
<event>
 7    1  0.5547868E-010  0.4778727E+02  0.7816164E-02  0.1312668E+00
        -11   -1    0    0    0    0  0.00000000000E+00  0.00000000000E+00  0.45593999997E+02  0.45594000000E+02  0.51100000000E-03 0.  1.
         11   -1    0    0    0    0 -0.00000000000E+00 -0.00000000000E+00 -0.45593999997E+02  0.45594000000E+02  0.51100000000E-03 0. -1.
    9900012    2    1    2    0    0  0.49572422465E+01  0.26110000903E+02  0.34312047440E+02  0.47787274230E+02  0.20000014525E+02 0.  0.
         12    1    1    2    0    0 -0.49572422465E+01 -0.26110000903E+02 -0.34312047440E+02  0.43400725770E+02  0.00000000000E+00 0. -1.
         11    1    3    3    0    0  0.28912310448E+01  0.51420814329E+00 -0.48401466150E+00  0.29762220050E+01  0.51100000000E-03 0. -1.
        -11    1    3    3    0    0 -0.19121432979E+01  0.23771298383E+02  0.28933855463E+02  0.37495318521E+02  0.51100000000E-03 0.  1.
        -12    1    3    3    0    0  0.39781544996E+01  0.18244943765E+01  0.58622066383E+01  0.73157337036E+01  0.00000000000E+00 0.  1.
</event>
<event>
 7    1  0.7244556E-010  0.4778727E+02  0.7816164E-02  0.1312668E+00
        -11   -1    0    0    0    0  0.00000000000E+00  0.00000000000E+00  0.45593999997E+02  0.45594000000E+02  0.51100000000E-03 0. -1.
         11   -1    0    0    0    0 -0.00000000000E+00 -0.00000000000E+00 -0.45593999997E+02  0.45594000000E+02  0.51100000000E-03 0.  1.
    9900012    2    1    2    0    0  0.29841082965E+02  0.21854905071E+02 -0.22704542972E+02  0.47787269824E+02  0.19999994438E+02 0.  0.
         12    1    1    2    0    0 -0.29841082965E+02 -0.21854905071E+02  0.22704542972E+02  0.43400730176E+02  0.00000000000E+00 0. -1.
         11    1    3    3    0    0  0.70954356543E+01  0.31936206904E+00  0.77588150919E+00  0.71448717016E+01  0.51100000000E-03 0. -1.
        -11    1    3    3    0    0  0.22258106000E+02  0.15517121416E+02 -0.19025795136E+02  0.33138877781E+02  0.51100000000E-03 0.  1.
        -12    1    3    3    0    0  0.48754131040E+00  0.60184215860E+01 -0.44546293452E+01  0.75035203418E+01  0.00000000000E+00 0.  1.
</event>
<event>
 7    1  0.5467297E-010  0.4778728E+02  0.7816164E-02  0.1312668E+00
        -11   -1    0    0    0    0  0.00000000000E+00  0.00000000000E+00  0.45593999997E+02  0.45594000000E+02  0.51100000000E-03 0. -1.
         11   -1    0    0    0    0 -0.00000000000E+00 -0.00000000000E+00 -0.45593999997E+02  0.45594000000E+02  0.51100000000E-03 0.  1.
    9900012    2    1    2    0    0  0.13739417878E+02  0.61606145603E+01 -0.40705010335E+02  0.47787278327E+02  0.20000033202E+02 0.  0.
         12    1    1    2    0    0 -0.13739417878E+02 -0.61606145603E+01  0.40705010335E+02  0.43400721673E+02  0.00000000000E+00 0. -1.
         11    1    3    3    0    0  0.10504524562E+02  0.88482060855E+01 -0.16910884936E+02  0.21785633266E+02  0.51100000000E-03 0. -1.
        -11    1    3    3    0    0  0.45079009778E+01  0.24865133784E+01 -0.12197803573E+02  0.13239725536E+02  0.51100000000E-03 0.  1.
         12    1    3    3    0    0 -0.12730076617E+01 -0.51741049036E+01 -0.11596321826E+02  0.12761919525E+02  0.00000000000E+00 0. -1.
</event>
<event>
 7    1  0.5467297E-010  0.4778727E+02  0.7816164E-02  0.1312668E+00
        -11   -1    0    0    0    0  0.00000000000E+00  0.00000000000E+00  0.45593999997E+02  0.45594000000E+02  0.51100000000E-03 0. -1.
         11   -1    0    0    0    0 -0.00000000000E+00 -0.00000000000E+00 -0.45593999997E+02  0.45594000000E+02  0.51100000000E-03 0.  1.
    9900012    2    1    2    0    0  0.41293476653E+02  0.79479177669E+01 -0.10737906904E+02  0.47787271255E+02  0.20000000961E+02 0.  0.
         12    1    1    2    0    0 -0.41293476653E+02 -0.79479177669E+01  0.10737906904E+02  0.43400728745E+02  0.00000000000E+00 0. -1.
         11    1    3    3    0    0  0.27104703441E+01  0.53177546360E+00  0.40034757852E+01  0.48638722489E+01  0.51100000000E-03 0. -1.
        -11    1    3    3    0    0  0.28362060173E+02  0.86608945954E+01 -0.83640146940E+01  0.30811918060E+02  0.51100000000E-03 0.  1.
         12    1    3    3    0    0  0.10220946136E+02 -0.12447522922E+01 -0.63773679956E+01  0.12111480947E+02  0.00000000000E+00 0. -1.
</event>
<event>
 7    1  0.5467297E-010  0.4778727E+02  0.7816164E-02  0.1312668E+00
        -11   -1    0    0    0    0  0.00000000000E+00  0.00000000000E+00  0.45593999997E+02  0.45594000000E+02  0.51100000000E-03 0.  1.
         11   -1    0    0    0    0 -0.00000000000E+00 -0.00000000000E+00 -0.45593999997E+02  0.45594000000E+02  0.51100000000E-03 0. -1.
    9900012    2    1    2    0    0  0.28382622685E+01 -0.36961483964E+02  0.22570247943E+02  0.47787272797E+02  0.20000007989E+02 0.  0.
         12    1    1    2    0    0 -0.28382622685E+01  0.36961483964E+02 -0.22570247943E+02  0.43400727203E+02  0.00000000000E+00 0. -1.
         11    1    3    3    0    0  0.53534470304E+01 -0.25956542305E+02  0.19066046984E+02  0.32648363380E+02  0.51100000000E-03 0. -1.
        -11    1    3    3    0    0  0.21612154943E+00 -0.11683946794E+02  0.38488277556E+01  0.12303446532E+02  0.51100000000E-03 0.  1.
         12    1    3    3    0    0 -0.27313063113E+01  0.67900513489E+00 -0.34462679649E+00  0.28354628843E+01  0.00000000000E+00 0. -1.
</event>
<event>
 7    1  0.5467297E-010  0.4778727E+02  0.7816164E-02  0.1312668E+00
        -11   -1    0    0    0    0  0.00000000000E+00  0.00000000000E+00  0.45593999997E+02  0.45594000000E+02  0.51100000000E-03 0.  1.
         11   -1    0    0    0    0 -0.00000000000E+00 -0.00000000000E+00 -0.45593999997E+02  0.45594000000E+02  0.51100000000E-03 0. -1.
    9900012    2    1    2    0    0 -0.21991057110E+02  0.63452232738E+01  0.36874856979E+02  0.47787268112E+02  0.19999986630E+02 0.  0.
         12    1    1    2    0    0  0.21991057110E+02 -0.63452232738E+01 -0.36874856979E+02  0.43400731888E+02  0.00000000000E+00 0. -1.
         11    1    3    3    0    0 -0.10619472902E+02 -0.20835738079E+01  0.17642682178E+02  0.20697311884E+02  0.51100000000E-03 0.  1.
        -11    1    3    3    0    0 -0.74869757198E+01  0.70209694694E+01  0.35311890887E+01  0.10854405297E+02  0.51100000000E-03 0. -1.
        -12    1    3    3    0    0 -0.38846084881E+01  0.14078276123E+01  0.15700985712E+02  0.16235550931E+02  0.00000000000E+00 0.  1.
</event>
<event>
 7    1  0.5467297E-010  0.4778727E+02  0.7816164E-02  0.1312668E+00
        -11   -1    0    0    0    0  0.00000000000E+00  0.00000000000E+00  0.45593999997E+02  0.45594000000E+02  0.51100000000E-03 0.  1.
         11   -1    0    0    0    0 -0.00000000000E+00 -0.00000000000E+00 -0.45593999997E+02  0.45594000000E+02  0.51100000000E-03 0. -1.
    9900012    2    1    2    0    0  0.14611653594E+02  0.90464930998E+01  0.39853275246E+02  0.47787274131E+02  0.20000014073E+02 0.  0.
         12    1    1    2    0    0 -0.14611653594E+02 -0.90464930998E+01 -0.39853275246E+02  0.43400725869E+02  0.00000000000E+00 0. -1.
         11    1    3    3    0    0  0.11647756308E+02  0.12743727885E+02  0.23304841157E+02  0.29003248939E+02  0.51100000000E-03 0. -1.
        -11    1    3    3    0    0  0.44609857128E+01 -0.45812950898E+01  0.15466537835E+02  0.16736261563E+02  0.51100000000E-03 0.  1.
         12    1    3    3    0    0 -0.14970884260E+01  0.88406030455E+00  0.10818962532E+01  0.20477636289E+01  0.00000000000E+00 0. -1.
</event>
<event>
 7    1  0.5467297E-010  0.4778727E+02  0.7816164E-02  0.1312668E+00
        -11   -1    0    0    0    0  0.00000000000E+00  0.00000000000E+00  0.45593999997E+02  0.45594000000E+02  0.51100000000E-03 0.  1.
         11   -1    0    0    0    0 -0.00000000000E+00 -0.00000000000E+00 -0.45593999997E+02  0.45594000000E+02  0.51100000000E-03 0. -1.
    9900012    2    1    2    0    0 -0.28326818417E+02  0.32595306690E+02 -0.43313464351E+01  0.47787271644E+02  0.20000002736E+02 0.  0.
         12    1    1    2    0    0  0.28326818417E+02 -0.32595306690E+02  0.43313464351E+01  0.43400728356E+02  0.00000000000E+00 0. -1.
         11    1    3    3    0    0 -0.24883698433E+02  0.22789885192E+02 -0.10603824932E+02  0.35369738735E+02  0.51100000000E-03 0. -1.
        -11    1    3    3    0    0 -0.30153612742E+01  0.61309179777E+01  0.51363932020E+01  0.85476952595E+01  0.51100000000E-03 0.  1.
         12    1    3    3    0    0 -0.42775871025E+00  0.36745035204E+01  0.11360852954E+01  0.38698376496E+01  0.00000000000E+00 0. -1.
</event>
<event>
 7    1  0.5467297E-010  0.4778727E+02  0.7816164E-02  0.1312668E+00
        -11   -1    0    0    0    0  0.00000000000E+00  0.00000000000E+00  0.45593999997E+02  0.45594000000E+02  0.51100000000E-03 0. -1.
         11   -1    0    0    0    0 -0.00000000000E+00 -0.00000000000E+00 -0.45593999997E+02  0.45594000000E+02  0.51100000000E-03 0.  1.
    9900012    2    1    2    0    0  0.42369321026E+02 -0.75287975670E+01  0.56374769410E+01  0.47787270705E+02  0.19999998454E+02 0.  0.
         12    1    1    2    0    0 -0.42369321026E+02  0.75287975670E+01 -0.56374769410E+01  0.43400729295E+02  0.00000000000E+00 0. -1.
         11    1    3    3    0    0 -0.12411887545E+01  0.18947346792E+01  0.26021913914E+00  0.22799744057E+01  0.51100000000E-03 0. -1.
        -11    1    3    3    0    0  0.29284938420E+02 -0.28545313708E+01  0.38200709564E+01  0.29670674242E+02  0.51100000000E-03 0.  1.
        -12    1    3    3    0    0  0.14325571361E+02 -0.65690008754E+01  0.15571868454E+01  0.15836622058E+02  0.00000000000E+00 0.  1.
</event>
<event>
 7    1  0.5467297E-010  0.4778726E+02  0.7816164E-02  0.1312668E+00
        -11   -1    0    0    0    0  0.00000000000E+00  0.00000000000E+00  0.45593999997E+02  0.45594000000E+02  0.51100000000E-03 0.  1.
         11   -1    0    0    0    0 -0.00000000000E+00 -0.00000000000E+00 -0.45593999997E+02  0.45594000000E+02  0.51100000000E-03 0. -1.
    9900012    2    1    2    0    0  0.20177430545E+01 -0.36889657602E+02  0.22775115450E+02  0.47787262578E+02  0.19999961396E+02 0.  0.
         12    1    1    2    0    0 -0.20177430545E+01  0.36889657602E+02 -0.22775115450E+02  0.43400737422E+02  0.00000000000E+00 0. -1.
         11    1    3    3    0    0 -0.96296828374E+00 -0.27359102402E+00  0.75666854388E+01  0.76326200452E+01  0.51100000000E-03 0. -1.
        -11    1    3    3    0    0  0.59895394197E+00 -0.17741024789E+02  0.44570394431E+01  0.18302128490E+02  0.51100000000E-03 0.  1.
        -12    1    3    3    0    0  0.23817573963E+01 -0.18875041789E+02  0.10751390568E+02  0.21852514043E+02  0.00000000000E+00 0.  1.
</event>
<event>
 7    1  0.5467297E-010  0.4778727E+02  0.7816164E-02  0.1312668E+00
        -11   -1    0    0    0    0  0.00000000000E+00  0.00000000000E+00  0.45593999997E+02  0.45594000000E+02  0.51100000000E-03 0.  1.
         11   -1    0    0    0    0 -0.00000000000E+00 -0.00000000000E+00 -0.45593999997E+02  0.45594000000E+02  0.51100000000E-03 0. -1.
    9900012    2    1    2    0    0  0.11370374298E+02  0.28542840277E+02  0.30653612026E+02  0.47787273359E+02  0.20000010552E+02 0.  0.
         12    1    1    2    0    0 -0.11370374298E+02 -0.28542840277E+02 -0.30653612026E+02  0.43400726641E+02  0.00000000000E+00 0. -1.
         11    1    3    3    0    0  0.12777683138E+02  0.11376683021E+02  0.18223976118E+02  0.24996227890E+02  0.51100000000E-03 0. -1.
        -11    1    3    3    0    0 -0.17983968420E+01  0.17243417934E+02  0.93728489034E+01  0.19708373603E+02  0.51100000000E-03 0.  1.
        -12    1    3    3    0    0  0.39108800192E+00 -0.77260678180E-01  0.30567870043E+01  0.30826718650E+01  0.00000000000E+00 0.  1.
</event>
<event>
 7    1  0.5467297E-010  0.4778727E+02  0.7816164E-02  0.1312668E+00
        -11   -1    0    0    0    0  0.00000000000E+00  0.00000000000E+00  0.45593999997E+02  0.45594000000E+02  0.51100000000E-03 0.  1.
         11   -1    0    0    0    0 -0.00000000000E+00 -0.00000000000E+00 -0.45593999997E+02  0.45594000000E+02  0.51100000000E-03 0. -1.
    9900012    2    1    2    0    0  0.41178809119E+02  0.96730749317E+01  0.97139357061E+01  0.47787271366E+02  0.20000001464E+02 0.  0.
         12    1    1    2    0    0 -0.41178809119E+02 -0.96730749317E+01 -0.97139357061E+01  0.43400728634E+02  0.00000000000E+00 0. -1.
         11    1    3    3    0    0  0.34442010745E+02  0.51104967950E+01  0.89921513966E+01  0.35961480345E+02  0.51100000000E-03 0. -1.
        -11    1    3    3    0    0  0.29336645082E+01 -0.91257670534E+00  0.34526723452E+01  0.46217020971E+01  0.51100000000E-03 0.  1.
         12    1    3    3    0    0  0.38031338663E+01  0.54751548421E+01 -0.27308880356E+01  0.72040889232E+01  0.00000000000E+00 0. -1.
</event>
<event>
 7    1  0.5467297E-010  0.4778727E+02  0.7816164E-02  0.1312668E+00
        -11   -1    0    0    0    0  0.00000000000E+00  0.00000000000E+00  0.45593999997E+02  0.45594000000E+02  0.51100000000E-03 0.  1.
         11   -1    0    0    0    0 -0.00000000000E+00 -0.00000000000E+00 -0.45593999997E+02  0.45594000000E+02  0.51100000000E-03 0. -1.
    9900012    2    1    2    0    0 -0.84982122664E+01 -0.24176635700E+02  0.35027048867E+02  0.47787268695E+02  0.19999989288E+02 0.  0.
         12    1    1    2    0    0  0.84982122664E+01  0.24176635700E+02 -0.35027048867E+02  0.43400731305E+02  0.00000000000E+00 0. -1.
         11    1    3    3    0    0 -0.10422426411E+02 -0.14663691696E+02  0.18484141334E+02  0.25793687359E+02  0.51100000000E-03 0.  1.
        -11    1    3    3    0    0  0.59537040529E+01 -0.66818421031E+01  0.74160632288E+01  0.11622891203E+02  0.51100000000E-03 0. -1.
         12    1    3    3    0    0 -0.40294899084E+01 -0.28311019007E+01  0.91268443039E+01  0.10370690133E+02  0.00000000000E+00 0. -1.
</event>
<event>
 7    1  0.5467297E-010  0.4778727E+02  0.7816164E-02  0.1312668E+00
        -11   -1    0    0    0    0  0.00000000000E+00  0.00000000000E+00  0.45593999997E+02  0.45594000000E+02  0.51100000000E-03 0.  1.
         11   -1    0    0    0    0 -0.00000000000E+00 -0.00000000000E+00 -0.45593999997E+02  0.45594000000E+02  0.51100000000E-03 0. -1.
    9900012    2    1    2    0    0 -0.72536190134E+01 -0.78352212504E+01  0.42066823695E+02  0.47787270322E+02  0.19999996704E+02 0.  0.
         12    1    1    2    0    0  0.72536190134E+01  0.78352212504E+01 -0.42066823695E+02  0.43400729678E+02  0.00000000000E+00 0. -1.
         11    1    3    3    0    0  0.21972200321E+01 -0.77077237620E+01  0.10852132074E+02  0.13490943342E+02  0.51100000000E-03 0. -1.
        -11    1    3    3    0    0 -0.80090185379E+01  0.14743896885E+01  0.96620413871E+01  0.12636187990E+02  0.51100000000E-03 0.  1.
         12    1    3    3    0    0 -0.14418205076E+01 -0.16018871770E+01  0.21552650234E+02  0.21660138989E+02  0.00000000000E+00 0. -1.
</event>
<event>
 7    1  0.5467297E-010  0.4778727E+02  0.7816164E-02  0.1312668E+00
        -11   -1    0    0    0    0  0.00000000000E+00  0.00000000000E+00  0.45593999997E+02  0.45594000000E+02  0.51100000000E-03 0. -1.
         11   -1    0    0    0    0 -0.00000000000E+00 -0.00000000000E+00 -0.45593999997E+02  0.45594000000E+02  0.51100000000E-03 0.  1.
    9900012    2    1    2    0    0 -0.71276570733E+01 -0.31411991588E+02 -0.29087911047E+02  0.47787270975E+02  0.19999999683E+02 0.  0.
         12    1    1    2    0    0  0.71276570733E+01  0.31411991588E+02  0.29087911047E+02  0.43400729025E+02  0.00000000000E+00 0. -1.
         11    1    3    3    0    0  0.14291663714E+01 -0.14358157719E+02 -0.77673641730E+01  0.16386920274E+02  0.51100000000E-03 0. -1.
        -11    1    3    3    0    0 -0.64647110992E+01 -0.18661488192E+02 -0.15837141850E+02  0.25315187010E+02  0.51100000000E-03 0.  1.
         12    1    3    3    0    0 -0.20921123455E+01  0.16076543233E+01 -0.54834050236E+01  0.60851636906E+01  0.00000000000E+00 0. -1.
</event>
<event>
 7    1  0.5467297E-010  0.4778727E+02  0.7816164E-02  0.1312668E+00
        -11   -1    0    0    0    0  0.00000000000E+00  0.00000000000E+00  0.45593999997E+02  0.45594000000E+02  0.51100000000E-03 0.  1.
         11   -1    0    0    0    0 -0.00000000000E+00 -0.00000000000E+00 -0.45593999997E+02  0.45594000000E+02  0.51100000000E-03 0. -1.
    9900012    2    1    2    0    0 -0.29650345642E+02  0.15121265399E+02  0.27853683334E+02  0.47787270292E+02  0.19999996569E+02 0.  0.
         12    1    1    2    0    0  0.29650345642E+02 -0.15121265399E+02 -0.27853683334E+02  0.43400729708E+02  0.00000000000E+00 0. -1.
         11    1    3    3    0    0 -0.27369274345E+01 -0.31596495918E+00 -0.21847895205E+01  0.35162353657E+01  0.51100000000E-03 0. -1.
        -11    1    3    3    0    0 -0.10687555656E+02  0.23749364302E+01  0.15039978144E+02  0.18602825371E+02  0.51100000000E-03 0.  1.
         12    1    3    3    0    0 -0.16225862551E+02  0.13062293928E+02  0.14998494711E+02  0.25668209555E+02  0.00000000000E+00 0. -1.
</event>
<event>
 7    1  0.5467297E-010  0.4778727E+02  0.7816164E-02  0.1312668E+00
        -11   -1    0    0    0    0  0.00000000000E+00  0.00000000000E+00  0.45593999997E+02  0.45594000000E+02  0.51100000000E-03 0. -1.
         11   -1    0    0    0    0 -0.00000000000E+00 -0.00000000000E+00 -0.45593999997E+02  0.45594000000E+02  0.51100000000E-03 0.  1.
    9900012    2    1    2    0    0  0.44170992998E+01  0.43046705063E+02  0.33307529452E+01  0.47787268460E+02  0.19999988215E+02 0.  0.
         12    1    1    2    0    0 -0.44170992998E+01 -0.43046705063E+02 -0.33307529452E+01  0.43400731540E+02  0.00000000000E+00 0. -1.
         11    1    3    3    0    0 -0.13736487585E+01  0.47972358531E+01 -0.47763509135E+01  0.69075256824E+01  0.51100000000E-03 0. -1.
        -11    1    3    3    0    0  0.19129354698E+01  0.19939264495E+02 -0.10195668565E+01  0.20056747183E+02  0.51100000000E-03 0.  1.
         12    1    3    3    0    0  0.38778125886E+01  0.18310204715E+02  0.91266707153E+01  0.20822995594E+02  0.00000000000E+00 0. -1.
</event>
<event>
 7    1  0.5467297E-010  0.4778727E+02  0.7816164E-02  0.1312668E+00
        -11   -1    0    0    0    0  0.00000000000E+00  0.00000000000E+00  0.45593999997E+02  0.45594000000E+02  0.51100000000E-03 0.  1.
         11   -1    0    0    0    0 -0.00000000000E+00 -0.00000000000E+00 -0.45593999997E+02  0.45594000000E+02  0.51100000000E-03 0. -1.
    9900012    2    1    2    0    0 -0.16959832270E+02  0.28820921476E+02  0.27664809539E+02  0.47787272907E+02  0.20000008493E+02 0.  0.
         12    1    1    2    0    0  0.16959832270E+02 -0.28820921476E+02 -0.27664809539E+02  0.43400727093E+02  0.00000000000E+00 0. -1.
         11    1    3    3    0    0 -0.36360451660E+01  0.54604395921E+00 -0.99583010573E+00  0.38092868513E+01  0.51100000000E-03 0. -1.
        -11    1    3    3    0    0 -0.10410247526E+02  0.22970812261E+02  0.15788095763E+02  0.29753914660E+02  0.51100000000E-03 0.  1.
        -12    1    3    3    0    0 -0.29135395782E+01  0.53040652556E+01  0.12872543881E+02  0.14224071396E+02  0.00000000000E+00 0.  1.
</event>
<event>
 7    1  0.5467297E-010  0.4778727E+02  0.7816164E-02  0.1312668E+00
        -11   -1    0    0    0    0  0.00000000000E+00  0.00000000000E+00  0.45593999997E+02  0.45594000000E+02  0.51100000000E-03 0. -1.
         11   -1    0    0    0    0 -0.00000000000E+00 -0.00000000000E+00 -0.45593999997E+02  0.45594000000E+02  0.51100000000E-03 0.  1.
    9900012    2    1    2    0    0  0.22138226126E+02  0.23621602693E+02 -0.28905744779E+02  0.47787271308E+02  0.20000001200E+02 0.  0.
         12    1    1    2    0    0 -0.22138226126E+02 -0.23621602693E+02  0.28905744779E+02  0.43400728692E+02  0.00000000000E+00 0. -1.
         11    1    3    3    0    0  0.34948077832E+01  0.99574943339E+01 -0.16643823400E+02  0.19707415673E+02  0.51100000000E-03 0. -1.
        -11    1    3    3    0    0  0.59333116708E+01  0.34767834582E+01 -0.92315578720E+01  0.11511466961E+02  0.51100000000E-03 0.  1.
         12    1    3    3    0    0  0.12710106672E+02  0.10187324901E+02 -0.30303635067E+01  0.16568388674E+02  0.00000000000E+00 0. -1.
</event>
<event>
 7    1  0.5467297E-010  0.4778727E+02  0.7816164E-02  0.1312668E+00
        -11   -1    0    0    0    0  0.00000000000E+00  0.00000000000E+00  0.45593999997E+02  0.45594000000E+02  0.51100000000E-03 0.  1.
         11   -1    0    0    0    0 -0.00000000000E+00 -0.00000000000E+00 -0.45593999997E+02  0.45594000000E+02  0.51100000000E-03 0. -1.
    9900012    2    1    2    0    0  0.35935254870E+02  0.17467213113E+02  0.16946318568E+02  0.47787265103E+02  0.19999972913E+02 0.  0.
         12    1    1    2    0    0 -0.35935254870E+02 -0.17467213113E+02 -0.16946318568E+02  0.43400734897E+02  0.00000000000E+00 0. -1.
         11    1    3    3    0    0  0.21583591556E+02  0.30573285301E+01  0.12600418043E+02  0.25178745348E+02  0.51100000000E-03 0. -1.
        -11    1    3    3    0    0  0.68138422372E+01  0.18038365775E+01  0.35679009496E+01  0.79001385987E+01  0.51100000000E-03 0.  1.
         12    1    3    3    0    0  0.75378210777E+01  0.12606048006E+02  0.77799957591E+00  0.14708381157E+02  0.00000000000E+00 0. -1.
</event>
<event>
 7    1  0.5467297E-010  0.4778727E+02  0.7816164E-02  0.1312668E+00
        -11   -1    0    0    0    0  0.00000000000E+00  0.00000000000E+00  0.45593999997E+02  0.45594000000E+02  0.51100000000E-03 0.  1.
         11   -1    0    0    0    0 -0.00000000000E+00 -0.00000000000E+00 -0.45593999997E+02  0.45594000000E+02  0.51100000000E-03 0. -1.
    9900012    2    1    2    0    0 -0.30783064917E+02  0.25795829408E+02  0.16449957676E+02  0.47787274107E+02  0.20000013961E+02 0.  0.
         12    1    1    2    0    0  0.30783064917E+02 -0.25795829408E+02 -0.16449957676E+02  0.43400725893E+02  0.00000000000E+00 0. -1.
         11    1    3    3    0    0 -0.73023726538E+01  0.13839143509E+02  0.13619553915E+02  0.20744608662E+02  0.51100000000E-03 0. -1.
        -11    1    3    3    0    0 -0.61629800736E+01  0.27452832040E+01  0.31018650737E+01  0.74256629639E+01  0.51100000000E-03 0.  1.
         12    1    3    3    0    0 -0.17317712190E+02  0.92114026949E+01 -0.27146131187E+00  0.19617002481E+02  0.00000000000E+00 0. -1.
</event>
<event>
 7    1  0.5467297E-010  0.4778728E+02  0.7816164E-02  0.1312668E+00
        -11   -1    0    0    0    0  0.00000000000E+00  0.00000000000E+00  0.45593999997E+02  0.45594000000E+02  0.51100000000E-03 0.  1.
         11   -1    0    0    0    0 -0.00000000000E+00 -0.00000000000E+00 -0.45593999997E+02  0.45594000000E+02  0.51100000000E-03 0. -1.
    9900012    2    1    2    0    0  0.32426060450E+01 -0.40200850935E+02  0.16031213553E+02  0.47787277450E+02  0.20000029207E+02 0.  0.
         12    1    1    2    0    0 -0.32426060450E+01  0.40200850935E+02 -0.16031213553E+02  0.43400722550E+02  0.00000000000E+00 0. -1.
         11    1    3    3    0    0  0.28329996190E+01 -0.23648423914E+02  0.18503768957E+02  0.30160625098E+02  0.51100000000E-03 0. -1.
        -11    1    3    3    0    0 -0.21444454313E+01 -0.11620534280E+02 -0.88305993312E+00  0.11849694438E+02  0.51100000000E-03 0.  1.
        -12    1    3    3    0    0  0.25540518573E+01 -0.49318927406E+01 -0.15894954703E+01  0.57769579144E+01  0.00000000000E+00 0.  1.
</event>
<event>
 7    1  0.5467297E-010  0.4778727E+02  0.7816164E-02  0.1312668E+00
        -11   -1    0    0    0    0  0.00000000000E+00  0.00000000000E+00  0.45593999997E+02  0.45594000000E+02  0.51100000000E-03 0.  1.
         11   -1    0    0    0    0 -0.00000000000E+00 -0.00000000000E+00 -0.45593999997E+02  0.45594000000E+02  0.51100000000E-03 0. -1.
    9900012    2    1    2    0    0 -0.10008945669E+02  0.41346411672E+02  0.85975935464E+01  0.47787269979E+02  0.19999995142E+02 0.  0.
         12    1    1    2    0    0  0.10008945669E+02 -0.41346411672E+02 -0.85975935464E+01  0.43400730021E+02  0.00000000000E+00 0. -1.
         11    1    3    3    0    0 -0.54183826593E+01  0.11384506461E+02  0.92599661045E+01  0.15643299860E+02  0.51100000000E-03 0. -1.
        -11    1    3    3    0    0  0.20054169784E+01  0.19872351765E+02  0.87260817538E+00  0.19992336212E+02  0.51100000000E-03 0.  1.
         12    1    3    3    0    0 -0.65959799877E+01  0.10089553446E+02 -0.15349807336E+01  0.12151633907E+02  0.00000000000E+00 0. -1.
</event>
<event>
 7    1  0.5467297E-010  0.4778727E+02  0.7816164E-02  0.1312668E+00
        -11   -1    0    0    0    0  0.00000000000E+00  0.00000000000E+00  0.45593999997E+02  0.45594000000E+02  0.51100000000E-03 0.  1.
         11   -1    0    0    0    0 -0.00000000000E+00 -0.00000000000E+00 -0.45593999997E+02  0.45594000000E+02  0.51100000000E-03 0. -1.
    9900012    2    1    2    0    0 -0.25741306442E+02  0.21284268265E+01  0.34878044452E+02  0.47787273705E+02  0.20000012130E+02 0.  0.
         12    1    1    2    0    0  0.25741306442E+02 -0.21284268265E+01 -0.34878044452E+02  0.43400726295E+02  0.00000000000E+00 0. -1.
         11    1    3    3    0    0 -0.87809003381E+00  0.46428080146E+01  0.11201945941E+02  0.12157726000E+02  0.51100000000E-03 0. -1.
        -11    1    3    3    0    0 -0.24462929248E+02 -0.24101857932E+01  0.24501142646E+02  0.34706626085E+02  0.51100000000E-03 0.  1.
         12    1    3    3    0    0 -0.40028716064E+00 -0.10419539482E+00 -0.82504413518E+00  0.92292161978E+00  0.00000000000E+00 0. -1.
</event>
<event>
 7    1  0.5467297E-010  0.4778727E+02  0.7816164E-02  0.1312668E+00
        -11   -1    0    0    0    0  0.00000000000E+00  0.00000000000E+00  0.45593999997E+02  0.45594000000E+02  0.51100000000E-03 0.  1.
         11   -1    0    0    0    0 -0.00000000000E+00 -0.00000000000E+00 -0.45593999997E+02  0.45594000000E+02  0.51100000000E-03 0. -1.
    9900012    2    1    2    0    0 -0.89587099991E+01 -0.20256968566E+02  0.37323180085E+02  0.47787273831E+02  0.20000012706E+02 0.  0.
         12    1    1    2    0    0  0.89587099991E+01  0.20256968566E+02 -0.37323180085E+02  0.43400726169E+02  0.00000000000E+00 0. -1.
         11    1    3    3    0    0 -0.34458305776E+01  0.19205864296E+01  0.10704519241E+01  0.40875748539E+01  0.51100000000E-03 0. -1.
        -11    1    3    3    0    0 -0.64779880911E+01 -0.22471619554E+02  0.34565253628E+02  0.41733616831E+02  0.51100000000E-03 0.  1.
         12    1    3    3    0    0  0.96510866959E+00  0.29406455909E+00  0.16874745326E+01  0.19660821466E+01  0.00000000000E+00 0. -1.
</event>
<event>
 7    1  0.5467297E-010  0.4778728E+02  0.7816164E-02  0.1312668E+00
        -11   -1    0    0    0    0  0.00000000000E+00  0.00000000000E+00  0.45593999997E+02  0.45594000000E+02  0.51100000000E-03 0. -1.
         11   -1    0    0    0    0 -0.00000000000E+00 -0.00000000000E+00 -0.45593999997E+02  0.45594000000E+02  0.51100000000E-03 0.  1.
    9900012    2    1    2    0    0 -0.24881303835E+02 -0.12244490796E+02 -0.33385866230E+02  0.47787275360E+02  0.20000019677E+02 0.  0.
         12    1    1    2    0    0  0.24881303835E+02  0.12244490796E+02  0.33385866230E+02  0.43400724640E+02  0.00000000000E+00 0. -1.
         11    1    3    3    0    0  0.16020060257E+01 -0.15491341175E+01 -0.13696782461E+01  0.26157711252E+01  0.51100000000E-03 0. -1.
        -11    1    3    3    0    0 -0.21178478575E+02 -0.14160913074E+02 -0.24569962285E+02  0.35394102062E+02  0.51100000000E-03 0.  1.
        -12    1    3    3    0    0 -0.53048312855E+01  0.34655563953E+01 -0.74462256983E+01  0.97774021727E+01  0.00000000000E+00 0.  1.
</event>
<event>
 7    1  0.5467297E-010  0.4778727E+02  0.7816164E-02  0.1312668E+00
        -11   -1    0    0    0    0  0.00000000000E+00  0.00000000000E+00  0.45593999997E+02  0.45594000000E+02  0.51100000000E-03 0.  1.
         11   -1    0    0    0    0 -0.00000000000E+00 -0.00000000000E+00 -0.45593999997E+02  0.45594000000E+02  0.51100000000E-03 0. -1.
    9900012    2    1    2    0    0 -0.33098339276E+02 -0.24124734204E+02  0.14356891702E+02  0.47787271866E+02  0.20000003747E+02 0.  0.
         12    1    1    2    0    0  0.33098339276E+02  0.24124734204E+02 -0.14356891702E+02  0.43400728134E+02  0.00000000000E+00 0. -1.
         11    1    3    3    0    0 -0.37238902304E+01  0.63773992139E+00 -0.12508119799E+01  0.39797740546E+01  0.51100000000E-03 0. -1.
        -11    1    3    3    0    0 -0.80379869404E+01 -0.15578410044E+02  0.47249101378E+01  0.18155463905E+02  0.51100000000E-03 0.  1.
        -12    1    3    3    0    0 -0.21336462105E+02 -0.91840640812E+01  0.10882793544E+02  0.25652033906E+02  0.00000000000E+00 0.  1.
</event>
<event>
 7    1  0.5467297E-010  0.4778727E+02  0.7816164E-02  0.1312668E+00
        -11   -1    0    0    0    0  0.00000000000E+00  0.00000000000E+00  0.45593999997E+02  0.45594000000E+02  0.51100000000E-03 0.  1.
         11   -1    0    0    0    0 -0.00000000000E+00 -0.00000000000E+00 -0.45593999997E+02  0.45594000000E+02  0.51100000000E-03 0. -1.
    9900012    2    1    2    0    0  0.18208286488E+02 -0.30716450615E+02  0.24669442691E+02  0.47787269155E+02  0.19999991384E+02 0.  0.
         12    1    1    2    0    0 -0.18208286488E+02  0.30716450615E+02 -0.24669442691E+02  0.43400730845E+02  0.00000000000E+00 0. -1.
         11    1    3    3    0    0  0.97009543398E+01 -0.15262459926E+02  0.40962605701E+01  0.18542668336E+02  0.51100000000E-03 0. -1.
        -11    1    3    3    0    0  0.85514329400E+01 -0.11170518828E+02  0.85058347248E+01  0.16439486635E+02  0.51100000000E-03 0.  1.
         12    1    3    3    0    0 -0.44100791369E-01 -0.42834718610E+01  0.12067347397E+02  0.12805114184E+02  0.00000000000E+00 0. -1.
</event>
<event>
 7    1  0.5467297E-010  0.4778727E+02  0.7816164E-02  0.1312668E+00
        -11   -1    0    0    0    0  0.00000000000E+00  0.00000000000E+00  0.45593999997E+02  0.45594000000E+02  0.51100000000E-03 0.  1.
         11   -1    0    0    0    0 -0.00000000000E+00 -0.00000000000E+00 -0.45593999997E+02  0.45594000000E+02  0.51100000000E-03 0. -1.
    9900012    2    1    2    0    0 -0.39010427583E+02  0.99214354547E+00  0.18995409295E+02  0.47787269784E+02  0.19999994251E+02 0.  0.
         12    1    1    2    0    0  0.39010427583E+02 -0.99214354547E+00 -0.18995409295E+02  0.43400730216E+02  0.00000000000E+00 0. -1.
         11    1    3    3    0    0 -0.87772887225E+01  0.41886900724E+01  0.19584861772E+01  0.99207656059E+01  0.51100000000E-03 0. -1.
        -11    1    3    3    0    0 -0.57502702550E+01  0.39660152292E+00  0.10964443903E+02  0.12387168003E+02  0.51100000000E-03 0.  1.
        -12    1    3    3    0    0 -0.24482868606E+02 -0.35931480499E+01  0.60724792146E+01  0.25479336174E+02  0.00000000000E+00 0.  1.
</event>
<event>
 7    1  0.5467297E-010  0.4778727E+02  0.7816164E-02  0.1312668E+00
        -11   -1    0    0    0    0  0.00000000000E+00  0.00000000000E+00  0.45593999997E+02  0.45594000000E+02  0.51100000000E-03 0.  1.
         11   -1    0    0    0    0 -0.00000000000E+00 -0.00000000000E+00 -0.45593999997E+02  0.45594000000E+02  0.51100000000E-03 0. -1.
    9900012    2    1    2    0    0  0.28085373883E+02 -0.79625385887E+01  0.32115932724E+02  0.47787269802E+02  0.19999994337E+02 0.  0.
         12    1    1    2    0    0 -0.28085373883E+02  0.79625385887E+01 -0.32115932724E+02  0.43400730198E+02  0.00000000000E+00 0. -1.
         11    1    3    3    0    0  0.97702279968E+01  0.39358768833E+01  0.40981327093E+01  0.11302352583E+02  0.51100000000E-03 0. -1.
        -11    1    3    3    0    0  0.18863822263E+02 -0.11642536373E+02  0.28184026731E+02  0.35857102596E+02  0.51100000000E-03 0.  1.
         12    1    3    3    0    0 -0.54867637688E+00 -0.25587909871E+00 -0.16622671587E+00  0.62781462294E+00  0.00000000000E+00 0. -1.
</event>
<event>
 7    1  0.5467297E-010  0.4778727E+02  0.7816164E-02  0.1312668E+00
        -11   -1    0    0    0    0  0.00000000000E+00  0.00000000000E+00  0.45593999997E+02  0.45594000000E+02  0.51100000000E-03 0.  1.
         11   -1    0    0    0    0 -0.00000000000E+00 -0.00000000000E+00 -0.45593999997E+02  0.45594000000E+02  0.51100000000E-03 0. -1.
    9900012    2    1    2    0    0  0.11553037801E+02  0.13474803257E+02  0.39605301794E+02  0.47787274943E+02  0.20000017776E+02 0.  0.
         12    1    1    2    0    0 -0.11553037801E+02 -0.13474803257E+02 -0.39605301794E+02  0.43400725057E+02  0.00000000000E+00 0. -1.
         11    1    3    3    0    0 -0.29628269827E+01  0.25703477320E+01  0.89977965223E+01  0.98155679261E+01  0.51100000000E-03 0. -1.
        -11    1    3    3    0    0  0.82076256590E+01 -0.13256351964E+01  0.82097086978E+01  0.11684252000E+02  0.51100000000E-03 0.  1.
        -12    1    3    3    0    0  0.63082391246E+01  0.12230090722E+02  0.22397796574E+02  0.26287455017E+02  0.00000000000E+00 0.  1.
</event>
<event>
 7    1  0.5467297E-010  0.4778727E+02  0.7816164E-02  0.1312668E+00
        -11   -1    0    0    0    0  0.00000000000E+00  0.00000000000E+00  0.45593999997E+02  0.45594000000E+02  0.51100000000E-03 0.  1.
         11   -1    0    0    0    0 -0.00000000000E+00 -0.00000000000E+00 -0.45593999997E+02  0.45594000000E+02  0.51100000000E-03 0. -1.
    9900012    2    1    2    0    0 -0.38800905060E+01  0.23021465103E+00  0.43226322697E+02  0.47787273335E+02  0.20000010446E+02 0.  0.
         12    1    1    2    0    0  0.38800905060E+01 -0.23021465103E+00 -0.43226322697E+02  0.43400726665E+02  0.00000000000E+00 0. -1.
         11    1    3    3    0    0 -0.31472578937E+01 -0.37289459272E+01  0.14582322069E+01  0.50928097753E+01  0.51100000000E-03 0. -1.
        -11    1    3    3    0    0 -0.58361478132E+00  0.17061908570E+00  0.34424434859E+02  0.34429804424E+02  0.51100000000E-03 0.  1.
         12    1    3    3    0    0 -0.14921783094E+00  0.37885414925E+01  0.73436556310E+01  0.82646591356E+01  0.00000000000E+00 0. -1.
</event>
<event>
 7    1  0.5467297E-010  0.4778729E+02  0.7816164E-02  0.1312668E+00
        -11   -1    0    0    0    0  0.00000000000E+00  0.00000000000E+00  0.45593999997E+02  0.45594000000E+02  0.51100000000E-03 0.  1.
         11   -1    0    0    0    0 -0.00000000000E+00 -0.00000000000E+00 -0.45593999997E+02  0.45594000000E+02  0.51100000000E-03 0. -1.
    9900012    2    1    2    0    0 -0.17227321971E+02 -0.11378221081E+02  0.38175606791E+02  0.47787291583E+02  0.20000093642E+02 0.  0.
         12    1    1    2    0    0  0.17227321971E+02  0.11378221081E+02 -0.38175606791E+02  0.43400708417E+02  0.00000000000E+00 0. -1.
         11    1    3    3    0    0 -0.34850063139E+01 -0.14754187801E+01  0.21669020018E+02  0.21997012488E+02  0.51100000000E-03 0. -1.
        -11    1    3    3    0    0 -0.83303238978E+01 -0.52840020775E+01  0.15818074123E+02  0.18642061137E+02  0.51100000000E-03 0.  1.
         12    1    3    3    0    0 -0.54119917594E+01 -0.46188002235E+01  0.68851264951E+00  0.71482179581E+01  0.00000000000E+00 0. -1.
</event>
<event>
 7    1  0.5467297E-010  0.4778727E+02  0.7816164E-02  0.1312668E+00
        -11   -1    0    0    0    0  0.00000000000E+00  0.00000000000E+00  0.45593999997E+02  0.45594000000E+02  0.51100000000E-03 0. -1.
         11   -1    0    0    0    0 -0.00000000000E+00 -0.00000000000E+00 -0.45593999997E+02  0.45594000000E+02  0.51100000000E-03 0.  1.
    9900012    2    1    2    0    0 -0.35407506680E+02  0.24691156785E+02 -0.45031384154E+01  0.47787274104E+02  0.20000013951E+02 0.  0.
         12    1    1    2    0    0  0.35407506680E+02 -0.24691156785E+02  0.45031384154E+01  0.43400725896E+02  0.00000000000E+00 0. -1.
         11    1    3    3    0    0 -0.13155521399E+02  0.22481682404E+01 -0.83381895031E+01  0.15736816964E+02  0.51100000000E-03 0.  1.
        -11    1    3    3    0    0 -0.20040390995E+02  0.18931139811E+02  0.24571071645E+01  0.27677476432E+02  0.51100000000E-03 0. -1.
         12    1    3    3    0    0 -0.22115942865E+01  0.35118487335E+01  0.13779439233E+01  0.43729807078E+01  0.00000000000E+00 0. -1.
</event>
<event>
 7    1  0.5467297E-010  0.4778727E+02  0.7816164E-02  0.1312668E+00
        -11   -1    0    0    0    0  0.00000000000E+00  0.00000000000E+00  0.45593999997E+02  0.45594000000E+02  0.51100000000E-03 0.  1.
         11   -1    0    0    0    0 -0.00000000000E+00 -0.00000000000E+00 -0.45593999997E+02  0.45594000000E+02  0.51100000000E-03 0. -1.
    9900012    2    1    2    0    0 -0.18717962076E+02 -0.37500124987E+02  0.11269512945E+02  0.47787269587E+02  0.19999993355E+02 0.  0.
         12    1    1    2    0    0  0.18717962076E+02  0.37500124987E+02 -0.11269512945E+02  0.43400730413E+02  0.00000000000E+00 0. -1.
         11    1    3    3    0    0 -0.30337313581E+01 -0.24477287106E+00 -0.11861208091E+01  0.32665459658E+01  0.51100000000E-03 0. -1.
        -11    1    3    3    0    0 -0.73548033348E+01 -0.29369669650E+02  0.46135424117E+01  0.30626057554E+02  0.51100000000E-03 0.  1.
        -12    1    3    3    0    0 -0.83294273832E+01 -0.78856824660E+01  0.78420913428E+01  0.13894666067E+02  0.00000000000E+00 0.  1.
</event>
<event>
 7    1  0.5467297E-010  0.4778728E+02  0.7816164E-02  0.1312668E+00
        -11   -1    0    0    0    0  0.00000000000E+00  0.00000000000E+00  0.45593999997E+02  0.45594000000E+02  0.51100000000E-03 0. -1.
         11   -1    0    0    0    0 -0.00000000000E+00 -0.00000000000E+00 -0.45593999997E+02  0.45594000000E+02  0.51100000000E-03 0.  1.
    9900012    2    1    2    0    0  0.41870418891E+02 -0.85263258603E+01  0.76021513578E+01  0.47787275166E+02  0.20000018793E+02 0.  0.
         12    1    1    2    0    0 -0.41870418891E+02  0.85263258603E+01 -0.76021513578E+01  0.43400724834E+02  0.00000000000E+00 0. -1.
         11    1    3    3    0    0  0.41887727536E+01 -0.22724509434E-01  0.30158918897E+01  0.51615828712E+01  0.51100000000E-03 0. -1.
        -11    1    3    3    0    0  0.72561000654E+01  0.12791084484E+01  0.75247098659E+01  0.10531304070E+02  0.51100000000E-03 0.  1.
        -12    1    3    3    0    0  0.30425546072E+02 -0.97827097993E+01 -0.29384503978E+01  0.32094388225E+02  0.00000000000E+00 0.  1.
</event>
<event>
 7    1  0.5467297E-010  0.4778727E+02  0.7816164E-02  0.1312668E+00
        -11   -1    0    0    0    0  0.00000000000E+00  0.00000000000E+00  0.45593999997E+02  0.45594000000E+02  0.51100000000E-03 0.  1.
         11   -1    0    0    0    0 -0.00000000000E+00 -0.00000000000E+00 -0.45593999997E+02  0.45594000000E+02  0.51100000000E-03 0. -1.
    9900012    2    1    2    0    0  0.22519358305E+02 -0.10820915042E+02  0.35488160125E+02  0.47787271782E+02  0.20000003363E+02 0.  0.
         12    1    1    2    0    0 -0.22519358305E+02  0.10820915042E+02 -0.35488160125E+02  0.43400728218E+02  0.00000000000E+00 0. -1.
         11    1    3    3    0    0  0.35784399145E+01  0.31337852606E+01  0.92890945277E+01  0.10436144867E+02  0.51100000000E-03 0. -1.
        -11    1    3    3    0    0  0.16418601136E+02 -0.14954264033E+02  0.26551948990E+02  0.34615119117E+02  0.51100000000E-03 0.  1.
        -12    1    3    3    0    0  0.25223172543E+01  0.99956373035E+00 -0.35288339303E+00  0.27360077981E+01  0.00000000000E+00 0.  1.
</event>
<event>
 7    1  0.5467297E-010  0.4778727E+02  0.7816164E-02  0.1312668E+00
        -11   -1    0    0    0    0  0.00000000000E+00  0.00000000000E+00  0.45593999997E+02  0.45594000000E+02  0.51100000000E-03 0.  1.
         11   -1    0    0    0    0 -0.00000000000E+00 -0.00000000000E+00 -0.45593999997E+02  0.45594000000E+02  0.51100000000E-03 0. -1.
    9900012    2    1    2    0    0  0.25193966162E+01 -0.28286211035E+02  0.32820204945E+02  0.47787274814E+02  0.20000017187E+02 0.  0.
         12    1    1    2    0    0 -0.25193966162E+01  0.28286211035E+02 -0.32820204945E+02  0.43400725186E+02  0.00000000000E+00 0. -1.
         11    1    3    3    0    0 -0.37116652858E+01 -0.14363044376E+02  0.11136321240E+02  0.18549694174E+02  0.51100000000E-03 0. -1.
        -11    1    3    3    0    0  0.40675510236E+01 -0.41870184707E+01  0.17453563218E+02  0.18403884489E+02  0.51100000000E-03 0.  1.
        -12    1    3    3    0    0  0.21635108784E+01 -0.97361481887E+01  0.42303204868E+01  0.10833696151E+02  0.00000000000E+00 0.  1.
</event>
<event>
 7    1  0.5467297E-010  0.4778727E+02  0.7816164E-02  0.1312668E+00
        -11   -1    0    0    0    0  0.00000000000E+00  0.00000000000E+00  0.45593999997E+02  0.45594000000E+02  0.51100000000E-03 0.  1.
         11   -1    0    0    0    0 -0.00000000000E+00 -0.00000000000E+00 -0.45593999997E+02  0.45594000000E+02  0.51100000000E-03 0. -1.
    9900012    2    1    2    0    0  0.22233165100E+02 -0.31095031901E+02 -0.20552589840E+02  0.47787267421E+02  0.19999983480E+02 0.  0.
         12    1    1    2    0    0 -0.22233165100E+02  0.31095031901E+02  0.20552589840E+02  0.43400732579E+02  0.00000000000E+00 0. -1.
         11    1    3    3    0    0  0.12134673177E+02 -0.52973344380E+01 -0.14005454982E+02  0.19273422498E+02  0.51100000000E-03 0. -1.
        -11    1    3    3    0    0  0.64147240366E+01 -0.14284505686E+02 -0.34230402292E+01  0.16028505602E+02  0.51100000000E-03 0.  1.
         12    1    3    3    0    0  0.36837678859E+01 -0.11513191776E+02 -0.31240946287E+01  0.12485339321E+02  0.00000000000E+00 0. -1.
</event>
<event>
 7    1  0.5467297E-010  0.4778728E+02  0.7816164E-02  0.1312668E+00
        -11   -1    0    0    0    0  0.00000000000E+00  0.00000000000E+00  0.45593999997E+02  0.45594000000E+02  0.51100000000E-03 0.  1.
         11   -1    0    0    0    0 -0.00000000000E+00 -0.00000000000E+00 -0.45593999997E+02  0.45594000000E+02  0.51100000000E-03 0. -1.
    9900012    2    1    2    0    0 -0.43938986293E+01 -0.42646968299E+02 -0.67492713343E+01  0.47787275193E+02  0.20000018914E+02 0.  0.
         12    1    1    2    0    0  0.43938986293E+01  0.42646968299E+02  0.67492713343E+01  0.43400724807E+02  0.00000000000E+00 0. -1.
         11    1    3    3    0    0 -0.46858285963E+01 -0.10751559755E+02  0.56519687710E+01  0.13019131233E+02  0.51100000000E-03 0.  1.
        -11    1    3    3    0    0  0.31063131143E+01 -0.20983616932E+02 -0.81371147272E+01  0.22719462957E+02  0.51100000000E-03 0. -1.
        -12    1    3    3    0    0 -0.28143831472E+01 -0.10911791611E+02 -0.42641253781E+01  0.12048681003E+02  0.00000000000E+00 0.  1.
</event>
<event>
 7    1  0.5467297E-010  0.4778727E+02  0.7816164E-02  0.1312668E+00
        -11   -1    0    0    0    0  0.00000000000E+00  0.00000000000E+00  0.45593999997E+02  0.45594000000E+02  0.51100000000E-03 0.  1.
         11   -1    0    0    0    0 -0.00000000000E+00 -0.00000000000E+00 -0.45593999997E+02  0.45594000000E+02  0.51100000000E-03 0. -1.
    9900012    2    1    2    0    0 -0.11955833087E+02  0.36913191991E+02  0.19444723596E+02  0.47787274620E+02  0.20000016302E+02 0.  0.
         12    1    1    2    0    0  0.11955833087E+02 -0.36913191991E+02 -0.19444723596E+02  0.43400725380E+02  0.00000000000E+00 0. -1.
         11    1    3    3    0    0  0.41276786921E+00  0.89949904748E+01  0.80430549497E+01  0.12073564682E+02  0.51100000000E-03 0. -1.
        -11    1    3    3    0    0 -0.12283822007E+02  0.27708074932E+02  0.67434978892E+01  0.31050031620E+02  0.51100000000E-03 0.  1.
        -12    1    3    3    0    0 -0.84778949287E-01  0.21012658474E+00  0.46581707569E+01  0.46636783179E+01  0.00000000000E+00 0.  1.
</event>
<event>
 7    1  0.5467297E-010  0.4778727E+02  0.7816164E-02  0.1312668E+00
        -11   -1    0    0    0    0  0.00000000000E+00  0.00000000000E+00  0.45593999997E+02  0.45594000000E+02  0.51100000000E-03 0.  1.
         11   -1    0    0    0    0 -0.00000000000E+00 -0.00000000000E+00 -0.45593999997E+02  0.45594000000E+02  0.51100000000E-03 0. -1.
    9900012    2    1    2    0    0  0.29303889941E+02  0.55375206491E+01  0.31531590602E+02  0.47787270669E+02  0.19999998287E+02 0.  0.
         12    1    1    2    0    0 -0.29303889941E+02 -0.55375206491E+01 -0.31531590602E+02  0.43400729331E+02  0.00000000000E+00 0. -1.
         11    1    3    3    0    0  0.76229176293E+01 -0.60534296844E+01  0.12321452539E+02  0.15702581860E+02  0.51100000000E-03 0. -1.
        -11    1    3    3    0    0  0.15560880101E+02  0.92704436061E+01  0.97198410920E+01  0.20556201626E+02  0.51100000000E-03 0.  1.
         12    1    3    3    0    0  0.61200922103E+01  0.23205067274E+01  0.94902969705E+01  0.11528487183E+02  0.00000000000E+00 0. -1.
</event>
<event>
 7    1  0.5467297E-010  0.4778728E+02  0.7816164E-02  0.1312668E+00
        -11   -1    0    0    0    0  0.00000000000E+00  0.00000000000E+00  0.45593999997E+02  0.45594000000E+02  0.51100000000E-03 0.  1.
         11   -1    0    0    0    0 -0.00000000000E+00 -0.00000000000E+00 -0.45593999997E+02  0.45594000000E+02  0.51100000000E-03 0. -1.
    9900012    2    1    2    0    0  0.20350528251E+02  0.31736607925E+02  0.21500383617E+02  0.47787276753E+02  0.20000026028E+02 0.  0.
         12    1    1    2    0    0 -0.20350528251E+02 -0.31736607925E+02 -0.21500383617E+02  0.43400723247E+02  0.00000000000E+00 0. -1.
         11    1    3    3    0    0  0.13670457263E+02  0.23567600378E+02  0.21257734098E+02  0.34557263327E+02  0.51100000000E-03 0. -1.
        -11    1    3    3    0    0  0.73466694016E+01  0.33076918867E+01 -0.11276129664E+01  0.81354709868E+01  0.51100000000E-03 0.  1.
         12    1    3    3    0    0 -0.66659841379E+00  0.48613156599E+01  0.13702624855E+01  0.50945424397E+01  0.00000000000E+00 0. -1.
</event>
<event>
 7    1  0.5467297E-010  0.4778727E+02  0.7816164E-02  0.1312668E+00
        -11   -1    0    0    0    0  0.00000000000E+00  0.00000000000E+00  0.45593999997E+02  0.45594000000E+02  0.51100000000E-03 0. -1.
         11   -1    0    0    0    0 -0.00000000000E+00 -0.00000000000E+00 -0.45593999997E+02  0.45594000000E+02  0.51100000000E-03 0.  1.
    9900012    2    1    2    0    0  0.39422381491E+02  0.17884788705E+02  0.31037551509E+01  0.47787272754E+02  0.20000007794E+02 0.  0.
         12    1    1    2    0    0 -0.39422381491E+02 -0.17884788705E+02 -0.31037551509E+01  0.43400727246E+02  0.00000000000E+00 0. -1.
         11    1    3    3    0    0  0.27061116513E+02  0.84604400465E+01  0.82786550640E+00  0.28364915552E+02  0.51100000000E-03 0. -1.
        -11    1    3    3    0    0  0.13748130380E+02  0.79195481776E+01  0.44081117661E+01  0.16466990675E+02  0.51100000000E-03 0.  1.
         12    1    3    3    0    0 -0.13868654023E+01  0.15048004810E+01 -0.21322221217E+01  0.29553665268E+01  0.00000000000E+00 0. -1.
</event>
<event>
 7    1  0.5467297E-010  0.4778727E+02  0.7816164E-02  0.1312668E+00
        -11   -1    0    0    0    0  0.00000000000E+00  0.00000000000E+00  0.45593999997E+02  0.45594000000E+02  0.51100000000E-03 0.  1.
         11   -1    0    0    0    0 -0.00000000000E+00 -0.00000000000E+00 -0.45593999997E+02  0.45594000000E+02  0.51100000000E-03 0. -1.
    9900012    2    1    2    0    0 -0.90215876575E+01  0.37159849855E+02  0.20527545319E+02  0.47787267265E+02  0.19999982770E+02 0.  0.
         12    1    1    2    0    0  0.90215876575E+01 -0.37159849855E+02 -0.20527545319E+02  0.43400732735E+02  0.00000000000E+00 0. -1.
         11    1    3    3    0    0 -0.90374331073E+01  0.83954151610E+01  0.54042482518E+01  0.13467148634E+02  0.51100000000E-03 0. -1.
        -11    1    3    3    0    0 -0.18408474999E+01  0.99075997801E+01  0.68912392450E-03  0.10077164961E+02  0.51100000000E-03 0.  1.
         12    1    3    3    0    0  0.18566929497E+01  0.18856834914E+02  0.15122607943E+02  0.24242953670E+02  0.00000000000E+00 0. -1.
</event>
<event>
 7    1  0.5467297E-010  0.4778727E+02  0.7816164E-02  0.1312668E+00
        -11   -1    0    0    0    0  0.00000000000E+00  0.00000000000E+00  0.45593999997E+02  0.45594000000E+02  0.51100000000E-03 0. -1.
         11   -1    0    0    0    0 -0.00000000000E+00 -0.00000000000E+00 -0.45593999997E+02  0.45594000000E+02  0.51100000000E-03 0.  1.
    9900012    2    1    2    0    0 -0.17088035825E+02 -0.24253268268E+02 -0.31676509947E+02  0.47787271060E+02  0.20000000072E+02 0.  0.
         12    1    1    2    0    0  0.17088035825E+02  0.24253268268E+02  0.31676509947E+02  0.43400728940E+02  0.00000000000E+00 0. -1.
         11    1    3    3    0    0 -0.61180017610E+01 -0.74093716179E-01 -0.14018001940E+02  0.15295091176E+02  0.51100000000E-03 0. -1.
        -11    1    3    3    0    0 -0.10497896675E+02 -0.17291850575E+02 -0.14566758376E+02  0.24927983889E+02  0.51100000000E-03 0.  1.
        -12    1    3    3    0    0 -0.47213738930E+00 -0.68873239771E+01 -0.30917496318E+01  0.75641959960E+01  0.00000000000E+00 0.  1.
</event>
<event>
 7    1  0.5467297E-010  0.4778727E+02  0.7816164E-02  0.1312668E+00
        -11   -1    0    0    0    0  0.00000000000E+00  0.00000000000E+00  0.45593999997E+02  0.45594000000E+02  0.51100000000E-03 0.  1.
         11   -1    0    0    0    0 -0.00000000000E+00 -0.00000000000E+00 -0.45593999997E+02  0.45594000000E+02  0.51100000000E-03 0. -1.
    9900012    2    1    2    0    0  0.72036356690E+01  0.34422946521E+02  0.25432100197E+02  0.47787270346E+02  0.19999996816E+02 0.  0.
         12    1    1    2    0    0 -0.72036356690E+01 -0.34422946521E+02 -0.25432100197E+02  0.43400729654E+02  0.00000000000E+00 0. -1.
         11    1    3    3    0    0  0.12948878774E+02  0.20734555220E+02  0.10943747132E+02  0.26783592799E+02  0.51100000000E-03 0. -1.
        -11    1    3    3    0    0 -0.58039517650E+01  0.13432134824E+02  0.14641194158E+02  0.20699581364E+02  0.51100000000E-03 0.  1.
        -12    1    3    3    0    0  0.58708660181E-01  0.25625647690E+00 -0.15284109265E+00  0.30409618271E+00  0.00000000000E+00 0.  1.
</event>
<event>
 7    1  0.5467297E-010  0.4778728E+02  0.7816164E-02  0.1312668E+00
        -11   -1    0    0    0    0  0.00000000000E+00  0.00000000000E+00  0.45593999997E+02  0.45594000000E+02  0.51100000000E-03 0.  1.
         11   -1    0    0    0    0 -0.00000000000E+00 -0.00000000000E+00 -0.45593999997E+02  0.45594000000E+02  0.51100000000E-03 0. -1.
    9900012    2    1    2    0    0  0.18912515284E+02 -0.22485512797E+02  0.31942779236E+02  0.47787278054E+02  0.20000031961E+02 0.  0.
         12    1    1    2    0    0 -0.18912515284E+02  0.22485512797E+02 -0.31942779236E+02  0.43400721946E+02  0.00000000000E+00 0. -1.
         11    1    3    3    0    0  0.24798422404E+01 -0.51438627731E+01 -0.11810620241E+01  0.58312819801E+01  0.51100000000E-03 0. -1.
        -11    1    3    3    0    0  0.31133411431E+01  0.77382649759E+00  0.51247028370E+01  0.60460135586E+01  0.51100000000E-03 0.  1.
         12    1    3    3    0    0  0.13319331901E+02 -0.18115476521E+02  0.27999138423E+02  0.35909982516E+02  0.00000000000E+00 0. -1.
</event>
<event>
 7    1  0.7532399E-010  0.4778727E+02  0.7816164E-02  0.1312668E+00
        -11   -1    0    0    0    0  0.00000000000E+00  0.00000000000E+00  0.45593999997E+02  0.45594000000E+02  0.51100000000E-03 0. -1.
         11   -1    0    0    0    0 -0.00000000000E+00 -0.00000000000E+00 -0.45593999997E+02  0.45594000000E+02  0.51100000000E-03 0.  1.
    9900012    2    1    2    0    0 -0.10713282553E+02 -0.59527893046E+00 -0.42053472694E+02  0.47787270217E+02  0.19999996226E+02 0.  0.
         12    1    1    2    0    0  0.10713282553E+02  0.59527893046E+00  0.42053472694E+02  0.43400729783E+02  0.00000000000E+00 0. -1.
         11    1    3    3    0    0 -0.35611336131E+00 -0.15331875966E+01 -0.27566944206E+02  0.27611843366E+02  0.51100000000E-03 0. -1.
        -11    1    3    3    0    0 -0.58667470144E+01  0.56088164596E+00 -0.14518508928E+02  0.15669090928E+02  0.51100000000E-03 0.  1.
         12    1    3    3    0    0 -0.44904221768E+01  0.37702702019E+00  0.31980439968E-01  0.45063359228E+01  0.00000000000E+00 0. -1.
</event>
<event>
 7    1  0.5467297E-010  0.4778727E+02  0.7816164E-02  0.1312668E+00
        -11   -1    0    0    0    0  0.00000000000E+00  0.00000000000E+00  0.45593999997E+02  0.45594000000E+02  0.51100000000E-03 0.  1.
         11   -1    0    0    0    0 -0.00000000000E+00 -0.00000000000E+00 -0.45593999997E+02  0.45594000000E+02  0.51100000000E-03 0. -1.
    9900012    2    1    2    0    0  0.16906316339E+02 -0.39404912417E+02  0.67121287836E+01  0.47787270426E+02  0.19999997179E+02 0.  0.
         12    1    1    2    0    0 -0.16906316339E+02  0.39404912417E+02 -0.67121287836E+01  0.43400729574E+02  0.00000000000E+00 0. -1.
         11    1    3    3    0    0  0.33843293407E+01 -0.24736827641E+02  0.49838457143E+01  0.25459831995E+02  0.51100000000E-03 0. -1.
        -11    1    3    3    0    0  0.42865417563E+01  0.60196149254E+00  0.11211898468E+01  0.44714499662E+01  0.51100000000E-03 0.  1.
         12    1    3    3    0    0  0.92354452423E+01 -0.15270046268E+02  0.60709322257E+00  0.17855988465E+02  0.00000000000E+00 0. -1.
</event>
<event>
 7    1  0.5467297E-010  0.4778727E+02  0.7816164E-02  0.1312668E+00
        -11   -1    0    0    0    0  0.00000000000E+00  0.00000000000E+00  0.45593999997E+02  0.45594000000E+02  0.51100000000E-03 0.  1.
         11   -1    0    0    0    0 -0.00000000000E+00 -0.00000000000E+00 -0.45593999997E+02  0.45594000000E+02  0.51100000000E-03 0. -1.
    9900012    2    1    2    0    0  0.10272713387E+01 -0.14661582416E+02  0.40836330889E+02  0.47787271829E+02  0.20000003576E+02 0.  0.
         12    1    1    2    0    0 -0.10272713387E+01  0.14661582416E+02 -0.40836330889E+02  0.43400728171E+02  0.00000000000E+00 0. -1.
         11    1    3    3    0    0 -0.17164742693E+01  0.17457816482E+01  0.19919627353E+01  0.31562562127E+01  0.51100000000E-03 0. -1.
        -11    1    3    3    0    0  0.78965126881E+01 -0.82815178311E+01  0.27309458248E+02  0.29609879437E+02  0.51100000000E-03 0.  1.
        -12    1    3    3    0    0 -0.51527670802E+01 -0.81258462331E+01  0.11534909905E+02  0.15021136179E+02  0.00000000000E+00 0.  1.
</event>
<event>
 7    1  0.5467297E-010  0.4778727E+02  0.7816164E-02  0.1312668E+00
        -11   -1    0    0    0    0  0.00000000000E+00  0.00000000000E+00  0.45593999997E+02  0.45594000000E+02  0.51100000000E-03 0.  1.
         11   -1    0    0    0    0 -0.00000000000E+00 -0.00000000000E+00 -0.45593999997E+02  0.45594000000E+02  0.51100000000E-03 0. -1.
    9900012    2    1    2    0    0  0.34248945958E+02  0.15710325806E+02  0.21536449040E+02  0.47787271050E+02  0.20000000026E+02 0.  0.
         12    1    1    2    0    0 -0.34248945958E+02 -0.15710325806E+02 -0.21536449040E+02  0.43400728950E+02  0.00000000000E+00 0. -1.
         11    1    3    3    0    0  0.11437009692E+02  0.17058129964E+01  0.15317845148E+02  0.19192482093E+02  0.51100000000E-03 0. -1.
        -11    1    3    3    0    0  0.21373296412E+02  0.99765240350E+01  0.46633904399E+01  0.24043627888E+02  0.51100000000E-03 0.  1.
         12    1    3    3    0    0  0.14386398530E+01  0.40279887742E+01  0.15552134527E+01  0.45511610689E+01  0.00000000000E+00 0. -1.
</event>
<event>
 7    1  0.5467297E-010  0.4778727E+02  0.7816164E-02  0.1312668E+00
        -11   -1    0    0    0    0  0.00000000000E+00  0.00000000000E+00  0.45593999997E+02  0.45594000000E+02  0.51100000000E-03 0. -1.
         11   -1    0    0    0    0 -0.00000000000E+00 -0.00000000000E+00 -0.45593999997E+02  0.45594000000E+02  0.51100000000E-03 0.  1.
    9900012    2    1    2    0    0 -0.33173723367E+02  0.27939530659E+02 -0.15844091801E+01  0.47787266735E+02  0.19999980352E+02 0.  0.
         12    1    1    2    0    0  0.33173723367E+02 -0.27939530659E+02  0.15844091801E+01  0.43400733265E+02  0.00000000000E+00 0. -1.
         11    1    3    3    0    0 -0.13662720002E+02  0.23023275833E+01 -0.26421650140E+01  0.14105022736E+02  0.51100000000E-03 0. -1.
        -11    1    3    3    0    0 -0.13239288347E+02  0.94994436131E+01 -0.46860397841E+00  0.16301465420E+02  0.51100000000E-03 0.  1.
         12    1    3    3    0    0 -0.62717150179E+01  0.16137759463E+02  0.15263598123E+01  0.17380778579E+02  0.00000000000E+00 0. -1.
</event>
<event>
 7    1  0.5467297E-010  0.4778727E+02  0.7816164E-02  0.1312668E+00
        -11   -1    0    0    0    0  0.00000000000E+00  0.00000000000E+00  0.45593999997E+02  0.45594000000E+02  0.51100000000E-03 0.  1.
         11   -1    0    0    0    0 -0.00000000000E+00 -0.00000000000E+00 -0.45593999997E+02  0.45594000000E+02  0.51100000000E-03 0. -1.
    9900012    2    1    2    0    0 -0.28599196652E+02  0.20098563826E+02  0.25724643930E+02  0.47787267030E+02  0.19999981699E+02 0.  0.
         12    1    1    2    0    0  0.28599196652E+02 -0.20098563826E+02 -0.25724643930E+02  0.43400732970E+02  0.00000000000E+00 0. -1.
         11    1    3    3    0    0 -0.12233491999E+02  0.58248535220E+01  0.16540219385E+01  0.13650019556E+02  0.51100000000E-03 0. -1.
        -11    1    3    3    0    0 -0.76061306440E+01  0.74840619364E+01  0.43653470256E+01  0.11529122315E+02  0.51100000000E-03 0.  1.
         12    1    3    3    0    0 -0.87595740092E+01  0.67896483672E+01  0.19705274965E+02  0.22608125160E+02  0.00000000000E+00 0. -1.
</event>
<event>
 7    1  0.5467297E-010  0.4778727E+02  0.7816164E-02  0.1312668E+00
        -11   -1    0    0    0    0  0.00000000000E+00  0.00000000000E+00  0.45593999997E+02  0.45594000000E+02  0.51100000000E-03 0.  1.
         11   -1    0    0    0    0 -0.00000000000E+00 -0.00000000000E+00 -0.45593999997E+02  0.45594000000E+02  0.51100000000E-03 0. -1.
    9900012    2    1    2    0    0  0.33054523378E+02  0.80170396540E+01  0.26958278706E+02  0.47787271534E+02  0.20000002234E+02 0.  0.
         12    1    1    2    0    0 -0.33054523378E+02 -0.80170396540E+01 -0.26958278706E+02  0.43400728466E+02  0.00000000000E+00 0. -1.
         11    1    3    3    0    0  0.31412999400E+01  0.65759634173E+01  0.12555144245E+01  0.73950914064E+01  0.51100000000E-03 0. -1.
        -11    1    3    3    0    0  0.19014958683E+02  0.34605236284E+01  0.11927431703E+02  0.22711395924E+02  0.51100000000E-03 0.  1.
         12    1    3    3    0    0  0.10898264754E+02 -0.20194473917E+01  0.13775332579E+02  0.17680784204E+02  0.00000000000E+00 0. -1.
</event>
<event>
 7    1  0.5467297E-010  0.4778727E+02  0.7816164E-02  0.1312668E+00
        -11   -1    0    0    0    0  0.00000000000E+00  0.00000000000E+00  0.45593999997E+02  0.45594000000E+02  0.51100000000E-03 0. -1.
         11   -1    0    0    0    0 -0.00000000000E+00 -0.00000000000E+00 -0.45593999997E+02  0.45594000000E+02  0.51100000000E-03 0.  1.
    9900012    2    1    2    0    0  0.31112224091E+02  0.24930338312E+02 -0.17150239655E+02  0.47787274471E+02  0.20000015624E+02 0.  0.
         12    1    1    2    0    0 -0.31112224091E+02 -0.24930338312E+02  0.17150239655E+02  0.43400725529E+02  0.00000000000E+00 0. -1.
         11    1    3    3    0    0 -0.20892971156E+01  0.35907985252E+01 -0.25693238708E+01  0.48847130827E+01  0.51100000000E-03 0. -1.
        -11    1    3    3    0    0  0.28560527647E+02  0.18297530134E+02 -0.91351966606E+01  0.35127698000E+02  0.51100000000E-03 0.  1.
         12    1    3    3    0    0  0.46409935595E+01  0.30420096522E+01 -0.54457191235E+01  0.77748633888E+01  0.00000000000E+00 0. -1.
</event>
<event>
 7    1  0.5467297E-010  0.4778727E+02  0.7816164E-02  0.1312668E+00
        -11   -1    0    0    0    0  0.00000000000E+00  0.00000000000E+00  0.45593999997E+02  0.45594000000E+02  0.51100000000E-03 0. -1.
         11   -1    0    0    0    0 -0.00000000000E+00 -0.00000000000E+00 -0.45593999997E+02  0.45594000000E+02  0.51100000000E-03 0.  1.
    9900012    2    1    2    0    0  0.40507543785E+02 -0.74431143234E+01 -0.13688027404E+02  0.47787272489E+02  0.20000006584E+02 0.  0.
         12    1    1    2    0    0 -0.40507543785E+02  0.74431143234E+01  0.13688027404E+02  0.43400727511E+02  0.00000000000E+00 0. -1.
         11    1    3    3    0    0  0.29013619112E+02 -0.64922349757E+01 -0.15797596179E+02  0.33667540068E+02  0.51100000000E-03 0. -1.
        -11    1    3    3    0    0  0.56116401307E+01  0.33960177878E+01  0.20840121110E+00  0.65625355692E+01  0.51100000000E-03 0.  1.
         12    1    3    3    0    0  0.58822845421E+01 -0.43468971355E+01  0.19011675638E+01  0.75571968512E+01  0.00000000000E+00 0. -1.
</event>
<event>
 7    1  0.5467297E-010  0.4778728E+02  0.7816164E-02  0.1312668E+00
        -11   -1    0    0    0    0  0.00000000000E+00  0.00000000000E+00  0.45593999997E+02  0.45594000000E+02  0.51100000000E-03 0. -1.
         11   -1    0    0    0    0 -0.00000000000E+00 -0.00000000000E+00 -0.45593999997E+02  0.45594000000E+02  0.51100000000E-03 0.  1.
    9900012    2    1    2    0    0 -0.43911103784E+01  0.41554918144E+02 -0.11727302558E+02  0.47787277684E+02  0.20000030271E+02 0.  0.
         12    1    1    2    0    0  0.43911103784E+01 -0.41554918144E+02  0.11727302558E+02  0.43400722316E+02  0.00000000000E+00 0. -1.
         11    1    3    3    0    0 -0.45646957006E+01  0.10164685065E+01  0.13406643300E+01  0.48648778166E+01  0.51100000000E-03 0. -1.
        -11    1    3    3    0    0  0.17294038970E+01  0.25353421126E+02 -0.10241232486E+02  0.27398351113E+02  0.51100000000E-03 0.  1.
        -12    1    3    3    0    0 -0.15558185747E+01  0.15185028512E+02 -0.28267344018E+01  0.15524048754E+02  0.00000000000E+00 0.  1.
</event>
<event>
 7    1  0.5467297E-010  0.4778729E+02  0.7816164E-02  0.1312668E+00
        -11   -1    0    0    0    0  0.00000000000E+00  0.00000000000E+00  0.45593999997E+02  0.45594000000E+02  0.51100000000E-03 0.  1.
         11   -1    0    0    0    0 -0.00000000000E+00 -0.00000000000E+00 -0.45593999997E+02  0.45594000000E+02  0.51100000000E-03 0. -1.
    9900012    2    1    2    0    0  0.19853986300E+02  0.29163421064E+02  0.25277183306E+02  0.47787286918E+02  0.20000072374E+02 0.  0.
         12    1    1    2    0    0 -0.19853986300E+02 -0.29163421064E+02 -0.25277183306E+02  0.43400713082E+02  0.00000000000E+00 0. -1.
         11    1    3    3    0    0  0.31470342706E+01  0.18418090738E+02  0.77560631871E+01  0.20230828148E+02  0.51100000000E-03 0. -1.
        -11    1    3    3    0    0  0.92922810825E+01  0.18042133065E+01  0.96995212602E+01  0.13552947514E+02  0.51100000000E-03 0.  1.
        -12    1    3    3    0    0  0.74146709467E+01  0.89411170201E+01  0.78215988583E+01  0.14003511257E+02  0.00000000000E+00 0.  1.
</event>
<event>
 7    1  0.5467297E-010  0.4778728E+02  0.7816164E-02  0.1312668E+00
        -11   -1    0    0    0    0  0.00000000000E+00  0.00000000000E+00  0.45593999997E+02  0.45594000000E+02  0.51100000000E-03 0.  1.
         11   -1    0    0    0    0 -0.00000000000E+00 -0.00000000000E+00 -0.45593999997E+02  0.45594000000E+02  0.51100000000E-03 0. -1.
    9900012    2    1    2    0    0 -0.25346763216E+02 -0.22321720768E+02  0.27256288615E+02  0.47787275436E+02  0.20000020024E+02 0.  0.
         12    1    1    2    0    0  0.25346763216E+02  0.22321720768E+02 -0.27256288615E+02  0.43400724564E+02  0.00000000000E+00 0. -1.
         11    1    3    3    0    0 -0.14743198248E+02 -0.37434621806E+01  0.11245019347E+02  0.18916285683E+02  0.51100000000E-03 0. -1.
        -11    1    3    3    0    0 -0.12274225584E+02 -0.18200203468E+02  0.15989055566E+02  0.27157943923E+02  0.51100000000E-03 0.  1.
         12    1    3    3    0    0  0.16706606159E+01 -0.37805511937E+00  0.22213702061E-01  0.17130458299E+01  0.00000000000E+00 0. -1.
</event>
<event>
 7    1  0.5467297E-010  0.4778727E+02  0.7816164E-02  0.1312668E+00
        -11   -1    0    0    0    0  0.00000000000E+00  0.00000000000E+00  0.45593999997E+02  0.45594000000E+02  0.51100000000E-03 0. -1.
         11   -1    0    0    0    0 -0.00000000000E+00 -0.00000000000E+00 -0.45593999997E+02  0.45594000000E+02  0.51100000000E-03 0.  1.
    9900012    2    1    2    0    0  0.31715654362E+02  0.69436651075E+01  0.28801493821E+02  0.47787271169E+02  0.20000000568E+02 0.  0.
         12    1    1    2    0    0 -0.31715654362E+02 -0.69436651075E+01 -0.28801493821E+02  0.43400728831E+02  0.00000000000E+00 0. -1.
         11    1    3    3    0    0  0.24699365445E+02  0.62597703597E+01  0.25889625229E+02  0.36325143814E+02  0.51100000000E-03 0. -1.
        -11    1    3    3    0    0  0.89606384840E+01  0.10774856143E+01  0.28954515179E+01  0.94782728935E+01  0.51100000000E-03 0.  1.
         12    1    3    3    0    0 -0.19443495662E+01 -0.39359086656E+00  0.16417073755E-01  0.19838544619E+01  0.00000000000E+00 0. -1.
</event>
<event>
 7    1  0.5467297E-010  0.4778727E+02  0.7816164E-02  0.1312668E+00
        -11   -1    0    0    0    0  0.00000000000E+00  0.00000000000E+00  0.45593999997E+02  0.45594000000E+02  0.51100000000E-03 0.  1.
         11   -1    0    0    0    0 -0.00000000000E+00 -0.00000000000E+00 -0.45593999997E+02  0.45594000000E+02  0.51100000000E-03 0. -1.
    9900012    2    1    2    0    0  0.23027385215E+02  0.20079406313E+02  0.30824994701E+02  0.47787270443E+02  0.19999997260E+02 0.  0.
         12    1    1    2    0    0 -0.23027385215E+02 -0.20079406313E+02 -0.30824994701E+02  0.43400729557E+02  0.00000000000E+00 0. -1.
         11    1    3    3    0    0  0.10311557653E+02  0.27930890242E+01  0.29977390720E+01  0.11095765288E+02  0.51100000000E-03 0. -1.
        -11    1    3    3    0    0  0.12551582439E+01  0.46289850433E+01  0.13747816694E+02  0.14560404832E+02  0.51100000000E-03 0.  1.
        -12    1    3    3    0    0  0.11460669318E+02  0.12657332246E+02  0.14079438935E+02  0.22131100323E+02  0.00000000000E+00 0.  1.
</event>
<event>
 7    1  0.5467297E-010  0.4778727E+02  0.7816164E-02  0.1312668E+00
        -11   -1    0    0    0    0  0.00000000000E+00  0.00000000000E+00  0.45593999997E+02  0.45594000000E+02  0.51100000000E-03 0.  1.
         11   -1    0    0    0    0 -0.00000000000E+00 -0.00000000000E+00 -0.45593999997E+02  0.45594000000E+02  0.51100000000E-03 0. -1.
    9900012    2    1    2    0    0 -0.80761236965E+01 -0.15275006884E+02  0.39812985592E+02  0.47787269234E+02  0.19999991748E+02 0.  0.
         12    1    1    2    0    0  0.80761236965E+01  0.15275006884E+02 -0.39812985592E+02  0.43400730766E+02  0.00000000000E+00 0. -1.
         11    1    3    3    0    0  0.41184661012E+01 -0.13224370147E+01  0.27074290968E+01  0.51030162903E+01  0.51100000000E-03 0. -1.
        -11    1    3    3    0    0 -0.94092055271E+01 -0.31562022143E+01  0.18483947176E+02  0.20979777514E+02  0.51100000000E-03 0.  1.
        -12    1    3    3    0    0 -0.27853842706E+01 -0.10796367655E+02  0.18621609319E+02  0.21704475430E+02  0.00000000000E+00 0.  1.
</event>
<event>
 7    1  0.5467297E-010  0.4778728E+02  0.7816164E-02  0.1312668E+00
        -11   -1    0    0    0    0  0.00000000000E+00  0.00000000000E+00  0.45593999997E+02  0.45594000000E+02  0.51100000000E-03 0.  1.
         11   -1    0    0    0    0 -0.00000000000E+00 -0.00000000000E+00 -0.45593999997E+02  0.45594000000E+02  0.51100000000E-03 0. -1.
    9900012    2    1    2    0    0 -0.32820006579E+02 -0.15185242158E+02  0.23997466755E+02  0.47787276252E+02  0.20000023742E+02 0.  0.
         12    1    1    2    0    0  0.32820006579E+02  0.15185242158E+02 -0.23997466755E+02  0.43400723748E+02  0.00000000000E+00 0. -1.
         11    1    3    3    0    0 -0.10387423705E+02 -0.75576472994E+01  0.35173683437E+01  0.13318726826E+02  0.51100000000E-03 0. -1.
        -11    1    3    3    0    0 -0.24491129329E+02 -0.63859958788E+01  0.18964091490E+02  0.31626462424E+02  0.51100000000E-03 0.  1.
        -12    1    3    3    0    0  0.20585464559E+01 -0.12415989795E+01  0.15160069220E+01  0.28420870015E+01  0.00000000000E+00 0.  1.
</event>
<event>
 7    1  0.5467297E-010  0.4778727E+02  0.7816164E-02  0.1312668E+00
        -11   -1    0    0    0    0  0.00000000000E+00  0.00000000000E+00  0.45593999997E+02  0.45594000000E+02  0.51100000000E-03 0. -1.
         11   -1    0    0    0    0 -0.00000000000E+00 -0.00000000000E+00 -0.45593999997E+02  0.45594000000E+02  0.51100000000E-03 0.  1.
    9900012    2    1    2    0    0  0.36669829483E+02 -0.16084840368E+02 -0.16739916448E+02  0.47787270897E+02  0.19999999326E+02 0.  0.
         12    1    1    2    0    0 -0.36669829483E+02  0.16084840368E+02  0.16739916448E+02  0.43400729103E+02  0.00000000000E+00 0. -1.
         11    1    3    3    0    0  0.29079705253E+02 -0.11784096611E+02 -0.14155792360E+02  0.34422095348E+02  0.51100000000E-03 0. -1.
        -11    1    3    3    0    0  0.85340727309E+01 -0.40305392472E+01 -0.50549189651E+01  0.10706439651E+02  0.51100000000E-03 0.  1.
         12    1    3    3    0    0 -0.94394850086E+00 -0.27020451047E+00  0.24707948768E+01  0.26587358976E+01  0.00000000000E+00 0. -1.
</event>
<event>
 7    1  0.5467297E-010  0.4778727E+02  0.7816164E-02  0.1312668E+00
        -11   -1    0    0    0    0  0.00000000000E+00  0.00000000000E+00  0.45593999997E+02  0.45594000000E+02  0.51100000000E-03 0.  1.
         11   -1    0    0    0    0 -0.00000000000E+00 -0.00000000000E+00 -0.45593999997E+02  0.45594000000E+02  0.51100000000E-03 0. -1.
    9900012    2    1    2    0    0  0.10219080925E+02 -0.28892173345E+02  0.30731680650E+02  0.47787268541E+02  0.19999988587E+02 0.  0.
         12    1    1    2    0    0 -0.10219080925E+02  0.28892173345E+02 -0.30731680650E+02  0.43400731459E+02  0.00000000000E+00 0. -1.
         11    1    3    3    0    0  0.33245069888E+01 -0.55345009616E+01 -0.89857810915E+00  0.65184730184E+01  0.51100000000E-03 0. -1.
        -11    1    3    3    0    0  0.52608565308E+01 -0.22316280614E+02  0.31929050037E+02  0.39308487994E+02  0.51100000000E-03 0.  1.
        -12    1    3    3    0    0  0.16337174050E+01 -0.10413917702E+01 -0.29879127797E+00  0.19603075284E+01  0.00000000000E+00 0.  1.
</event>
<event>
 7    1  0.5467297E-010  0.4778726E+02  0.7816164E-02  0.1312668E+00
        -11   -1    0    0    0    0  0.00000000000E+00  0.00000000000E+00  0.45593999997E+02  0.45594000000E+02  0.51100000000E-03 0.  1.
         11   -1    0    0    0    0 -0.00000000000E+00 -0.00000000000E+00 -0.45593999997E+02  0.45594000000E+02  0.51100000000E-03 0. -1.
    9900012    2    1    2    0    0  0.34147390585E+02 -0.19153146209E+02  0.18727960619E+02  0.47787264955E+02  0.19999972237E+02 0.  0.
         12    1    1    2    0    0 -0.34147390585E+02  0.19153146209E+02 -0.18727960619E+02  0.43400735045E+02  0.00000000000E+00 0. -1.
         11    1    3    3    0    0 -0.88530401624E+00 -0.71837629810E+00  0.37254242171E+01  0.38959740201E+01  0.51100000000E-03 0. -1.
        -11    1    3    3    0    0  0.27905594252E+02 -0.97928874932E+01  0.13768008604E+02  0.32621785623E+02  0.51100000000E-03 0.  1.
        -12    1    3    3    0    0  0.71271003492E+01 -0.86418824173E+01  0.12345277984E+01  0.11269505312E+02  0.00000000000E+00 0.  1.
</event>
<event>
 7    1  0.5467297E-010  0.4778727E+02  0.7816164E-02  0.1312668E+00
        -11   -1    0    0    0    0  0.00000000000E+00  0.00000000000E+00  0.45593999997E+02  0.45594000000E+02  0.51100000000E-03 0. -1.
         11   -1    0    0    0    0 -0.00000000000E+00 -0.00000000000E+00 -0.45593999997E+02  0.45594000000E+02  0.51100000000E-03 0.  1.
    9900012    2    1    2    0    0 -0.14841854294E+02 -0.12639116379E+02 -0.38776218664E+02  0.47787273790E+02  0.20000012516E+02 0.  0.
         12    1    1    2    0    0  0.14841854294E+02  0.12639116379E+02  0.38776218664E+02  0.43400726210E+02  0.00000000000E+00 0. -1.
         11    1    3    3    0    0 -0.17642738185E+02 -0.35046540571E+01 -0.24057717825E+02  0.30038685023E+02  0.51100000000E-03 0. -1.
        -11    1    3    3    0    0  0.10875895103E+01 -0.70721144166E+01 -0.96340996759E+01  0.12000563741E+02  0.51100000000E-03 0.  1.
         12    1    3    3    0    0  0.17132943799E+01 -0.20623479049E+01 -0.50844011627E+01  0.57480250257E+01  0.00000000000E+00 0. -1.
</event>
<event>
 7    1  0.5467297E-010  0.4778727E+02  0.7816164E-02  0.1312668E+00
        -11   -1    0    0    0    0  0.00000000000E+00  0.00000000000E+00  0.45593999997E+02  0.45594000000E+02  0.51100000000E-03 0.  1.
         11   -1    0    0    0    0 -0.00000000000E+00 -0.00000000000E+00 -0.45593999997E+02  0.45594000000E+02  0.51100000000E-03 0. -1.
    9900012    2    1    2    0    0  0.51849709595E+01 -0.42585644214E+02  0.65728512094E+01  0.47787269707E+02  0.19999993900E+02 0.  0.
         12    1    1    2    0    0 -0.51849709595E+01  0.42585644214E+02 -0.65728512094E+01  0.43400730293E+02  0.00000000000E+00 0. -1.
         11    1    3    3    0    0 -0.30690569785E+01 -0.19199719684E+02 -0.47298552059E+01  0.20010494177E+02  0.51100000000E-03 0. -1.
        -11    1    3    3    0    0  0.36184593438E+01 -0.17050182231E+02  0.88759385610E+01  0.19559760932E+02  0.51100000000E-03 0.  1.
         12    1    3    3    0    0  0.46355685941E+01 -0.63357422998E+01  0.24267678543E+01  0.82170145978E+01  0.00000000000E+00 0. -1.
</event>
<event>
 7    1  0.5467297E-010  0.4778727E+02  0.7816164E-02  0.1312668E+00
        -11   -1    0    0    0    0  0.00000000000E+00  0.00000000000E+00  0.45593999997E+02  0.45594000000E+02  0.51100000000E-03 0.  1.
         11   -1    0    0    0    0 -0.00000000000E+00 -0.00000000000E+00 -0.45593999997E+02  0.45594000000E+02  0.51100000000E-03 0. -1.
    9900012    2    1    2    0    0  0.25224646349E+02  0.74794794057E+01  0.34516633484E+02  0.47787269791E+02  0.19999994285E+02 0.  0.
         12    1    1    2    0    0 -0.25224646349E+02 -0.74794794057E+01 -0.34516633484E+02  0.43400730209E+02  0.00000000000E+00 0. -1.
         11    1    3    3    0    0 -0.13758623996E+01  0.64039883053E+00  0.69686746062E+01  0.71320077141E+01  0.51100000000E-03 0. -1.
        -11    1    3    3    0    0  0.23422383641E+02  0.49532336317E+01  0.28103578561E+02  0.36918202922E+02  0.51100000000E-03 0.  1.
        -12    1    3    3    0    0  0.31781251076E+01  0.18858469435E+01 -0.55561968295E+00  0.37370591547E+01  0.00000000000E+00 0.  1.
</event>
<event>
 7    1  0.5467297E-010  0.4778733E+02  0.7816164E-02  0.1312667E+00
        -11   -1    0    0    0    0  0.00000000000E+00  0.00000000000E+00  0.45593999997E+02  0.45594000000E+02  0.51100000000E-03 0. -1.
         11   -1    0    0    0    0 -0.00000000000E+00 -0.00000000000E+00 -0.45593999997E+02  0.45594000000E+02  0.51100000000E-03 0.  1.
    9900012    2    1    2    0    0  0.30035600017E+02 -0.94678083213E+01 -0.29863715148E+02  0.47787330130E+02  0.20000269391E+02 0.  0.
         12    1    1    2    0    0 -0.30035600017E+02  0.94678083213E+01  0.29863715148E+02  0.43400669870E+02  0.00000000000E+00 0. -1.
         11    1    3    3    0    0  0.93439811260E+01 -0.19020811721E+01 -0.14024544400E+01  0.96381935437E+01  0.51100000000E-03 0. -1.
        -11    1    3    3    0    0  0.71869922451E+01 -0.86481719672E+01 -0.17110449145E+02  0.20474647888E+02  0.51100000000E-03 0.  1.
        -12    1    3    3    0    0  0.13504626646E+02  0.10824448180E+01 -0.11350811562E+02  0.17674488698E+02  0.00000000000E+00 0.  1.
</event>
<event>
 7    1  0.5467297E-010  0.4778727E+02  0.7816164E-02  0.1312668E+00
        -11   -1    0    0    0    0  0.00000000000E+00  0.00000000000E+00  0.45593999997E+02  0.45594000000E+02  0.51100000000E-03 0. -1.
         11   -1    0    0    0    0 -0.00000000000E+00 -0.00000000000E+00 -0.45593999997E+02  0.45594000000E+02  0.51100000000E-03 0.  1.
    9900012    2    1    2    0    0 -0.12177523080E+01  0.27218984881E+02 -0.33782643323E+02  0.47787273641E+02  0.20000011838E+02 0.  0.
         12    1    1    2    0    0  0.12177523080E+01 -0.27218984881E+02  0.33782643323E+02  0.43400726359E+02  0.00000000000E+00 0. -1.
         11    1    3    3    0    0  0.50901322241E+01  0.64538734899E+01 -0.77396349569E+01  0.11289990195E+02  0.51100000000E-03 0. -1.
        -11    1    3    3    0    0  0.64503499509E+00  0.11900666899E+02 -0.21017042337E+02  0.24161084654E+02  0.51100000000E-03 0.  1.
         12    1    3    3    0    0 -0.69529195272E+01  0.88644444919E+01 -0.50259660284E+01  0.12336198791E+02  0.00000000000E+00 0. -1.
</event>
<event>
 7    1  0.5467297E-010  0.4778728E+02  0.7816164E-02  0.1312668E+00
        -11   -1    0    0    0    0  0.00000000000E+00  0.00000000000E+00  0.45593999997E+02  0.45594000000E+02  0.51100000000E-03 0.  1.
         11   -1    0    0    0    0 -0.00000000000E+00 -0.00000000000E+00 -0.45593999997E+02  0.45594000000E+02  0.51100000000E-03 0. -1.
    9900012    2    1    2    0    0 -0.16818190774E+02 -0.15132259372E+02  0.37037621891E+02  0.47787282840E+02  0.20000053782E+02 0.  0.
         12    1    1    2    0    0  0.16818190774E+02  0.15132259372E+02 -0.37037621891E+02  0.43400717160E+02  0.00000000000E+00 0. -1.
         11    1    3    3    0    0 -0.76420709488E+00  0.28920569372E+01 -0.59342842574E+00  0.30496169217E+01  0.51100000000E-03 0. -1.
        -11    1    3    3    0    0 -0.77548793294E+01 -0.96557856537E+01  0.20276534902E+02  0.23759423770E+02  0.51100000000E-03 0.  1.
         12    1    3    3    0    0 -0.82991043500E+01 -0.83685306557E+01  0.17354515415E+02  0.20978242148E+02  0.00000000000E+00 0. -1.
</event>
<event>
 7    1  0.5467297E-010  0.4778728E+02  0.7816164E-02  0.1312668E+00
        -11   -1    0    0    0    0  0.00000000000E+00  0.00000000000E+00  0.45593999997E+02  0.45594000000E+02  0.51100000000E-03 0.  1.
         11   -1    0    0    0    0 -0.00000000000E+00 -0.00000000000E+00 -0.45593999997E+02  0.45594000000E+02  0.51100000000E-03 0. -1.
    9900012    2    1    2    0    0  0.30732492277E+02  0.16625327033E+02  0.25743635817E+02  0.47787281508E+02  0.20000047709E+02 0.  0.
         12    1    1    2    0    0 -0.30732492277E+02 -0.16625327033E+02 -0.25743635817E+02  0.43400718492E+02  0.00000000000E+00 0. -1.
         11    1    3    3    0    0  0.23066271463E+02  0.41348555005E+01  0.99016127786E+01  0.25439965509E+02  0.51100000000E-03 0. -1.
        -11    1    3    3    0    0  0.26137246294E+01  0.53170811558E+01  0.10552829453E+02  0.12102277396E+02  0.51100000000E-03 0.  1.
         12    1    3    3    0    0  0.50524961852E+01  0.71733903767E+01  0.52891935850E+01  0.10245038603E+02  0.00000000000E+00 0. -1.
</event>
<event>
 7    1  0.5467297E-010  0.4778727E+02  0.7816164E-02  0.1312668E+00
        -11   -1    0    0    0    0  0.00000000000E+00  0.00000000000E+00  0.45593999997E+02  0.45594000000E+02  0.51100000000E-03 0.  1.
         11   -1    0    0    0    0 -0.00000000000E+00 -0.00000000000E+00 -0.45593999997E+02  0.45594000000E+02  0.51100000000E-03 0. -1.
    9900012    2    1    2    0    0 -0.38551949162E+02 -0.13745376522E+02 -0.14437277539E+02  0.47787272556E+02  0.20000006891E+02 0.  0.
         12    1    1    2    0    0  0.38551949162E+02  0.13745376522E+02  0.14437277539E+02  0.43400727444E+02  0.00000000000E+00 0. -1.
         11    1    3    3    0    0 -0.11406324753E+02 -0.15555910625E+01 -0.89246777183E+01  0.14566193070E+02  0.51100000000E-03 0.  1.
        -11    1    3    3    0    0 -0.22788486351E+02 -0.14524778942E+02 -0.18848866492E+01  0.27089428037E+02  0.51100000000E-03 0. -1.
        -12    1    3    3    0    0 -0.43571380586E+01  0.23349934819E+01 -0.36277131718E+01  0.61316514480E+01  0.00000000000E+00 0.  1.
</event>
<event>
 7    1  0.5467297E-010  0.4778728E+02  0.7816164E-02  0.1312668E+00
        -11   -1    0    0    0    0  0.00000000000E+00  0.00000000000E+00  0.45593999997E+02  0.45594000000E+02  0.51100000000E-03 0.  1.
         11   -1    0    0    0    0 -0.00000000000E+00 -0.00000000000E+00 -0.45593999997E+02  0.45594000000E+02  0.51100000000E-03 0. -1.
    9900012    2    1    2    0    0  0.34655535614E+02  0.13481170116E+01  0.26092126763E+02  0.47787278265E+02  0.20000032919E+02 0.  0.
         12    1    1    2    0    0 -0.34655535614E+02 -0.13481170116E+01 -0.26092126763E+02  0.43400721735E+02  0.00000000000E+00 0. -1.
         11    1    3    3    0    0  0.20526203203E+01 -0.65994712305E+00 -0.25577971442E+01  0.33453111779E+01  0.51100000000E-03 0. -1.
        -11    1    3    3    0    0  0.69517721377E+01 -0.20313074060E+01  0.26955207808E+01  0.77278184614E+01  0.51100000000E-03 0.  1.
         12    1    3    3    0    0  0.25651143156E+02  0.40393715406E+01  0.25954403127E+02  0.36714148625E+02  0.00000000000E+00 0. -1.
</event>
<event>
 7    1  0.5467297E-010  0.4778727E+02  0.7816164E-02  0.1312668E+00
        -11   -1    0    0    0    0  0.00000000000E+00  0.00000000000E+00  0.45593999997E+02  0.45594000000E+02  0.51100000000E-03 0.  1.
         11   -1    0    0    0    0 -0.00000000000E+00 -0.00000000000E+00 -0.45593999997E+02  0.45594000000E+02  0.51100000000E-03 0. -1.
    9900012    2    1    2    0    0 -0.36021475017E+02 -0.23488221038E+02  0.58634454548E+01  0.47787272097E+02  0.20000004797E+02 0.  0.
         12    1    1    2    0    0  0.36021475017E+02  0.23488221038E+02 -0.58634454548E+01  0.43400727903E+02  0.00000000000E+00 0. -1.
         11    1    3    3    0    0 -0.15732613557E+02 -0.18551636204E+02  0.35291394816E+01  0.24579120426E+02  0.51100000000E-03 0. -1.
        -11    1    3    3    0    0 -0.19607416238E+02 -0.45346425138E+01  0.47400697187E+01  0.20675638212E+02  0.51100000000E-03 0.  1.
         12    1    3    3    0    0 -0.68144522279E+00 -0.40194231935E+00 -0.24057637454E+01  0.25325134587E+01  0.00000000000E+00 0. -1.
</event>
<event>
 7    1  0.5467297E-010  0.4778727E+02  0.7816164E-02  0.1312668E+00
        -11   -1    0    0    0    0  0.00000000000E+00  0.00000000000E+00  0.45593999997E+02  0.45594000000E+02  0.51100000000E-03 0.  1.
         11   -1    0    0    0    0 -0.00000000000E+00 -0.00000000000E+00 -0.45593999997E+02  0.45594000000E+02  0.51100000000E-03 0. -1.
    9900012    2    1    2    0    0 -0.22246625721E+02 -0.37014179581E+02  0.43198519452E+01  0.47787274582E+02  0.20000016128E+02 0.  0.
         12    1    1    2    0    0  0.22246625721E+02  0.37014179581E+02 -0.43198519452E+01  0.43400725418E+02  0.00000000000E+00 0. -1.
         11    1    3    3    0    0 -0.32769433677E+01 -0.13793391479E+02  0.86714615677E+01  0.16618972661E+02  0.51100000000E-03 0.  1.
        -11    1    3    3    0    0 -0.58593795229E+01 -0.11405307696E+02 -0.42843789230E+01  0.13519218729E+02  0.51100000000E-03 0. -1.
         12    1    3    3    0    0 -0.13110302831E+02 -0.11815480406E+02 -0.67230699436E-01  0.17649083191E+02  0.00000000000E+00 0. -1.
</event>
<event>
 7    1  0.5467297E-010  0.4778727E+02  0.7816164E-02  0.1312668E+00
        -11   -1    0    0    0    0  0.00000000000E+00  0.00000000000E+00  0.45593999997E+02  0.45594000000E+02  0.51100000000E-03 0.  1.
         11   -1    0    0    0    0 -0.00000000000E+00 -0.00000000000E+00 -0.45593999997E+02  0.45594000000E+02  0.51100000000E-03 0. -1.
    9900012    2    1    2    0    0 -0.33173234738E+02 -0.11213113518E+02  0.25640317725E+02  0.47787270619E+02  0.19999998060E+02 0.  0.
         12    1    1    2    0    0  0.33173234738E+02  0.11213113518E+02 -0.25640317725E+02  0.43400729381E+02  0.00000000000E+00 0. -1.
         11    1    3    3    0    0 -0.32608786021E+00 -0.41478517517E+01  0.35056228975E+01  0.54406249280E+01  0.51100000000E-03 0. -1.
        -11    1    3    3    0    0 -0.33892479502E+02 -0.59397297924E+01  0.20288597221E+02  0.39945058946E+02  0.51100000000E-03 0.  1.
        -12    1    3    3    0    0  0.10453326236E+01 -0.11255319739E+01  0.18460976070E+01  0.24015867448E+01  0.00000000000E+00 0.  1.
</event>
<event>
 7    1  0.5467297E-010  0.4778725E+02  0.7816164E-02  0.1312668E+00
        -11   -1    0    0    0    0  0.00000000000E+00  0.00000000000E+00  0.45593999997E+02  0.45594000000E+02  0.51100000000E-03 0. -1.
         11   -1    0    0    0    0 -0.00000000000E+00 -0.00000000000E+00 -0.45593999997E+02  0.45594000000E+02  0.51100000000E-03 0.  1.
    9900012    2    1    2    0    0 -0.28986875959E+02  0.36142886676E+01 -0.32098650084E+02  0.47787246577E+02  0.19999888443E+02 0.  0.
         12    1    1    2    0    0  0.28986875959E+02 -0.36142886676E+01  0.32098650084E+02  0.43400753423E+02  0.00000000000E+00 0. -1.
         11    1    3    3    0    0  0.26961510998E+01  0.19122593825E+01 -0.34513253163E+01  0.47788715612E+01  0.51100000000E-03 0. -1.
        -11    1    3    3    0    0 -0.13138854421E+02 -0.13233665181E+01 -0.10304023057E+02  0.16749736889E+02  0.51100000000E-03 0.  1.
         12    1    3    3    0    0 -0.18544172638E+02  0.30253958031E+01 -0.18343301711E+02  0.26258638127E+02  0.00000000000E+00 0. -1.
</event>
<event>
 7    1  0.5467297E-010  0.4778728E+02  0.7816164E-02  0.1312668E+00
        -11   -1    0    0    0    0  0.00000000000E+00  0.00000000000E+00  0.45593999997E+02  0.45594000000E+02  0.51100000000E-03 0. -1.
         11   -1    0    0    0    0 -0.00000000000E+00 -0.00000000000E+00 -0.45593999997E+02  0.45594000000E+02  0.51100000000E-03 0.  1.
    9900012    2    1    2    0    0  0.34122149519E+02  0.25169979555E+02 -0.92614182546E+01  0.47787276196E+02  0.20000023490E+02 0.  0.
         12    1    1    2    0    0 -0.34122149519E+02 -0.25169979555E+02  0.92614182546E+01  0.43400723804E+02  0.00000000000E+00 0. -1.
         11    1    3    3    0    0  0.21501041195E+02  0.22317050362E+02 -0.44836541504E+01  0.31312116890E+02  0.51100000000E-03 0. -1.
        -11    1    3    3    0    0  0.59823849856E+01 -0.39451241779E+00  0.21266006822E+01  0.63613678471E+01  0.51100000000E-03 0.  1.
         12    1    3    3    0    0  0.66387233381E+01  0.32474416105E+01 -0.69043647865E+01  0.10113791459E+02  0.00000000000E+00 0. -1.
</event>
<event>
 7    1  0.5467297E-010  0.4778727E+02  0.7816164E-02  0.1312668E+00
        -11   -1    0    0    0    0  0.00000000000E+00  0.00000000000E+00  0.45593999997E+02  0.45594000000E+02  0.51100000000E-03 0.  1.
         11   -1    0    0    0    0 -0.00000000000E+00 -0.00000000000E+00 -0.45593999997E+02  0.45594000000E+02  0.51100000000E-03 0. -1.
    9900012    2    1    2    0    0 -0.29560087262E+02  0.13625227101E+02  0.28708491975E+02  0.47787273232E+02  0.20000009975E+02 0.  0.
         12    1    1    2    0    0  0.29560087262E+02 -0.13625227101E+02 -0.28708491975E+02  0.43400726768E+02  0.00000000000E+00 0. -1.
         11    1    3    3    0    0 -0.56540587573E+01  0.52687873295E+01  0.13184972626E+02  0.15283062643E+02  0.51100000000E-03 0.  1.
        -11    1    3    3    0    0 -0.91919817960E+01 -0.80628549438E+00 -0.12136368733E-01  0.92272841719E+01  0.51100000000E-03 0. -1.
        -12    1    3    3    0    0 -0.14714046709E+02  0.91627252662E+01  0.15535655717E+02  0.23276926417E+02  0.00000000000E+00 0.  1.
</event>
<event>
 7    1  0.5467297E-010  0.4778727E+02  0.7816164E-02  0.1312668E+00
        -11   -1    0    0    0    0  0.00000000000E+00  0.00000000000E+00  0.45593999997E+02  0.45594000000E+02  0.51100000000E-03 0.  1.
         11   -1    0    0    0    0 -0.00000000000E+00 -0.00000000000E+00 -0.45593999997E+02  0.45594000000E+02  0.51100000000E-03 0. -1.
    9900012    2    1    2    0    0  0.34606883517E+01  0.24080772851E+02  0.35941112440E+02  0.47787267881E+02  0.19999985579E+02 0.  0.
         12    1    1    2    0    0 -0.34606883517E+01 -0.24080772851E+02 -0.35941112440E+02  0.43400732119E+02  0.00000000000E+00 0. -1.
         11    1    3    3    0    0 -0.17421296459E+01 -0.64408915094E+00  0.48414135923E+01  0.51854751345E+01  0.51100000000E-03 0. -1.
        -11    1    3    3    0    0  0.63672885946E+01  0.26282302176E+02  0.27881814682E+02  0.38841953632E+02  0.51100000000E-03 0.  1.
        -12    1    3    3    0    0 -0.11644705970E+01 -0.15574401739E+01  0.32178841656E+01  0.37598391149E+01  0.00000000000E+00 0.  1.
</event>
<event>
 7    1  0.5467297E-010  0.4778727E+02  0.7816164E-02  0.1312668E+00
        -11   -1    0    0    0    0  0.00000000000E+00  0.00000000000E+00  0.45593999997E+02  0.45594000000E+02  0.51100000000E-03 0.  1.
         11   -1    0    0    0    0 -0.00000000000E+00 -0.00000000000E+00 -0.45593999997E+02  0.45594000000E+02  0.51100000000E-03 0. -1.
    9900012    2    1    2    0    0 -0.38904180804E+02  0.14953706314E+02  0.12102676603E+02  0.47787269620E+02  0.19999993508E+02 0.  0.
         12    1    1    2    0    0  0.38904180804E+02 -0.14953706314E+02 -0.12102676603E+02  0.43400730380E+02  0.00000000000E+00 0. -1.
         11    1    3    3    0    0 -0.19682071858E+02 -0.22749538874E+00  0.57587672283E+01  0.20508513038E+02  0.51100000000E-03 0. -1.
        -11    1    3    3    0    0 -0.20111695730E+02  0.13780253099E+02  0.71873524269E+01  0.25417193310E+02  0.51100000000E-03 0.  1.
         12    1    3    3    0    0  0.88958678370E+00  0.14009486038E+01 -0.84344305245E+00  0.18615632729E+01  0.00000000000E+00 0. -1.
</event>
<event>
 7    1  0.5467297E-010  0.4778727E+02  0.7816164E-02  0.1312668E+00
        -11   -1    0    0    0    0  0.00000000000E+00  0.00000000000E+00  0.45593999997E+02  0.45594000000E+02  0.51100000000E-03 0.  1.
         11   -1    0    0    0    0 -0.00000000000E+00 -0.00000000000E+00 -0.45593999997E+02  0.45594000000E+02  0.51100000000E-03 0. -1.
    9900012    2    1    2    0    0  0.56706889820E+00 -0.43386749642E+02 -0.94429833603E+00  0.47787270617E+02  0.19999998052E+02 0.  0.
         12    1    1    2    0    0 -0.56706889820E+00  0.43386749642E+02  0.94429833603E+00  0.43400729383E+02  0.00000000000E+00 0. -1.
         11    1    3    3    0    0 -0.98942030062E+00  0.32385611088E+00  0.23004306748E+01  0.25250379923E+01  0.51100000000E-03 0. -1.
        -11    1    3    3    0    0  0.18113095482E+01 -0.43080426625E+02 -0.49737393454E+01  0.43404401664E+02  0.51100000000E-03 0.  1.
        -12    1    3    3    0    0 -0.25482034935E+00 -0.63017912811E+00  0.17290103346E+01  0.18578309614E+01  0.00000000000E+00 0.  1.
</event>
<event>
 7    1  0.5467297E-010  0.4778727E+02  0.7816164E-02  0.1312668E+00
        -11   -1    0    0    0    0  0.00000000000E+00  0.00000000000E+00  0.45593999997E+02  0.45594000000E+02  0.51100000000E-03 0.  1.
         11   -1    0    0    0    0 -0.00000000000E+00 -0.00000000000E+00 -0.45593999997E+02  0.45594000000E+02  0.51100000000E-03 0. -1.
    9900012    2    1    2    0    0  0.31466085344E+02 -0.17664328698E+01  0.29839380084E+02  0.47787269410E+02  0.19999992547E+02 0.  0.
         12    1    1    2    0    0 -0.31466085344E+02  0.17664328698E+01 -0.29839380084E+02  0.43400730590E+02  0.00000000000E+00 0. -1.
         11    1    3    3    0    0  0.71425935550E+01 -0.51785190851E+01  0.76977548739E+01  0.11708506863E+02  0.51100000000E-03 0. -1.
        -11    1    3    3    0    0  0.15013269268E+02  0.89165561713E+01  0.15752522407E+02  0.23516912861E+02  0.51100000000E-03 0.  1.
        -12    1    3    3    0    0  0.93102225218E+01 -0.55044699559E+01  0.63891028032E+01  0.12561849686E+02  0.00000000000E+00 0.  1.
</event>
<event>
 7    1  0.5467297E-010  0.4778727E+02  0.7816164E-02  0.1312668E+00
        -11   -1    0    0    0    0  0.00000000000E+00  0.00000000000E+00  0.45593999997E+02  0.45594000000E+02  0.51100000000E-03 0. -1.
         11   -1    0    0    0    0 -0.00000000000E+00 -0.00000000000E+00 -0.45593999997E+02  0.45594000000E+02  0.51100000000E-03 0.  1.
    9900012    2    1    2    0    0  0.56418072627E+01  0.17725265817E+02 -0.39212350407E+02  0.47787268878E+02  0.19999990124E+02 0.  0.
         12    1    1    2    0    0 -0.56418072627E+01 -0.17725265817E+02  0.39212350407E+02  0.43400731122E+02  0.00000000000E+00 0. -1.
         11    1    3    3    0    0  0.26439100041E+01  0.14630679987E+02 -0.30698259830E+02  0.34109092832E+02  0.51100000000E-03 0. -1.
        -11    1    3    3    0    0 -0.84817178548E+00  0.35607777390E+01 -0.90545472182E+01  0.97664404505E+01  0.51100000000E-03 0.  1.
         12    1    3    3    0    0  0.38460690441E+01 -0.46619190925E+00  0.54045664126E+00  0.39117355955E+01  0.00000000000E+00 0. -1.
</event>
<event>
 7    1  0.5467297E-010  0.4778727E+02  0.7816164E-02  0.1312668E+00
        -11   -1    0    0    0    0  0.00000000000E+00  0.00000000000E+00  0.45593999997E+02  0.45594000000E+02  0.51100000000E-03 0.  1.
         11   -1    0    0    0    0 -0.00000000000E+00 -0.00000000000E+00 -0.45593999997E+02  0.45594000000E+02  0.51100000000E-03 0. -1.
    9900012    2    1    2    0    0 -0.56466329218E+01 -0.36271848958E+02  0.23153660333E+02  0.47787268704E+02  0.19999989328E+02 0.  0.
         12    1    1    2    0    0  0.56466329218E+01  0.36271848958E+02 -0.23153660333E+02  0.43400731296E+02  0.00000000000E+00 0. -1.
         11    1    3    3    0    0 -0.37451975414E+01 -0.12366310259E+02  0.17073995270E+02  0.21411993106E+02  0.51100000000E-03 0. -1.
        -11    1    3    3    0    0  0.64990894244E+00 -0.79477177962E+01  0.63793806383E+01  0.10212007510E+02  0.51100000000E-03 0.  1.
         12    1    3    3    0    0 -0.25513443228E+01 -0.15957820903E+02 -0.29971557459E+00  0.16163268087E+02  0.00000000000E+00 0. -1.
</event>
<event>
 7    1  0.5467297E-010  0.4778727E+02  0.7816164E-02  0.1312668E+00
        -11   -1    0    0    0    0  0.00000000000E+00  0.00000000000E+00  0.45593999997E+02  0.45594000000E+02  0.51100000000E-03 0.  1.
         11   -1    0    0    0    0 -0.00000000000E+00 -0.00000000000E+00 -0.45593999997E+02  0.45594000000E+02  0.51100000000E-03 0. -1.
    9900012    2    1    2    0    0  0.12953209987E+02  0.30531064226E+02  0.27994494563E+02  0.47787271232E+02  0.20000000856E+02 0.  0.
         12    1    1    2    0    0 -0.12953209987E+02 -0.30531064226E+02 -0.27994494563E+02  0.43400728768E+02  0.00000000000E+00 0. -1.
         11    1    3    3    0    0  0.98206809986E+00  0.98063439632E+01  0.36179156787E+01  0.10498483405E+02  0.51100000000E-03 0. -1.
        -11    1    3    3    0    0  0.13878714443E+02  0.99514914183E+01  0.16978146319E+02  0.24081286276E+02  0.51100000000E-03 0.  1.
        -12    1    3    3    0    0 -0.19075725568E+01  0.10773228844E+02  0.73984325661E+01  0.13207501551E+02  0.00000000000E+00 0.  1.
</event>
<event>
 7    1  0.5467297E-010  0.4778727E+02  0.7816164E-02  0.1312668E+00
        -11   -1    0    0    0    0  0.00000000000E+00  0.00000000000E+00  0.45593999997E+02  0.45594000000E+02  0.51100000000E-03 0.  1.
         11   -1    0    0    0    0 -0.00000000000E+00 -0.00000000000E+00 -0.45593999997E+02  0.45594000000E+02  0.51100000000E-03 0. -1.
    9900012    2    1    2    0    0  0.22829141783E+02 -0.28593032546E+02  0.23342924157E+02  0.47787270364E+02  0.19999996899E+02 0.  0.
         12    1    1    2    0    0 -0.22829141783E+02  0.28593032546E+02 -0.23342924157E+02  0.43400729636E+02  0.00000000000E+00 0. -1.
         11    1    3    3    0    0  0.39096599068E+01 -0.49786766737E+01  0.71509894559E+00  0.63705595336E+01  0.51100000000E-03 0. -1.
        -11    1    3    3    0    0  0.29259055039E+01 -0.13999624783E+02  0.35637132163E+01  0.14739418891E+02  0.51100000000E-03 0.  1.
        -12    1    3    3    0    0  0.15993576372E+02 -0.96147310891E+01  0.19064111995E+02  0.26677291940E+02  0.00000000000E+00 0.  1.
</event>
<event>
 7    1  0.5467297E-010  0.4778727E+02  0.7816164E-02  0.1312668E+00
        -11   -1    0    0    0    0  0.00000000000E+00  0.00000000000E+00  0.45593999997E+02  0.45594000000E+02  0.51100000000E-03 0.  1.
         11   -1    0    0    0    0 -0.00000000000E+00 -0.00000000000E+00 -0.45593999997E+02  0.45594000000E+02  0.51100000000E-03 0. -1.
    9900012    2    1    2    0    0  0.19962565125E+02  0.13629114043E+02  0.36046729682E+02  0.47787268708E+02  0.19999989345E+02 0.  0.
         12    1    1    2    0    0 -0.19962565125E+02 -0.13629114043E+02 -0.36046729682E+02  0.43400731292E+02  0.00000000000E+00 0. -1.
         11    1    3    3    0    0  0.10988682539E+02  0.15369172426E+02  0.27023792538E+02  0.32973443381E+02  0.51100000000E-03 0. -1.
        -11    1    3    3    0    0  0.61763043361E+01 -0.16043661298E+01  0.99870559370E+01  0.11851667076E+02  0.51100000000E-03 0.  1.
         12    1    3    3    0    0  0.27975782502E+01 -0.13569225293E+00 -0.96411879351E+00  0.29621582505E+01  0.00000000000E+00 0. -1.
</event>
<event>
 7    1  0.5467297E-010  0.4778727E+02  0.7816164E-02  0.1312668E+00
        -11   -1    0    0    0    0  0.00000000000E+00  0.00000000000E+00  0.45593999997E+02  0.45594000000E+02  0.51100000000E-03 0. -1.
         11   -1    0    0    0    0 -0.00000000000E+00 -0.00000000000E+00 -0.45593999997E+02  0.45594000000E+02  0.51100000000E-03 0.  1.
    9900012    2    1    2    0    0  0.26199489708E+02  0.18359376001E+02  0.29328195731E+02  0.47787274050E+02  0.20000013706E+02 0.  0.
         12    1    1    2    0    0 -0.26199489708E+02 -0.18359376001E+02 -0.29328195731E+02  0.43400725950E+02  0.00000000000E+00 0. -1.
         11    1    3    3    0    0 -0.90877077687E+00 -0.92937409658E+00  0.29996398589E+00  0.13340086920E+01  0.51100000000E-03 0. -1.
        -11    1    3    3    0    0  0.21784620505E+02  0.21307901190E+02  0.25662423622E+02  0.39839130639E+02  0.51100000000E-03 0.  1.
        -12    1    3    3    0    0  0.53236399796E+01 -0.20191510919E+01  0.33658081235E+01  0.66141347196E+01  0.00000000000E+00 0.  1.
</event>
<event>
 7    1  0.5467297E-010  0.4778728E+02  0.7816164E-02  0.1312668E+00
        -11   -1    0    0    0    0  0.00000000000E+00  0.00000000000E+00  0.45593999997E+02  0.45594000000E+02  0.51100000000E-03 0.  1.
         11   -1    0    0    0    0 -0.00000000000E+00 -0.00000000000E+00 -0.45593999997E+02  0.45594000000E+02  0.51100000000E-03 0. -1.
    9900012    2    1    2    0    0 -0.23437099131E+02 -0.35109933493E+02  0.10080563578E+02  0.47787276416E+02  0.20000024491E+02 0.  0.
         12    1    1    2    0    0  0.23437099131E+02  0.35109933493E+02 -0.10080563578E+02  0.43400723584E+02  0.00000000000E+00 0. -1.
         11    1    3    3    0    0 -0.10631954489E+02 -0.24756573731E+02  0.17971102216E+01  0.27002888819E+02  0.51100000000E-03 0. -1.
        -11    1    3    3    0    0  0.12208068401E+01 -0.19418953137E+01  0.26071143659E+01  0.34725167138E+01  0.51100000000E-03 0.  1.
         12    1    3    3    0    0 -0.14025951482E+02 -0.84114644483E+01  0.56763389902E+01  0.17311870883E+02  0.00000000000E+00 0. -1.
</event>
<event>
 7    1  0.5467297E-010  0.4778727E+02  0.7816164E-02  0.1312668E+00
        -11   -1    0    0    0    0  0.00000000000E+00  0.00000000000E+00  0.45593999997E+02  0.45594000000E+02  0.51100000000E-03 0. -1.
         11   -1    0    0    0    0 -0.00000000000E+00 -0.00000000000E+00 -0.45593999997E+02  0.45594000000E+02  0.51100000000E-03 0.  1.
    9900012    2    1    2    0    0 -0.12367704896E+02  0.19158486063E+02 -0.36927165767E+02  0.47787270926E+02  0.19999999458E+02 0.  0.
         12    1    1    2    0    0  0.12367704896E+02 -0.19158486063E+02  0.36927165767E+02  0.43400729074E+02  0.00000000000E+00 0. -1.
         11    1    3    3    0    0  0.23909724924E+01  0.41653156605E+01 -0.40430409961E+00  0.48197578858E+01  0.51100000000E-03 0. -1.
        -11    1    3    3    0    0 -0.10712710342E+02  0.15095667732E+02 -0.31244110214E+02  0.36315778534E+02  0.51100000000E-03 0.  1.
         12    1    3    3    0    0 -0.40459670459E+01 -0.10249732995E+00 -0.52787514530E+01  0.66517345062E+01  0.00000000000E+00 0. -1.
</event>
<event>
 7    1  0.5467297E-010  0.4778727E+02  0.7816164E-02  0.1312668E+00
        -11   -1    0    0    0    0  0.00000000000E+00  0.00000000000E+00  0.45593999997E+02  0.45594000000E+02  0.51100000000E-03 0.  1.
         11   -1    0    0    0    0 -0.00000000000E+00 -0.00000000000E+00 -0.45593999997E+02  0.45594000000E+02  0.51100000000E-03 0. -1.
    9900012    2    1    2    0    0 -0.24167137688E+02 -0.32206766360E+02  0.16195591393E+02  0.47787268163E+02  0.19999986864E+02 0.  0.
         12    1    1    2    0    0  0.24167137688E+02  0.32206766360E+02 -0.16195591393E+02  0.43400731837E+02  0.00000000000E+00 0. -1.
         11    1    3    3    0    0 -0.49318178833E+01 -0.43581487027E+01  0.20133305817E+01  0.68825713248E+01  0.51100000000E-03 0. -1.
        -11    1    3    3    0    0 -0.97927907483E+01 -0.92929491498E+00  0.34048315343E+01  0.10409381236E+02  0.51100000000E-03 0.  1.
        -12    1    3    3    0    0 -0.94425290567E+01 -0.26919322742E+02  0.10777429277E+02  0.30495315602E+02  0.00000000000E+00 0.  1.
</event>
<event>
 7    1  0.5467297E-010  0.4778727E+02  0.7816164E-02  0.1312668E+00
        -11   -1    0    0    0    0  0.00000000000E+00  0.00000000000E+00  0.45593999997E+02  0.45594000000E+02  0.51100000000E-03 0. -1.
         11   -1    0    0    0    0 -0.00000000000E+00 -0.00000000000E+00 -0.45593999997E+02  0.45594000000E+02  0.51100000000E-03 0.  1.
    9900012    2    1    2    0    0  0.31477376933E+02 -0.29840710244E+02  0.15264279177E+01  0.47787271566E+02  0.20000002377E+02 0.  0.
         12    1    1    2    0    0 -0.31477376933E+02  0.29840710244E+02 -0.15264279177E+01  0.43400728434E+02  0.00000000000E+00 0. -1.
         11    1    3    3    0    0  0.64684089530E+01 -0.12639209280E+01  0.22808523069E+01  0.69742453357E+01  0.51100000000E-03 0. -1.
        -11    1    3    3    0    0  0.19759305006E+02 -0.27464790302E+02 -0.46910902538E+01  0.34157739513E+02  0.51100000000E-03 0.  1.
        -12    1    3    3    0    0  0.52496629745E+01 -0.11119990137E+01  0.39366658646E+01  0.66552867168E+01  0.00000000000E+00 0.  1.
</event>
<event>
 7    1  0.5467297E-010  0.4778723E+02  0.7816164E-02  0.1312668E+00
        -11   -1    0    0    0    0  0.00000000000E+00  0.00000000000E+00  0.45593999997E+02  0.45594000000E+02  0.51100000000E-03 0.  1.
         11   -1    0    0    0    0 -0.00000000000E+00 -0.00000000000E+00 -0.45593999997E+02  0.45594000000E+02  0.51100000000E-03 0. -1.
    9900012    2    1    2    0    0 -0.24611964376E+02  0.34615706138E+02 -0.89236054453E+01  0.47787232310E+02  0.19999823395E+02 0.  0.
         12    1    1    2    0    0  0.24611964376E+02 -0.34615706138E+02  0.89236054453E+01  0.43400767690E+02  0.00000000000E+00 0. -1.
         11    1    3    3    0    0 -0.13770757600E+02  0.30399718994E+02 -0.60020012427E+01  0.33908711255E+02  0.51100000000E-03 0. -1.
        -11    1    3    3    0    0 -0.52013262444E+01  0.10598711868E+01  0.20852214209E+01  0.57030930440E+01  0.51100000000E-03 0.  1.
         12    1    3    3    0    0 -0.56398805312E+01  0.31561159577E+01 -0.50068256234E+01  0.81754280113E+01  0.00000000000E+00 0. -1.
</event>
<event>
 7    1  0.5467297E-010  0.4778728E+02  0.7816164E-02  0.1312668E+00
        -11   -1    0    0    0    0  0.00000000000E+00  0.00000000000E+00  0.45593999997E+02  0.45594000000E+02  0.51100000000E-03 0. -1.
         11   -1    0    0    0    0 -0.00000000000E+00 -0.00000000000E+00 -0.45593999997E+02  0.45594000000E+02  0.51100000000E-03 0.  1.
    9900012    2    1    2    0    0  0.22119801185E+02  0.17110754228E+02 -0.33189745843E+02  0.47787277151E+02  0.20000027841E+02 0.  0.
         12    1    1    2    0    0 -0.22119801185E+02 -0.17110754228E+02  0.33189745843E+02  0.43400722849E+02  0.00000000000E+00 0. -1.
         11    1    3    3    0    0  0.49765495769E+01  0.85157241602E+01 -0.64184545711E+00  0.98841069154E+01  0.51100000000E-03 0. -1.
        -11    1    3    3    0    0  0.67670285376E+01  0.28288132860E+01 -0.15272549606E+02  0.16942421066E+02  0.51100000000E-03 0.  1.
         12    1    3    3    0    0  0.10376223071E+02  0.57662167823E+01 -0.17275350779E+02  0.20960749169E+02  0.00000000000E+00 0. -1.
</event>
<event>
 7    1  0.6601673E-010  0.4778727E+02  0.7816164E-02  0.1312668E+00
        -11   -1    0    0    0    0  0.00000000000E+00  0.00000000000E+00  0.45593999997E+02  0.45594000000E+02  0.51100000000E-03 0. -1.
         11   -1    0    0    0    0 -0.00000000000E+00 -0.00000000000E+00 -0.45593999997E+02  0.45594000000E+02  0.51100000000E-03 0.  1.
    9900012    2    1    2    0    0 -0.18476116411E+02  0.18802302846E+02 -0.34477965108E+02  0.47787267887E+02  0.19999985604E+02 0.  0.
         12    1    1    2    0    0  0.18476116411E+02 -0.18802302846E+02  0.34477965108E+02  0.43400732113E+02  0.00000000000E+00 0. -1.
         11    1    3    3    0    0 -0.14882325569E-01  0.59360457748E+01 -0.15286574823E+01  0.61297353029E+01  0.51100000000E-03 0. -1.
        -11    1    3    3    0    0 -0.95221662339E+01  0.89330527782E+00 -0.18733209645E+02  0.21033373196E+02  0.51100000000E-03 0.  1.
        -12    1    3    3    0    0 -0.89390678511E+01  0.11972951793E+02 -0.14216097981E+02  0.20624159389E+02  0.00000000000E+00 0.  1.
</event>
<event>
 7    1  0.5467297E-010  0.4778722E+02  0.7816164E-02  0.1312668E+00
        -11   -1    0    0    0    0  0.00000000000E+00  0.00000000000E+00  0.45593999997E+02  0.45594000000E+02  0.51100000000E-03 0. -1.
         11   -1    0    0    0    0 -0.00000000000E+00 -0.00000000000E+00 -0.45593999997E+02  0.45594000000E+02  0.51100000000E-03 0.  1.
    9900012    2    1    2    0    0  0.16327320771E+02  0.16712987257E+02 -0.36574890658E+02  0.47787216905E+02  0.19999753154E+02 0.  0.
         12    1    1    2    0    0 -0.16327320771E+02 -0.16712987257E+02  0.36574890658E+02  0.43400783095E+02  0.00000000000E+00 0. -1.
         11    1    3    3    0    0 -0.17873177442E+01 -0.17334929142E+01 -0.54387050544E+00  0.25485874107E+01  0.51100000000E-03 0. -1.
        -11    1    3    3    0    0  0.14029178267E+02  0.10770134237E+02 -0.29372153988E+02  0.34286105998E+02  0.51100000000E-03 0.  1.
         12    1    3    3    0    0  0.40854602486E+01  0.76763459337E+01 -0.66588661650E+01  0.10952523496E+02  0.00000000000E+00 0. -1.
</event>
<event>
 7    1  0.5467297E-010  0.4778727E+02  0.7816164E-02  0.1312668E+00
        -11   -1    0    0    0    0  0.00000000000E+00  0.00000000000E+00  0.45593999997E+02  0.45594000000E+02  0.51100000000E-03 0. -1.
         11   -1    0    0    0    0 -0.00000000000E+00 -0.00000000000E+00 -0.45593999997E+02  0.45594000000E+02  0.51100000000E-03 0.  1.
    9900012    2    1    2    0    0 -0.25956129117E+02  0.28750230995E+02 -0.19578732487E+02  0.47787272048E+02  0.20000004574E+02 0.  0.
         12    1    1    2    0    0  0.25956129117E+02 -0.28750230995E+02  0.19578732487E+02  0.43400727952E+02  0.00000000000E+00 0. -1.
         11    1    3    3    0    0 -0.20025256457E+02  0.94764998020E+01 -0.15669912416E+02  0.27135974279E+02  0.51100000000E-03 0.  1.
        -11    1    3    3    0    0 -0.54716107114E+01  0.15062560565E+02 -0.34263254579E+01  0.16387768638E+02  0.51100000000E-03 0. -1.
        -12    1    3    3    0    0 -0.45926194848E+00  0.42111706281E+01 -0.48249461374E+00  0.42635291307E+01  0.00000000000E+00 0.  1.
</event>
<event>
 7    1  0.5467297E-010  0.4778727E+02  0.7816164E-02  0.1312668E+00
        -11   -1    0    0    0    0  0.00000000000E+00  0.00000000000E+00  0.45593999997E+02  0.45594000000E+02  0.51100000000E-03 0.  1.
         11   -1    0    0    0    0 -0.00000000000E+00 -0.00000000000E+00 -0.45593999997E+02  0.45594000000E+02  0.51100000000E-03 0. -1.
    9900012    2    1    2    0    0  0.49428954862E+01  0.14430205082E+02  0.40632008168E+02  0.47787272791E+02  0.20000007962E+02 0.  0.
         12    1    1    2    0    0 -0.49428954862E+01 -0.14430205082E+02 -0.40632008168E+02  0.43400727209E+02  0.00000000000E+00 0. -1.
         11    1    3    3    0    0 -0.35189403327E+01  0.10211292717E+01  0.63975924392E+00  0.37195346760E+01  0.51100000000E-03 0. -1.
        -11    1    3    3    0    0  0.61886997595E+01  0.39514591180E+01  0.26068912940E+02  0.27083246777E+02  0.51100000000E-03 0.  1.
         12    1    3    3    0    0  0.22731360594E+01  0.94576166927E+01  0.13923335984E+02  0.16984491337E+02  0.00000000000E+00 0. -1.
</event>
<event>
 7    1  0.5467297E-010  0.4778727E+02  0.7816164E-02  0.1312668E+00
        -11   -1    0    0    0    0  0.00000000000E+00  0.00000000000E+00  0.45593999997E+02  0.45594000000E+02  0.51100000000E-03 0.  1.
         11   -1    0    0    0    0 -0.00000000000E+00 -0.00000000000E+00 -0.45593999997E+02  0.45594000000E+02  0.51100000000E-03 0. -1.
    9900012    2    1    2    0    0 -0.66643056468E+00 -0.61780413188E+01  0.42953589510E+02  0.47787272171E+02  0.20000005138E+02 0.  0.
         12    1    1    2    0    0  0.66643056468E+00  0.61780413188E+01 -0.42953589510E+02  0.43400727829E+02  0.00000000000E+00 0. -1.
         11    1    3    3    0    0  0.62516530348E+01 -0.74950893699E+01  0.19262409158E+02  0.21593979187E+02  0.51100000000E-03 0. -1.
        -11    1    3    3    0    0 -0.75809262061E+01  0.38826404559E+01  0.18395567390E+02  0.20271710311E+02  0.51100000000E-03 0.  1.
        -12    1    3    3    0    0  0.66284260659E+00 -0.25655924049E+01  0.52956129625E+01  0.59215826734E+01  0.00000000000E+00 0.  1.
</event>
<event>
 7    1  0.5467297E-010  0.4778727E+02  0.7816164E-02  0.1312668E+00
        -11   -1    0    0    0    0  0.00000000000E+00  0.00000000000E+00  0.45593999997E+02  0.45594000000E+02  0.51100000000E-03 0.  1.
         11   -1    0    0    0    0 -0.00000000000E+00 -0.00000000000E+00 -0.45593999997E+02  0.45594000000E+02  0.51100000000E-03 0. -1.
    9900012    2    1    2    0    0  0.33391179642E+02 -0.14286554572E+02  0.23760196072E+02  0.47787269168E+02  0.19999991443E+02 0.  0.
         12    1    1    2    0    0 -0.33391179642E+02  0.14286554572E+02 -0.23760196072E+02  0.43400730832E+02  0.00000000000E+00 0. -1.
         11    1    3    3    0    0  0.91222047908E-01  0.16147933480E+01  0.47193926314E+00  0.16848162950E+01  0.51100000000E-03 0. -1.
        -11    1    3    3    0    0  0.33288438462E+02 -0.17893608650E+02  0.21998335204E+02  0.43729030606E+02  0.51100000000E-03 0.  1.
        -12    1    3    3    0    0  0.11519132557E-01  0.19922607306E+01  0.12899216050E+01  0.23734222667E+01  0.00000000000E+00 0.  1.
</event>
<event>
 7    1  0.5467297E-010  0.4778727E+02  0.7816164E-02  0.1312668E+00
        -11   -1    0    0    0    0  0.00000000000E+00  0.00000000000E+00  0.45593999997E+02  0.45594000000E+02  0.51100000000E-03 0.  1.
         11   -1    0    0    0    0 -0.00000000000E+00 -0.00000000000E+00 -0.45593999997E+02  0.45594000000E+02  0.51100000000E-03 0. -1.
    9900012    2    1    2    0    0  0.41056992925E+02 -0.13521532581E+02  0.38877930215E+01  0.47787269062E+02  0.19999990960E+02 0.  0.
         12    1    1    2    0    0 -0.41056992925E+02  0.13521532581E+02 -0.38877930215E+01  0.43400730938E+02  0.00000000000E+00 0. -1.
         11    1    3    3    0    0  0.25929849931E+02 -0.64068740312E+00  0.19939567015E+01  0.26014293405E+02  0.51100000000E-03 0. -1.
        -11    1    3    3    0    0  0.13467304860E+02 -0.62378100399E+01  0.11805173096E+01  0.14888659969E+02  0.51100000000E-03 0.  1.
         12    1    3    3    0    0  0.16598381342E+01 -0.66430351381E+01  0.71331901035E+00  0.68843156877E+01  0.00000000000E+00 0. -1.
</event>
<event>
 7    1  0.5467297E-010  0.4778726E+02  0.7816164E-02  0.1312668E+00
        -11   -1    0    0    0    0  0.00000000000E+00  0.00000000000E+00  0.45593999997E+02  0.45594000000E+02  0.51100000000E-03 0.  1.
         11   -1    0    0    0    0 -0.00000000000E+00 -0.00000000000E+00 -0.45593999997E+02  0.45594000000E+02  0.51100000000E-03 0. -1.
    9900012    2    1    2    0    0 -0.18110078637E+01 -0.32834429595E+02  0.28323925408E+02  0.47787259605E+02  0.19999947842E+02 0.  0.
         12    1    1    2    0    0  0.18110078637E+01  0.32834429595E+02 -0.28323925408E+02  0.43400740395E+02  0.00000000000E+00 0. -1.
         11    1    3    3    0    0  0.49191705703E+00 -0.15876131994E+02  0.52002353694E+01  0.16713347888E+02  0.51100000000E-03 0. -1.
        -11    1    3    3    0    0 -0.38116892883E+01 -0.16417554609E+02  0.23938016642E+02  0.29276162925E+02  0.51100000000E-03 0.  1.
        -12    1    3    3    0    0  0.15087643675E+01 -0.54074299204E+00 -0.81432660348E+00  0.17977487915E+01  0.00000000000E+00 0.  1.
</event>
<event>
 7    1  0.5467297E-010  0.4778727E+02  0.7816164E-02  0.1312668E+00
        -11   -1    0    0    0    0  0.00000000000E+00  0.00000000000E+00  0.45593999997E+02  0.45594000000E+02  0.51100000000E-03 0. -1.
         11   -1    0    0    0    0 -0.00000000000E+00 -0.00000000000E+00 -0.45593999997E+02  0.45594000000E+02  0.51100000000E-03 0.  1.
    9900012    2    1    2    0    0 -0.33686296671E+02  0.18920103686E+02 -0.19770842815E+02  0.47787272673E+02  0.20000007426E+02 0.  0.
         12    1    1    2    0    0  0.33686296671E+02 -0.18920103686E+02  0.19770842815E+02  0.43400727327E+02  0.00000000000E+00 0. -1.
         11    1    3    3    0    0  0.13520201804E+01  0.92412298411E+00  0.67138787587E+00  0.17699502250E+01  0.51100000000E-03 0. -1.
        -11    1    3    3    0    0 -0.73697366467E+01  0.25976986356E+01 -0.99666748122E+01  0.12664740957E+02  0.51100000000E-03 0.  1.
         12    1    3    3    0    0 -0.27668580204E+02  0.15398282066E+02 -0.10475555879E+02  0.33352581491E+02  0.00000000000E+00 0. -1.
</event>
<event>
 7    1  0.5467297E-010  0.4778728E+02  0.7816164E-02  0.1312668E+00
        -11   -1    0    0    0    0  0.00000000000E+00  0.00000000000E+00  0.45593999997E+02  0.45594000000E+02  0.51100000000E-03 0. -1.
         11   -1    0    0    0    0 -0.00000000000E+00 -0.00000000000E+00 -0.45593999997E+02  0.45594000000E+02  0.51100000000E-03 0.  1.
    9900012    2    1    2    0    0 -0.27285572976E+02 -0.14532962196E+02 -0.30461671357E+02  0.47787275298E+02  0.20000019395E+02 0.  0.
         12    1    1    2    0    0  0.27285572976E+02  0.14532962196E+02  0.30461671357E+02  0.43400724702E+02  0.00000000000E+00 0. -1.
         11    1    3    3    0    0 -0.14680421738E-01 -0.20247396093E+01 -0.69872157808E+01  0.72746801050E+01  0.51100000000E-03 0. -1.
        -11    1    3    3    0    0 -0.26787031887E+02 -0.72765441087E+01 -0.20034138256E+02  0.34232438818E+02  0.51100000000E-03 0.  1.
        -12    1    3    3    0    0 -0.48386066677E+00 -0.52316784779E+01 -0.34403173196E+01  0.62801563755E+01  0.00000000000E+00 0.  1.
</event>
<event>
 7    1  0.5467297E-010  0.4778727E+02  0.7816164E-02  0.1312668E+00
        -11   -1    0    0    0    0  0.00000000000E+00  0.00000000000E+00  0.45593999997E+02  0.45594000000E+02  0.51100000000E-03 0.  1.
         11   -1    0    0    0    0 -0.00000000000E+00 -0.00000000000E+00 -0.45593999997E+02  0.45594000000E+02  0.51100000000E-03 0. -1.
    9900012    2    1    2    0    0  0.29745471743E+02 -0.21266308532E+02  0.23378932827E+02  0.47787268810E+02  0.19999989810E+02 0.  0.
         12    1    1    2    0    0 -0.29745471743E+02  0.21266308532E+02 -0.23378932827E+02  0.43400731190E+02  0.00000000000E+00 0. -1.
         11    1    3    3    0    0  0.57494121214E+01 -0.78150394298E+01 -0.66515863183E+00  0.97248659270E+01  0.51100000000E-03 0. -1.
        -11    1    3    3    0    0  0.18236467782E+02 -0.84954419130E+01  0.22724635077E+02  0.30350458483E+02  0.51100000000E-03 0.  1.
        -12    1    3    3    0    0  0.57595918395E+01 -0.49558271891E+01  0.13194563809E+01  0.77119443998E+01  0.00000000000E+00 0.  1.
</event>
<event>
 7    1  0.5467297E-010  0.4778727E+02  0.7816164E-02  0.1312668E+00
        -11   -1    0    0    0    0  0.00000000000E+00  0.00000000000E+00  0.45593999997E+02  0.45594000000E+02  0.51100000000E-03 0.  1.
         11   -1    0    0    0    0 -0.00000000000E+00 -0.00000000000E+00 -0.45593999997E+02  0.45594000000E+02  0.51100000000E-03 0. -1.
    9900012    2    1    2    0    0  0.17910517199E+00  0.13529125458E+01  0.43379266164E+02  0.47787272080E+02  0.20000004723E+02 0.  0.
         12    1    1    2    0    0 -0.17910517199E+00 -0.13529125458E+01 -0.43379266164E+02  0.43400727920E+02  0.00000000000E+00 0. -1.
         11    1    3    3    0    0 -0.35427073612E+00 -0.24231378339E+00  0.40398782217E+02  0.40401062221E+02  0.51100000000E-03 0. -1.
        -11    1    3    3    0    0 -0.21186363046E+01 -0.12964897980E+01  0.23364025502E+01  0.34100267924E+01  0.51100000000E-03 0.  1.
         12    1    3    3    0    0  0.26520122128E+01  0.28917161272E+01  0.64408139729E+00  0.39761830671E+01  0.00000000000E+00 0. -1.
</event>
<event>
 7    1  0.5467297E-010  0.4778727E+02  0.7816164E-02  0.1312668E+00
        -11   -1    0    0    0    0  0.00000000000E+00  0.00000000000E+00  0.45593999997E+02  0.45594000000E+02  0.51100000000E-03 0. -1.
         11   -1    0    0    0    0 -0.00000000000E+00 -0.00000000000E+00 -0.45593999997E+02  0.45594000000E+02  0.51100000000E-03 0.  1.
    9900012    2    1    2    0    0 -0.28877023773E+02  0.30135313859E+02 -0.11899721621E+02  0.47787273992E+02  0.20000013438E+02 0.  0.
         12    1    1    2    0    0  0.28877023773E+02 -0.30135313859E+02  0.11899721621E+02  0.43400726008E+02  0.00000000000E+00 0. -1.
         11    1    3    3    0    0  0.69719146320E+00  0.26673178381E+01  0.18593872879E+01  0.33253543771E+01  0.51100000000E-03 0. -1.
        -11    1    3    3    0    0 -0.25950510779E+02  0.27511854199E+02 -0.97472302141E+01  0.39055596632E+02  0.51100000000E-03 0.  1.
        -12    1    3    3    0    0 -0.36237044578E+01 -0.43858177916E-01 -0.40118786946E+01  0.54063229831E+01  0.00000000000E+00 0.  1.
</event>
<event>
 7    1  0.5467297E-010  0.4778727E+02  0.7816164E-02  0.1312668E+00
        -11   -1    0    0    0    0  0.00000000000E+00  0.00000000000E+00  0.45593999997E+02  0.45594000000E+02  0.51100000000E-03 0.  1.
         11   -1    0    0    0    0 -0.00000000000E+00 -0.00000000000E+00 -0.45593999997E+02  0.45594000000E+02  0.51100000000E-03 0. -1.
    9900012    2    1    2    0    0 -0.21395311175E+02 -0.17875957271E+02  0.33261302402E+02  0.47787269291E+02  0.19999992004E+02 0.  0.
         12    1    1    2    0    0  0.21395311175E+02  0.17875957271E+02 -0.33261302402E+02  0.43400730709E+02  0.00000000000E+00 0. -1.
         11    1    3    3    0    0 -0.61067953885E+01  0.20093190292E+01  0.15601169871E+02  0.16873850020E+02  0.51100000000E-03 0. -1.
        -11    1    3    3    0    0 -0.10406878660E+02 -0.14460350459E+02  0.14456295472E+02  0.22943176281E+02  0.51100000000E-03 0.  1.
         12    1    3    3    0    0 -0.48816371258E+01 -0.54249258411E+01  0.32038370592E+01  0.79702429895E+01  0.00000000000E+00 0. -1.
</event>
<event>
 7    1  0.5467297E-010  0.4778727E+02  0.7816164E-02  0.1312668E+00
        -11   -1    0    0    0    0  0.00000000000E+00  0.00000000000E+00  0.45593999997E+02  0.45594000000E+02  0.51100000000E-03 0. -1.
         11   -1    0    0    0    0 -0.00000000000E+00 -0.00000000000E+00 -0.45593999997E+02  0.45594000000E+02  0.51100000000E-03 0.  1.
    9900012    2    1    2    0    0 -0.23566158099E+02  0.35418172687E+02 -0.85914246273E+01  0.47787270269E+02  0.19999996464E+02 0.  0.
         12    1    1    2    0    0  0.23566158099E+02 -0.35418172687E+02  0.85914246273E+01  0.43400729731E+02  0.00000000000E+00 0. -1.
         11    1    3    3    0    0 -0.29582022857E+01  0.19565047996E+02 -0.36380989453E+01  0.20119091133E+02  0.51100000000E-03 0. -1.
        -11    1    3    3    0    0 -0.12444728094E+02  0.13056173528E+02 -0.59233023597E+01  0.18984742180E+02  0.51100000000E-03 0.  1.
         12    1    3    3    0    0 -0.81632277191E+01  0.27969511642E+01  0.96997667770E+00  0.86834369557E+01  0.00000000000E+00 0. -1.
</event>
<event>
 7    1  0.5467297E-010  0.4778728E+02  0.7816164E-02  0.1312668E+00
        -11   -1    0    0    0    0  0.00000000000E+00  0.00000000000E+00  0.45593999997E+02  0.45594000000E+02  0.51100000000E-03 0. -1.
         11   -1    0    0    0    0 -0.00000000000E+00 -0.00000000000E+00 -0.45593999997E+02  0.45594000000E+02  0.51100000000E-03 0.  1.
    9900012    2    1    2    0    0 -0.36177019824E+01  0.41006746867E+02  0.13747044628E+02  0.47787282354E+02  0.20000051563E+02 0.  0.
         12    1    1    2    0    0  0.36177019824E+01 -0.41006746867E+02 -0.13747044628E+02  0.43400717646E+02  0.00000000000E+00 0. -1.
         11    1    3    3    0    0 -0.29256381713E+00  0.15222526268E+01 -0.68022635234E+00  0.16927949665E+01  0.51100000000E-03 0. -1.
        -11    1    3    3    0    0  0.42946021142E+01  0.30064881916E+02  0.50796209351E+01  0.30791935324E+02  0.51100000000E-03 0.  1.
        -12    1    3    3    0    0 -0.76197402795E+01  0.94196123244E+01  0.93476500449E+01  0.15302552063E+02  0.00000000000E+00 0.  1.
</event>
<event>
 7    1  0.5467297E-010  0.4778727E+02  0.7816164E-02  0.1312668E+00
        -11   -1    0    0    0    0  0.00000000000E+00  0.00000000000E+00  0.45593999997E+02  0.45594000000E+02  0.51100000000E-03 0.  1.
         11   -1    0    0    0    0 -0.00000000000E+00 -0.00000000000E+00 -0.45593999997E+02  0.45594000000E+02  0.51100000000E-03 0. -1.
    9900012    2    1    2    0    0  0.13706371067E+01  0.28963425525E+01  0.43282276920E+02  0.47787274872E+02  0.20000017452E+02 0.  0.
         12    1    1    2    0    0 -0.13706371067E+01 -0.28963425525E+01 -0.43282276920E+02  0.43400725128E+02  0.00000000000E+00 0. -1.
         11    1    3    3    0    0  0.46720673413E+01  0.19056057180E+01  0.70463214043E+01  0.86666136402E+01  0.51100000000E-03 0. -1.
        -11    1    3    3    0    0 -0.15726819788E+00 -0.65475008096E+01  0.17304968758E+02  0.18502876645E+02  0.51100000000E-03 0.  1.
        -12    1    3    3    0    0 -0.31441620367E+01  0.75382376441E+01  0.18930986757E+02  0.20617784587E+02  0.00000000000E+00 0.  1.
</event>
<event>
 7    1  0.5467297E-010  0.4778728E+02  0.7816164E-02  0.1312668E+00
        -11   -1    0    0    0    0  0.00000000000E+00  0.00000000000E+00  0.45593999997E+02  0.45594000000E+02  0.51100000000E-03 0.  1.
         11   -1    0    0    0    0 -0.00000000000E+00 -0.00000000000E+00 -0.45593999997E+02  0.45594000000E+02  0.51100000000E-03 0. -1.
    9900012    2    1    2    0    0 -0.43367731471E+02 -0.11077608830E+01 -0.12788287510E+01  0.47787278000E+02  0.20000031714E+02 0.  0.
         12    1    1    2    0    0  0.43367731471E+02  0.11077608830E+01  0.12788287510E+01  0.43400722000E+02  0.00000000000E+00 0. -1.
         11    1    3    3    0    0 -0.64315546408E+01  0.82590514707E+00  0.63807422822E+01  0.90973010692E+01  0.51100000000E-03 0. -1.
        -11    1    3    3    0    0 -0.62251667016E+01 -0.15410427572E+01  0.16025606650E+01  0.66102733823E+01  0.51100000000E-03 0.  1.
         12    1    3    3    0    0 -0.30711010129E+02 -0.39262327282E+00 -0.92621316983E+01  0.32079703549E+02  0.00000000000E+00 0. -1.
</event>
<event>
 7    1  0.5467297E-010  0.4778727E+02  0.7816164E-02  0.1312668E+00
        -11   -1    0    0    0    0  0.00000000000E+00  0.00000000000E+00  0.45593999997E+02  0.45594000000E+02  0.51100000000E-03 0. -1.
         11   -1    0    0    0    0 -0.00000000000E+00 -0.00000000000E+00 -0.45593999997E+02  0.45594000000E+02  0.51100000000E-03 0.  1.
    9900012    2    1    2    0    0 -0.33617431229E+02  0.21282519562E+02 -0.17336260345E+02  0.47787271388E+02  0.20000001564E+02 0.  0.
         12    1    1    2    0    0  0.33617431229E+02 -0.21282519562E+02  0.17336260345E+02  0.43400728612E+02  0.00000000000E+00 0. -1.
         11    1    3    3    0    0 -0.31484217278E+01  0.10514509605E+02 -0.71319672194E+01  0.13089401372E+02  0.51100000000E-03 0. -1.
        -11    1    3    3    0    0 -0.28175213954E+02  0.11870728299E+02 -0.89279376078E+01  0.31850666271E+02  0.51100000000E-03 0.  1.
         12    1    3    3    0    0 -0.22937955466E+01 -0.11027183420E+01 -0.12763555180E+01  0.28472037440E+01  0.00000000000E+00 0. -1.
</event>
<event>
 7    1  0.7637885E-010  0.4778727E+02  0.7816164E-02  0.1312668E+00
        -11   -1    0    0    0    0  0.00000000000E+00  0.00000000000E+00  0.45593999997E+02  0.45594000000E+02  0.51100000000E-03 0.  1.
         11   -1    0    0    0    0 -0.00000000000E+00 -0.00000000000E+00 -0.45593999997E+02  0.45594000000E+02  0.51100000000E-03 0. -1.
    9900012    2    1    2    0    0 -0.41569742294E+02 -0.11387092610E+01 -0.12421076468E+02  0.47787271046E+02  0.20000000006E+02 0.  0.
         12    1    1    2    0    0  0.41569742294E+02  0.11387092610E+01  0.12421076468E+02  0.43400728954E+02  0.00000000000E+00 0. -1.
         11    1    3    3    0    0 -0.77405034795E+00 -0.28633951296E+01 -0.41384565091E+01  0.50916606474E+01  0.51100000000E-03 0. -1.
        -11    1    3    3    0    0 -0.27139862322E+02  0.18658542545E+01 -0.98875419698E+01  0.28945069104E+02  0.51100000000E-03 0.  1.
        -12    1    3    3    0    0 -0.13655829623E+02 -0.14116838584E+00  0.16049220114E+01  0.13750541294E+02  0.00000000000E+00 0.  1.
</event>
<event>
 7    1  0.5467297E-010  0.4778727E+02  0.7816164E-02  0.1312668E+00
        -11   -1    0    0    0    0  0.00000000000E+00  0.00000000000E+00  0.45593999997E+02  0.45594000000E+02  0.51100000000E-03 0.  1.
         11   -1    0    0    0    0 -0.00000000000E+00 -0.00000000000E+00 -0.45593999997E+02  0.45594000000E+02  0.51100000000E-03 0. -1.
    9900012    2    1    2    0    0 -0.34000789522E+02  0.12560194832E+02  0.23870710658E+02  0.47787274088E+02  0.20000013879E+02 0.  0.
         12    1    1    2    0    0  0.34000789522E+02 -0.12560194832E+02 -0.23870710658E+02  0.43400725912E+02  0.00000000000E+00 0. -1.
         11    1    3    3    0    0  0.21410505266E+01  0.15837977280E+01  0.17600539962E+01  0.31922253886E+01  0.51100000000E-03 0. -1.
        -11    1    3    3    0    0 -0.33457724479E+02  0.10214357379E+02  0.17281971826E+02  0.39018187739E+02  0.51100000000E-03 0.  1.
        -12    1    3    3    0    0 -0.26841155694E+01  0.76203972496E+00  0.48286848358E+01  0.55768609608E+01  0.00000000000E+00 0.  1.
</event>
<event>
 7    1  0.5467297E-010  0.4778727E+02  0.7816164E-02  0.1312668E+00
        -11   -1    0    0    0    0  0.00000000000E+00  0.00000000000E+00  0.45593999997E+02  0.45594000000E+02  0.51100000000E-03 0.  1.
         11   -1    0    0    0    0 -0.00000000000E+00 -0.00000000000E+00 -0.45593999997E+02  0.45594000000E+02  0.51100000000E-03 0. -1.
    9900012    2    1    2    0    0  0.98886426841E+01  0.15790740048E+02  0.39198093639E+02  0.47787271085E+02  0.20000000184E+02 0.  0.
         12    1    1    2    0    0 -0.98886426841E+01 -0.15790740048E+02 -0.39198093639E+02  0.43400728915E+02  0.00000000000E+00 0. -1.
         11    1    3    3    0    0  0.37764464415E+01  0.12596489013E+01 -0.62656167702E+00  0.40299929127E+01  0.51100000000E-03 0. -1.
        -11    1    3    3    0    0  0.14639106339E+01  0.47457225278E+01  0.41437477432E+01  0.64680416105E+01  0.51100000000E-03 0.  1.
         12    1    3    3    0    0  0.46482856088E+01  0.97853686194E+01  0.35680907573E+02  0.37289236562E+02  0.00000000000E+00 0. -1.
</event>
<event>
 7    1  0.5467297E-010  0.4778727E+02  0.7816164E-02  0.1312668E+00
        -11   -1    0    0    0    0  0.00000000000E+00  0.00000000000E+00  0.45593999997E+02  0.45594000000E+02  0.51100000000E-03 0.  1.
         11   -1    0    0    0    0 -0.00000000000E+00 -0.00000000000E+00 -0.45593999997E+02  0.45594000000E+02  0.51100000000E-03 0. -1.
    9900012    2    1    2    0    0 -0.18656261441E+02 -0.14422800799E+00  0.39186046956E+02  0.47787272256E+02  0.20000005524E+02 0.  0.
         12    1    1    2    0    0  0.18656261441E+02  0.14422800799E+00 -0.39186046956E+02  0.43400727744E+02  0.00000000000E+00 0. -1.
         11    1    3    3    0    0 -0.15669177210E+02  0.21838947324E+01  0.18964635644E+02  0.24697164129E+02  0.51100000000E-03 0. -1.
        -11    1    3    3    0    0  0.32219249085E+00 -0.52715481474E+01  0.16436766127E+02  0.17264423213E+02  0.51100000000E-03 0.  1.
        -12    1    3    3    0    0 -0.33092767223E+01  0.29434254071E+01  0.37846451840E+01  0.58256849143E+01  0.00000000000E+00 0.  1.
</event>
<event>
 7    1  0.5467297E-010  0.4778727E+02  0.7816164E-02  0.1312668E+00
        -11   -1    0    0    0    0  0.00000000000E+00  0.00000000000E+00  0.45593999997E+02  0.45594000000E+02  0.51100000000E-03 0.  1.
         11   -1    0    0    0    0 -0.00000000000E+00 -0.00000000000E+00 -0.45593999997E+02  0.45594000000E+02  0.51100000000E-03 0. -1.
    9900012    2    1    2    0    0  0.12710058549E+02 -0.20085730752E+02  0.36313099969E+02  0.47787269619E+02  0.19999993503E+02 0.  0.
         12    1    1    2    0    0 -0.12710058549E+02  0.20085730752E+02 -0.36313099969E+02  0.43400730381E+02  0.00000000000E+00 0. -1.
         11    1    3    3    0    0  0.31684467234E+01 -0.99312152696E+01  0.27788961504E+01  0.10788436191E+02  0.51100000000E-03 0. -1.
        -11    1    3    3    0    0  0.86469688547E+01 -0.48580079973E+01  0.25222426774E+02  0.27102419167E+02  0.51100000000E-03 0.  1.
        -12    1    3    3    0    0  0.89464297086E+00 -0.52965074855E+01  0.83117770449E+01  0.98964142614E+01  0.00000000000E+00 0.  1.
</event>
<event>
 7    1  0.5467297E-010  0.4778727E+02  0.7816164E-02  0.1312668E+00
        -11   -1    0    0    0    0  0.00000000000E+00  0.00000000000E+00  0.45593999997E+02  0.45594000000E+02  0.51100000000E-03 0. -1.
         11   -1    0    0    0    0 -0.00000000000E+00 -0.00000000000E+00 -0.45593999997E+02  0.45594000000E+02  0.51100000000E-03 0.  1.
    9900012    2    1    2    0    0 -0.20790553792E+02  0.31754509044E+02 -0.21048214768E+02  0.47787270553E+02  0.19999997759E+02 0.  0.
         12    1    1    2    0    0  0.20790553792E+02 -0.31754509044E+02  0.21048214768E+02  0.43400729447E+02  0.00000000000E+00 0. -1.
         11    1    3    3    0    0 -0.90339126310E+01  0.12539721444E+02 -0.17959982634E+02  0.23694243347E+02  0.51100000000E-03 0. -1.
        -11    1    3    3    0    0 -0.11621979784E+02  0.18446816803E+02 -0.46991830602E+01  0.22303313341E+02  0.51100000000E-03 0.  1.
         12    1    3    3    0    0 -0.13466137709E+00  0.76797079746E+00  0.16109509266E+01  0.17897138655E+01  0.00000000000E+00 0. -1.
</event>
<event>
 7    1  0.5467297E-010  0.4778727E+02  0.7816164E-02  0.1312668E+00
        -11   -1    0    0    0    0  0.00000000000E+00  0.00000000000E+00  0.45593999997E+02  0.45594000000E+02  0.51100000000E-03 0.  1.
         11   -1    0    0    0    0 -0.00000000000E+00 -0.00000000000E+00 -0.45593999997E+02  0.45594000000E+02  0.51100000000E-03 0. -1.
    9900012    2    1    2    0    0 -0.81855328247E+01 -0.25282125599E+02  0.34313766867E+02  0.47787269372E+02  0.19999992374E+02 0.  0.
         12    1    1    2    0    0  0.81855328247E+01  0.25282125599E+02 -0.34313766867E+02  0.43400730628E+02  0.00000000000E+00 0. -1.
         11    1    3    3    0    0 -0.86167048273E+01 -0.15760662517E+01  0.10798905520E+02  0.13904961258E+02  0.51100000000E-03 0. -1.
        -11    1    3    3    0    0 -0.21679084311E+01 -0.17392198599E+02  0.16042883538E+02  0.23760524227E+02  0.51100000000E-03 0.  1.
        -12    1    3    3    0    0  0.25990804338E+01 -0.63138607485E+01  0.74719778092E+01  0.10121783886E+02  0.00000000000E+00 0.  1.
</event>
<event>
 7    1  0.5467297E-010  0.4778733E+02  0.7816164E-02  0.1312668E+00
        -11   -1    0    0    0    0  0.00000000000E+00  0.00000000000E+00  0.45593999997E+02  0.45594000000E+02  0.51100000000E-03 0.  1.
         11   -1    0    0    0    0 -0.00000000000E+00 -0.00000000000E+00 -0.45593999997E+02  0.45594000000E+02  0.51100000000E-03 0. -1.
    9900012    2    1    2    0    0 -0.32404612289E+02  0.28225727338E+02 -0.60718892597E+01  0.47787326958E+02  0.20000254931E+02 0.  0.
         12    1    1    2    0    0  0.32404612289E+02 -0.28225727338E+02  0.60718892597E+01  0.43400673042E+02  0.00000000000E+00 0. -1.
         11    1    3    3    0    0 -0.10017071211E+02  0.13447841567E+02  0.53759902845E+01  0.17609299539E+02  0.51100000000E-03 0. -1.
        -11    1    3    3    0    0 -0.16957786951E+02  0.13694677647E+02 -0.11492309196E+02  0.24641101945E+02  0.51100000000E-03 0.  1.
         12    1    3    3    0    0 -0.54297541262E+01  0.10832081233E+01  0.44429651850E-01  0.55369254739E+01  0.00000000000E+00 0. -1.
</event>
<event>
 7    1  0.5467297E-010  0.4778727E+02  0.7816164E-02  0.1312668E+00
        -11   -1    0    0    0    0  0.00000000000E+00  0.00000000000E+00  0.45593999997E+02  0.45594000000E+02  0.51100000000E-03 0.  1.
         11   -1    0    0    0    0 -0.00000000000E+00 -0.00000000000E+00 -0.45593999997E+02  0.45594000000E+02  0.51100000000E-03 0. -1.
    9900012    2    1    2    0    0 -0.15941644182E+02  0.85281994415E+01  0.39455761015E+02  0.47787270948E+02  0.19999999562E+02 0.  0.
         12    1    1    2    0    0  0.15941644182E+02 -0.85281994415E+01 -0.39455761015E+02  0.43400729052E+02  0.00000000000E+00 0. -1.
         11    1    3    3    0    0  0.10312486567E+00  0.26307225942E+01  0.22194810098E+02  0.22350412338E+02  0.51100000000E-03 0. -1.
        -11    1    3    3    0    0 -0.95185734327E+01 -0.51732630518E+00  0.88911678863E+01  0.13035479790E+02  0.51100000000E-03 0.  1.
         12    1    3    3    0    0 -0.65261956146E+01  0.64148031525E+01  0.83697830306E+01  0.12401378821E+02  0.00000000000E+00 0. -1.
</event>
<event>
 7    1  0.5467297E-010  0.4778727E+02  0.7816164E-02  0.1312668E+00
        -11   -1    0    0    0    0  0.00000000000E+00  0.00000000000E+00  0.45593999997E+02  0.45594000000E+02  0.51100000000E-03 0.  1.
         11   -1    0    0    0    0 -0.00000000000E+00 -0.00000000000E+00 -0.45593999997E+02  0.45594000000E+02  0.51100000000E-03 0. -1.
    9900012    2    1    2    0    0  0.27783568920E+02 -0.25956792144E+00  0.33341099147E+02  0.47787274548E+02  0.20000015976E+02 0.  0.
         12    1    1    2    0    0 -0.27783568920E+02  0.25956792144E+00 -0.33341099147E+02  0.43400725452E+02  0.00000000000E+00 0. -1.
         11    1    3    3    0    0  0.53982394990E+01  0.59276592970E+00  0.10853128514E+02  0.12136010874E+02  0.51100000000E-03 0. -1.
        -11    1    3    3    0    0  0.24249755940E+02  0.16832689149E+01  0.21187669208E+02  0.32245951438E+02  0.51100000000E-03 0.  1.
        -12    1    3    3    0    0 -0.18644265192E+01 -0.25356027661E+01  0.13003014243E+01  0.34053122363E+01  0.00000000000E+00 0.  1.
</event>
<event>
 7    1  0.5467297E-010  0.4778727E+02  0.7816164E-02  0.1312668E+00
        -11   -1    0    0    0    0  0.00000000000E+00  0.00000000000E+00  0.45593999997E+02  0.45594000000E+02  0.51100000000E-03 0.  1.
         11   -1    0    0    0    0 -0.00000000000E+00 -0.00000000000E+00 -0.45593999997E+02  0.45594000000E+02  0.51100000000E-03 0. -1.
    9900012    2    1    2    0    0 -0.28357960312E+02 -0.12785462482E+02  0.30265181833E+02  0.47787271950E+02  0.20000004127E+02 0.  0.
         12    1    1    2    0    0  0.28357960312E+02  0.12785462482E+02 -0.30265181833E+02  0.43400728050E+02  0.00000000000E+00 0. -1.
         11    1    3    3    0    0 -0.73828051825E+01  0.24979776250E+01  0.10070309493E+02  0.12734081754E+02  0.51100000000E-03 0. -1.
        -11    1    3    3    0    0 -0.16992738513E+02 -0.16960184891E+02  0.18861139632E+02  0.30531027204E+02  0.51100000000E-03 0.  1.
         12    1    3    3    0    0 -0.39824166170E+01  0.16767447838E+01  0.13337327082E+01  0.45221629911E+01  0.00000000000E+00 0. -1.
</event>
<event>
 7    1  0.5467297E-010  0.4778727E+02  0.7816164E-02  0.1312668E+00
        -11   -1    0    0    0    0  0.00000000000E+00  0.00000000000E+00  0.45593999997E+02  0.45594000000E+02  0.51100000000E-03 0.  1.
         11   -1    0    0    0    0 -0.00000000000E+00 -0.00000000000E+00 -0.45593999997E+02  0.45594000000E+02  0.51100000000E-03 0. -1.
    9900012    2    1    2    0    0 -0.19088109586E+02 -0.33238452247E+02  0.20358611699E+02  0.47787266070E+02  0.19999977322E+02 0.  0.
         12    1    1    2    0    0  0.19088109586E+02  0.33238452247E+02 -0.20358611699E+02  0.43400733930E+02  0.00000000000E+00 0. -1.
         11    1    3    3    0    0 -0.10329182361E+01 -0.16624412924E+02  0.28078589260E+01  0.16891480017E+02  0.51100000000E-03 0. -1.
        -11    1    3    3    0    0 -0.41535673363E+01 -0.20902697005E+01  0.63847689838E+01  0.78985203852E+01  0.51100000000E-03 0.  1.
         12    1    3    3    0    0 -0.13901624013E+02 -0.14523769622E+02  0.11165983789E+02  0.22997265668E+02  0.00000000000E+00 0. -1.
</event>
<event>
 7    1  0.5467297E-010  0.4778732E+02  0.7816164E-02  0.1312668E+00
        -11   -1    0    0    0    0  0.00000000000E+00  0.00000000000E+00  0.45593999997E+02  0.45594000000E+02  0.51100000000E-03 0.  1.
         11   -1    0    0    0    0 -0.00000000000E+00 -0.00000000000E+00 -0.45593999997E+02  0.45594000000E+02  0.51100000000E-03 0. -1.
    9900012    2    1    2    0    0  0.38480647652E+02 -0.19758727419E+02  0.35286559897E+01  0.47787320673E+02  0.20000226277E+02 0.  0.
         12    1    1    2    0    0 -0.38480647652E+02  0.19758727419E+02 -0.35286559897E+01  0.43400679327E+02  0.00000000000E+00 0. -1.
         11    1    3    3    0    0  0.25519132966E+02 -0.19650920618E+02 -0.15538749629E+01  0.32245919992E+02  0.51100000000E-03 0. -1.
        -11    1    3    3    0    0  0.65387144474E+01 -0.18977415480E+01 -0.52576762072E+00  0.68288096664E+01  0.51100000000E-03 0.  1.
         12    1    3    3    0    0  0.64228002387E+01  0.17899347472E+01  0.56082985733E+01  0.87125910149E+01  0.00000000000E+00 0. -1.
</event>
<event>
 7    1  0.5467297E-010  0.4778727E+02  0.7816164E-02  0.1312668E+00
        -11   -1    0    0    0    0  0.00000000000E+00  0.00000000000E+00  0.45593999997E+02  0.45594000000E+02  0.51100000000E-03 0.  1.
         11   -1    0    0    0    0 -0.00000000000E+00 -0.00000000000E+00 -0.45593999997E+02  0.45594000000E+02  0.51100000000E-03 0. -1.
    9900012    2    1    2    0    0  0.25708772902E+02 -0.10938225245E+02  0.33212010890E+02  0.47787269096E+02  0.19999991118E+02 0.  0.
         12    1    1    2    0    0 -0.25708772902E+02  0.10938225245E+02 -0.33212010890E+02  0.43400730904E+02  0.00000000000E+00 0. -1.
         11    1    3    3    0    0  0.13129613894E+02 -0.98156161953E-01  0.55756153410E+01  0.14264777682E+02  0.51100000000E-03 0. -1.
        -11    1    3    3    0    0 -0.13040278624E+01 -0.23804887239E+01  0.41045950212E+01  0.49208653487E+01  0.51100000000E-03 0.  1.
         12    1    3    3    0    0  0.13883186871E+02 -0.84595803590E+01  0.23531800528E+02  0.28601626066E+02  0.00000000000E+00 0. -1.
</event>
<event>
 7    1  0.5467297E-010  0.4778727E+02  0.7816164E-02  0.1312668E+00
        -11   -1    0    0    0    0  0.00000000000E+00  0.00000000000E+00  0.45593999997E+02  0.45594000000E+02  0.51100000000E-03 0.  1.
         11   -1    0    0    0    0 -0.00000000000E+00 -0.00000000000E+00 -0.45593999997E+02  0.45594000000E+02  0.51100000000E-03 0. -1.
    9900012    2    1    2    0    0 -0.36628200374E+02  0.38793503826E+01  0.22955359075E+02  0.47787274980E+02  0.20000017943E+02 0.  0.
         12    1    1    2    0    0  0.36628200374E+02 -0.38793503826E+01 -0.22955359075E+02  0.43400725020E+02  0.00000000000E+00 0. -1.
         11    1    3    3    0    0 -0.18522869182E+02  0.89190309300E+01  0.60360852531E+01  0.21426155066E+02  0.51100000000E-03 0. -1.
        -11    1    3    3    0    0 -0.28917992797E+01 -0.14069846739E+01  0.73552931492E+01  0.80276052792E+01  0.51100000000E-03 0.  1.
         12    1    3    3    0    0 -0.15213531912E+02 -0.36326958735E+01  0.95639806728E+01  0.18333514634E+02  0.00000000000E+00 0. -1.
</event>
<event>
 7    1  0.5467297E-010  0.4778726E+02  0.7816164E-02  0.1312668E+00
        -11   -1    0    0    0    0  0.00000000000E+00  0.00000000000E+00  0.45593999997E+02  0.45594000000E+02  0.51100000000E-03 0.  1.
         11   -1    0    0    0    0 -0.00000000000E+00 -0.00000000000E+00 -0.45593999997E+02  0.45594000000E+02  0.51100000000E-03 0. -1.
    9900012    2    1    2    0    0 -0.12189153206E+02 -0.32859605575E+02  0.25598729184E+02  0.47787261870E+02  0.19999958170E+02 0.  0.
         12    1    1    2    0    0  0.12189153206E+02  0.32859605575E+02 -0.25598729184E+02  0.43400738130E+02  0.00000000000E+00 0. -1.
         11    1    3    3    0    0 -0.25743284243E+00  0.36640062297E+00  0.27076139792E+01  0.27443933403E+01  0.51100000000E-03 0. -1.
        -11    1    3    3    0    0 -0.13236915361E+02 -0.15916199856E+02  0.16752221983E+02  0.26630401570E+02  0.51100000000E-03 0.  1.
        -12    1    3    3    0    0  0.13051949973E+01 -0.17309806342E+02  0.61388932218E+01  0.18412466960E+02  0.00000000000E+00 0.  1.
</event>
<event>
 7    1  0.5467297E-010  0.4778726E+02  0.7816164E-02  0.1312668E+00
        -11   -1    0    0    0    0  0.00000000000E+00  0.00000000000E+00  0.45593999997E+02  0.45594000000E+02  0.51100000000E-03 0. -1.
         11   -1    0    0    0    0 -0.00000000000E+00 -0.00000000000E+00 -0.45593999997E+02  0.45594000000E+02  0.51100000000E-03 0.  1.
    9900012    2    1    2    0    0 -0.38387860098E+02 -0.14996178931E+02  0.13605547991E+02  0.47787261279E+02  0.19999955475E+02 0.  0.
         12    1    1    2    0    0  0.38387860098E+02  0.14996178931E+02 -0.13605547991E+02  0.43400738721E+02  0.00000000000E+00 0. -1.
         11    1    3    3    0    0 -0.10088545900E+01 -0.45421028857E+01  0.51559705094E+01  0.69449635249E+01  0.51100000000E-03 0. -1.
        -11    1    3    3    0    0 -0.36762473457E+02 -0.11575254043E+02  0.87620670833E+01  0.39525179072E+02  0.51100000000E-03 0.  1.
        -12    1    3    3    0    0 -0.61653205051E+00  0.11211779973E+01 -0.31248960193E+00  0.13171186819E+01  0.00000000000E+00 0.  1.
</event>
<event>
 7    1  0.5467297E-010  0.4778727E+02  0.7816164E-02  0.1312668E+00
        -11   -1    0    0    0    0  0.00000000000E+00  0.00000000000E+00  0.45593999997E+02  0.45594000000E+02  0.51100000000E-03 0.  1.
         11   -1    0    0    0    0 -0.00000000000E+00 -0.00000000000E+00 -0.45593999997E+02  0.45594000000E+02  0.51100000000E-03 0. -1.
    9900012    2    1    2    0    0 -0.11714441386E+02 -0.78633454075E+01  0.41043430631E+02  0.47787268025E+02  0.19999986233E+02 0.  0.
         12    1    1    2    0    0  0.11714441386E+02  0.78633454075E+01 -0.41043430631E+02  0.43400731975E+02  0.00000000000E+00 0. -1.
         11    1    3    3    0    0  0.27614633375E+01  0.77094308117E+00  0.12356522592E+01  0.31219977203E+01  0.51100000000E-03 0. -1.
        -11    1    3    3    0    0 -0.79060488791E+01 -0.10178886485E+02  0.30973103405E+02  0.33547704449E+02  0.51100000000E-03 0.  1.
        -12    1    3    3    0    0 -0.65698558447E+01  0.15445979966E+01  0.88346749667E+01  0.11117565856E+02  0.00000000000E+00 0.  1.
</event>
<event>
 7    1  0.5467297E-010  0.4778727E+02  0.7816164E-02  0.1312668E+00
        -11   -1    0    0    0    0  0.00000000000E+00  0.00000000000E+00  0.45593999997E+02  0.45594000000E+02  0.51100000000E-03 0.  1.
         11   -1    0    0    0    0 -0.00000000000E+00 -0.00000000000E+00 -0.45593999997E+02  0.45594000000E+02  0.51100000000E-03 0. -1.
    9900012    2    1    2    0    0 -0.93482296740E+01 -0.36638751682E+02  0.21303416708E+02  0.47787273205E+02  0.20000009850E+02 0.  0.
         12    1    1    2    0    0  0.93482296740E+01  0.36638751682E+02 -0.21303416708E+02  0.43400726795E+02  0.00000000000E+00 0. -1.
         11    1    3    3    0    0 -0.21228061539E+01 -0.18655835883E+01 -0.28587022814E-01  0.28262210761E+01  0.51100000000E-03 0. -1.
        -11    1    3    3    0    0 -0.87232335592E+01 -0.25626252352E+02  0.71152838159E+01  0.27989763796E+02  0.51100000000E-03 0.  1.
        -12    1    3    3    0    0  0.14978100390E+01 -0.91469157422E+01  0.14216719915E+02  0.16971288332E+02  0.00000000000E+00 0.  1.
</event>
<event>
 7    1  0.5467297E-010  0.4778727E+02  0.7816164E-02  0.1312668E+00
        -11   -1    0    0    0    0  0.00000000000E+00  0.00000000000E+00  0.45593999997E+02  0.45594000000E+02  0.51100000000E-03 0.  1.
         11   -1    0    0    0    0 -0.00000000000E+00 -0.00000000000E+00 -0.45593999997E+02  0.45594000000E+02  0.51100000000E-03 0. -1.
    9900012    2    1    2    0    0 -0.39695003971E+02 -0.17539673189E+02 -0.53841363570E+00  0.47787269994E+02  0.19999995209E+02 0.  0.
         12    1    1    2    0    0  0.39695003971E+02  0.17539673189E+02  0.53841363570E+00  0.43400730006E+02  0.00000000000E+00 0. -1.
         11    1    3    3    0    0 -0.19645797280E+01  0.30732981276E+01 -0.50800111922E-01  0.36479193798E+01  0.51100000000E-03 0. -1.
        -11    1    3    3    0    0 -0.34319847632E+02 -0.18341673621E+02  0.26123544757E+01  0.39001196506E+02  0.51100000000E-03 0.  1.
         12    1    3    3    0    0 -0.34105766108E+01 -0.22712976954E+01 -0.30999679995E+01  0.51381541080E+01  0.00000000000E+00 0. -1.
</event>
<event>
 7    1  0.5467297E-010  0.4778727E+02  0.7816164E-02  0.1312668E+00
        -11   -1    0    0    0    0  0.00000000000E+00  0.00000000000E+00  0.45593999997E+02  0.45594000000E+02  0.51100000000E-03 0.  1.
         11   -1    0    0    0    0 -0.00000000000E+00 -0.00000000000E+00 -0.45593999997E+02  0.45594000000E+02  0.51100000000E-03 0. -1.
    9900012    2    1    2    0    0  0.23508120562E+02  0.62658252750E+01  0.35940659160E+02  0.47787270979E+02  0.19999999699E+02 0.  0.
         12    1    1    2    0    0 -0.23508120562E+02 -0.62658252750E+01 -0.35940659160E+02  0.43400729021E+02  0.00000000000E+00 0. -1.
         11    1    3    3    0    0  0.33800384260E+01  0.37309646300E+00  0.72363198067E+01  0.79955103238E+01  0.51100000000E-03 0.  1.
        -11    1    3    3    0    0  0.46763498285E+01  0.92963694958E+01  0.17653951567E+02  0.20492748467E+02  0.51100000000E-03 0. -1.
        -12    1    3    3    0    0  0.15451732308E+02 -0.34036406838E+01  0.11050387786E+02  0.19299012188E+02  0.00000000000E+00 0.  1.
</event>
<event>
 7    1  0.5467297E-010  0.4778727E+02  0.7816164E-02  0.1312668E+00
        -11   -1    0    0    0    0  0.00000000000E+00  0.00000000000E+00  0.45593999997E+02  0.45594000000E+02  0.51100000000E-03 0.  1.
         11   -1    0    0    0    0 -0.00000000000E+00 -0.00000000000E+00 -0.45593999997E+02  0.45594000000E+02  0.51100000000E-03 0. -1.
    9900012    2    1    2    0    0 -0.36796386671E+02 -0.88405248033E+01  0.21248390900E+02  0.47787273431E+02  0.20000010882E+02 0.  0.
         12    1    1    2    0    0  0.36796386671E+02  0.88405248033E+01 -0.21248390900E+02  0.43400726569E+02  0.00000000000E+00 0. -1.
         11    1    3    3    0    0 -0.10173519917E+02  0.16844388513E+01 -0.15695417789E+01  0.10430786327E+02  0.51100000000E-03 0. -1.
        -11    1    3    3    0    0 -0.24311058498E+02 -0.77358689814E+01  0.17559832514E+02  0.30971260102E+02  0.51100000000E-03 0.  1.
         12    1    3    3    0    0 -0.23118082566E+01 -0.27890946733E+01  0.52581001651E+01  0.63852270014E+01  0.00000000000E+00 0. -1.
</event>
<event>
 7    1  0.5467297E-010  0.4778730E+02  0.7816164E-02  0.1312668E+00
        -11   -1    0    0    0    0  0.00000000000E+00  0.00000000000E+00  0.45593999997E+02  0.45594000000E+02  0.51100000000E-03 0. -1.
         11   -1    0    0    0    0 -0.00000000000E+00 -0.00000000000E+00 -0.45593999997E+02  0.45594000000E+02  0.51100000000E-03 0.  1.
    9900012    2    1    2    0    0  0.23361451849E+02  0.29067922613E+02 -0.22201783174E+02  0.47787300309E+02  0.20000133430E+02 0.  0.
         12    1    1    2    0    0 -0.23361451849E+02 -0.29067922613E+02  0.22201783174E+02  0.43400699691E+02  0.00000000000E+00 0. -1.
         11    1    3    3    0    0  0.20595681992E+02  0.22351982829E+02 -0.12692264000E+02  0.32937620115E+02  0.51100000000E-03 0. -1.
        -11    1    3    3    0    0  0.57505848224E+01  0.31373023833E+01 -0.41826476823E+01  0.77721576116E+01  0.51100000000E-03 0.  1.
         12    1    3    3    0    0 -0.29848149657E+01  0.35786374011E+01 -0.53268714916E+01  0.70775225833E+01  0.00000000000E+00 0. -1.
</event>
<event>
 7    1  0.5467297E-010  0.4778724E+02  0.7816164E-02  0.1312668E+00
        -11   -1    0    0    0    0  0.00000000000E+00  0.00000000000E+00  0.45593999997E+02  0.45594000000E+02  0.51100000000E-03 0.  1.
         11   -1    0    0    0    0 -0.00000000000E+00 -0.00000000000E+00 -0.45593999997E+02  0.45594000000E+02  0.51100000000E-03 0. -1.
    9900012    2    1    2    0    0  0.17821544390E+02 -0.12962757425E+02  0.37389645609E+02  0.47787238218E+02  0.19999850332E+02 0.  0.
         12    1    1    2    0    0 -0.17821544390E+02  0.12962757425E+02 -0.37389645609E+02  0.43400761782E+02  0.00000000000E+00 0. -1.
         11    1    3    3    0    0  0.97939253963E+00 -0.44644625663E+01  0.34821307183E+01  0.57459438174E+01  0.51100000000E-03 0. -1.
        -11    1    3    3    0    0  0.13692258172E+02 -0.13150827919E+02  0.28492585224E+02  0.34238131109E+02  0.51100000000E-03 0.  1.
        -12    1    3    3    0    0  0.31498936780E+01  0.46525330612E+01  0.54149296668E+01  0.78031632921E+01  0.00000000000E+00 0.  1.
</event>
<event>
 7    1  0.5467297E-010  0.4778726E+02  0.7816164E-02  0.1312668E+00
        -11   -1    0    0    0    0  0.00000000000E+00  0.00000000000E+00  0.45593999997E+02  0.45594000000E+02  0.51100000000E-03 0. -1.
         11   -1    0    0    0    0 -0.00000000000E+00 -0.00000000000E+00 -0.45593999997E+02  0.45594000000E+02  0.51100000000E-03 0.  1.
    9900012    2    1    2    0    0  0.17024288839E+02 -0.11218369311E+02 -0.38313784270E+02  0.47787259389E+02  0.19999946859E+02 0.  0.
         12    1    1    2    0    0 -0.17024288839E+02  0.11218369311E+02  0.38313784270E+02  0.43400740611E+02  0.00000000000E+00 0. -1.
         11    1    3    3    0    0  0.12402774041E+01 -0.49261068978E+01 -0.21937022586E+02  0.22517499360E+02  0.51100000000E-03 0. -1.
        -11    1    3    3    0    0  0.94034759987E+01 -0.78273587102E+01 -0.79578310900E+01  0.14595204046E+02  0.51100000000E-03 0.  1.
        -12    1    3    3    0    0  0.63805354360E+01  0.15350962966E+01 -0.84189305941E+01  0.10674555983E+02  0.00000000000E+00 0.  1.
</event>
<event>
 7    1  0.5467297E-010  0.4778727E+02  0.7816164E-02  0.1312668E+00
        -11   -1    0    0    0    0  0.00000000000E+00  0.00000000000E+00  0.45593999997E+02  0.45594000000E+02  0.51100000000E-03 0. -1.
         11   -1    0    0    0    0 -0.00000000000E+00 -0.00000000000E+00 -0.45593999997E+02  0.45594000000E+02  0.51100000000E-03 0.  1.
    9900012    2    1    2    0    0  0.27389379974E+02 -0.33308305824E+02 -0.48991790276E+01  0.47787270428E+02  0.19999997191E+02 0.  0.
         12    1    1    2    0    0 -0.27389379974E+02  0.33308305824E+02  0.48991790276E+01  0.43400729572E+02  0.00000000000E+00 0. -1.
         11    1    3    3    0    0  0.38596699636E+00 -0.31357359323E+00 -0.14681074492E+01  0.15500447297E+01  0.51100000000E-03 0. -1.
        -11    1    3    3    0    0  0.86996310123E+01 -0.99523686443E+01 -0.93875358711E+01  0.16212928526E+02  0.51100000000E-03 0.  1.
        -12    1    3    3    0    0  0.18303781965E+02 -0.23042363586E+02  0.59564642927E+01  0.30024297173E+02  0.00000000000E+00 0.  1.
</event>
<event>
 7    1  0.5467297E-010  0.4778727E+02  0.7816164E-02  0.1312668E+00
        -11   -1    0    0    0    0  0.00000000000E+00  0.00000000000E+00  0.45593999997E+02  0.45594000000E+02  0.51100000000E-03 0.  1.
         11   -1    0    0    0    0 -0.00000000000E+00 -0.00000000000E+00 -0.45593999997E+02  0.45594000000E+02  0.51100000000E-03 0. -1.
    9900012    2    1    2    0    0 -0.33557458138E+02 -0.20498274157E+02  0.18366842701E+02  0.47787272461E+02  0.20000006459E+02 0.  0.
         12    1    1    2    0    0  0.33557458138E+02  0.20498274157E+02 -0.18366842701E+02  0.43400727539E+02  0.00000000000E+00 0. -1.
         11    1    3    3    0    0 -0.21475210535E+02 -0.40725974032E+01  0.42284326881E+01  0.22263206426E+02  0.51100000000E-03 0. -1.
        -11    1    3    3    0    0 -0.29804010168E+01 -0.82945859509E+01  0.40974925458E+01  0.97196909283E+01  0.51100000000E-03 0.  1.
         12    1    3    3    0    0 -0.91018465866E+01 -0.81310908024E+01  0.10040917468E+02  0.15804375107E+02  0.00000000000E+00 0. -1.
</event>
<event>
 7    1  0.5467297E-010  0.4778727E+02  0.7816164E-02  0.1312668E+00
        -11   -1    0    0    0    0  0.00000000000E+00  0.00000000000E+00  0.45593999997E+02  0.45594000000E+02  0.51100000000E-03 0.  1.
         11   -1    0    0    0    0 -0.00000000000E+00 -0.00000000000E+00 -0.45593999997E+02  0.45594000000E+02  0.51100000000E-03 0. -1.
    9900012    2    1    2    0    0 -0.34652606070E+02 -0.16634391997E+02  0.20152344578E+02  0.47787273087E+02  0.20000009315E+02 0.  0.
         12    1    1    2    0    0  0.34652606070E+02  0.16634391997E+02 -0.20152344578E+02  0.43400726913E+02  0.00000000000E+00 0. -1.
         11    1    3    3    0    0 -0.21936614115E+01  0.21298382948E+01 -0.34809880565E+00  0.30772608908E+01  0.51100000000E-03 0. -1.
        -11    1    3    3    0    0 -0.33282990530E+02 -0.18044583760E+02  0.17878372580E+02  0.41868850809E+02  0.51100000000E-03 0.  1.
        -12    1    3    3    0    0  0.82404587193E+00 -0.71964653152E+00  0.26220708036E+01  0.28411613872E+01  0.00000000000E+00 0.  1.
</event>
<event>
 7    1  0.5467297E-010  0.4778727E+02  0.7816164E-02  0.1312668E+00
        -11   -1    0    0    0    0  0.00000000000E+00  0.00000000000E+00  0.45593999997E+02  0.45594000000E+02  0.51100000000E-03 0. -1.
         11   -1    0    0    0    0 -0.00000000000E+00 -0.00000000000E+00 -0.45593999997E+02  0.45594000000E+02  0.51100000000E-03 0.  1.
    9900012    2    1    2    0    0  0.26539705940E+02  0.20258674789E+02 -0.27728211161E+02  0.47787267405E+02  0.19999983408E+02 0.  0.
         12    1    1    2    0    0 -0.26539705940E+02 -0.20258674789E+02  0.27728211161E+02  0.43400732595E+02  0.00000000000E+00 0. -1.
         11    1    3    3    0    0  0.69013194830E+01 -0.27767413349E+01 -0.28305173560E+01  0.79592921677E+01  0.51100000000E-03 0. -1.
        -11    1    3    3    0    0  0.14446833100E+02  0.17552465730E+02 -0.22294720060E+02  0.31841083251E+02  0.51100000000E-03 0.  1.
         12    1    3    3    0    0  0.51915533570E+01  0.54829503939E+01 -0.26029737450E+01  0.79868919861E+01  0.00000000000E+00 0. -1.
</event>
<event>
 7    1  0.5467297E-010  0.4778727E+02  0.7816164E-02  0.1312668E+00
        -11   -1    0    0    0    0  0.00000000000E+00  0.00000000000E+00  0.45593999997E+02  0.45594000000E+02  0.51100000000E-03 0.  1.
         11   -1    0    0    0    0 -0.00000000000E+00 -0.00000000000E+00 -0.45593999997E+02  0.45594000000E+02  0.51100000000E-03 0. -1.
    9900012    2    1    2    0    0 -0.41414837840E+01 -0.25858641812E+02  0.34609275013E+02  0.47787272342E+02  0.20000005917E+02 0.  0.
         12    1    1    2    0    0  0.41414837840E+01  0.25858641812E+02 -0.34609275013E+02  0.43400727658E+02  0.00000000000E+00 0. -1.
         11    1    3    3    0    0 -0.70777957187E+00 -0.18980918523E+02  0.17320870663E+02  0.25705812197E+02  0.51100000000E-03 0.  1.
        -11    1    3    3    0    0 -0.24716766721E+01 -0.80075417187E+01  0.51151140490E+01  0.98180599888E+01  0.51100000000E-03 0. -1.
         12    1    3    3    0    0 -0.96202754001E+00  0.11298184291E+01  0.12173290300E+02  0.12263400157E+02  0.00000000000E+00 0. -1.
</event>
<event>
 7    1  0.5467297E-010  0.4778727E+02  0.7816164E-02  0.1312668E+00
        -11   -1    0    0    0    0  0.00000000000E+00  0.00000000000E+00  0.45593999997E+02  0.45594000000E+02  0.51100000000E-03 0. -1.
         11   -1    0    0    0    0 -0.00000000000E+00 -0.00000000000E+00 -0.45593999997E+02  0.45594000000E+02  0.51100000000E-03 0.  1.
    9900012    2    1    2    0    0  0.12151141304E+01 -0.26967618066E+02 -0.33983735584E+02  0.47787271772E+02  0.20000003318E+02 0.  0.
         12    1    1    2    0    0 -0.12151141304E+01  0.26967618066E+02  0.33983735584E+02  0.43400728228E+02  0.00000000000E+00 0. -1.
         11    1    3    3    0    0  0.67804350888E+00 -0.19016055206E+02 -0.28364455001E+02  0.34155708255E+02  0.51100000000E-03 0. -1.
        -11    1    3    3    0    0 -0.44918164515E+01 -0.33764492944E+01 -0.24369756581E+01  0.61250041217E+01  0.51100000000E-03 0.  1.
         12    1    3    3    0    0  0.50288870730E+01 -0.45751135652E+01 -0.31823049241E+01  0.75065593955E+01  0.00000000000E+00 0. -1.
</event>
<event>
 7    1  0.6867411E-010  0.4778724E+02  0.7816164E-02  0.1312668E+00
        -11   -1    0    0    0    0  0.00000000000E+00  0.00000000000E+00  0.45593999997E+02  0.45594000000E+02  0.51100000000E-03 0. -1.
         11   -1    0    0    0    0 -0.00000000000E+00 -0.00000000000E+00 -0.45593999997E+02  0.45594000000E+02  0.51100000000E-03 0.  1.
    9900012    2    1    2    0    0  0.25194658726E+02  0.40288194770E+01 -0.35108738068E+02  0.47787243055E+02  0.19999872385E+02 0.  0.
         12    1    1    2    0    0 -0.25194658726E+02 -0.40288194770E+01  0.35108738068E+02  0.43400756945E+02  0.00000000000E+00 0. -1.
         11    1    3    3    0    0  0.18318991512E+01 -0.15524258982E+01 -0.17363223899E+01  0.29632239828E+01  0.51100000000E-03 0. -1.
        -11    1    3    3    0    0  0.26312379123E+01  0.12857720840E+01 -0.19024170546E+02  0.19248264546E+02  0.51100000000E-03 0.  1.
        -12    1    3    3    0    0  0.20731521663E+02  0.42954732912E+01 -0.14348245132E+02  0.25575754527E+02  0.00000000000E+00 0.  1.
</event>
<event>
 7    1  0.5467297E-010  0.4778724E+02  0.7816164E-02  0.1312668E+00
        -11   -1    0    0    0    0  0.00000000000E+00  0.00000000000E+00  0.45593999997E+02  0.45594000000E+02  0.51100000000E-03 0. -1.
         11   -1    0    0    0    0 -0.00000000000E+00 -0.00000000000E+00 -0.45593999997E+02  0.45594000000E+02  0.51100000000E-03 0.  1.
    9900012    2    1    2    0    0 -0.19151385194E+02  0.21468797260E+02 -0.32495245019E+02  0.47787242409E+02  0.19999869437E+02 0.  0.
         12    1    1    2    0    0  0.19151385194E+02 -0.21468797260E+02  0.32495245019E+02  0.43400757591E+02  0.00000000000E+00 0. -1.
         11    1    3    3    0    0  0.31533888320E+00  0.24054056453E+00 -0.81457975614E+00  0.90600155336E+00  0.51100000000E-03 0. -1.
        -11    1    3    3    0    0 -0.11503852628E+02  0.42182599129E+01 -0.23277729985E+02  0.26305608822E+02  0.51100000000E-03 0.  1.
        -12    1    3    3    0    0 -0.79628714497E+01  0.17009996783E+02 -0.84029352773E+01  0.20575632033E+02  0.00000000000E+00 0.  1.
</event>
<event>
 7    1  0.5467297E-010  0.4778728E+02  0.7816164E-02  0.1312668E+00
        -11   -1    0    0    0    0  0.00000000000E+00  0.00000000000E+00  0.45593999997E+02  0.45594000000E+02  0.51100000000E-03 0.  1.
         11   -1    0    0    0    0 -0.00000000000E+00 -0.00000000000E+00 -0.45593999997E+02  0.45594000000E+02  0.51100000000E-03 0. -1.
    9900012    2    1    2    0    0  0.35783589235E+02  0.56901573938E+01  0.23890995860E+02  0.47787276125E+02  0.20000023165E+02 0.  0.
         12    1    1    2    0    0 -0.35783589235E+02 -0.56901573938E+01 -0.23890995860E+02  0.43400723875E+02  0.00000000000E+00 0. -1.
         11    1    3    3    0    0  0.88211236964E+01  0.45091380115E+01  0.15650970636E+02  0.18522889380E+02  0.51100000000E-03 0. -1.
        -11    1    3    3    0    0  0.19337673553E+02  0.17689323965E+01  0.93232850031E+01  0.21540621713E+02  0.51100000000E-03 0.  1.
         12    1    3    3    0    0  0.76247919855E+01 -0.58791301423E+00 -0.10832597786E+01  0.77237650328E+01  0.00000000000E+00 0. -1.
</event>
<event>
 7    1  0.5467297E-010  0.4778727E+02  0.7816164E-02  0.1312668E+00
        -11   -1    0    0    0    0  0.00000000000E+00  0.00000000000E+00  0.45593999997E+02  0.45594000000E+02  0.51100000000E-03 0.  1.
         11   -1    0    0    0    0 -0.00000000000E+00 -0.00000000000E+00 -0.45593999997E+02  0.45594000000E+02  0.51100000000E-03 0. -1.
    9900012    2    1    2    0    0 -0.32064811196E+02  0.56325874763E+01  0.28700959063E+02  0.47787271782E+02  0.20000003365E+02 0.  0.
         12    1    1    2    0    0  0.32064811196E+02 -0.56325874763E+01 -0.28700959063E+02  0.43400728218E+02  0.00000000000E+00 0. -1.
         11    1    3    3    0    0 -0.13939880906E+02  0.93164282800E+01  0.17087120638E+02  0.23939210670E+02  0.51100000000E-03 0. -1.
        -11    1    3    3    0    0 -0.59880101919E+00 -0.14932589596E+00  0.46021239066E+01  0.46433183820E+01  0.51100000000E-03 0.  1.
         12    1    3    3    0    0 -0.17526129270E+02 -0.35345149077E+01  0.70117145186E+01  0.19204742730E+02  0.00000000000E+00 0. -1.
</event>
<event>
 7    1  0.5467297E-010  0.4778727E+02  0.7816164E-02  0.1312668E+00
        -11   -1    0    0    0    0  0.00000000000E+00  0.00000000000E+00  0.45593999997E+02  0.45594000000E+02  0.51100000000E-03 0.  1.
         11   -1    0    0    0    0 -0.00000000000E+00 -0.00000000000E+00 -0.45593999997E+02  0.45594000000E+02  0.51100000000E-03 0. -1.
    9900012    2    1    2    0    0  0.42694537005E+02  0.29275435696E+01  0.72269689111E+01  0.47787273266E+02  0.20000010128E+02 0.  0.
         12    1    1    2    0    0 -0.42694537005E+02 -0.29275435696E+01 -0.72269689111E+01  0.43400726734E+02  0.00000000000E+00 0. -1.
         11    1    3    3    0    0  0.85151418446E+01  0.65019856019E+01  0.25149356084E+01  0.11004924297E+02  0.51100000000E-03 0.  1.
        -11    1    3    3    0    0  0.21998434905E+02 -0.69873132236E+01  0.65659185897E+01  0.23997186742E+02  0.51100000000E-03 0. -1.
         12    1    3    3    0    0  0.12180960255E+02  0.34128711914E+01 -0.18538852870E+01  0.12785162227E+02  0.00000000000E+00 0. -1.
</event>
<event>
 7    1  0.5467297E-010  0.4778727E+02  0.7816164E-02  0.1312668E+00
        -11   -1    0    0    0    0  0.00000000000E+00  0.00000000000E+00  0.45593999997E+02  0.45594000000E+02  0.51100000000E-03 0.  1.
         11   -1    0    0    0    0 -0.00000000000E+00 -0.00000000000E+00 -0.45593999997E+02  0.45594000000E+02  0.51100000000E-03 0. -1.
    9900012    2    1    2    0    0  0.15578056562E+02  0.23881734644E+02  0.32720179139E+02  0.47787271679E+02  0.20000002895E+02 0.  0.
         12    1    1    2    0    0 -0.15578056562E+02 -0.23881734644E+02 -0.32720179139E+02  0.43400728321E+02  0.00000000000E+00 0. -1.
         11    1    3    3    0    0  0.65122638240E+01  0.15679964380E+02  0.26769133558E+02  0.31699485402E+02  0.51100000000E-03 0. -1.
        -11    1    3    3    0    0  0.34254699355E+01 -0.14733935388E+00  0.48676454859E+01  0.59539504534E+01  0.51100000000E-03 0.  1.
         12    1    3    3    0    0  0.56403228026E+01  0.83491096182E+01  0.10834000951E+01  0.10133835824E+02  0.00000000000E+00 0. -1.
</event>
<event>
 7    1  0.5467297E-010  0.4778727E+02  0.7816164E-02  0.1312668E+00
        -11   -1    0    0    0    0  0.00000000000E+00  0.00000000000E+00  0.45593999997E+02  0.45594000000E+02  0.51100000000E-03 0.  1.
         11   -1    0    0    0    0 -0.00000000000E+00 -0.00000000000E+00 -0.45593999997E+02  0.45594000000E+02  0.51100000000E-03 0. -1.
    9900012    2    1    2    0    0  0.26792363295E+02  0.16540770809E+02  0.29869645487E+02  0.47787267847E+02  0.19999985422E+02 0.  0.
         12    1    1    2    0    0 -0.26792363295E+02 -0.16540770809E+02 -0.29869645487E+02  0.43400732153E+02  0.00000000000E+00 0. -1.
         11    1    3    3    0    0  0.43012986381E+01  0.99151135969E+01  0.13943624251E+02  0.17641862292E+02  0.51100000000E-03 0. -1.
        -11    1    3    3    0    0  0.64625390467E+01  0.70244942153E+01  0.64695911135E+01  0.11530981717E+02  0.51100000000E-03 0.  1.
         12    1    3    3    0    0  0.16028525610E+02 -0.39883700302E+00  0.94564301228E+01  0.18614423839E+02  0.00000000000E+00 0. -1.
</event>
<event>
 7    1  0.5467297E-010  0.4778727E+02  0.7816164E-02  0.1312668E+00
        -11   -1    0    0    0    0  0.00000000000E+00  0.00000000000E+00  0.45593999997E+02  0.45594000000E+02  0.51100000000E-03 0.  1.
         11   -1    0    0    0    0 -0.00000000000E+00 -0.00000000000E+00 -0.45593999997E+02  0.45594000000E+02  0.51100000000E-03 0. -1.
    9900012    2    1    2    0    0  0.26819590326E+02 -0.22303342449E+02  0.25824282401E+02  0.47787273379E+02  0.20000010645E+02 0.  0.
         12    1    1    2    0    0 -0.26819590326E+02  0.22303342449E+02 -0.25824282401E+02  0.43400726621E+02  0.00000000000E+00 0. -1.
         11    1    3    3    0    0  0.14360982402E+02  0.19630847895E+00  0.91301803449E+01  0.17018711642E+02  0.51100000000E-03 0. -1.
        -11    1    3    3    0    0  0.11318238956E+01 -0.13051819432E+01  0.18058067196E+01  0.24990925164E+01  0.51100000000E-03 0.  1.
         12    1    3    3    0    0  0.11326784029E+02 -0.21194468985E+02  0.14888295337E+02  0.28269469221E+02  0.00000000000E+00 0. -1.
</event>
<event>
 7    1  0.5467297E-010  0.4778727E+02  0.7816164E-02  0.1312668E+00
        -11   -1    0    0    0    0  0.00000000000E+00  0.00000000000E+00  0.45593999997E+02  0.45594000000E+02  0.51100000000E-03 0.  1.
         11   -1    0    0    0    0 -0.00000000000E+00 -0.00000000000E+00 -0.45593999997E+02  0.45594000000E+02  0.51100000000E-03 0. -1.
    9900012    2    1    2    0    0 -0.20403042317E+02 -0.51679924146E+01  0.37955649128E+02  0.47787267493E+02  0.19999983808E+02 0.  0.
         12    1    1    2    0    0  0.20403042317E+02  0.51679924146E+01 -0.37955649128E+02  0.43400732507E+02  0.00000000000E+00 0. -1.
         11    1    3    3    0    0 -0.41187601799E+01 -0.58535186941E+01  0.28103342983E+01  0.76893332384E+01  0.51100000000E-03 0. -1.
        -11    1    3    3    0    0 -0.11472203535E+02  0.28879292804E+01  0.31563410481E+02  0.33707572901E+02  0.51100000000E-03 0.  1.
        -12    1    3    3    0    0 -0.48120786028E+01 -0.22024030009E+01  0.35819043494E+01  0.63903613533E+01  0.00000000000E+00 0.  1.
</event>
<event>
 7    1  0.5467297E-010  0.4778725E+02  0.7816164E-02  0.1312668E+00
        -11   -1    0    0    0    0  0.00000000000E+00  0.00000000000E+00  0.45593999997E+02  0.45594000000E+02  0.51100000000E-03 0.  1.
         11   -1    0    0    0    0 -0.00000000000E+00 -0.00000000000E+00 -0.45593999997E+02  0.45594000000E+02  0.51100000000E-03 0. -1.
    9900012    2    1    2    0    0 -0.12857808390E+02  0.34899370878E+02  0.22368182760E+02  0.47787252031E+02  0.19999913310E+02 0.  0.
         12    1    1    2    0    0  0.12857808390E+02 -0.34899370878E+02 -0.22368182760E+02  0.43400747969E+02  0.00000000000E+00 0. -1.
         11    1    3    3    0    0  0.35202640475E+01  0.49876222654E+01 -0.63625944833E+00  0.61378710620E+01  0.51100000000E-03 0. -1.
        -11    1    3    3    0    0 -0.14016778368E+02  0.19847137872E+02  0.14788451262E+02  0.28444283231E+02  0.51100000000E-03 0.  1.
        -12    1    3    3    0    0 -0.23612940693E+01  0.10064610741E+02  0.82159909459E+01  0.13205097738E+02  0.00000000000E+00 0.  1.
</event>
<event>
 7    1  0.5467297E-010  0.4778728E+02  0.7816164E-02  0.1312668E+00
        -11   -1    0    0    0    0  0.00000000000E+00  0.00000000000E+00  0.45593999997E+02  0.45594000000E+02  0.51100000000E-03 0. -1.
         11   -1    0    0    0    0 -0.00000000000E+00 -0.00000000000E+00 -0.45593999997E+02  0.45594000000E+02  0.51100000000E-03 0.  1.
    9900012    2    1    2    0    0  0.43463771516E+01  0.34687157289E+02 -0.25720280897E+02  0.47787277373E+02  0.20000028854E+02 0.  0.
         12    1    1    2    0    0 -0.43463771516E+01 -0.34687157289E+02  0.25720280897E+02  0.43400722627E+02  0.00000000000E+00 0. -1.
         11    1    3    3    0    0 -0.34455398939E+01  0.75497067338E+01 -0.11785313005E+01  0.83820494638E+01  0.51100000000E-03 0. -1.
        -11    1    3    3    0    0  0.11187171876E+02  0.19919438245E+02 -0.17816133726E+02  0.28971562881E+02  0.51100000000E-03 0.  1.
        -12    1    3    3    0    0 -0.33952548305E+01  0.72180123108E+01 -0.67256158697E+01  0.10433665028E+02  0.00000000000E+00 0.  1.
</event>
<event>
 7    1  0.5467297E-010  0.4778728E+02  0.7816164E-02  0.1312668E+00
        -11   -1    0    0    0    0  0.00000000000E+00  0.00000000000E+00  0.45593999997E+02  0.45594000000E+02  0.51100000000E-03 0.  1.
         11   -1    0    0    0    0 -0.00000000000E+00 -0.00000000000E+00 -0.45593999997E+02  0.45594000000E+02  0.51100000000E-03 0. -1.
    9900012    2    1    2    0    0 -0.10454684100E+02  0.37626083725E+02  0.18936735593E+02  0.47787279372E+02  0.20000037967E+02 0.  0.
         12    1    1    2    0    0  0.10454684100E+02 -0.37626083725E+02 -0.18936735593E+02  0.43400720628E+02  0.00000000000E+00 0. -1.
         11    1    3    3    0    0  0.68360941203E+00 -0.82405943127E+00 -0.93134675650E+00  0.14190852041E+01  0.51100000000E-03 0. -1.
        -11    1    3    3    0    0 -0.92264780617E+01  0.26348116282E+02  0.73852838087E+01  0.28877215001E+02  0.51100000000E-03 0.  1.
        -12    1    3    3    0    0 -0.19118154503E+01  0.12102026874E+02  0.12482798541E+02  0.17490979166E+02  0.00000000000E+00 0.  1.
</event>
<event>
 7    1  0.5467297E-010  0.4778727E+02  0.7816164E-02  0.1312668E+00
        -11   -1    0    0    0    0  0.00000000000E+00  0.00000000000E+00  0.45593999997E+02  0.45594000000E+02  0.51100000000E-03 0.  1.
         11   -1    0    0    0    0 -0.00000000000E+00 -0.00000000000E+00 -0.45593999997E+02  0.45594000000E+02  0.51100000000E-03 0. -1.
    9900012    2    1    2    0    0  0.18491743785E+02 -0.12126139443E+02  0.37344821412E+02  0.47787268067E+02  0.19999986425E+02 0.  0.
         12    1    1    2    0    0 -0.18491743785E+02  0.12126139443E+02 -0.37344821412E+02  0.43400731933E+02  0.00000000000E+00 0. -1.
         11    1    3    3    0    0  0.82857037097E+01  0.54169716388E+00  0.37286281469E+01  0.91021420501E+01  0.51100000000E-03 0. -1.
        -11    1    3    3    0    0  0.12238562759E+02 -0.11414462690E+02  0.29986320906E+02  0.34340236147E+02  0.51100000000E-03 0.  1.
         12    1    3    3    0    0 -0.20325226835E+01 -0.12533739165E+01  0.36298723596E+01  0.43448898698E+01  0.00000000000E+00 0. -1.
</event>
<event>
 7    1  0.5467297E-010  0.4778728E+02  0.7816164E-02  0.1312668E+00
        -11   -1    0    0    0    0  0.00000000000E+00  0.00000000000E+00  0.45593999997E+02  0.45594000000E+02  0.51100000000E-03 0.  1.
         11   -1    0    0    0    0 -0.00000000000E+00 -0.00000000000E+00 -0.45593999997E+02  0.45594000000E+02  0.51100000000E-03 0. -1.
    9900012    2    1    2    0    0  0.35993601459E+02 -0.66371158643E+00  0.24241340905E+02  0.47787280329E+02  0.20000042332E+02 0.  0.
         12    1    1    2    0    0 -0.35993601459E+02  0.66371158643E+00 -0.24241340905E+02  0.43400719671E+02  0.00000000000E+00 0. -1.
         11    1    3    3    0    0  0.10217266453E+02  0.67661443543E+01  0.32912437835E+01  0.12688795415E+02  0.51100000000E-03 0. -1.
        -11    1    3    3    0    0  0.11769418950E+02  0.82455080860E+00  0.73361703479E+01  0.13893109878E+02  0.51100000000E-03 0.  1.
         12    1    3    3    0    0  0.14006916057E+02 -0.82544067493E+01  0.13613926774E+02  0.21205375036E+02  0.00000000000E+00 0. -1.
</event>
<event>
 7    1  0.5467297E-010  0.4778727E+02  0.7816164E-02  0.1312668E+00
        -11   -1    0    0    0    0  0.00000000000E+00  0.00000000000E+00  0.45593999997E+02  0.45594000000E+02  0.51100000000E-03 0.  1.
         11   -1    0    0    0    0 -0.00000000000E+00 -0.00000000000E+00 -0.45593999997E+02  0.45594000000E+02  0.51100000000E-03 0. -1.
    9900012    2    1    2    0    0  0.23905158490E+02  0.22421988991E+01 -0.36154385037E+02  0.47787267106E+02  0.19999982041E+02 0.  0.
         12    1    1    2    0    0 -0.23905158490E+02 -0.22421988991E+01  0.36154385037E+02  0.43400732894E+02  0.00000000000E+00 0. -1.
         11    1    3    3    0    0  0.39705312989E+01  0.70643872792E+00 -0.57493974801E+01  0.70228018709E+01  0.51100000000E-03 0. -1.
        -11    1    3    3    0    0  0.10345185169E+02 -0.49035503462E+01 -0.25987905526E+02  0.28397867808E+02  0.51100000000E-03 0.  1.
        -12    1    3    3    0    0  0.95894420219E+01  0.64393105173E+01 -0.44170820315E+01  0.12366597426E+02  0.00000000000E+00 0.  1.
</event>
<event>
 7    1  0.5467297E-010  0.4778727E+02  0.7816164E-02  0.1312668E+00
        -11   -1    0    0    0    0  0.00000000000E+00  0.00000000000E+00  0.45593999997E+02  0.45594000000E+02  0.51100000000E-03 0.  1.
         11   -1    0    0    0    0 -0.00000000000E+00 -0.00000000000E+00 -0.45593999997E+02  0.45594000000E+02  0.51100000000E-03 0. -1.
    9900012    2    1    2    0    0 -0.27819680065E+02  0.55323411855E+01  0.32849381629E+02  0.47787271074E+02  0.20000000134E+02 0.  0.
         12    1    1    2    0    0  0.27819680065E+02 -0.55323411855E+01 -0.32849381629E+02  0.43400728926E+02  0.00000000000E+00 0. -1.
         11    1    3    3    0    0 -0.48065937452E+01 -0.28532107764E+01  0.19366995093E+01  0.59156538452E+01  0.51100000000E-03 0. -1.
        -11    1    3    3    0    0 -0.12172552381E+02  0.11347188333E+01  0.24405898534E+02  0.27296639021E+02  0.51100000000E-03 0.  1.
        -12    1    3    3    0    0 -0.10840533939E+02  0.72508331285E+01  0.65067835852E+01  0.14574978208E+02  0.00000000000E+00 0.  1.
</event>
<event>
 7    1  0.5467297E-010  0.4778727E+02  0.7816164E-02  0.1312668E+00
        -11   -1    0    0    0    0  0.00000000000E+00  0.00000000000E+00  0.45593999997E+02  0.45594000000E+02  0.51100000000E-03 0. -1.
         11   -1    0    0    0    0 -0.00000000000E+00 -0.00000000000E+00 -0.45593999997E+02  0.45594000000E+02  0.51100000000E-03 0.  1.
    9900012    2    1    2    0    0 -0.17298135323E+02 -0.38181747464E+02 -0.11249524175E+02  0.47787272826E+02  0.20000008122E+02 0.  0.
         12    1    1    2    0    0  0.17298135323E+02  0.38181747464E+02  0.11249524175E+02  0.43400727174E+02  0.00000000000E+00 0. -1.
         11    1    3    3    0    0 -0.26506396406E+01 -0.50964185034E+01 -0.93050158632E+01  0.10935387169E+02  0.51100000000E-03 0. -1.
        -11    1    3    3    0    0 -0.76842184945E+01 -0.24485482140E+02 -0.24157849807E+01  0.25776385837E+02  0.51100000000E-03 0.  1.
         12    1    3    3    0    0 -0.69632771883E+01 -0.85998468211E+01  0.47127666932E+00  0.11075499819E+02  0.00000000000E+00 0. -1.
</event>
<event>
 7    1  0.5467297E-010  0.4778726E+02  0.7816164E-02  0.1312668E+00
        -11   -1    0    0    0    0  0.00000000000E+00  0.00000000000E+00  0.45593999997E+02  0.45594000000E+02  0.51100000000E-03 0. -1.
         11   -1    0    0    0    0 -0.00000000000E+00 -0.00000000000E+00 -0.45593999997E+02  0.45594000000E+02  0.51100000000E-03 0.  1.
    9900012    2    1    2    0    0  0.43894121360E+01 -0.30407049493E+02 -0.30655650365E+02  0.47787256953E+02  0.19999935750E+02 0.  0.
         12    1    1    2    0    0 -0.43894121360E+01  0.30407049493E+02  0.30655650365E+02  0.43400743047E+02  0.00000000000E+00 0. -1.
         11    1    3    3    0    0 -0.43656712398E+01 -0.79261194373E+01 -0.13879604249E+02  0.16568822200E+02  0.51100000000E-03 0. -1.
        -11    1    3    3    0    0  0.35916974557E+01 -0.20461833960E+02 -0.12905132646E+02  0.24456683923E+02  0.51100000000E-03 0.  1.
         12    1    3    3    0    0  0.51633859201E+01 -0.20190960960E+01 -0.38709134692E+01  0.67617508303E+01  0.00000000000E+00 0. -1.
</event>
<event>
 7    1  0.5467297E-010  0.4778728E+02  0.7816164E-02  0.1312668E+00
        -11   -1    0    0    0    0  0.00000000000E+00  0.00000000000E+00  0.45593999997E+02  0.45594000000E+02  0.51100000000E-03 0.  1.
         11   -1    0    0    0    0 -0.00000000000E+00 -0.00000000000E+00 -0.45593999997E+02  0.45594000000E+02  0.51100000000E-03 0. -1.
    9900012    2    1    2    0    0  0.19946753894E+02  0.27447254691E+02  0.27062843227E+02  0.47787282673E+02  0.20000053018E+02 0.  0.
         12    1    1    2    0    0 -0.19946753894E+02 -0.27447254691E+02 -0.27062843227E+02  0.43400717327E+02  0.00000000000E+00 0. -1.
         11    1    3    3    0    0 -0.34905024555E+00 -0.10740741561E+00  0.45707125904E+00  0.58505283847E+00  0.51100000000E-03 0. -1.
        -11    1    3    3    0    0  0.12740867188E+02  0.65533013694E+01  0.28527794954E+01  0.14608689423E+02  0.51100000000E-03 0.  1.
        -12    1    3    3    0    0  0.75549369512E+01  0.21001360737E+02  0.23752992473E+02  0.32593540412E+02  0.00000000000E+00 0.  1.
</event>
<event>
 7    1  0.5467297E-010  0.4778728E+02  0.7816164E-02  0.1312668E+00
        -11   -1    0    0    0    0  0.00000000000E+00  0.00000000000E+00  0.45593999997E+02  0.45594000000E+02  0.51100000000E-03 0.  1.
         11   -1    0    0    0    0 -0.00000000000E+00 -0.00000000000E+00 -0.45593999997E+02  0.45594000000E+02  0.51100000000E-03 0. -1.
    9900012    2    1    2    0    0  0.41100330622E+02  0.30686414052E+01  0.13600335395E+02  0.47787275810E+02  0.20000021728E+02 0.  0.
         12    1    1    2    0    0 -0.41100330622E+02 -0.30686414052E+01 -0.13600335395E+02  0.43400724190E+02  0.00000000000E+00 0. -1.
         11    1    3    3    0    0  0.32416790305E+01  0.13322529452E+01  0.65490502091E+01  0.74278825885E+01  0.51100000000E-03 0. -1.
        -11    1    3    3    0    0  0.19492569540E+02 -0.13417616599E+01 -0.20244424040E+01  0.19643292976E+02  0.51100000000E-03 0.  1.
        -12    1    3    3    0    0  0.18366082051E+02  0.30781501199E+01  0.90757275903E+01  0.20716100245E+02  0.00000000000E+00 0.  1.
</event>
<event>
 7    1  0.5467297E-010  0.4778727E+02  0.7816164E-02  0.1312668E+00
        -11   -1    0    0    0    0  0.00000000000E+00  0.00000000000E+00  0.45593999997E+02  0.45594000000E+02  0.51100000000E-03 0. -1.
         11   -1    0    0    0    0 -0.00000000000E+00 -0.00000000000E+00 -0.45593999997E+02  0.45594000000E+02  0.51100000000E-03 0.  1.
    9900012    2    1    2    0    0 -0.42044958468E+02 -0.10504348353E+02 -0.23458876838E+01  0.47787273555E+02  0.20000011449E+02 0.  0.
         12    1    1    2    0    0  0.42044958468E+02  0.10504348353E+02  0.23458876838E+01  0.43400726445E+02  0.00000000000E+00 0. -1.
         11    1    3    3    0    0 -0.15827376416E+02  0.14741148248E+01  0.19319288295E+01  0.16012845094E+02  0.51100000000E-03 0. -1.
        -11    1    3    3    0    0 -0.29467308711E+01 -0.41911994081E+01 -0.50896538545E+01  0.72217693071E+01  0.51100000000E-03 0.  1.
        -12    1    3    3    0    0 -0.23270851181E+02 -0.77872637694E+01  0.81183734126E+00  0.24552659155E+02  0.00000000000E+00 0.  1.
</event>
<event>
 7    1  0.5467297E-010  0.4778728E+02  0.7816164E-02  0.1312668E+00
        -11   -1    0    0    0    0  0.00000000000E+00  0.00000000000E+00  0.45593999997E+02  0.45594000000E+02  0.51100000000E-03 0.  1.
         11   -1    0    0    0    0 -0.00000000000E+00 -0.00000000000E+00 -0.45593999997E+02  0.45594000000E+02  0.51100000000E-03 0. -1.
    9900012    2    1    2    0    0  0.12864578521E+02  0.46802548053E+01  0.41185192682E+02  0.47787282703E+02  0.20000053158E+02 0.  0.
         12    1    1    2    0    0 -0.12864578521E+02 -0.46802548053E+01 -0.41185192682E+02  0.43400717297E+02  0.00000000000E+00 0. -1.
         11    1    3    3    0    0  0.18826354287E+00 -0.29556049639E+01  0.71389380931E-01  0.29624551590E+01  0.51100000000E-03 0. -1.
        -11    1    3    3    0    0  0.10779537484E+02  0.66538856090E+01  0.20482805330E+02  0.24083561541E+02  0.51100000000E-03 0.  1.
        -12    1    3    3    0    0  0.18967774942E+01  0.98197416013E+00  0.20630997972E+02  0.20741266003E+02  0.00000000000E+00 0.  1.
</event>
<event>
 7    1  0.5467297E-010  0.4778728E+02  0.7816164E-02  0.1312668E+00
        -11   -1    0    0    0    0  0.00000000000E+00  0.00000000000E+00  0.45593999997E+02  0.45594000000E+02  0.51100000000E-03 0. -1.
         11   -1    0    0    0    0 -0.00000000000E+00 -0.00000000000E+00 -0.45593999997E+02  0.45594000000E+02  0.51100000000E-03 0.  1.
    9900012    2    1    2    0    0 -0.39957134636E+02 -0.15991915818E+02 -0.55954316651E+01  0.47787276096E+02  0.20000023032E+02 0.  0.
         12    1    1    2    0    0  0.39957134636E+02  0.15991915818E+02  0.55954316651E+01  0.43400723904E+02  0.00000000000E+00 0. -1.
         11    1    3    3    0    0 -0.28394810650E+02 -0.39572587164E+01 -0.48350639317E+01  0.29074095204E+02  0.51100000000E-03 0. -1.
        -11    1    3    3    0    0 -0.66519167270E+01 -0.12007304317E+02  0.10438695913E+00  0.13727135535E+02  0.51100000000E-03 0.  1.
        -12    1    3    3    0    0 -0.49104072590E+01 -0.27352783841E-01 -0.86475469252E+00  0.49860453570E+01  0.00000000000E+00 0.  1.
</event>
<event>
 7    1  0.5467297E-010  0.4778727E+02  0.7816164E-02  0.1312668E+00
        -11   -1    0    0    0    0  0.00000000000E+00  0.00000000000E+00  0.45593999997E+02  0.45594000000E+02  0.51100000000E-03 0.  1.
         11   -1    0    0    0    0 -0.00000000000E+00 -0.00000000000E+00 -0.45593999997E+02  0.45594000000E+02  0.51100000000E-03 0. -1.
    9900012    2    1    2    0    0 -0.30086430199E+02 -0.85927843999E+00  0.31268065306E+02  0.47787267869E+02  0.19999985520E+02 0.  0.
         12    1    1    2    0    0  0.30086430199E+02  0.85927843999E+00 -0.31268065306E+02  0.43400732131E+02  0.00000000000E+00 0. -1.
         11    1    3    3    0    0 -0.12296709409E+02  0.25766011404E+01  0.91273291796E+01  0.15529200686E+02  0.51100000000E-03 0.  1.
        -11    1    3    3    0    0 -0.76539310784E+01  0.30851604284E+01  0.15459357443E+01  0.83958795494E+01  0.51100000000E-03 0. -1.
        -12    1    3    3    0    0 -0.10135789712E+02 -0.65210400088E+01  0.20594800382E+02  0.23862187633E+02  0.00000000000E+00 0.  1.
</event>
<event>
 7    1  0.5467297E-010  0.4778727E+02  0.7816164E-02  0.1312668E+00
        -11   -1    0    0    0    0  0.00000000000E+00  0.00000000000E+00  0.45593999997E+02  0.45594000000E+02  0.51100000000E-03 0. -1.
         11   -1    0    0    0    0 -0.00000000000E+00 -0.00000000000E+00 -0.45593999997E+02  0.45594000000E+02  0.51100000000E-03 0.  1.
    9900012    2    1    2    0    0 -0.27709109802E+02 -0.32125340635E+02 -0.91537427637E+01  0.47787270933E+02  0.19999999493E+02 0.  0.
         12    1    1    2    0    0  0.27709109802E+02  0.32125340635E+02  0.91537427637E+01  0.43400729067E+02  0.00000000000E+00 0. -1.
         11    1    3    3    0    0 -0.20369128657E+02 -0.18110511956E+02 -0.98410914735E+01  0.28978252660E+02  0.51100000000E-03 0. -1.
        -11    1    3    3    0    0 -0.56261547031E+01 -0.15185983019E+02  0.20530173131E+01  0.16324294084E+02  0.51100000000E-03 0.  1.
         12    1    3    3    0    0 -0.17138264421E+01  0.11711543405E+01 -0.13656686034E+01  0.24847241893E+01  0.00000000000E+00 0. -1.
</event>
<event>
 7    1  0.5467297E-010  0.4778727E+02  0.7816164E-02  0.1312668E+00
        -11   -1    0    0    0    0  0.00000000000E+00  0.00000000000E+00  0.45593999997E+02  0.45594000000E+02  0.51100000000E-03 0. -1.
         11   -1    0    0    0    0 -0.00000000000E+00 -0.00000000000E+00 -0.45593999997E+02  0.45594000000E+02  0.51100000000E-03 0.  1.
    9900012    2    1    2    0    0 -0.21497679734E+02  0.11111849230E+02 -0.36027767357E+02  0.47787269039E+02  0.19999990856E+02 0.  0.
         12    1    1    2    0    0  0.21497679734E+02 -0.11111849230E+02  0.36027767357E+02  0.43400730961E+02  0.00000000000E+00 0. -1.
         11    1    3    3    0    0 -0.23022979513E+02  0.87878595801E+01 -0.25948062703E+02  0.35785276581E+02  0.51100000000E-03 0.  1.
        -11    1    3    3    0    0  0.23240491259E+01  0.80487921046E-01 -0.85948832195E+00  0.24791940388E+01  0.51100000000E-03 0. -1.
        -12    1    3    3    0    0 -0.79874934656E+00  0.22435017290E+01 -0.92202163320E+01  0.95227984194E+01  0.00000000000E+00 0.  1.
</event>
<event>
 7    1  0.5467297E-010  0.4778727E+02  0.7816164E-02  0.1312668E+00
        -11   -1    0    0    0    0  0.00000000000E+00  0.00000000000E+00  0.45593999997E+02  0.45594000000E+02  0.51100000000E-03 0.  1.
         11   -1    0    0    0    0 -0.00000000000E+00 -0.00000000000E+00 -0.45593999997E+02  0.45594000000E+02  0.51100000000E-03 0. -1.
    9900012    2    1    2    0    0  0.23386246483E+02 -0.11747819384E+02  0.34622184777E+02  0.47787268859E+02  0.19999990035E+02 0.  0.
         12    1    1    2    0    0 -0.23386246483E+02  0.11747819384E+02 -0.34622184777E+02  0.43400731141E+02  0.00000000000E+00 0. -1.
         11    1    3    3    0    0  0.30691483649E+01 -0.27622601469E+01  0.22727516506E+01  0.47132953580E+01  0.51100000000E-03 0. -1.
        -11    1    3    3    0    0  0.15442992519E+02 -0.50837466376E+01  0.83527523257E+01  0.18278374367E+02  0.51100000000E-03 0.  1.
        -12    1    3    3    0    0  0.48741055988E+01 -0.39018125999E+01  0.23996680801E+02  0.24795599134E+02  0.00000000000E+00 0.  1.
</event>
<event>
 7    1  0.5467297E-010  0.4778725E+02  0.7816164E-02  0.1312668E+00
        -11   -1    0    0    0    0  0.00000000000E+00  0.00000000000E+00  0.45593999997E+02  0.45594000000E+02  0.51100000000E-03 0.  1.
         11   -1    0    0    0    0 -0.00000000000E+00 -0.00000000000E+00 -0.45593999997E+02  0.45594000000E+02  0.51100000000E-03 0. -1.
    9900012    2    1    2    0    0  0.12900891679E+01  0.43375881808E+02  0.70232731189E+00  0.47787254427E+02  0.19999924232E+02 0.  0.
         12    1    1    2    0    0 -0.12900891679E+01 -0.43375881808E+02 -0.70232731189E+00  0.43400745573E+02  0.00000000000E+00 0. -1.
         11    1    3    3    0    0  0.14907099948E+01  0.80615901227E+00 -0.29349208118E+01  0.33890808598E+01  0.51100000000E-03 0. -1.
        -11    1    3    3    0    0  0.16945325687E+01  0.41906402868E+02  0.23362974333E+01  0.42005670188E+02  0.51100000000E-03 0.  1.
        -12    1    3    3    0    0 -0.18951533956E+01  0.66331992742E+00  0.13009506904E+01  0.23925033788E+01  0.00000000000E+00 0.  1.
</event>
<event>
 7    1  0.5475618E-010  0.4778727E+02  0.7816164E-02  0.1312668E+00
        -11   -1    0    0    0    0  0.00000000000E+00  0.00000000000E+00  0.45593999997E+02  0.45594000000E+02  0.51100000000E-03 0.  1.
         11   -1    0    0    0    0 -0.00000000000E+00 -0.00000000000E+00 -0.45593999997E+02  0.45594000000E+02  0.51100000000E-03 0. -1.
    9900012    2    1    2    0    0 -0.30866081680E+01  0.43277837924E+02  0.10604885486E+01  0.47787273724E+02  0.20000012216E+02 0.  0.
         12    1    1    2    0    0  0.30866081680E+01 -0.43277837924E+02 -0.10604885486E+01  0.43400726276E+02  0.00000000000E+00 0. -1.
         11    1    3    3    0    0 -0.31227820535E+01 -0.50197383813E+00 -0.24118486379E+00  0.31720523148E+01  0.51100000000E-03 0. -1.
        -11    1    3    3    0    0  0.38668846619E+01  0.22886313036E+02 -0.11085865518E+01  0.23237148830E+02  0.51100000000E-03 0.  1.
        -12    1    3    3    0    0 -0.38307107764E+01  0.20893498726E+02  0.24102599641E+01  0.21378072578E+02  0.00000000000E+00 0.  1.
</event>
<event>
 7    1  0.5467297E-010  0.4778727E+02  0.7816164E-02  0.1312668E+00
        -11   -1    0    0    0    0  0.00000000000E+00  0.00000000000E+00  0.45593999997E+02  0.45594000000E+02  0.51100000000E-03 0. -1.
         11   -1    0    0    0    0 -0.00000000000E+00 -0.00000000000E+00 -0.45593999997E+02  0.45594000000E+02  0.51100000000E-03 0.  1.
    9900012    2    1    2    0    0  0.18925567136E+01  0.42920156519E+02  0.61564412513E+01  0.47787269875E+02  0.19999994668E+02 0.  0.
         12    1    1    2    0    0 -0.18925567136E+01 -0.42920156519E+02 -0.61564412513E+01  0.43400730125E+02  0.00000000000E+00 0. -1.
         11    1    3    3    0    0  0.39751492517E+01  0.13635815268E+02  0.57535242789E+00  0.14215072996E+02  0.51100000000E-03 0. -1.
        -11    1    3    3    0    0  0.42993021140E+00  0.29729034095E+02  0.29035468940E+01  0.29873581858E+02  0.51100000000E-03 0.  1.
        -12    1    3    3    0    0 -0.25125227495E+01 -0.44469284391E+00  0.26775419294E+01  0.36986150213E+01  0.00000000000E+00 0.  1.
</event>
<event>
 7    1  0.5467297E-010  0.4778727E+02  0.7816164E-02  0.1312668E+00
        -11   -1    0    0    0    0  0.00000000000E+00  0.00000000000E+00  0.45593999997E+02  0.45594000000E+02  0.51100000000E-03 0. -1.
         11   -1    0    0    0    0 -0.00000000000E+00 -0.00000000000E+00 -0.45593999997E+02  0.45594000000E+02  0.51100000000E-03 0.  1.
    9900012    2    1    2    0    0  0.23983767568E+02  0.33511070491E+02 -0.13616540675E+02  0.47787272677E+02  0.20000007444E+02 0.  0.
         12    1    1    2    0    0 -0.23983767568E+02 -0.33511070491E+02  0.13616540675E+02  0.43400727323E+02  0.00000000000E+00 0. -1.
         11    1    3    3    0    0  0.44813856655E+01 -0.77084657775E+00  0.13844688760E+01  0.47532910977E+01  0.51100000000E-03 0. -1.
        -11    1    3    3    0    0  0.17117875749E+02  0.24525101418E+02 -0.13732453918E+02  0.32910219698E+02  0.51100000000E-03 0.  1.
        -12    1    3    3    0    0  0.23845061534E+01  0.97568156505E+01 -0.12685556334E+01  0.10123761881E+02  0.00000000000E+00 0.  1.
</event>
<event>
 7    1  0.5467297E-010  0.4778727E+02  0.7816164E-02  0.1312668E+00
        -11   -1    0    0    0    0  0.00000000000E+00  0.00000000000E+00  0.45593999997E+02  0.45594000000E+02  0.51100000000E-03 0.  1.
         11   -1    0    0    0    0 -0.00000000000E+00 -0.00000000000E+00 -0.45593999997E+02  0.45594000000E+02  0.51100000000E-03 0. -1.
    9900012    2    1    2    0    0 -0.34203364628E+02  0.26709495600E+02 -0.59637479824E+00  0.47787274546E+02  0.20000015963E+02 0.  0.
         12    1    1    2    0    0  0.34203364628E+02 -0.26709495600E+02  0.59637479824E+00  0.43400725454E+02  0.00000000000E+00 0. -1.
         11    1    3    3    0    0 -0.16523309192E+02  0.31021347372E+01 -0.40896845825E+01  0.17302268835E+02  0.51100000000E-03 0. -1.
        -11    1    3    3    0    0 -0.55945972500E+01  0.13178317649E+02  0.13946207700E+01  0.14384454867E+02  0.51100000000E-03 0.  1.
         12    1    3    3    0    0 -0.12085458185E+02  0.10429043214E+02  0.20986890143E+01  0.16100550844E+02  0.00000000000E+00 0. -1.
</event>
<event>
 7    1  0.5467297E-010  0.4778727E+02  0.7816164E-02  0.1312668E+00
        -11   -1    0    0    0    0  0.00000000000E+00  0.00000000000E+00  0.45593999997E+02  0.45594000000E+02  0.51100000000E-03 0.  1.
         11   -1    0    0    0    0 -0.00000000000E+00 -0.00000000000E+00 -0.45593999997E+02  0.45594000000E+02  0.51100000000E-03 0. -1.
    9900012    2    1    2    0    0  0.32570450505E+02  0.23271312144E+02  0.16770059387E+02  0.47787272969E+02  0.20000008774E+02 0.  0.
         12    1    1    2    0    0 -0.32570450505E+02 -0.23271312144E+02 -0.16770059387E+02  0.43400727031E+02  0.00000000000E+00 0. -1.
         11    1    3    3    0    0  0.31873517527E+00  0.26150799623E+01  0.68839607591E+01  0.73708311143E+01  0.51100000000E-03 0. -1.
        -11    1    3    3    0    0  0.12602367852E+02  0.11514327185E+02  0.73895895340E+01  0.18601221458E+02  0.51100000000E-03 0.  1.
         12    1    3    3    0    0  0.19649347478E+02  0.91419049967E+01  0.24965090938E+01  0.21815220397E+02  0.00000000000E+00 0. -1.
</event>
<event>
 7    1  0.5467297E-010  0.4778726E+02  0.7816164E-02  0.1312668E+00
        -11   -1    0    0    0    0  0.00000000000E+00  0.00000000000E+00  0.45593999997E+02  0.45594000000E+02  0.51100000000E-03 0. -1.
         11   -1    0    0    0    0 -0.00000000000E+00 -0.00000000000E+00 -0.45593999997E+02  0.45594000000E+02  0.51100000000E-03 0.  1.
    9900012    2    1    2    0    0  0.42327223203E+02  0.88755080740E+01  0.36408943232E+01  0.47787256007E+02  0.19999931438E+02 0.  0.
         12    1    1    2    0    0 -0.42327223203E+02 -0.88755080740E+01 -0.36408943232E+01  0.43400743993E+02  0.00000000000E+00 0. -1.
         11    1    3    3    0    0  0.10400664503E+02  0.74452954334E+01 -0.16078359891E+01  0.12891523689E+02  0.51100000000E-03 0. -1.
        -11    1    3    3    0    0  0.24398039356E+02  0.35537208280E+01  0.89659945430E+01  0.26235135116E+02  0.51100000000E-03 0.  1.
        -12    1    3    3    0    0  0.75285193438E+01 -0.21235081874E+01 -0.37172642306E+01  0.86605972018E+01  0.00000000000E+00 0.  1.
</event>
<event>
 7    1  0.5467297E-010  0.4778727E+02  0.7816164E-02  0.1312668E+00
        -11   -1    0    0    0    0  0.00000000000E+00  0.00000000000E+00  0.45593999997E+02  0.45594000000E+02  0.51100000000E-03 0.  1.
         11   -1    0    0    0    0 -0.00000000000E+00 -0.00000000000E+00 -0.45593999997E+02  0.45594000000E+02  0.51100000000E-03 0. -1.
    9900012    2    1    2    0    0  0.48289572227E+01  0.32732055887E+02  0.28087667277E+02  0.47787270012E+02  0.19999995292E+02 0.  0.
         12    1    1    2    0    0 -0.48289572227E+01 -0.32732055887E+02 -0.28087667277E+02  0.43400729988E+02  0.00000000000E+00 0. -1.
         11    1    3    3    0    0  0.57014152787E+01  0.34256164202E+02  0.25126569133E+02  0.42864150507E+02  0.51100000000E-03 0.  1.
        -11    1    3    3    0    0  0.83741482557E+00 -0.15861239148E+01  0.26252634980E+01  0.31794750130E+01  0.51100000000E-03 0. -1.
        -12    1    3    3    0    0 -0.17098728816E+01  0.62015599754E-01  0.33583464630E+00  0.17436444923E+01  0.00000000000E+00 0.  1.
</event>
<event>
 7    1  0.5467297E-010  0.4778727E+02  0.7816164E-02  0.1312668E+00
        -11   -1    0    0    0    0  0.00000000000E+00  0.00000000000E+00  0.45593999997E+02  0.45594000000E+02  0.51100000000E-03 0. -1.
         11   -1    0    0    0    0 -0.00000000000E+00 -0.00000000000E+00 -0.45593999997E+02  0.45594000000E+02  0.51100000000E-03 0.  1.
    9900012    2    1    2    0    0 -0.23636300457E+02  0.18468371360E+02 -0.31366667155E+02  0.47787271338E+02  0.20000001339E+02 0.  0.
         12    1    1    2    0    0  0.23636300457E+02 -0.18468371360E+02  0.31366667155E+02  0.43400728662E+02  0.00000000000E+00 0. -1.
         11    1    3    3    0    0 -0.13232583322E+02  0.62782302046E+01 -0.21007096211E+02  0.25608895473E+02  0.51100000000E-03 0.  1.
        -11    1    3    3    0    0 -0.51740639392E+01  0.34779352445E+01  0.16478785054E+01  0.64484474908E+01  0.51100000000E-03 0. -1.
        -12    1    3    3    0    0 -0.52296531962E+01  0.87122059109E+01 -0.12007449449E+02  0.15729928374E+02  0.00000000000E+00 0.  1.
</event>
<event>
 7    1  0.5467297E-010  0.4778727E+02  0.7816164E-02  0.1312668E+00
        -11   -1    0    0    0    0  0.00000000000E+00  0.00000000000E+00  0.45593999997E+02  0.45594000000E+02  0.51100000000E-03 0.  1.
         11   -1    0    0    0    0 -0.00000000000E+00 -0.00000000000E+00 -0.45593999997E+02  0.45594000000E+02  0.51100000000E-03 0. -1.
    9900012    2    1    2    0    0  0.30298773101E+02  0.14705135594E+02  0.27374563345E+02  0.47787269792E+02  0.19999994290E+02 0.  0.
         12    1    1    2    0    0 -0.30298773101E+02 -0.14705135594E+02 -0.27374563345E+02  0.43400730208E+02  0.00000000000E+00 0. -1.
         11    1    3    3    0    0 -0.12359629413E+01 -0.14181949671E+00  0.29262368503E+01  0.31797137492E+01  0.51100000000E-03 0. -1.
        -11    1    3    3    0    0  0.25633183631E+02  0.15874293168E+02  0.15668177031E+02  0.33978597063E+02  0.51100000000E-03 0.  1.
        -12    1    3    3    0    0  0.59015524114E+01 -0.10273380771E+01  0.87801494636E+01  0.10628958980E+02  0.00000000000E+00 0.  1.
</event>
<event>
 7    1  0.5467297E-010  0.4778727E+02  0.7816164E-02  0.1312668E+00
        -11   -1    0    0    0    0  0.00000000000E+00  0.00000000000E+00  0.45593999997E+02  0.45594000000E+02  0.51100000000E-03 0.  1.
         11   -1    0    0    0    0 -0.00000000000E+00 -0.00000000000E+00 -0.45593999997E+02  0.45594000000E+02  0.51100000000E-03 0. -1.
    9900012    2    1    2    0    0 -0.19453172374E+01 -0.58253540906E+00  0.43353196848E+02  0.47787270932E+02  0.19999999490E+02 0.  0.
         12    1    1    2    0    0  0.19453172374E+01  0.58253540906E+00 -0.43353196848E+02  0.43400729068E+02  0.00000000000E+00 0. -1.
         11    1    3    3    0    0 -0.10754069888E+02  0.18833617064E+01  0.24189630102E+02  0.26539315650E+02  0.51100000000E-03 0. -1.
        -11    1    3    3    0    0  0.68301965796E+01 -0.16158536513E+01  0.14975804319E+02  0.16538962591E+02  0.51100000000E-03 0.  1.
         12    1    3    3    0    0  0.19785560706E+01 -0.85004346413E+00  0.41877624271E+01  0.47089926907E+01  0.00000000000E+00 0. -1.
</event>
<event>
 7    1  0.5467297E-010  0.4778727E+02  0.7816164E-02  0.1312668E+00
        -11   -1    0    0    0    0  0.00000000000E+00  0.00000000000E+00  0.45593999997E+02  0.45594000000E+02  0.51100000000E-03 0.  1.
         11   -1    0    0    0    0 -0.00000000000E+00 -0.00000000000E+00 -0.45593999997E+02  0.45594000000E+02  0.51100000000E-03 0. -1.
    9900012    2    1    2    0    0  0.35366480800E+02 -0.24646783166E+02 -0.50370309884E+01  0.47787267681E+02  0.19999984666E+02 0.  0.
         12    1    1    2    0    0 -0.35366480800E+02  0.24646783166E+02  0.50370309884E+01  0.43400732319E+02  0.00000000000E+00 0. -1.
         11    1    3    3    0    0  0.69650029794E+01  0.20160547441E+01 -0.30401969301E+01  0.78624767643E+01  0.51100000000E-03 0. -1.
        -11    1    3    3    0    0  0.14745539762E+02 -0.12119842940E+02 -0.50476064938E+01  0.19743349952E+02  0.51100000000E-03 0.  1.
         12    1    3    3    0    0  0.13655938059E+02 -0.14542994970E+02  0.30507724355E+01  0.20181440965E+02  0.00000000000E+00 0. -1.
</event>
<event>
 7    1  0.5467297E-010  0.4778727E+02  0.7816164E-02  0.1312668E+00
        -11   -1    0    0    0    0  0.00000000000E+00  0.00000000000E+00  0.45593999997E+02  0.45594000000E+02  0.51100000000E-03 0.  1.
         11   -1    0    0    0    0 -0.00000000000E+00 -0.00000000000E+00 -0.45593999997E+02  0.45594000000E+02  0.51100000000E-03 0. -1.
    9900012    2    1    2    0    0 -0.23691261114E+02  0.25279393640E+02  0.26139998645E+02  0.47787272758E+02  0.20000007813E+02 0.  0.
         12    1    1    2    0    0  0.23691261114E+02 -0.25279393640E+02 -0.26139998645E+02  0.43400727242E+02  0.00000000000E+00 0. -1.
         11    1    3    3    0    0 -0.79898351811E+00  0.10624060970E+00 -0.10406585591E+01  0.13162948861E+01  0.51100000000E-03 0. -1.
        -11    1    3    3    0    0 -0.92123360686E+01  0.79904992234E+00  0.10195399258E+02  0.13764148463E+02  0.51100000000E-03 0.  1.
        -12    1    3    3    0    0 -0.13679941527E+02  0.24374103107E+02  0.16985257947E+02  0.32706829409E+02  0.00000000000E+00 0.  1.
</event>
<event>
 7    1  0.5467297E-010  0.4778727E+02  0.7816164E-02  0.1312668E+00
        -11   -1    0    0    0    0  0.00000000000E+00  0.00000000000E+00  0.45593999997E+02  0.45594000000E+02  0.51100000000E-03 0. -1.
         11   -1    0    0    0    0 -0.00000000000E+00 -0.00000000000E+00 -0.45593999997E+02  0.45594000000E+02  0.51100000000E-03 0.  1.
    9900012    2    1    2    0    0 -0.19010834358E+02 -0.38062235704E+02 -0.85719179682E+01  0.47787269736E+02  0.19999994036E+02 0.  0.
         12    1    1    2    0    0  0.19010834358E+02  0.38062235704E+02  0.85719179682E+01  0.43400730264E+02  0.00000000000E+00 0. -1.
         11    1    3    3    0    0 -0.14191044824E+02 -0.33202815011E+02 -0.64545101760E+00  0.36114114763E+02  0.51100000000E-03 0. -1.
        -11    1    3    3    0    0 -0.20693413489E+01 -0.40521637213E+01 -0.17700772635E+01  0.48821489348E+01  0.51100000000E-03 0.  1.
         12    1    3    3    0    0 -0.27504481848E+01 -0.80725697179E+00 -0.61563896871E+01  0.67910060385E+01  0.00000000000E+00 0. -1.
</event>
<event>
 7    1  0.7886450E-010  0.4778727E+02  0.7816164E-02  0.1312668E+00
        -11   -1    0    0    0    0  0.00000000000E+00  0.00000000000E+00  0.45593999997E+02  0.45594000000E+02  0.51100000000E-03 0.  1.
         11   -1    0    0    0    0 -0.00000000000E+00 -0.00000000000E+00 -0.45593999997E+02  0.45594000000E+02  0.51100000000E-03 0. -1.
    9900012    2    1    2    0    0 -0.25858078721E+02  0.30490921340E+02  0.16890434441E+02  0.47787270802E+02  0.19999998894E+02 0.  0.
         12    1    1    2    0    0  0.25858078721E+02 -0.30490921340E+02 -0.16890434441E+02  0.43400729198E+02  0.00000000000E+00 0. -1.
         11    1    3    3    0    0 -0.19516794204E+01  0.48266436177E+01 -0.12228212574E+01  0.53479746878E+01  0.51100000000E-03 0. -1.
        -11    1    3    3    0    0 -0.21427758114E+02  0.19978830537E+02  0.76552629290E+01  0.30280448118E+02  0.51100000000E-03 0.  1.
        -12    1    3    3    0    0 -0.24786411861E+01  0.56854471856E+01  0.10457992770E+02  0.12158847996E+02  0.00000000000E+00 0.  1.
</event>
<event>
 7    1  0.5467297E-010  0.4778727E+02  0.7816164E-02  0.1312668E+00
        -11   -1    0    0    0    0  0.00000000000E+00  0.00000000000E+00  0.45593999997E+02  0.45594000000E+02  0.51100000000E-03 0. -1.
         11   -1    0    0    0    0 -0.00000000000E+00 -0.00000000000E+00 -0.45593999997E+02  0.45594000000E+02  0.51100000000E-03 0.  1.
    9900012    2    1    2    0    0  0.32059853842E+02 -0.23188041167E+02 -0.17835471295E+02  0.47787268234E+02  0.19999987186E+02 0.  0.
         12    1    1    2    0    0 -0.32059853842E+02  0.23188041167E+02  0.17835471295E+02  0.43400731766E+02  0.00000000000E+00 0. -1.
         11    1    3    3    0    0  0.30706755882E+01 -0.55460410431E+01  0.20632532766E+01  0.66666808957E+01  0.51100000000E-03 0. -1.
        -11    1    3    3    0    0  0.28484196259E+02 -0.14253740260E+02 -0.20142803885E+02  0.37686218920E+02  0.51100000000E-03 0.  1.
        -12    1    3    3    0    0  0.50498199494E+00 -0.33882598636E+01  0.24407931376E+00  0.34343684179E+01  0.00000000000E+00 0.  1.
</event>
<event>
 7    1  0.5467297E-010  0.4778727E+02  0.7816164E-02  0.1312668E+00
        -11   -1    0    0    0    0  0.00000000000E+00  0.00000000000E+00  0.45593999997E+02  0.45594000000E+02  0.51100000000E-03 0. -1.
         11   -1    0    0    0    0 -0.00000000000E+00 -0.00000000000E+00 -0.45593999997E+02  0.45594000000E+02  0.51100000000E-03 0.  1.
    9900012    2    1    2    0    0 -0.19804333879E+02  0.30576490629E+02  0.23590036384E+02  0.47787271478E+02  0.20000001979E+02 0.  0.
         12    1    1    2    0    0  0.19804333879E+02 -0.30576490629E+02 -0.23590036384E+02  0.43400728522E+02  0.00000000000E+00 0. -1.
         11    1    3    3    0    0 -0.15580752078E+02  0.20832878757E+02  0.22994073419E+02  0.34720254683E+02  0.51100000000E-03 0. -1.
        -11    1    3    3    0    0 -0.24892451861E+01  0.93555660349E+01 -0.20344282015E+01  0.98925151402E+01  0.51100000000E-03 0.  1.
         12    1    3    3    0    0 -0.17343366153E+01  0.38804583731E+00  0.26303911670E+01  0.31745016552E+01  0.00000000000E+00 0. -1.
</event>
<event>
 7    1  0.5467297E-010  0.4778727E+02  0.7816164E-02  0.1312668E+00
        -11   -1    0    0    0    0  0.00000000000E+00  0.00000000000E+00  0.45593999997E+02  0.45594000000E+02  0.51100000000E-03 0.  1.
         11   -1    0    0    0    0 -0.00000000000E+00 -0.00000000000E+00 -0.45593999997E+02  0.45594000000E+02  0.51100000000E-03 0. -1.
    9900012    2    1    2    0    0 -0.25982832261E+02 -0.22029969756E+02  0.26892309912E+02  0.47787268760E+02  0.19999989585E+02 0.  0.
         12    1    1    2    0    0  0.25982832261E+02  0.22029969756E+02 -0.26892309912E+02  0.43400731240E+02  0.00000000000E+00 0. -1.
         11    1    3    3    0    0 -0.83820896704E+01  0.10418711045E+01  0.72711660623E+01  0.11145168406E+02  0.51100000000E-03 0. -1.
        -11    1    3    3    0    0 -0.96893590329E+00 -0.90383695092E+01  0.45004934243E+01  0.10143244131E+02  0.51100000000E-03 0.  1.
         12    1    3    3    0    0 -0.16631806687E+02 -0.14033471352E+02  0.15120650426E+02  0.26498856223E+02  0.00000000000E+00 0. -1.
</event>
<event>
 7    1  0.5467297E-010  0.4778727E+02  0.7816164E-02  0.1312668E+00
        -11   -1    0    0    0    0  0.00000000000E+00  0.00000000000E+00  0.45593999997E+02  0.45594000000E+02  0.51100000000E-03 0.  1.
         11   -1    0    0    0    0 -0.00000000000E+00 -0.00000000000E+00 -0.45593999997E+02  0.45594000000E+02  0.51100000000E-03 0. -1.
    9900012    2    1    2    0    0 -0.17324958922E+02  0.39653033752E+02  0.33325799779E+01  0.47787269860E+02  0.19999994601E+02 0.  0.
         12    1    1    2    0    0  0.17324958922E+02 -0.39653033752E+02 -0.33325799779E+01  0.43400730140E+02  0.00000000000E+00 0. -1.
         11    1    3    3    0    0  0.11138384072E+01  0.68767279140E+01 -0.49164513117E+01  0.85265184315E+01  0.51100000000E-03 0. -1.
        -11    1    3    3    0    0 -0.61868767560E+01  0.18827040382E+02  0.41201078603E+01  0.20241298935E+02  0.51100000000E-03 0.  1.
         12    1    3    3    0    0 -0.12251920573E+02  0.13949265455E+02  0.41289234293E+01  0.19019452494E+02  0.00000000000E+00 0. -1.
</event>
<event>
 7    1  0.5467297E-010  0.4778727E+02  0.7816164E-02  0.1312668E+00
        -11   -1    0    0    0    0  0.00000000000E+00  0.00000000000E+00  0.45593999997E+02  0.45594000000E+02  0.51100000000E-03 0.  1.
         11   -1    0    0    0    0 -0.00000000000E+00 -0.00000000000E+00 -0.45593999997E+02  0.45594000000E+02  0.51100000000E-03 0. -1.
    9900012    2    1    2    0    0 -0.39191407596E+01  0.21703468459E+02  0.37379448894E+02  0.47787269510E+02  0.19999993005E+02 0.  0.
         12    1    1    2    0    0  0.39191407596E+01 -0.21703468459E+02 -0.37379448894E+02  0.43400730490E+02  0.00000000000E+00 0. -1.
         11    1    3    3    0    0  0.27077270203E+01  0.38600969272E+00 -0.55199811627E+00  0.27902493223E+01  0.51100000000E-03 0. -1.
        -11    1    3    3    0    0 -0.29984866398E+01  0.19704502836E+02  0.28641319330E+02  0.34893889542E+02  0.51100000000E-03 0.  1.
         12    1    3    3    0    0 -0.36283811400E+01  0.16129559293E+01  0.92901276802E+01  0.10103130646E+02  0.00000000000E+00 0. -1.
</event>
<event>
 7    1  0.5467297E-010  0.4778727E+02  0.7816164E-02  0.1312668E+00
        -11   -1    0    0    0    0  0.00000000000E+00  0.00000000000E+00  0.45593999997E+02  0.45594000000E+02  0.51100000000E-03 0.  1.
         11   -1    0    0    0    0 -0.00000000000E+00 -0.00000000000E+00 -0.45593999997E+02  0.45594000000E+02  0.51100000000E-03 0. -1.
    9900012    2    1    2    0    0  0.36175355037E+02 -0.19109414015E+02  0.14484387011E+02  0.47787268634E+02  0.19999989009E+02 0.  0.
         12    1    1    2    0    0 -0.36175355037E+02  0.19109414015E+02 -0.14484387011E+02  0.43400731366E+02  0.00000000000E+00 0. -1.
         11    1    3    3    0    0  0.10702342854E+02 -0.95851782118E+01 -0.19709660360E+00  0.14368529196E+02  0.51100000000E-03 0.  1.
        -11    1    3    3    0    0  0.17412111703E+02 -0.18786036485E+00  0.63544107451E+01  0.18536328160E+02  0.51100000000E-03 0. -1.
        -12    1    3    3    0    0  0.80609004793E+01 -0.93363754386E+01  0.83270728696E+01  0.14882411278E+02  0.00000000000E+00 0.  1.
</event>
<event>
 7    1  0.5467297E-010  0.4778727E+02  0.7816164E-02  0.1312668E+00
        -11   -1    0    0    0    0  0.00000000000E+00  0.00000000000E+00  0.45593999997E+02  0.45594000000E+02  0.51100000000E-03 0. -1.
         11   -1    0    0    0    0 -0.00000000000E+00 -0.00000000000E+00 -0.45593999997E+02  0.45594000000E+02  0.51100000000E-03 0.  1.
    9900012    2    1    2    0    0  0.24399535798E+01  0.43169167273E+02  0.37540658397E+01  0.47787269743E+02  0.19999994067E+02 0.  0.
         12    1    1    2    0    0 -0.24399535798E+01 -0.43169167273E+02 -0.37540658397E+01  0.43400730257E+02  0.00000000000E+00 0. -1.
         11    1    3    3    0    0 -0.79967759861E+00  0.40038995255E+02  0.31178767382E+01  0.40168168752E+02  0.51100000000E-03 0. -1.
        -11    1    3    3    0    0  0.11021875264E+01  0.42843585375E+01  0.19758185509E+01  0.48450391772E+01  0.51100000000E-03 0.  1.
         12    1    3    3    0    0  0.21374436520E+01 -0.11541865195E+01 -0.13396294494E+01  0.27740618141E+01  0.00000000000E+00 0. -1.
</event>
<event>
 7    1  0.5467297E-010  0.4778728E+02  0.7816164E-02  0.1312668E+00
        -11   -1    0    0    0    0  0.00000000000E+00  0.00000000000E+00  0.45593999997E+02  0.45594000000E+02  0.51100000000E-03 0. -1.
         11   -1    0    0    0    0 -0.00000000000E+00 -0.00000000000E+00 -0.45593999997E+02  0.45594000000E+02  0.51100000000E-03 0.  1.
    9900012    2    1    2    0    0  0.70668044028E+01 -0.15262600462E+02 -0.40009193636E+02  0.47787282578E+02  0.20000052587E+02 0.  0.
         12    1    1    2    0    0 -0.70668044028E+01  0.15262600462E+02  0.40009193636E+02  0.43400717422E+02  0.00000000000E+00 0. -1.
         11    1    3    3    0    0 -0.44607458990E+00 -0.29471840651E+01 -0.12887316047E+01  0.32474152588E+01  0.51100000000E-03 0. -1.
        -11    1    3    3    0    0  0.98772459050E+01 -0.61536470229E+01 -0.10891493028E+02  0.15939008093E+02  0.51100000000E-03 0.  1.
        -12    1    3    3    0    0 -0.23643669123E+01 -0.61617693742E+01 -0.27828969003E+02  0.28600859227E+02  0.00000000000E+00 0.  1.
</event>
<event>
 7    1  0.5467297E-010  0.4778727E+02  0.7816164E-02  0.1312668E+00
        -11   -1    0    0    0    0  0.00000000000E+00  0.00000000000E+00  0.45593999997E+02  0.45594000000E+02  0.51100000000E-03 0.  1.
         11   -1    0    0    0    0 -0.00000000000E+00 -0.00000000000E+00 -0.45593999997E+02  0.45594000000E+02  0.51100000000E-03 0. -1.
    9900012    2    1    2    0    0  0.23383463374E+02 -0.33998764847E+02  0.13450696335E+02  0.47787267260E+02  0.19999982744E+02 0.  0.
         12    1    1    2    0    0 -0.23383463374E+02  0.33998764847E+02 -0.13450696335E+02  0.43400732740E+02  0.00000000000E+00 0. -1.
         11    1    3    3    0    0 -0.19346255980E+01 -0.16329445816E+00  0.21861544957E+01  0.29238182271E+01  0.51100000000E-03 0. -1.
        -11    1    3    3    0    0  0.19328695562E+02 -0.30390872820E+02  0.11883453244E+02  0.37926508989E+02  0.51100000000E-03 0.  1.
         12    1    3    3    0    0  0.59893934107E+01 -0.34445975688E+01 -0.61891140407E+00  0.69369400434E+01  0.00000000000E+00 0. -1.
</event>
<event>
 7    1  0.5467297E-010  0.4778725E+02  0.7816164E-02  0.1312668E+00
        -11   -1    0    0    0    0  0.00000000000E+00  0.00000000000E+00  0.45593999997E+02  0.45594000000E+02  0.51100000000E-03 0. -1.
         11   -1    0    0    0    0 -0.00000000000E+00 -0.00000000000E+00 -0.45593999997E+02  0.45594000000E+02  0.51100000000E-03 0.  1.
    9900012    2    1    2    0    0  0.26321152572E+02  0.34382699443E+02 -0.29414657382E+01  0.47787247537E+02  0.19999892819E+02 0.  0.
         12    1    1    2    0    0 -0.26321152572E+02 -0.34382699443E+02  0.29414657382E+01  0.43400752463E+02  0.00000000000E+00 0. -1.
         11    1    3    3    0    0  0.80672386332E+01  0.60833669955E+01 -0.53845179171E+01  0.11449049158E+02  0.51100000000E-03 0. -1.
        -11    1    3    3    0    0  0.15516624425E+02  0.28433249541E+02 -0.39352018975E+00  0.32393983568E+02  0.51100000000E-03 0.  1.
        -12    1    3    3    0    0  0.27372895132E+01 -0.13391709382E+00  0.28365723686E+01  0.39442148103E+01  0.00000000000E+00 0.  1.
</event>
<event>
 7    1  0.5467297E-010  0.4778728E+02  0.7816164E-02  0.1312668E+00
        -11   -1    0    0    0    0  0.00000000000E+00  0.00000000000E+00  0.45593999997E+02  0.45594000000E+02  0.51100000000E-03 0. -1.
         11   -1    0    0    0    0 -0.00000000000E+00 -0.00000000000E+00 -0.45593999997E+02  0.45594000000E+02  0.51100000000E-03 0.  1.
    9900012    2    1    2    0    0 -0.38993790213E+02  0.83036109000E+01  0.17151006338E+02  0.47787278259E+02  0.20000032896E+02 0.  0.
         12    1    1    2    0    0  0.38993790213E+02 -0.83036109000E+01 -0.17151006338E+02  0.43400721741E+02  0.00000000000E+00 0. -1.
         11    1    3    3    0    0 -0.27266598969E+02  0.10867054835E+02  0.10462030803E+02  0.31161103782E+02  0.51100000000E-03 0. -1.
        -11    1    3    3    0    0 -0.84905795518E+00 -0.93751374992E+00 -0.21642745294E+01  0.25067740110E+01  0.51100000000E-03 0.  1.
         12    1    3    3    0    0 -0.10878133289E+02 -0.16259301847E+01  0.88532500651E+01  0.14119400466E+02  0.00000000000E+00 0. -1.
</event>
<event>
 7    1  0.5467297E-010  0.4778730E+02  0.7816164E-02  0.1312668E+00
        -11   -1    0    0    0    0  0.00000000000E+00  0.00000000000E+00  0.45593999997E+02  0.45594000000E+02  0.51100000000E-03 0.  1.
         11   -1    0    0    0    0 -0.00000000000E+00 -0.00000000000E+00 -0.45593999997E+02  0.45594000000E+02  0.51100000000E-03 0. -1.
    9900012    2    1    2    0    0 -0.98232438948E+01 -0.27011507841E+02  0.32519268474E+02  0.47787303017E+02  0.20000145776E+02 0.  0.
         12    1    1    2    0    0  0.98232438948E+01  0.27011507841E+02 -0.32519268474E+02  0.43400696983E+02  0.00000000000E+00 0. -1.
         11    1    3    3    0    0 -0.29484437015E+01 -0.17383487316E+02  0.98713771050E+01  0.20207004670E+02  0.51100000000E-03 0. -1.
        -11    1    3    3    0    0  0.16827385055E+01  0.17009964204E+00  0.71445523968E+01  0.73420141636E+01  0.51100000000E-03 0.  1.
         12    1    3    3    0    0 -0.85575386988E+01 -0.97981201671E+01  0.15503338973E+02  0.20238284184E+02  0.00000000000E+00 0. -1.
</event>
<event>
 7    1  0.5467297E-010  0.4778727E+02  0.7816164E-02  0.1312668E+00
        -11   -1    0    0    0    0  0.00000000000E+00  0.00000000000E+00  0.45593999997E+02  0.45594000000E+02  0.51100000000E-03 0. -1.
         11   -1    0    0    0    0 -0.00000000000E+00 -0.00000000000E+00 -0.45593999997E+02  0.45594000000E+02  0.51100000000E-03 0.  1.
    9900012    2    1    2    0    0 -0.63028303509E+01 -0.41390319111E+02 -0.11434139549E+02  0.47787265746E+02  0.19999975842E+02 0.  0.
         12    1    1    2    0    0  0.63028303509E+01  0.41390319111E+02  0.11434139549E+02  0.43400734254E+02  0.00000000000E+00 0. -1.
         11    1    3    3    0    0  0.35837098709E+01 -0.41515739650E+01 -0.61824426255E+01  0.82644503691E+01  0.51100000000E-03 0. -1.
        -11    1    3    3    0    0 -0.38789310864E+01 -0.27091083029E+02 -0.32145665466E+01  0.27555513503E+02  0.51100000000E-03 0.  1.
        -12    1    3    3    0    0 -0.60076091354E+01 -0.10147662117E+02 -0.20371303773E+01  0.11967301874E+02  0.00000000000E+00 0.  1.
</event>
<event>
 7    1  0.5467297E-010  0.4778727E+02  0.7816164E-02  0.1312668E+00
        -11   -1    0    0    0    0  0.00000000000E+00  0.00000000000E+00  0.45593999997E+02  0.45594000000E+02  0.51100000000E-03 0. -1.
         11   -1    0    0    0    0 -0.00000000000E+00 -0.00000000000E+00 -0.45593999997E+02  0.45594000000E+02  0.51100000000E-03 0.  1.
    9900012    2    1    2    0    0  0.40436351724E+02 -0.10557932426E+02 -0.11707033901E+02  0.47787272810E+02  0.20000008051E+02 0.  0.
         12    1    1    2    0    0 -0.40436351724E+02  0.10557932426E+02  0.11707033901E+02  0.43400727190E+02  0.00000000000E+00 0. -1.
         11    1    3    3    0    0  0.10399255427E+02 -0.28522074094E+01  0.42702778877E+01  0.11598054753E+02  0.51100000000E-03 0. -1.
        -11    1    3    3    0    0  0.26615333550E+02 -0.50626021695E+01 -0.10146471120E+02  0.28930205619E+02  0.51100000000E-03 0.  1.
         12    1    3    3    0    0  0.34217627466E+01 -0.26431228471E+01 -0.58308406689E+01  0.72590124387E+01  0.00000000000E+00 0. -1.
</event>
<event>
 7    1  0.5467297E-010  0.4778727E+02  0.7816164E-02  0.1312668E+00
        -11   -1    0    0    0    0  0.00000000000E+00  0.00000000000E+00  0.45593999997E+02  0.45594000000E+02  0.51100000000E-03 0. -1.
         11   -1    0    0    0    0 -0.00000000000E+00 -0.00000000000E+00 -0.45593999997E+02  0.45594000000E+02  0.51100000000E-03 0.  1.
    9900012    2    1    2    0    0  0.25328785017E+02 -0.33175972359E+02 -0.11892467761E+02  0.47787270952E+02  0.19999999580E+02 0.  0.
         12    1    1    2    0    0 -0.25328785017E+02  0.33175972359E+02  0.11892467761E+02  0.43400729048E+02  0.00000000000E+00 0. -1.
         11    1    3    3    0    0  0.36035821698E+01 -0.50523304800E+01  0.15159236179E+00  0.62076427280E+01  0.51100000000E-03 0. -1.
        -11    1    3    3    0    0  0.18492820942E+02 -0.97534675395E+01 -0.86249225496E+01  0.22616450754E+02  0.51100000000E-03 0.  1.
        -12    1    3    3    0    0  0.32323819055E+01 -0.18370174339E+02 -0.34191375732E+01  0.18963177471E+02  0.00000000000E+00 0.  1.
</event>
<event>
 7    1  0.5467297E-010  0.4778727E+02  0.7816164E-02  0.1312668E+00
        -11   -1    0    0    0    0  0.00000000000E+00  0.00000000000E+00  0.45593999997E+02  0.45594000000E+02  0.51100000000E-03 0. -1.
         11   -1    0    0    0    0 -0.00000000000E+00 -0.00000000000E+00 -0.45593999997E+02  0.45594000000E+02  0.51100000000E-03 0.  1.
    9900012    2    1    2    0    0  0.20075920691E+02 -0.33884859489E+02  0.18231755172E+02  0.47787272001E+02  0.20000004361E+02 0.  0.
         12    1    1    2    0    0 -0.20075920691E+02  0.33884859489E+02 -0.18231755172E+02  0.43400727999E+02  0.00000000000E+00 0. -1.
         11    1    3    3    0    0  0.66225435730E+01 -0.22311914366E+02  0.79366074534E+01  0.24590025299E+02  0.51100000000E-03 0.  1.
        -11    1    3    3    0    0  0.11071597329E+02 -0.79396248009E+01  0.19152230861E+01  0.13758124477E+02  0.51100000000E-03 0. -1.
         12    1    3    3    0    0  0.23817797885E+01 -0.36333203221E+01  0.83799246327E+01  0.94391222248E+01  0.00000000000E+00 0. -1.
</event>
<event>
 7    1  0.5467297E-010  0.4778727E+02  0.7816164E-02  0.1312668E+00
        -11   -1    0    0    0    0  0.00000000000E+00  0.00000000000E+00  0.45593999997E+02  0.45594000000E+02  0.51100000000E-03 0.  1.
         11   -1    0    0    0    0 -0.00000000000E+00 -0.00000000000E+00 -0.45593999997E+02  0.45594000000E+02  0.51100000000E-03 0. -1.
    9900012    2    1    2    0    0  0.33218690938E+02 -0.27461378977E+02  0.51004315359E+01  0.47787272301E+02  0.20000005729E+02 0.  0.
         12    1    1    2    0    0 -0.33218690938E+02  0.27461378977E+02 -0.51004315359E+01  0.43400727699E+02  0.00000000000E+00 0. -1.
         11    1    3    3    0    0  0.22424087676E+01 -0.81026200046E+01 -0.31893464544E+01  0.89918173406E+01  0.51100000000E-03 0. -1.
        -11    1    3    3    0    0  0.90817322319E+01 -0.49013728831E+01  0.71094477530E+01  0.12531782159E+02  0.51100000000E-03 0.  1.
         12    1    3    3    0    0  0.21894549939E+02 -0.14457386089E+02  0.11803302373E+01  0.26263672801E+02  0.00000000000E+00 0. -1.
</event>
<event>
 7    1  0.5467297E-010  0.4778727E+02  0.7816164E-02  0.1312668E+00
        -11   -1    0    0    0    0  0.00000000000E+00  0.00000000000E+00  0.45593999997E+02  0.45594000000E+02  0.51100000000E-03 0. -1.
         11   -1    0    0    0    0 -0.00000000000E+00 -0.00000000000E+00 -0.45593999997E+02  0.45594000000E+02  0.51100000000E-03 0.  1.
    9900012    2    1    2    0    0  0.35186286766E+02 -0.13359410621E+02 -0.21611910583E+02  0.47787270656E+02  0.19999998230E+02 0.  0.
         12    1    1    2    0    0 -0.35186286766E+02  0.13359410621E+02  0.21611910583E+02  0.43400729344E+02  0.00000000000E+00 0. -1.
         11    1    3    3    0    0 -0.23659888209E+01 -0.16444924167E+01 -0.20058992168E+01  0.35108247376E+01  0.51100000000E-03 0. -1.
        -11    1    3    3    0    0  0.28955639155E+02 -0.74119003258E+01 -0.12894533163E+02  0.32552024377E+02  0.51100000000E-03 0.  1.
        -12    1    3    3    0    0  0.85966364323E+01 -0.43030178787E+01 -0.67114782026E+01  0.11724421541E+02  0.00000000000E+00 0.  1.
</event>
<event>
 7    1  0.7379533E-010  0.4778727E+02  0.7816164E-02  0.1312668E+00
        -11   -1    0    0    0    0  0.00000000000E+00  0.00000000000E+00  0.45593999997E+02  0.45594000000E+02  0.51100000000E-03 0.  1.
         11   -1    0    0    0    0 -0.00000000000E+00 -0.00000000000E+00 -0.45593999997E+02  0.45594000000E+02  0.51100000000E-03 0. -1.
    9900012    2    1    2    0    0 -0.37475879966E+02  0.14237803282E+02  0.16627284105E+02  0.47787271916E+02  0.20000003972E+02 0.  0.
         12    1    1    2    0    0  0.37475879966E+02 -0.14237803282E+02 -0.16627284105E+02  0.43400728084E+02  0.00000000000E+00 0. -1.
         11    1    3    3    0    0  0.73120281845E-01  0.31828917027E+01  0.94935614231E+00  0.33222618068E+01  0.51100000000E-03 0. -1.
        -11    1    3    3    0    0 -0.36727916141E+02  0.10288011714E+02  0.11060620392E+02  0.39712974364E+02  0.51100000000E-03 0.  1.
        -12    1    3    3    0    0 -0.82108410657E+00  0.76689986549E+00  0.46173075713E+01  0.47520357450E+01  0.00000000000E+00 0.  1.
</event>
<event>
 7    1  0.5467297E-010  0.4778727E+02  0.7816164E-02  0.1312668E+00
        -11   -1    0    0    0    0  0.00000000000E+00  0.00000000000E+00  0.45593999997E+02  0.45594000000E+02  0.51100000000E-03 0.  1.
         11   -1    0    0    0    0 -0.00000000000E+00 -0.00000000000E+00 -0.45593999997E+02  0.45594000000E+02  0.51100000000E-03 0. -1.
    9900012    2    1    2    0    0 -0.61854936676E+01  0.15303822327E+02  0.40139209783E+02  0.47787268765E+02  0.19999989605E+02 0.  0.
         12    1    1    2    0    0  0.61854936676E+01 -0.15303822327E+02 -0.40139209783E+02  0.43400731235E+02  0.00000000000E+00 0. -1.
         11    1    3    3    0    0 -0.88417734715E+00 -0.95169641672E+00  0.10613937772E+02  0.10693136627E+02  0.51100000000E-03 0. -1.
        -11    1    3    3    0    0 -0.77602521201E+01  0.17430385938E+02  0.22167380953E+02  0.29247780181E+02  0.51100000000E-03 0.  1.
        -12    1    3    3    0    0  0.24589357996E+01 -0.11748671945E+01  0.73578910587E+01  0.78463519564E+01  0.00000000000E+00 0.  1.
</event>
<event>
 7    1 -0.1598094E-009  0.4778727E+02  0.7816164E-02  0.1312668E+00
        -11   -1    0    0    0    0  0.00000000000E+00  0.00000000000E+00  0.45593999997E+02  0.45594000000E+02  0.51100000000E-03 0.  1.
         11   -1    0    0    0    0 -0.00000000000E+00 -0.00000000000E+00 -0.45593999997E+02  0.45594000000E+02  0.51100000000E-03 0. -1.
    9900012    2    1    2    0    0 -0.26109956851E+02  0.34051974930E+02 -0.65081615876E+01  0.47787274077E+02  0.20000013827E+02 0.  0.
         12    1    1    2    0    0  0.26109956851E+02 -0.34051974930E+02  0.65081615876E+01  0.43400725923E+02  0.00000000000E+00 0. -1.
         11    1    3    3    0    0 -0.83397458250E+01  0.57037329753E+01  0.25794283805E+01  0.10427721770E+02  0.51100000000E-03 0. -1.
        -11    1    3    3    0    0  0.18272730116E+01  0.59198215161E+01 -0.32957406756E+01  0.70174867512E+01  0.51100000000E-03 0.  1.
        -12    1    3    3    0    0 -0.19597484038E+02  0.22428420438E+02 -0.57918492925E+01  0.30342065556E+02  0.00000000000E+00 0.  1.
</event>
<event>
 7    1  0.5467297E-010  0.4778726E+02  0.7816164E-02  0.1312668E+00
        -11   -1    0    0    0    0  0.00000000000E+00  0.00000000000E+00  0.45593999997E+02  0.45594000000E+02  0.51100000000E-03 0. -1.
         11   -1    0    0    0    0 -0.00000000000E+00 -0.00000000000E+00 -0.45593999997E+02  0.45594000000E+02  0.51100000000E-03 0.  1.
    9900012    2    1    2    0    0  0.38868459998E+02 -0.18608707315E+02  0.51559111698E+01  0.47787255876E+02  0.19999930841E+02 0.  0.
         12    1    1    2    0    0 -0.38868459998E+02  0.18608707315E+02 -0.51559111698E+01  0.43400744124E+02  0.00000000000E+00 0. -1.
         11    1    3    3    0    0  0.32770527733E+00  0.24372755182E+01 -0.85362360918E+00  0.26031473696E+01  0.51100000000E-03 0. -1.
        -11    1    3    3    0    0  0.36405204540E+02 -0.18691747700E+02  0.33868628563E+01  0.41063258394E+02  0.51100000000E-03 0.  1.
         12    1    3    3    0    0  0.21355501808E+01 -0.23542351330E+01  0.26226719227E+01  0.41208501125E+01  0.00000000000E+00 0. -1.
</event>
<event>
 7    1  0.5467297E-010  0.4778730E+02  0.7816164E-02  0.1312668E+00
        -11   -1    0    0    0    0  0.00000000000E+00  0.00000000000E+00  0.45593999997E+02  0.45594000000E+02  0.51100000000E-03 0. -1.
         11   -1    0    0    0    0 -0.00000000000E+00 -0.00000000000E+00 -0.45593999997E+02  0.45594000000E+02  0.51100000000E-03 0.  1.
    9900012    2    1    2    0    0  0.24421487809E+02  0.33455737527E+02 -0.12958585229E+02  0.47787304482E+02  0.20000152454E+02 0.  0.
         12    1    1    2    0    0 -0.24421487809E+02 -0.33455737527E+02  0.12958585229E+02  0.43400695518E+02  0.00000000000E+00 0. -1.
         11    1    3    3    0    0 -0.73737236925E+00 -0.10472205814E+01  0.14914245330E+01  0.19658932717E+01  0.51100000000E-03 0. -1.
        -11    1    3    3    0    0  0.16596309019E+02  0.21010593049E+02 -0.49427184299E+01  0.27227062990E+02  0.51100000000E-03 0.  1.
         12    1    3    3    0    0  0.85625511600E+01  0.13492365059E+02 -0.95072913319E+01  0.18594348220E+02  0.00000000000E+00 0. -1.
</event>
<event>
 7    1  0.5467297E-010  0.4778727E+02  0.7816164E-02  0.1312668E+00
        -11   -1    0    0    0    0  0.00000000000E+00  0.00000000000E+00  0.45593999997E+02  0.45594000000E+02  0.51100000000E-03 0. -1.
         11   -1    0    0    0    0 -0.00000000000E+00 -0.00000000000E+00 -0.45593999997E+02  0.45594000000E+02  0.51100000000E-03 0.  1.
    9900012    2    1    2    0    0 -0.39170680296E+02  0.15212994906E+02 -0.10855674816E+02  0.47787273225E+02  0.20000009942E+02 0.  0.
         12    1    1    2    0    0  0.39170680296E+02 -0.15212994906E+02  0.10855674816E+02  0.43400726775E+02  0.00000000000E+00 0. -1.
         11    1    3    3    0    0 -0.31421277690E+02  0.74698612203E+01 -0.76909544135E+01  0.33200094855E+02  0.51100000000E-03 0. -1.
        -11    1    3    3    0    0 -0.49209548575E+01  0.91689237105E+01 -0.45034137273E+00  0.10415746077E+02  0.51100000000E-03 0.  1.
         12    1    3    3    0    0 -0.28284477485E+01 -0.14257900248E+01 -0.27143790299E+01  0.41714322935E+01  0.00000000000E+00 0. -1.
</event>
<event>
 7    1  0.5467297E-010  0.4778727E+02  0.7816164E-02  0.1312668E+00
        -11   -1    0    0    0    0  0.00000000000E+00  0.00000000000E+00  0.45593999997E+02  0.45594000000E+02  0.51100000000E-03 0.  1.
         11   -1    0    0    0    0 -0.00000000000E+00 -0.00000000000E+00 -0.45593999997E+02  0.45594000000E+02  0.51100000000E-03 0. -1.
    9900012    2    1    2    0    0 -0.25395991082E+01  0.42771453199E+02 -0.69120529006E+01  0.47787271346E+02  0.20000001376E+02 0.  0.
         12    1    1    2    0    0  0.25395991082E+01 -0.42771453199E+02  0.69120529006E+01  0.43400728654E+02  0.00000000000E+00 0. -1.
         11    1    3    3    0    0  0.29127428760E+01  0.33344267564E+02 -0.11947650899E+02  0.35539704735E+02  0.51100000000E-03 0.  1.
        -11    1    3    3    0    0 -0.32659777131E+01  0.47032139457E+01  0.38762495789E+01  0.69146325210E+01  0.51100000000E-03 0. -1.
        -12    1    3    3    0    0 -0.21863642711E+01  0.47239716896E+01  0.11593484190E+01  0.53329340899E+01  0.00000000000E+00 0.  1.
</event>
<event>
 7    1  0.5467297E-010  0.4778727E+02  0.7816164E-02  0.1312668E+00
        -11   -1    0    0    0    0  0.00000000000E+00  0.00000000000E+00  0.45593999997E+02  0.45594000000E+02  0.51100000000E-03 0.  1.
         11   -1    0    0    0    0 -0.00000000000E+00 -0.00000000000E+00 -0.45593999997E+02  0.45594000000E+02  0.51100000000E-03 0. -1.
    9900012    2    1    2    0    0 -0.22295672590E+02  0.36906324317E+02  0.49446547634E+01  0.47787269573E+02  0.19999993291E+02 0.  0.
         12    1    1    2    0    0  0.22295672590E+02 -0.36906324317E+02 -0.49446547634E+01  0.43400730427E+02  0.00000000000E+00 0. -1.
         11    1    3    3    0    0 -0.86137360804E+01  0.82808702814E+01 -0.69410232229E+01  0.13818359726E+02  0.51100000000E-03 0. -1.
        -11    1    3    3    0    0 -0.97466687927E+01  0.20203634752E+02  0.72006025019E+01  0.23559140188E+02  0.51100000000E-03 0.  1.
         12    1    3    3    0    0 -0.39352677172E+01  0.84218192842E+01  0.46850754843E+01  0.10409769659E+02  0.00000000000E+00 0. -1.
</event>
<event>
 7    1  0.5467297E-010  0.4778727E+02  0.7816164E-02  0.1312668E+00
        -11   -1    0    0    0    0  0.00000000000E+00  0.00000000000E+00  0.45593999997E+02  0.45594000000E+02  0.51100000000E-03 0. -1.
         11   -1    0    0    0    0 -0.00000000000E+00 -0.00000000000E+00 -0.45593999997E+02  0.45594000000E+02  0.51100000000E-03 0.  1.
    9900012    2    1    2    0    0  0.17591758546E+02 -0.35426797366E+01 -0.39517117291E+02  0.47787272962E+02  0.20000008744E+02 0.  0.
         12    1    1    2    0    0 -0.17591758546E+02  0.35426797366E+01  0.39517117291E+02  0.43400727038E+02  0.00000000000E+00 0. -1.
         11    1    3    3    0    0 -0.27463718630E+00  0.13686158935E+00 -0.11222098445E+00  0.32672693371E+00  0.51100000000E-03 0. -1.
        -11    1    3    3    0    0 -0.23747449748E+01 -0.56354297445E+01 -0.93679836888E+01  0.11187341094E+02  0.51100000000E-03 0.  1.
        -12    1    3    3    0    0  0.20241140707E+02  0.19558884186E+01 -0.30036912617E+02  0.36273204934E+02  0.00000000000E+00 0.  1.
</event>
<event>
 7    1  0.5467297E-010  0.4778726E+02  0.7816164E-02  0.1312668E+00
        -11   -1    0    0    0    0  0.00000000000E+00  0.00000000000E+00  0.45593999997E+02  0.45594000000E+02  0.51100000000E-03 0.  1.
         11   -1    0    0    0    0 -0.00000000000E+00 -0.00000000000E+00 -0.45593999997E+02  0.45594000000E+02  0.51100000000E-03 0. -1.
    9900012    2    1    2    0    0  0.34468317697E+02  0.25501767804E+02  0.67245217171E+01  0.47787259473E+02  0.19999947241E+02 0.  0.
         12    1    1    2    0    0 -0.34468317697E+02 -0.25501767804E+02 -0.67245217171E+01  0.43400740527E+02  0.00000000000E+00 0. -1.
         11    1    3    3    0    0 -0.12185664004E+00  0.63917583054E+01 -0.16123594252E+01  0.65931120461E+01  0.51100000000E-03 0. -1.
        -11    1    3    3    0    0  0.11943890938E+02  0.10932201395E+02  0.45652863807E+01  0.16822942610E+02  0.51100000000E-03 0.  1.
         12    1    3    3    0    0  0.22646283399E+02  0.81778081038E+01  0.37715947615E+01  0.24371204816E+02  0.00000000000E+00 0. -1.
</event>
<event>
 7    1  0.5467297E-010  0.4778727E+02  0.7816164E-02  0.1312668E+00
        -11   -1    0    0    0    0  0.00000000000E+00  0.00000000000E+00  0.45593999997E+02  0.45594000000E+02  0.51100000000E-03 0.  1.
         11   -1    0    0    0    0 -0.00000000000E+00 -0.00000000000E+00 -0.45593999997E+02  0.45594000000E+02  0.51100000000E-03 0. -1.
    9900012    2    1    2    0    0  0.43288746331E+02 -0.27786336955E+01 -0.14096795215E+01  0.47787267743E+02  0.19999984948E+02 0.  0.
         12    1    1    2    0    0 -0.43288746331E+02  0.27786336955E+01  0.14096795215E+01  0.43400732257E+02  0.00000000000E+00 0. -1.
         11    1    3    3    0    0  0.10314971972E+02 -0.83972165014E+01 -0.48280913734E+01  0.14149994994E+02  0.51100000000E-03 0. -1.
        -11    1    3    3    0    0  0.24960654716E+02  0.44547616976E+01  0.29575732915E+01  0.25526974472E+02  0.51100000000E-03 0.  1.
         12    1    3    3    0    0  0.80131196421E+01  0.11638211082E+01  0.46083856035E+00  0.81102982774E+01  0.00000000000E+00 0. -1.
</event>
<event>
 7    1  0.5467297E-010  0.4778727E+02  0.7816164E-02  0.1312668E+00
        -11   -1    0    0    0    0  0.00000000000E+00  0.00000000000E+00  0.45593999997E+02  0.45594000000E+02  0.51100000000E-03 0.  1.
         11   -1    0    0    0    0 -0.00000000000E+00 -0.00000000000E+00 -0.45593999997E+02  0.45594000000E+02  0.51100000000E-03 0. -1.
    9900012    2    1    2    0    0  0.72765331277E+01  0.39955342755E+02  0.15305100662E+02  0.47787268954E+02  0.19999990471E+02 0.  0.
         12    1    1    2    0    0 -0.72765331277E+01 -0.39955342755E+02 -0.15305100662E+02  0.43400731046E+02  0.00000000000E+00 0. -1.
         11    1    3    3    0    0  0.48478095559E+01  0.43769155228E+01 -0.19502627001E+01  0.68163165893E+01  0.51100000000E-03 0. -1.
        -11    1    3    3    0    0  0.50346378984E+01  0.33171302092E+02  0.14888163889E+02  0.36706134167E+02  0.51100000000E-03 0.  1.
        -12    1    3    3    0    0 -0.26059143267E+01  0.24071251400E+01  0.23671994735E+01  0.42648181983E+01  0.00000000000E+00 0.  1.
</event>
<event>
 7    1  0.5467297E-010  0.4778727E+02  0.7816164E-02  0.1312668E+00
        -11   -1    0    0    0    0  0.00000000000E+00  0.00000000000E+00  0.45593999997E+02  0.45594000000E+02  0.51100000000E-03 0.  1.
         11   -1    0    0    0    0 -0.00000000000E+00 -0.00000000000E+00 -0.45593999997E+02  0.45594000000E+02  0.51100000000E-03 0. -1.
    9900012    2    1    2    0    0  0.11285869504E+02 -0.72371190147E+01  0.41278042314E+02  0.47787268216E+02  0.19999987103E+02 0.  0.
         12    1    1    2    0    0 -0.11285869504E+02  0.72371190147E+01 -0.41278042314E+02  0.43400731784E+02  0.00000000000E+00 0. -1.
         11    1    3    3    0    0  0.46282352171E+01 -0.23121353281E+01  0.29936056527E+01  0.59773075934E+01  0.51100000000E-03 0. -1.
        -11    1    3    3    0    0  0.38698236919E+01  0.54533495332E+00  0.34229908370E+02  0.34452279357E+02  0.51100000000E-03 0.  1.
        -12    1    3    3    0    0  0.27878105947E+01 -0.54703186399E+01  0.40545282915E+01  0.73576812652E+01  0.00000000000E+00 0.  1.
</event>
<event>
 7    1  0.5467297E-010  0.4778727E+02  0.7816164E-02  0.1312668E+00
        -11   -1    0    0    0    0  0.00000000000E+00  0.00000000000E+00  0.45593999997E+02  0.45594000000E+02  0.51100000000E-03 0.  1.
         11   -1    0    0    0    0 -0.00000000000E+00 -0.00000000000E+00 -0.45593999997E+02  0.45594000000E+02  0.51100000000E-03 0. -1.
    9900012    2    1    2    0    0 -0.38667159120E+02 -0.46313637865E+01 -0.19157878261E+02  0.47787273918E+02  0.20000013104E+02 0.  0.
         12    1    1    2    0    0  0.38667159120E+02  0.46313637865E+01  0.19157878261E+02  0.43400726082E+02  0.00000000000E+00 0. -1.
         11    1    3    3    0    0 -0.28446193932E+02 -0.54125485339E+01 -0.20353615242E+02  0.35394226712E+02  0.51100000000E-03 0.  1.
        -11    1    3    3    0    0 -0.34846014428E+01 -0.28080241581E+01  0.15918439119E+01  0.47498857027E+01  0.51100000000E-03 0. -1.
        -12    1    3    3    0    0 -0.67363637454E+01  0.35892089054E+01 -0.39610693097E+00  0.76431615041E+01  0.00000000000E+00 0.  1.
</event>
<event>
 7    1  0.5467297E-010  0.4778729E+02  0.7816164E-02  0.1312668E+00
        -11   -1    0    0    0    0  0.00000000000E+00  0.00000000000E+00  0.45593999997E+02  0.45594000000E+02  0.51100000000E-03 0.  1.
         11   -1    0    0    0    0 -0.00000000000E+00 -0.00000000000E+00 -0.45593999997E+02  0.45594000000E+02  0.51100000000E-03 0. -1.
    9900012    2    1    2    0    0  0.26447134712E+02 -0.32936368604E+02  0.99682805397E+01  0.47787286547E+02  0.20000070684E+02 0.  0.
         12    1    1    2    0    0 -0.26447134712E+02  0.32936368604E+02 -0.99682805397E+01  0.43400713453E+02  0.00000000000E+00 0. -1.
         11    1    3    3    0    0  0.10186908707E+02 -0.11866071674E+02 -0.13016341314E+01  0.15693024490E+02  0.51100000000E-03 0.  1.
        -11    1    3    3    0    0  0.10212205509E+02 -0.25568727159E+01  0.48137931779E+01  0.11575808588E+02  0.51100000000E-03 0. -1.
        -12    1    3    3    0    0  0.60480204960E+01 -0.18513424214E+02  0.64561214932E+01  0.20518453469E+02  0.00000000000E+00 0.  1.
</event>
<event>
 7    1  0.5467297E-010  0.4778727E+02  0.7816164E-02  0.1312668E+00
        -11   -1    0    0    0    0  0.00000000000E+00  0.00000000000E+00  0.45593999997E+02  0.45594000000E+02  0.51100000000E-03 0.  1.
         11   -1    0    0    0    0 -0.00000000000E+00 -0.00000000000E+00 -0.45593999997E+02  0.45594000000E+02  0.51100000000E-03 0. -1.
    9900012    2    1    2    0    0  0.23820267586E+02  0.75794617073E+01  0.35479142370E+02  0.47787274995E+02  0.20000018011E+02 0.  0.
         12    1    1    2    0    0 -0.23820267586E+02 -0.75794617073E+01 -0.35479142370E+02  0.43400725005E+02  0.00000000000E+00 0. -1.
         11    1    3    3    0    0  0.27179943228E+01 -0.24110515774E+01  0.37651428114E+01  0.52323000200E+01  0.51100000000E-03 0. -1.
        -11    1    3    3    0    0  0.20080675426E+02  0.18464004780E+01  0.22320824113E+02  0.30080922686E+02  0.51100000000E-03 0.  1.
        -12    1    3    3    0    0  0.10215978377E+01  0.81441128066E+01  0.93931754456E+01  0.12474052289E+02  0.00000000000E+00 0.  1.
</event>
<event>
 7    1  0.5467297E-010  0.4778727E+02  0.7816164E-02  0.1312668E+00
        -11   -1    0    0    0    0  0.00000000000E+00  0.00000000000E+00  0.45593999997E+02  0.45594000000E+02  0.51100000000E-03 0. -1.
         11   -1    0    0    0    0 -0.00000000000E+00 -0.00000000000E+00 -0.45593999997E+02  0.45594000000E+02  0.51100000000E-03 0.  1.
    9900012    2    1    2    0    0  0.42019820546E+01 -0.11324448341E+02 -0.41686008588E+02  0.47787273100E+02  0.20000009372E+02 0.  0.
         12    1    1    2    0    0 -0.42019820546E+01  0.11324448341E+02  0.41686008588E+02  0.43400726900E+02  0.00000000000E+00 0. -1.
         11    1    3    3    0    0  0.68311697961E+01 -0.40563642561E+01 -0.30573415895E+02  0.31588807061E+02  0.51100000000E-03 0. -1.
        -11    1    3    3    0    0 -0.37639072842E+01  0.60344998066E+00 -0.31579111876E+01  0.49501063881E+01  0.51100000000E-03 0.  1.
        -12    1    3    3    0    0  0.11347195428E+01 -0.78715340656E+01 -0.79546815059E+01  0.11248359651E+02  0.00000000000E+00 0.  1.
</event>
<event>
 7    1  0.5467297E-010  0.4778727E+02  0.7816164E-02  0.1312668E+00
        -11   -1    0    0    0    0  0.00000000000E+00  0.00000000000E+00  0.45593999997E+02  0.45594000000E+02  0.51100000000E-03 0.  1.
         11   -1    0    0    0    0 -0.00000000000E+00 -0.00000000000E+00 -0.45593999997E+02  0.45594000000E+02  0.51100000000E-03 0. -1.
    9900012    2    1    2    0    0 -0.24336591822E+02 -0.19737163989E+02  0.30029949623E+02  0.47787271686E+02  0.20000002923E+02 0.  0.
         12    1    1    2    0    0  0.24336591822E+02  0.19737163989E+02 -0.30029949623E+02  0.43400728314E+02  0.00000000000E+00 0. -1.
         11    1    3    3    0    0 -0.51718576247E+01 -0.49773754336E+01  0.17583288177E+00  0.71800623229E+01  0.51100000000E-03 0. -1.
        -11    1    3    3    0    0 -0.72789984922E+01 -0.12895946156E+02  0.20878994841E+02  0.25597298141E+02  0.51100000000E-03 0.  1.
        -12    1    3    3    0    0 -0.11885735705E+02 -0.18638423995E+01  0.89751219007E+01  0.15009911221E+02  0.00000000000E+00 0.  1.
</event>
<event>
 7    1  0.5467297E-010  0.4778727E+02  0.7816164E-02  0.1312668E+00
        -11   -1    0    0    0    0  0.00000000000E+00  0.00000000000E+00  0.45593999997E+02  0.45594000000E+02  0.51100000000E-03 0.  1.
         11   -1    0    0    0    0 -0.00000000000E+00 -0.00000000000E+00 -0.45593999997E+02  0.45594000000E+02  0.51100000000E-03 0. -1.
    9900012    2    1    2    0    0  0.11589404966E+02  0.29644929242E+01  0.41719548755E+02  0.47787271042E+02  0.19999999990E+02 0.  0.
         12    1    1    2    0    0 -0.11589404966E+02 -0.29644929242E+01 -0.41719548755E+02  0.43400728958E+02  0.00000000000E+00 0. -1.
         11    1    3    3    0    0 -0.24180568936E+00  0.20550085651E+01  0.15529851244E+02  0.15667093225E+02  0.51100000000E-03 0. -1.
        -11    1    3    3    0    0  0.49974552574E+01 -0.24615215918E+01  0.81997590943E+00  0.56308088539E+01  0.51100000000E-03 0.  1.
        -12    1    3    3    0    0  0.68337553975E+01  0.33710059510E+01  0.25369721602E+02  0.26489368964E+02  0.00000000000E+00 0.  1.
</event>
<event>
 7    1  0.5467297E-010  0.4778727E+02  0.7816164E-02  0.1312668E+00
        -11   -1    0    0    0    0  0.00000000000E+00  0.00000000000E+00  0.45593999997E+02  0.45594000000E+02  0.51100000000E-03 0. -1.
         11   -1    0    0    0    0 -0.00000000000E+00 -0.00000000000E+00 -0.45593999997E+02  0.45594000000E+02  0.51100000000E-03 0.  1.
    9900012    2    1    2    0    0  0.48199752138E+01 -0.17954025816E+02 -0.39217908078E+02  0.47787268230E+02  0.19999987170E+02 0.  0.
         12    1    1    2    0    0 -0.48199752138E+01  0.17954025816E+02  0.39217908078E+02  0.43400731770E+02  0.00000000000E+00 0. -1.
         11    1    3    3    0    0 -0.58925859121E+01 -0.88728593079E+01 -0.12276107632E+02  0.16252784989E+02  0.51100000000E-03 0. -1.
        -11    1    3    3    0    0  0.93491582751E+01 -0.10660558825E+02 -0.24633621395E+02  0.28423046603E+02  0.51100000000E-03 0.  1.
        -12    1    3    3    0    0  0.13634028508E+01  0.15793923165E+01 -0.23081790516E+01  0.31114366388E+01  0.00000000000E+00 0.  1.
</event>
<event>
 7    1  0.5467297E-010  0.4778727E+02  0.7816164E-02  0.1312668E+00
        -11   -1    0    0    0    0  0.00000000000E+00  0.00000000000E+00  0.45593999997E+02  0.45594000000E+02  0.51100000000E-03 0. -1.
         11   -1    0    0    0    0 -0.00000000000E+00 -0.00000000000E+00 -0.45593999997E+02  0.45594000000E+02  0.51100000000E-03 0.  1.
    9900012    2    1    2    0    0 -0.10090901092E+02  0.33492668762E+02 -0.25691203880E+02  0.47787273019E+02  0.20000009003E+02 0.  0.
         12    1    1    2    0    0  0.10090901092E+02 -0.33492668762E+02  0.25691203880E+02  0.43400726981E+02  0.00000000000E+00 0. -1.
         11    1    3    3    0    0 -0.85497744036E+01  0.20692557996E+02 -0.16613005166E+02  0.27879607954E+02  0.51100000000E-03 0. -1.
        -11    1    3    3    0    0 -0.28929119223E+01  0.48917844770E+01  0.21768008904E+01  0.60857996300E+01  0.51100000000E-03 0.  1.
        -12    1    3    3    0    0  0.13517852337E+01  0.79083262900E+01 -0.11254999604E+02  0.13821865435E+02  0.00000000000E+00 0.  1.
</event>
<event>
 7    1  0.5467297E-010  0.4778727E+02  0.7816164E-02  0.1312668E+00
        -11   -1    0    0    0    0  0.00000000000E+00  0.00000000000E+00  0.45593999997E+02  0.45594000000E+02  0.51100000000E-03 0. -1.
         11   -1    0    0    0    0 -0.00000000000E+00 -0.00000000000E+00 -0.45593999997E+02  0.45594000000E+02  0.51100000000E-03 0.  1.
    9900012    2    1    2    0    0 -0.91784427759E+01  0.86283343517E+01 -0.41532293792E+02  0.47787269671E+02  0.19999993736E+02 0.  0.
         12    1    1    2    0    0  0.91784427759E+01 -0.86283343517E+01  0.41532293792E+02  0.43400730329E+02  0.00000000000E+00 0. -1.
         11    1    3    3    0    0 -0.14249563651E+02  0.63919446905E+01 -0.24222681842E+02  0.28820918393E+02  0.51100000000E-03 0. -1.
        -11    1    3    3    0    0  0.49902825529E+01  0.32387436601E+01 -0.10378563755E+02  0.11962732394E+02  0.51100000000E-03 0.  1.
         12    1    3    3    0    0  0.80838322032E-01 -0.10023539989E+01 -0.69310481954E+01  0.70036188832E+01  0.00000000000E+00 0. -1.
</event>
<event>
 7    1  0.5467297E-010  0.4778727E+02  0.7816164E-02  0.1312668E+00
        -11   -1    0    0    0    0  0.00000000000E+00  0.00000000000E+00  0.45593999997E+02  0.45594000000E+02  0.51100000000E-03 0.  1.
         11   -1    0    0    0    0 -0.00000000000E+00 -0.00000000000E+00 -0.45593999997E+02  0.45594000000E+02  0.51100000000E-03 0. -1.
    9900012    2    1    2    0    0  0.38393099697E+02  0.18364927102E+02  0.85042771824E+01  0.47787269797E+02  0.19999994310E+02 0.  0.
         12    1    1    2    0    0 -0.38393099697E+02 -0.18364927102E+02 -0.85042771824E+01  0.43400730203E+02  0.00000000000E+00 0. -1.
         11    1    3    3    0    0  0.21625316086E+01  0.79998431176E+01  0.31482712545E+01  0.88648544837E+01  0.51100000000E-03 0. -1.
        -11    1    3    3    0    0  0.29884743631E+02  0.11633985322E+02  0.48076199280E+01  0.32427777074E+02  0.51100000000E-03 0.  1.
         12    1    3    3    0    0  0.63458244576E+01 -0.12689013368E+01  0.54838599979E+00  0.64946382389E+01  0.00000000000E+00 0. -1.
</event>
<event>
 7    1  0.5467297E-010  0.4778727E+02  0.7816164E-02  0.1312668E+00
        -11   -1    0    0    0    0  0.00000000000E+00  0.00000000000E+00  0.45593999997E+02  0.45594000000E+02  0.51100000000E-03 0.  1.
         11   -1    0    0    0    0 -0.00000000000E+00 -0.00000000000E+00 -0.45593999997E+02  0.45594000000E+02  0.51100000000E-03 0. -1.
    9900012    2    1    2    0    0  0.15288301643E+02 -0.80470000825E+01  0.39813779599E+02  0.47787269322E+02  0.19999992145E+02 0.  0.
         12    1    1    2    0    0 -0.15288301643E+02  0.80470000825E+01 -0.39813779599E+02  0.43400730678E+02  0.00000000000E+00 0. -1.
         11    1    3    3    0    0  0.97916151005E+01 -0.38443180274E+01  0.30813901160E+02  0.32559960263E+02  0.51100000000E-03 0. -1.
        -11    1    3    3    0    0  0.73142116938E+01 -0.32417769506E+01  0.10108605870E+02  0.12891498105E+02  0.51100000000E-03 0.  1.
         12    1    3    3    0    0 -0.18175251510E+01 -0.96090510455E+00 -0.11087274309E+01  0.23358109535E+01  0.00000000000E+00 0. -1.
</event>
<event>
 7    1  0.5467297E-010  0.4778727E+02  0.7816164E-02  0.1312668E+00
        -11   -1    0    0    0    0  0.00000000000E+00  0.00000000000E+00  0.45593999997E+02  0.45594000000E+02  0.51100000000E-03 0.  1.
         11   -1    0    0    0    0 -0.00000000000E+00 -0.00000000000E+00 -0.45593999997E+02  0.45594000000E+02  0.51100000000E-03 0. -1.
    9900012    2    1    2    0    0 -0.33709595131E+02 -0.26992766299E+02 -0.43217257023E+01  0.47787267870E+02  0.19999985525E+02 0.  0.
         12    1    1    2    0    0  0.33709595131E+02  0.26992766299E+02  0.43217257023E+01  0.43400732130E+02  0.00000000000E+00 0. -1.
         11    1    3    3    0    0 -0.26898661607E+01 -0.36883410737E+00 -0.22462212438E+01  0.35237662661E+01  0.51100000000E-03 0. -1.
        -11    1    3    3    0    0 -0.26093239424E+01 -0.83253162573E+01 -0.54739659318E+01  0.10299697350E+02  0.51100000000E-03 0.  1.
        -12    1    3    3    0    0 -0.28410405028E+02 -0.18298615934E+02  0.33984614733E+01  0.33963804253E+02  0.00000000000E+00 0.  1.
</event>
<event>
 7    1  0.5467297E-010  0.4778727E+02  0.7816164E-02  0.1312668E+00
        -11   -1    0    0    0    0  0.00000000000E+00  0.00000000000E+00  0.45593999997E+02  0.45594000000E+02  0.51100000000E-03 0.  1.
         11   -1    0    0    0    0 -0.00000000000E+00 -0.00000000000E+00 -0.45593999997E+02  0.45594000000E+02  0.51100000000E-03 0. -1.
    9900012    2    1    2    0    0  0.30735800423E+02  0.29535468918E+02  0.81602609069E+01  0.47787271781E+02  0.20000003359E+02 0.  0.
         12    1    1    2    0    0 -0.30735800423E+02 -0.29535468918E+02 -0.81602609069E+01  0.43400728219E+02  0.00000000000E+00 0. -1.
         11    1    3    3    0    0  0.67205581206E+01  0.15683517675E+02  0.29695139599E+01  0.17319256380E+02  0.51100000000E-03 0. -1.
        -11    1    3    3    0    0  0.15043412102E+02  0.31697600157E+01  0.59796942844E+01  0.16495707630E+02  0.51100000000E-03 0.  1.
         12    1    3    3    0    0  0.89718302013E+01  0.10682191227E+02 -0.78894733741E+00  0.13972307772E+02  0.00000000000E+00 0. -1.
</event>
<event>
 7    1  0.5467297E-010  0.4778728E+02  0.7816164E-02  0.1312668E+00
        -11   -1    0    0    0    0  0.00000000000E+00  0.00000000000E+00  0.45593999997E+02  0.45594000000E+02  0.51100000000E-03 0.  1.
         11   -1    0    0    0    0 -0.00000000000E+00 -0.00000000000E+00 -0.45593999997E+02  0.45594000000E+02  0.51100000000E-03 0. -1.
    9900012    2    1    2    0    0 -0.13344095181E+02  0.24355155271E+02  0.33352425559E+02  0.47787277020E+02  0.20000027246E+02 0.  0.
         12    1    1    2    0    0  0.13344095181E+02 -0.24355155271E+02 -0.33352425559E+02  0.43400722980E+02  0.00000000000E+00 0. -1.
         11    1    3    3    0    0 -0.64023989589E+01  0.15650123029E+02  0.12018342737E+02  0.20745062682E+02  0.51100000000E-03 0. -1.
        -11    1    3    3    0    0 -0.46700000568E+01 -0.21927766497E+01  0.44205821462E+01  0.67940206607E+01  0.51100000000E-03 0.  1.
        -12    1    3    3    0    0 -0.22716961653E+01  0.10897808892E+02  0.16913500676E+02  0.20248193678E+02  0.00000000000E+00 0.  1.
</event>
<event>
 7    1  0.5467297E-010  0.4778727E+02  0.7816164E-02  0.1312668E+00
        -11   -1    0    0    0    0  0.00000000000E+00  0.00000000000E+00  0.45593999997E+02  0.45594000000E+02  0.51100000000E-03 0.  1.
         11   -1    0    0    0    0 -0.00000000000E+00 -0.00000000000E+00 -0.45593999997E+02  0.45594000000E+02  0.51100000000E-03 0. -1.
    9900012    2    1    2    0    0 -0.41132068129E+02  0.82108250328E+01  0.11151608878E+02  0.47787273545E+02  0.20000011399E+02 0.  0.
         12    1    1    2    0    0  0.41132068129E+02 -0.82108250328E+01 -0.11151608878E+02  0.43400726455E+02  0.00000000000E+00 0. -1.
         11    1    3    3    0    0 -0.12422642422E+02  0.90874838812E+01  0.65307784225E+01  0.16719912533E+02  0.51100000000E-03 0. -1.
        -11    1    3    3    0    0 -0.22976860806E+02  0.19548776831E+01 -0.19853675621E+00  0.23060726276E+02  0.51100000000E-03 0.  1.
        -12    1    3    3    0    0 -0.57325649002E+01 -0.28315365316E+01  0.48193672121E+01  0.80066347356E+01  0.00000000000E+00 0.  1.
</event>
<event>
 7    1  0.5467297E-010  0.4778727E+02  0.7816164E-02  0.1312668E+00
        -11   -1    0    0    0    0  0.00000000000E+00  0.00000000000E+00  0.45593999997E+02  0.45594000000E+02  0.51100000000E-03 0.  1.
         11   -1    0    0    0    0 -0.00000000000E+00 -0.00000000000E+00 -0.45593999997E+02  0.45594000000E+02  0.51100000000E-03 0. -1.
    9900012    2    1    2    0    0 -0.38915064468E+01  0.18308475705E+02  0.39157113880E+02  0.47787266452E+02  0.19999979062E+02 0.  0.
         12    1    1    2    0    0  0.38915064468E+01 -0.18308475705E+02 -0.39157113880E+02  0.43400733548E+02  0.00000000000E+00 0. -1.
         11    1    3    3    0    0 -0.42478004107E+01 -0.68916059768E+00  0.66089462268E+00  0.43537951975E+01  0.51100000000E-03 0. -1.
        -11    1    3    3    0    0 -0.15814551587E+01  0.17300327235E+02  0.35167481427E+02  0.39224406599E+02  0.51100000000E-03 0.  1.
        -12    1    3    3    0    0  0.19377491226E+01  0.16973090680E+01  0.33287378298E+01  0.42090646555E+01  0.00000000000E+00 0.  1.
</event>
<event>
 7    1  0.5467297E-010  0.4778727E+02  0.7816164E-02  0.1312668E+00
        -11   -1    0    0    0    0  0.00000000000E+00  0.00000000000E+00  0.45593999997E+02  0.45594000000E+02  0.51100000000E-03 0. -1.
         11   -1    0    0    0    0 -0.00000000000E+00 -0.00000000000E+00 -0.45593999997E+02  0.45594000000E+02  0.51100000000E-03 0.  1.
    9900012    2    1    2    0    0  0.99533013698E+01 -0.41687948196E+02  0.68315413773E+01  0.47787272005E+02  0.20000004378E+02 0.  0.
         12    1    1    2    0    0 -0.99533013698E+01  0.41687948196E+02 -0.68315413773E+01  0.43400727995E+02  0.00000000000E+00 0. -1.
         11    1    3    3    0    0  0.10863557932E+02 -0.14406263011E+02 -0.24720861983E+01  0.18211768594E+02  0.51100000000E-03 0. -1.
        -11    1    3    3    0    0  0.17209003685E+01 -0.20139937128E+02  0.49628507850E+01  0.20813660269E+02  0.51100000000E-03 0.  1.
         12    1    3    3    0    0 -0.26311569308E+01 -0.71417480563E+01  0.43407767906E+01  0.87618431417E+01  0.00000000000E+00 0. -1.
</event>
<event>
 7    1  0.5467297E-010  0.4778727E+02  0.7816164E-02  0.1312668E+00
        -11   -1    0    0    0    0  0.00000000000E+00  0.00000000000E+00  0.45593999997E+02  0.45594000000E+02  0.51100000000E-03 0.  1.
         11   -1    0    0    0    0 -0.00000000000E+00 -0.00000000000E+00 -0.45593999997E+02  0.45594000000E+02  0.51100000000E-03 0. -1.
    9900012    2    1    2    0    0  0.69522002685E+01  0.36690395683E+02  0.22115715882E+02  0.47787272899E+02  0.20000008457E+02 0.  0.
         12    1    1    2    0    0 -0.69522002685E+01 -0.36690395683E+02 -0.22115715882E+02  0.43400727101E+02  0.00000000000E+00 0. -1.
         11    1    3    3    0    0 -0.15462659026E+01  0.56180621877E+00 -0.13946085647E+01  0.21567331264E+01  0.51100000000E-03 0. -1.
        -11    1    3    3    0    0  0.11715742018E+02  0.29107635846E+02  0.19225127529E+02  0.36798350565E+02  0.51100000000E-03 0.  1.
        -12    1    3    3    0    0 -0.32172758465E+01  0.70209536183E+01  0.42851969169E+01  0.88321892076E+01  0.00000000000E+00 0.  1.
</event>
<event>
 7    1  0.5467297E-010  0.4778727E+02  0.7816164E-02  0.1312668E+00
        -11   -1    0    0    0    0  0.00000000000E+00  0.00000000000E+00  0.45593999997E+02  0.45594000000E+02  0.51100000000E-03 0.  1.
         11   -1    0    0    0    0 -0.00000000000E+00 -0.00000000000E+00 -0.45593999997E+02  0.45594000000E+02  0.51100000000E-03 0. -1.
    9900012    2    1    2    0    0 -0.36401346364E+01 -0.41325549692E+02 -0.12750360739E+02  0.47787270323E+02  0.19999996712E+02 0.  0.
         12    1    1    2    0    0  0.36401346364E+01  0.41325549692E+02  0.12750360739E+02  0.43400729677E+02  0.00000000000E+00 0. -1.
         11    1    3    3    0    0 -0.92757395460E+01 -0.17601791641E+02 -0.88524712828E+01  0.21776791802E+02  0.51100000000E-03 0. -1.
        -11    1    3    3    0    0  0.75415424303E+01 -0.15429474738E+02 -0.19903474451E+01  0.17288870296E+02  0.51100000000E-03 0.  1.
        -12    1    3    3    0    0 -0.19059375207E+01 -0.82942833130E+01 -0.19075420112E+01  0.87216082252E+01  0.00000000000E+00 0.  1.
</event>
<event>
 7    1  0.5467297E-010  0.4778726E+02  0.7816164E-02  0.1312668E+00
        -11   -1    0    0    0    0  0.00000000000E+00  0.00000000000E+00  0.45593999997E+02  0.45594000000E+02  0.51100000000E-03 0.  1.
         11   -1    0    0    0    0 -0.00000000000E+00 -0.00000000000E+00 -0.45593999997E+02  0.45594000000E+02  0.51100000000E-03 0. -1.
    9900012    2    1    2    0    0 -0.43195511199E+02  0.95162949046E+00  0.41068673851E+01  0.47787260995E+02  0.19999954181E+02 0.  0.
         12    1    1    2    0    0  0.43195511199E+02 -0.95162949046E+00 -0.41068673851E+01  0.43400739005E+02  0.00000000000E+00 0. -1.
         11    1    3    3    0    0 -0.18739654573E+02  0.37800118269E+01 -0.70517248985E+01  0.20376210817E+02  0.51100000000E-03 0. -1.
        -11    1    3    3    0    0 -0.20145475049E+02 -0.53246480692E+00  0.90675388044E+01  0.22098505469E+02  0.51100000000E-03 0.  1.
         12    1    3    3    0    0 -0.43103815768E+01 -0.22959175296E+01  0.20910534791E+01  0.53125447097E+01  0.00000000000E+00 0. -1.
</event>
<event>
 7    1  0.5467297E-010  0.4778727E+02  0.7816164E-02  0.1312668E+00
        -11   -1    0    0    0    0  0.00000000000E+00  0.00000000000E+00  0.45593999997E+02  0.45594000000E+02  0.51100000000E-03 0.  1.
         11   -1    0    0    0    0 -0.00000000000E+00 -0.00000000000E+00 -0.45593999997E+02  0.45594000000E+02  0.51100000000E-03 0. -1.
    9900012    2    1    2    0    0 -0.70440071458E+01 -0.89656548286E+00  0.42815899343E+02  0.47787273014E+02  0.20000008981E+02 0.  0.
         12    1    1    2    0    0  0.70440071458E+01  0.89656548286E+00 -0.42815899343E+02  0.43400726986E+02  0.00000000000E+00 0. -1.
         11    1    3    3    0    0  0.16160343790E+01  0.30611796221E+01 -0.38790371056E-01  0.34617759527E+01  0.51100000000E-03 0. -1.
        -11    1    3    3    0    0 -0.22644084083E+00 -0.20695701348E+01  0.38712174461E+01  0.43955341852E+01  0.51100000000E-03 0.  1.
         12    1    3    3    0    0 -0.84336006840E+01 -0.18881749702E+01  0.38983472268E+02  0.39929962876E+02  0.00000000000E+00 0. -1.
</event>
<event>
 7    1  0.5467297E-010  0.4778732E+02  0.7816164E-02  0.1312668E+00
        -11   -1    0    0    0    0  0.00000000000E+00  0.00000000000E+00  0.45593999997E+02  0.45594000000E+02  0.51100000000E-03 0. -1.
         11   -1    0    0    0    0 -0.00000000000E+00 -0.00000000000E+00 -0.45593999997E+02  0.45594000000E+02  0.51100000000E-03 0.  1.
    9900012    2    1    2    0    0  0.18360883143E+02 -0.25169743561E+02 -0.30215576123E+02  0.47787319578E+02  0.20000221282E+02 0.  0.
         12    1    1    2    0    0 -0.18360883143E+02  0.25169743561E+02  0.30215576123E+02  0.43400680422E+02  0.00000000000E+00 0. -1.
         11    1    3    3    0    0 -0.72767260904E+00 -0.47773437671E+01 -0.52204208657E+01  0.71137412921E+01  0.51100000000E-03 0. -1.
        -11    1    3    3    0    0  0.98797772239E+00 -0.10057867549E+02 -0.13522099733E+02  0.16881468569E+02  0.51100000000E-03 0.  1.
        -12    1    3    3    0    0  0.18100578029E+02 -0.10334532245E+02 -0.11473055524E+02  0.23792109717E+02  0.00000000000E+00 0.  1.
</event>
<event>
 7    1  0.5467297E-010  0.4778727E+02  0.7816164E-02  0.1312668E+00
        -11   -1    0    0    0    0  0.00000000000E+00  0.00000000000E+00  0.45593999997E+02  0.45594000000E+02  0.51100000000E-03 0. -1.
         11   -1    0    0    0    0 -0.00000000000E+00 -0.00000000000E+00 -0.45593999997E+02  0.45594000000E+02  0.51100000000E-03 0.  1.
    9900012    2    1    2    0    0  0.24160272016E+01 -0.39215664003E+02 -0.18436862805E+02  0.47787269583E+02  0.19999993338E+02 0.  0.
         12    1    1    2    0    0 -0.24160272016E+01  0.39215664003E+02  0.18436862805E+02  0.43400730417E+02  0.00000000000E+00 0. -1.
         11    1    3    3    0    0 -0.45495275368E+01 -0.40853882445E+01  0.12530448594E+00  0.61159054433E+01  0.51100000000E-03 0. -1.
        -11    1    3    3    0    0  0.32341372221E+00 -0.22024072035E+02 -0.14692763216E+02  0.26477190875E+02  0.51100000000E-03 0.  1.
         12    1    3    3    0    0  0.66421410162E+01 -0.13106203724E+02 -0.38694040745E+01  0.15194173265E+02  0.00000000000E+00 0. -1.
</event>
<event>
 7    1  0.5467297E-010  0.4778727E+02  0.7816164E-02  0.1312668E+00
        -11   -1    0    0    0    0  0.00000000000E+00  0.00000000000E+00  0.45593999997E+02  0.45594000000E+02  0.51100000000E-03 0.  1.
         11   -1    0    0    0    0 -0.00000000000E+00 -0.00000000000E+00 -0.45593999997E+02  0.45594000000E+02  0.51100000000E-03 0. -1.
    9900012    2    1    2    0    0 -0.12484431481E+02 -0.40137822528E+02  0.10803587730E+02  0.47787270346E+02  0.19999996817E+02 0.  0.
         12    1    1    2    0    0  0.12484431481E+02  0.40137822528E+02 -0.10803587730E+02  0.43400729654E+02  0.00000000000E+00 0. -1.
         11    1    3    3    0    0 -0.18233818734E+01  0.15238633766E+01  0.13057264784E+01  0.27114208350E+01  0.51100000000E-03 0. -1.
        -11    1    3    3    0    0 -0.24336498630E+01 -0.26636546094E+02  0.37615956928E+01  0.27010698656E+02  0.51100000000E-03 0.  1.
        -12    1    3    3    0    0 -0.82273997442E+01 -0.15025139811E+02  0.57362655585E+01  0.18065150856E+02  0.00000000000E+00 0.  1.
</event>
<event>
 7    1  0.5467297E-010  0.4778728E+02  0.7816164E-02  0.1312668E+00
        -11   -1    0    0    0    0  0.00000000000E+00  0.00000000000E+00  0.45593999997E+02  0.45594000000E+02  0.51100000000E-03 0.  1.
         11   -1    0    0    0    0 -0.00000000000E+00 -0.00000000000E+00 -0.45593999997E+02  0.45594000000E+02  0.51100000000E-03 0. -1.
    9900012    2    1    2    0    0  0.18507072599E+02 -0.59129753229E+01  0.38809121379E+02  0.47787275172E+02  0.20000018819E+02 0.  0.
         12    1    1    2    0    0 -0.18507072599E+02  0.59129753229E+01 -0.38809121379E+02  0.43400724828E+02  0.00000000000E+00 0. -1.
         11    1    3    3    0    0  0.81010898898E+01 -0.77638497982E+01  0.75718509664E+01  0.13536541228E+02  0.51100000000E-03 0.  1.
        -11    1    3    3    0    0  0.63902985772E+01 -0.89840857973E+00  0.27116623152E+02  0.27873900073E+02  0.51100000000E-03 0. -1.
         12    1    3    3    0    0  0.40156841322E+01  0.27492830551E+01  0.41206472611E+01  0.63768338709E+01  0.00000000000E+00 0. -1.
</event>
<event>
 7    1  0.5467297E-010  0.4778727E+02  0.7816164E-02  0.1312668E+00
        -11   -1    0    0    0    0  0.00000000000E+00  0.00000000000E+00  0.45593999997E+02  0.45594000000E+02  0.51100000000E-03 0.  1.
         11   -1    0    0    0    0 -0.00000000000E+00 -0.00000000000E+00 -0.45593999997E+02  0.45594000000E+02  0.51100000000E-03 0. -1.
    9900012    2    1    2    0    0 -0.41461479433E+02 -0.11113746839E+02  0.64073102811E+01  0.47787271082E+02  0.20000000170E+02 0.  0.
         12    1    1    2    0    0  0.41461479433E+02  0.11113746839E+02 -0.64073102811E+01  0.43400728918E+02  0.00000000000E+00 0. -1.
         11    1    3    3    0    0 -0.19032386822E+02 -0.86254543040E+01 -0.30555688080E+01  0.21117923929E+02  0.51100000000E-03 0. -1.
        -11    1    3    3    0    0 -0.21783883396E+02  0.32671121207E+00  0.70278990801E+01  0.22891825654E+02  0.51100000000E-03 0.  1.
        -12    1    3    3    0    0 -0.64520921546E+00 -0.28150037468E+01  0.24349800090E+01  0.37775214983E+01  0.00000000000E+00 0.  1.
</event>
<event>
 7    1  0.5467297E-010  0.4778727E+02  0.7816164E-02  0.1312668E+00
        -11   -1    0    0    0    0  0.00000000000E+00  0.00000000000E+00  0.45593999997E+02  0.45594000000E+02  0.51100000000E-03 0. -1.
         11   -1    0    0    0    0 -0.00000000000E+00 -0.00000000000E+00 -0.45593999997E+02  0.45594000000E+02  0.51100000000E-03 0.  1.
    9900012    2    1    2    0    0 -0.20644277493E+02 -0.82163801673E+01 -0.37281735958E+02  0.47787274980E+02  0.20000017942E+02 0.  0.
         12    1    1    2    0    0  0.20644277493E+02  0.82163801673E+01  0.37281735958E+02  0.43400725020E+02  0.00000000000E+00 0. -1.
         11    1    3    3    0    0 -0.53486110708E+01 -0.22790791736E+01 -0.15033018951E+01  0.60051443876E+01  0.51100000000E-03 0. -1.
        -11    1    3    3    0    0 -0.11104986912E+01 -0.14227634927E+01  0.10295732827E+01  0.20778557950E+01  0.51100000000E-03 0.  1.
        -12    1    3    3    0    0 -0.14185167731E+02 -0.45145375010E+01 -0.36808007346E+02  0.39704274797E+02  0.00000000000E+00 0.  1.
</event>
<event>
 7    1  0.5467297E-010  0.4778728E+02  0.7816164E-02  0.1312668E+00
        -11   -1    0    0    0    0  0.00000000000E+00  0.00000000000E+00  0.45593999997E+02  0.45594000000E+02  0.51100000000E-03 0.  1.
         11   -1    0    0    0    0 -0.00000000000E+00 -0.00000000000E+00 -0.45593999997E+02  0.45594000000E+02  0.51100000000E-03 0. -1.
    9900012    2    1    2    0    0 -0.18745190863E+02 -0.30454687998E+02  0.24591716071E+02  0.47787277646E+02  0.20000030099E+02 0.  0.
         12    1    1    2    0    0  0.18745190863E+02  0.30454687998E+02 -0.24591716071E+02  0.43400722354E+02  0.00000000000E+00 0. -1.
         11    1    3    3    0    0 -0.35675403976E+01  0.15297255043E+01  0.10432163193E+01  0.40194160219E+01  0.51100000000E-03 0. -1.
        -11    1    3    3    0    0 -0.13207133372E+02 -0.31331519832E+02  0.24031449874E+02  0.41636559538E+02  0.51100000000E-03 0.  1.
        -12    1    3    3    0    0 -0.19705170933E+01 -0.65289367085E+00 -0.48295012261E+00  0.21313020859E+01  0.00000000000E+00 0.  1.
</event>
<event>
 7    1  0.5467297E-010  0.4778727E+02  0.7816164E-02  0.1312668E+00
        -11   -1    0    0    0    0  0.00000000000E+00  0.00000000000E+00  0.45593999997E+02  0.45594000000E+02  0.51100000000E-03 0. -1.
         11   -1    0    0    0    0 -0.00000000000E+00 -0.00000000000E+00 -0.45593999997E+02  0.45594000000E+02  0.51100000000E-03 0.  1.
    9900012    2    1    2    0    0  0.14985506629E+01  0.74123474255E+01 -0.42736806999E+02  0.47787271655E+02  0.20000002782E+02 0.  0.
         12    1    1    2    0    0 -0.14985506629E+01 -0.74123474255E+01  0.42736806999E+02  0.43400728345E+02  0.00000000000E+00 0. -1.
         11    1    3    3    0    0  0.30430500592E+01 -0.26199257087E+01 -0.26505923399E+02  0.26808359514E+02  0.51100000000E-03 0. -1.
        -11    1    3    3    0    0  0.52800940573E+00  0.10554424237E+02 -0.10652062489E+02  0.15004702611E+02  0.51100000000E-03 0.  1.
         12    1    3    3    0    0 -0.20725088020E+01 -0.52215110288E+00 -0.55788211109E+01  0.59742095290E+01  0.00000000000E+00 0. -1.
</event>
<event>
 7    1  0.5467297E-010  0.4778726E+02  0.7816164E-02  0.1312668E+00
        -11   -1    0    0    0    0  0.00000000000E+00  0.00000000000E+00  0.45593999997E+02  0.45594000000E+02  0.51100000000E-03 0. -1.
         11   -1    0    0    0    0 -0.00000000000E+00 -0.00000000000E+00 -0.45593999997E+02  0.45594000000E+02  0.51100000000E-03 0.  1.
    9900012    2    1    2    0    0 -0.11658502755E+02  0.23576464615E+02 -0.34523233294E+02  0.47787262595E+02  0.19999961475E+02 0.  0.
         12    1    1    2    0    0  0.11658502755E+02 -0.23576464615E+02  0.34523233294E+02  0.43400737405E+02  0.00000000000E+00 0. -1.
         11    1    3    3    0    0 -0.37503694416E+01  0.75361444708E+00 -0.91915191478E+01  0.99557636668E+01  0.51100000000E-03 0. -1.
        -11    1    3    3    0    0 -0.64709921001E+01  0.14068188586E+02 -0.60837257810E+01  0.16637289097E+02  0.51100000000E-03 0.  1.
        -12    1    3    3    0    0 -0.14371412136E+01  0.87546615825E+01 -0.19247988365E+02  0.21194209832E+02  0.00000000000E+00 0.  1.
</event>
<event>
 7    1  0.5467297E-010  0.4778727E+02  0.7816164E-02  0.1312668E+00
        -11   -1    0    0    0    0  0.00000000000E+00  0.00000000000E+00  0.45593999997E+02  0.45594000000E+02  0.51100000000E-03 0. -1.
         11   -1    0    0    0    0 -0.00000000000E+00 -0.00000000000E+00 -0.45593999997E+02  0.45594000000E+02  0.51100000000E-03 0.  1.
    9900012    2    1    2    0    0 -0.42905557711E+02 -0.64835846301E+01  0.83631678854E+00  0.47787272150E+02  0.20000005041E+02 0.  0.
         12    1    1    2    0    0  0.42905557711E+02  0.64835846301E+01 -0.83631678854E+00  0.43400727850E+02  0.00000000000E+00 0. -1.
         11    1    3    3    0    0 -0.21160668347E+02 -0.34182486769E+00  0.98225901627E+01  0.23331823909E+02  0.51100000000E-03 0. -1.
        -11    1    3    3    0    0 -0.59010689143E+01 -0.19579225166E+01 -0.37093417231E+01  0.72398405502E+01  0.51100000000E-03 0.  1.
         12    1    3    3    0    0 -0.15843820449E+02 -0.41838372457E+01 -0.52769316511E+01  0.17215607691E+02  0.00000000000E+00 0. -1.
</event>
<event>
 7    1  0.7756569E-010  0.4778727E+02  0.7816164E-02  0.1312668E+00
        -11   -1    0    0    0    0  0.00000000000E+00  0.00000000000E+00  0.45593999997E+02  0.45594000000E+02  0.51100000000E-03 0. -1.
         11   -1    0    0    0    0 -0.00000000000E+00 -0.00000000000E+00 -0.45593999997E+02  0.45594000000E+02  0.51100000000E-03 0.  1.
    9900012    2    1    2    0    0  0.36282444186E+01 -0.25547760628E+02 -0.34896578405E+02  0.47787269418E+02  0.19999992583E+02 0.  0.
         12    1    1    2    0    0 -0.36282444186E+01  0.25547760628E+02  0.34896578405E+02  0.43400730582E+02  0.00000000000E+00 0. -1.
         11    1    3    3    0    0  0.47793070852E+01  0.64375375068E-01 -0.26785231727E+01  0.54790881587E+01  0.51100000000E-03 0. -1.
        -11    1    3    3    0    0 -0.76449234696E+00 -0.25602132184E+02 -0.27523884392E+02  0.37598109437E+02  0.51100000000E-03 0.  1.
        -12    1    3    3    0    0 -0.38657031965E+00 -0.10003819067E-01 -0.46941708406E+01  0.47100718221E+01  0.00000000000E+00 0.  1.
</event>
<event>
 7    1  0.5467297E-010  0.4778726E+02  0.7816164E-02  0.1312668E+00
        -11   -1    0    0    0    0  0.00000000000E+00  0.00000000000E+00  0.45593999997E+02  0.45594000000E+02  0.51100000000E-03 0.  1.
         11   -1    0    0    0    0 -0.00000000000E+00 -0.00000000000E+00 -0.45593999997E+02  0.45594000000E+02  0.51100000000E-03 0. -1.
    9900012    2    1    2    0    0 -0.26345164391E+02 -0.13232073574E+02  0.31850721431E+02  0.47787263675E+02  0.19999966402E+02 0.  0.
         12    1    1    2    0    0  0.26345164391E+02  0.13232073574E+02 -0.31850721431E+02  0.43400736325E+02  0.00000000000E+00 0. -1.
         11    1    3    3    0    0 -0.17671965260E+02 -0.66197981091E+01  0.28454828658E+02  0.34143774797E+02  0.51100000000E-03 0. -1.
        -11    1    3    3    0    0 -0.88426614143E+01 -0.77570142712E+01  0.38841093789E+01  0.12387503268E+02  0.51100000000E-03 0.  1.
         12    1    3    3    0    0  0.16946228376E+00  0.11447388059E+01 -0.48821660599E+00  0.12559856105E+01  0.00000000000E+00 0. -1.
</event>
<event>
 7    1  0.5467297E-010  0.4778725E+02  0.7816164E-02  0.1312668E+00
        -11   -1    0    0    0    0  0.00000000000E+00  0.00000000000E+00  0.45593999997E+02  0.45594000000E+02  0.51100000000E-03 0.  1.
         11   -1    0    0    0    0 -0.00000000000E+00 -0.00000000000E+00 -0.45593999997E+02  0.45594000000E+02  0.51100000000E-03 0. -1.
    9900012    2    1    2    0    0  0.17612135309E+02  0.32897267402E+02  0.22163197269E+02  0.47787253164E+02  0.19999918478E+02 0.  0.
         12    1    1    2    0    0 -0.17612135309E+02 -0.32897267402E+02 -0.22163197269E+02  0.43400746836E+02  0.00000000000E+00 0. -1.
         11    1    3    3    0    0  0.89595912537E+01  0.11545280873E+02  0.35454698613E+01  0.15037890233E+02  0.51100000000E-03 0. -1.
        -11    1    3    3    0    0  0.10804626066E+02  0.12098508400E+02  0.16245710582E+02  0.22957285609E+02  0.51100000000E-03 0.  1.
        -12    1    3    3    0    0 -0.21520820103E+01  0.92534781296E+01  0.23720168253E+01  0.97920773227E+01  0.00000000000E+00 0.  1.
</event>
<event>
 7    1  0.5467297E-010  0.4778727E+02  0.7816164E-02  0.1312668E+00
        -11   -1    0    0    0    0  0.00000000000E+00  0.00000000000E+00  0.45593999997E+02  0.45594000000E+02  0.51100000000E-03 0.  1.
         11   -1    0    0    0    0 -0.00000000000E+00 -0.00000000000E+00 -0.45593999997E+02  0.45594000000E+02  0.51100000000E-03 0. -1.
    9900012    2    1    2    0    0 -0.39992870407E+02 -0.13450279896E+02 -0.10162861444E+02  0.47787268838E+02  0.19999989938E+02 0.  0.
         12    1    1    2    0    0  0.39992870407E+02  0.13450279896E+02  0.10162861444E+02  0.43400731162E+02  0.00000000000E+00 0. -1.
         11    1    3    3    0    0 -0.85100257639E+01 -0.11217257224E+02 -0.35809785599E+01  0.14528276079E+02  0.51100000000E-03 0. -1.
        -11    1    3    3    0    0 -0.60810248756E+01  0.21596143229E+01  0.64784387449E+00  0.64855608476E+01  0.51100000000E-03 0.  1.
         12    1    3    3    0    0 -0.25401819768E+02 -0.43926369956E+01 -0.72297267590E+01  0.26773431911E+02  0.00000000000E+00 0. -1.
</event>
<event>
 7    1  0.5467297E-010  0.4778727E+02  0.7816164E-02  0.1312668E+00
        -11   -1    0    0    0    0  0.00000000000E+00  0.00000000000E+00  0.45593999997E+02  0.45594000000E+02  0.51100000000E-03 0. -1.
         11   -1    0    0    0    0 -0.00000000000E+00 -0.00000000000E+00 -0.45593999997E+02  0.45594000000E+02  0.51100000000E-03 0.  1.
    9900012    2    1    2    0    0  0.42891028585E+02  0.55161325729E+01 -0.36817554376E+01  0.47787269882E+02  0.19999994700E+02 0.  0.
         12    1    1    2    0    0 -0.42891028585E+02 -0.55161325729E+01  0.36817554376E+01  0.43400730118E+02  0.00000000000E+00 0. -1.
         11    1    3    3    0    0  0.36630615869E+01 -0.50940114499E+00 -0.52363682774E+01  0.64106990815E+01  0.51100000000E-03 0. -1.
        -11    1    3    3    0    0  0.25843220091E+02  0.21213977164E+01  0.62353855077E+01  0.26669315433E+02  0.51100000000E-03 0.  1.
        -12    1    3    3    0    0  0.13384746907E+02  0.39041360014E+01 -0.46807726680E+01  0.14707255368E+02  0.00000000000E+00 0.  1.
</event>
<event>
 7    1  0.5467297E-010  0.4778727E+02  0.7816164E-02  0.1312668E+00
        -11   -1    0    0    0    0  0.00000000000E+00  0.00000000000E+00  0.45593999997E+02  0.45594000000E+02  0.51100000000E-03 0.  1.
         11   -1    0    0    0    0 -0.00000000000E+00 -0.00000000000E+00 -0.45593999997E+02  0.45594000000E+02  0.51100000000E-03 0. -1.
    9900012    2    1    2    0    0 -0.20015862825E+02 -0.37665978665E+02  0.80163803345E+01  0.47787273426E+02  0.20000010860E+02 0.  0.
         12    1    1    2    0    0  0.20015862825E+02  0.37665978665E+02 -0.80163803345E+01  0.43400726574E+02  0.00000000000E+00 0. -1.
         11    1    3    3    0    0 -0.14631325556E+02 -0.27260699990E+02  0.11183823800E+02  0.32898318597E+02  0.51100000000E-03 0.  1.
        -11    1    3    3    0    0 -0.15153305801E+01 -0.86228672357E+01 -0.51851568307E+01  0.10175260083E+02  0.51100000000E-03 0. -1.
         12    1    3    3    0    0 -0.38692066884E+01 -0.17824114402E+01  0.20177133654E+01  0.47136947467E+01  0.00000000000E+00 0. -1.
</event>
<event>
 7    1  0.5467297E-010  0.4778727E+02  0.7816164E-02  0.1312668E+00
        -11   -1    0    0    0    0  0.00000000000E+00  0.00000000000E+00  0.45593999997E+02  0.45594000000E+02  0.51100000000E-03 0. -1.
         11   -1    0    0    0    0 -0.00000000000E+00 -0.00000000000E+00 -0.45593999997E+02  0.45594000000E+02  0.51100000000E-03 0.  1.
    9900012    2    1    2    0    0  0.40866920170E+02 -0.13826513892E+02 -0.47270798434E+01  0.47787274955E+02  0.20000017829E+02 0.  0.
         12    1    1    2    0    0 -0.40866920170E+02  0.13826513892E+02  0.47270798434E+01  0.43400725045E+02  0.00000000000E+00 0. -1.
         11    1    3    3    0    0  0.70420718287E+01 -0.44384000246E+01  0.43863580426E+01  0.94090545518E+01  0.51100000000E-03 0. -1.
        -11    1    3    3    0    0  0.33465083709E+02 -0.61570445615E+01 -0.81887688315E+01  0.34998242251E+02  0.51100000000E-03 0.  1.
        -12    1    3    3    0    0  0.35976463218E+00 -0.32310693058E+01 -0.92466905454E+00  0.33799781523E+01  0.00000000000E+00 0.  1.
</event>
<event>
 7    1  0.5467297E-010  0.4778727E+02  0.7816164E-02  0.1312668E+00
        -11   -1    0    0    0    0  0.00000000000E+00  0.00000000000E+00  0.45593999997E+02  0.45594000000E+02  0.51100000000E-03 0.  1.
         11   -1    0    0    0    0 -0.00000000000E+00 -0.00000000000E+00 -0.45593999997E+02  0.45594000000E+02  0.51100000000E-03 0. -1.
    9900012    2    1    2    0    0 -0.10437023753E+02  0.41656730290E+02  0.62776425260E+01  0.47787269142E+02  0.19999991327E+02 0.  0.
         12    1    1    2    0    0  0.10437023753E+02 -0.41656730290E+02 -0.62776425260E+01  0.43400730858E+02  0.00000000000E+00 0. -1.
         11    1    3    3    0    0 -0.37592670417E+01  0.37608744257E+01  0.76012351835E+01  0.92765856711E+01  0.51100000000E-03 0. -1.
        -11    1    3    3    0    0 -0.16472239797E+01  0.91579773604E+01 -0.65937214416E+00  0.93282725120E+01  0.51100000000E-03 0.  1.
         12    1    3    3    0    0 -0.50305327318E+01  0.28737878504E+02 -0.66422051332E+00  0.29182410959E+02  0.00000000000E+00 0. -1.
</event>
<event>
 7    1  0.5467297E-010  0.4778727E+02  0.7816164E-02  0.1312668E+00
        -11   -1    0    0    0    0  0.00000000000E+00  0.00000000000E+00  0.45593999997E+02  0.45594000000E+02  0.51100000000E-03 0.  1.
         11   -1    0    0    0    0 -0.00000000000E+00 -0.00000000000E+00 -0.45593999997E+02  0.45594000000E+02  0.51100000000E-03 0. -1.
    9900012    2    1    2    0    0  0.68811861321E+01  0.29302818609E+02  0.31266871739E+02  0.47787272248E+02  0.20000005488E+02 0.  0.
         12    1    1    2    0    0 -0.68811861321E+01 -0.29302818609E+02 -0.31266871739E+02  0.43400727752E+02  0.00000000000E+00 0. -1.
         11    1    3    3    0    0  0.45214560812E+01  0.75171503266E+01  0.30532839862E+01  0.92883613996E+01  0.51100000000E-03 0. -1.
        -11    1    3    3    0    0 -0.10164210173E+00  0.18693508741E+02  0.12973101793E+02  0.22754317624E+02  0.51100000000E-03 0.  1.
        -12    1    3    3    0    0  0.24613721526E+01  0.30921595420E+01  0.15240485960E+02  0.15744593224E+02  0.00000000000E+00 0.  1.
</event>
<event>
 7    1  0.5467297E-010  0.4778727E+02  0.7816164E-02  0.1312668E+00
        -11   -1    0    0    0    0  0.00000000000E+00  0.00000000000E+00  0.45593999997E+02  0.45594000000E+02  0.51100000000E-03 0.  1.
         11   -1    0    0    0    0 -0.00000000000E+00 -0.00000000000E+00 -0.45593999997E+02  0.45594000000E+02  0.51100000000E-03 0. -1.
    9900012    2    1    2    0    0  0.36669056206E+02 -0.21706838560E+02  0.82351231433E+01  0.47787265254E+02  0.19999973599E+02 0.  0.
         12    1    1    2    0    0 -0.36669056206E+02  0.21706838560E+02 -0.82351231433E+01  0.43400734746E+02  0.00000000000E+00 0. -1.
         11    1    3    3    0    0  0.30984337832E+02 -0.19131062674E+02  0.64152562155E+01  0.36975427820E+02  0.51100000000E-03 0. -1.
        -11    1    3    3    0    0  0.64746862850E+01 -0.15324958543E+01  0.43597070438E+01  0.79546936963E+01  0.51100000000E-03 0.  1.
         12    1    3    3    0    0 -0.78996791056E+00 -0.10432800318E+01 -0.25398401160E+01  0.28571437380E+01  0.00000000000E+00 0. -1.
</event>
<event>
 7    1  0.5467297E-010  0.4778728E+02  0.7816164E-02  0.1312668E+00
        -11   -1    0    0    0    0  0.00000000000E+00  0.00000000000E+00  0.45593999997E+02  0.45594000000E+02  0.51100000000E-03 0.  1.
         11   -1    0    0    0    0 -0.00000000000E+00 -0.00000000000E+00 -0.45593999997E+02  0.45594000000E+02  0.51100000000E-03 0. -1.
    9900012    2    1    2    0    0 -0.26034045047E+02 -0.34245501838E+02  0.57529591672E+01  0.47787280688E+02  0.20000043968E+02 0.  0.
         12    1    1    2    0    0  0.26034045047E+02  0.34245501838E+02 -0.57529591672E+01  0.43400719312E+02  0.00000000000E+00 0. -1.
         11    1    3    3    0    0 -0.53055022400E+00 -0.59899376242E+01  0.65358377821E+00  0.60488022202E+01  0.51100000000E-03 0. -1.
        -11    1    3    3    0    0 -0.32813493021E+01  0.20088906925E+01  0.34254358107E-02  0.38474546198E+01  0.51100000000E-03 0.  1.
        -12    1    3    3    0    0 -0.22222145521E+02 -0.30264454906E+02  0.50959499532E+01  0.37891023848E+02  0.00000000000E+00 0.  1.
</event>
<event>
 7    1  0.5467297E-010  0.4778725E+02  0.7816164E-02  0.1312668E+00
        -11   -1    0    0    0    0  0.00000000000E+00  0.00000000000E+00  0.45593999997E+02  0.45594000000E+02  0.51100000000E-03 0. -1.
         11   -1    0    0    0    0 -0.00000000000E+00 -0.00000000000E+00 -0.45593999997E+02  0.45594000000E+02  0.51100000000E-03 0.  1.
    9900012    2    1    2    0    0  0.29820669499E+01 -0.42305263105E+02 -0.92193745891E+01  0.47787252570E+02  0.19999915769E+02 0.  0.
         12    1    1    2    0    0 -0.29820669499E+01  0.42305263105E+02  0.92193745891E+01  0.43400747430E+02  0.00000000000E+00 0. -1.
         11    1    3    3    0    0  0.79811004988E+01 -0.83094225884E+01 -0.59360741523E+01  0.12960765623E+02  0.51100000000E-03 0. -1.
        -11    1    3    3    0    0 -0.12732012059E+01 -0.21260637912E+02 -0.71206040399E+00  0.21310626364E+02  0.51100000000E-03 0.  1.
         12    1    3    3    0    0 -0.37258323430E+01 -0.12735202604E+02 -0.25712400328E+01  0.13515860583E+02  0.00000000000E+00 0. -1.
</event>
<event>
 7    1  0.5467297E-010  0.4778727E+02  0.7816164E-02  0.1312668E+00
        -11   -1    0    0    0    0  0.00000000000E+00  0.00000000000E+00  0.45593999997E+02  0.45594000000E+02  0.51100000000E-03 0. -1.
         11   -1    0    0    0    0 -0.00000000000E+00 -0.00000000000E+00 -0.45593999997E+02  0.45594000000E+02  0.51100000000E-03 0.  1.
    9900012    2    1    2    0    0 -0.42370064720E+01  0.36147644750E+02 -0.23643585662E+02  0.47787267428E+02  0.19999983511E+02 0.  0.
         12    1    1    2    0    0  0.42370064720E+01 -0.36147644750E+02  0.23643585662E+02  0.43400732572E+02  0.00000000000E+00 0. -1.
         11    1    3    3    0    0 -0.60908607221E+01  0.19139624633E+02 -0.10750960788E+02  0.22781724552E+02  0.51100000000E-03 0.  1.
        -11    1    3    3    0    0  0.70528382426E+01  0.71041045236E+01 -0.42741692125E+01  0.10884822051E+02  0.51100000000E-03 0. -1.
         12    1    3    3    0    0 -0.51989839926E+01  0.99039155934E+01 -0.86184556609E+01  0.14120720825E+02  0.00000000000E+00 0. -1.
</event>
<event>
 7    1  0.5467297E-010  0.4778727E+02  0.7816164E-02  0.1312668E+00
        -11   -1    0    0    0    0  0.00000000000E+00  0.00000000000E+00  0.45593999997E+02  0.45594000000E+02  0.51100000000E-03 0.  1.
         11   -1    0    0    0    0 -0.00000000000E+00 -0.00000000000E+00 -0.45593999997E+02  0.45594000000E+02  0.51100000000E-03 0. -1.
    9900012    2    1    2    0    0  0.40557962768E+02 -0.14740957529E+02  0.46237392038E+01  0.47787272621E+02  0.20000007189E+02 0.  0.
         12    1    1    2    0    0 -0.40557962768E+02  0.14740957529E+02 -0.46237392038E+01  0.43400727379E+02  0.00000000000E+00 0. -1.
         11    1    3    3    0    0  0.18092265384E+02 -0.10156082386E+02  0.71424159263E+00  0.20760207549E+02  0.51100000000E-03 0. -1.
        -11    1    3    3    0    0  0.19126498633E+02  0.12963939023E+01 -0.88584686464E-01  0.19170587748E+02  0.51100000000E-03 0.  1.
        -12    1    3    3    0    0  0.33391987516E+01 -0.58812690457E+01  0.39980822976E+01  0.78564773244E+01  0.00000000000E+00 0.  1.
</event>
<event>
 7    1  0.5467297E-010  0.4778727E+02  0.7816164E-02  0.1312668E+00
        -11   -1    0    0    0    0  0.00000000000E+00  0.00000000000E+00  0.45593999997E+02  0.45594000000E+02  0.51100000000E-03 0. -1.
         11   -1    0    0    0    0 -0.00000000000E+00 -0.00000000000E+00 -0.45593999997E+02  0.45594000000E+02  0.51100000000E-03 0.  1.
    9900012    2    1    2    0    0 -0.11417940531E+02 -0.26463095056E+02  0.32449329335E+02  0.47787265672E+02  0.19999975505E+02 0.  0.
         12    1    1    2    0    0  0.11417940531E+02  0.26463095056E+02 -0.32449329335E+02  0.43400734328E+02  0.00000000000E+00 0. -1.
         11    1    3    3    0    0 -0.13975712585E+02 -0.16833362669E+02  0.29053583494E+02  0.36370226217E+02  0.51100000000E-03 0. -1.
        -11    1    3    3    0    0  0.19999410083E+01 -0.92768846391E+01  0.41989196617E+01  0.10377440881E+02  0.51100000000E-03 0.  1.
         12    1    3    3    0    0  0.55783104567E+00 -0.35284774809E+00 -0.80317382062E+00  0.10395985740E+01  0.00000000000E+00 0. -1.
</event>
<event>
 7    1 -0.5467297E-010  0.4778727E+02  0.7816164E-02  0.1312668E+00
        -11   -1    0    0    0    0  0.00000000000E+00  0.00000000000E+00  0.45593999997E+02  0.45594000000E+02  0.51100000000E-03 0.  1.
         11   -1    0    0    0    0 -0.00000000000E+00 -0.00000000000E+00 -0.45593999997E+02  0.45594000000E+02  0.51100000000E-03 0. -1.
    9900012    2    1    2    0    0 -0.12494456453E+02 -0.72500666149E+01  0.40926136833E+02  0.47787267471E+02  0.19999983707E+02 0.  0.
         12    1    1    2    0    0  0.12494456453E+02  0.72500666149E+01 -0.40926136833E+02  0.43400732529E+02  0.00000000000E+00 0. -1.
         11    1    3    3    0    0 -0.42320980748E+01  0.13938227486E+01  0.46044920913E+01  0.64073975723E+01  0.51100000000E-03 0. -1.
        -11    1    3    3    0    0 -0.70741304129E+01 -0.11205933749E+02  0.15609859697E+02  0.20476425282E+02  0.51100000000E-03 0.  1.
        -12    1    3    3    0    0 -0.11882279650E+01  0.25620443852E+01  0.20711785044E+02  0.20903444617E+02  0.00000000000E+00 0.  1.
</event>
<event>
 7    1  0.5467297E-010  0.4778727E+02  0.7816164E-02  0.1312668E+00
        -11   -1    0    0    0    0  0.00000000000E+00  0.00000000000E+00  0.45593999997E+02  0.45594000000E+02  0.51100000000E-03 0. -1.
         11   -1    0    0    0    0 -0.00000000000E+00 -0.00000000000E+00 -0.45593999997E+02  0.45594000000E+02  0.51100000000E-03 0.  1.
    9900012    2    1    2    0    0  0.42856947352E+02 -0.40392020659E+00 -0.68368142828E+01  0.47787272847E+02  0.20000008219E+02 0.  0.
         12    1    1    2    0    0 -0.42856947352E+02  0.40392020659E+00  0.68368142828E+01  0.43400727153E+02  0.00000000000E+00 0. -1.
         11    1    3    3    0    0  0.33039633117E+01 -0.35156823255E+01 -0.13167527026E+01  0.50010032713E+01  0.51100000000E-03 0. -1.
        -11    1    3    3    0    0  0.39847026711E+02  0.51861606638E+01 -0.60220252599E+01  0.40631842053E+02  0.51100000000E-03 0.  1.
        -12    1    3    3    0    0 -0.29404267037E+00 -0.20743985449E+01  0.50196367972E+00  0.21544275228E+01  0.00000000000E+00 0.  1.
</event>
<event>
 7    1  0.5467297E-010  0.4778727E+02  0.7816164E-02  0.1312668E+00
        -11   -1    0    0    0    0  0.00000000000E+00  0.00000000000E+00  0.45593999997E+02  0.45594000000E+02  0.51100000000E-03 0.  1.
         11   -1    0    0    0    0 -0.00000000000E+00 -0.00000000000E+00 -0.45593999997E+02  0.45594000000E+02  0.51100000000E-03 0. -1.
    9900012    2    1    2    0    0  0.13576970173E+02 -0.16307037419E+02  0.37859870740E+02  0.47787269580E+02  0.19999993324E+02 0.  0.
         12    1    1    2    0    0 -0.13576970173E+02  0.16307037419E+02 -0.37859870740E+02  0.43400730420E+02  0.00000000000E+00 0. -1.
         11    1    3    3    0    0  0.11303232293E+02 -0.21530186329E+01  0.66989528326E+01  0.13314447747E+02  0.51100000000E-03 0. -1.
        -11    1    3    3    0    0  0.24679033361E+01 -0.12492976830E+02  0.24581654614E+02  0.27684341436E+02  0.51100000000E-03 0.  1.
         12    1    3    3    0    0 -0.19416545558E+00 -0.16610419568E+01  0.65792632939E+01  0.67884803968E+01  0.00000000000E+00 0. -1.
</event>
<event>
 7    1  0.5467297E-010  0.4778727E+02  0.7816164E-02  0.1312668E+00
        -11   -1    0    0    0    0  0.00000000000E+00  0.00000000000E+00  0.45593999997E+02  0.45594000000E+02  0.51100000000E-03 0. -1.
         11   -1    0    0    0    0 -0.00000000000E+00 -0.00000000000E+00 -0.45593999997E+02  0.45594000000E+02  0.51100000000E-03 0.  1.
    9900012    2    1    2    0    0  0.28317175623E+02 -0.16235141828E+02 -0.28603865455E+02  0.47787269771E+02  0.19999994192E+02 0.  0.
         12    1    1    2    0    0 -0.28317175623E+02  0.16235141828E+02  0.28603865455E+02  0.43400730229E+02  0.00000000000E+00 0. -1.
         11    1    3    3    0    0 -0.17327915590E+01 -0.35034740128E+01 -0.76706801898E+00  0.39831257012E+01  0.51100000000E-03 0. -1.
        -11    1    3    3    0    0  0.16105863619E+02 -0.69545892950E+01 -0.20623164256E+02  0.27075451232E+02  0.51100000000E-03 0.  1.
         12    1    3    3    0    0  0.13944103563E+02 -0.57770785203E+01 -0.72136331798E+01  0.16728692838E+02  0.00000000000E+00 0. -1.
</event>
<event>
 7    1  0.5467297E-010  0.4778727E+02  0.7816164E-02  0.1312668E+00
        -11   -1    0    0    0    0  0.00000000000E+00  0.00000000000E+00  0.45593999997E+02  0.45594000000E+02  0.51100000000E-03 0.  1.
         11   -1    0    0    0    0 -0.00000000000E+00 -0.00000000000E+00 -0.45593999997E+02  0.45594000000E+02  0.51100000000E-03 0. -1.
    9900012    2    1    2    0    0  0.14544108077E+02 -0.32483170722E+02  0.24838192725E+02  0.47787270999E+02  0.19999999795E+02 0.  0.
         12    1    1    2    0    0 -0.14544108077E+02  0.32483170722E+02 -0.24838192725E+02  0.43400729001E+02  0.00000000000E+00 0. -1.
         11    1    3    3    0    0  0.72294371519E+00  0.86019038583E+00 -0.17402780662E+01  0.20715074520E+01  0.51100000000E-03 0. -1.
        -11    1    3    3    0    0  0.33031267798E+01 -0.52030170810E+01  0.90034749818E+01  0.10910755944E+02  0.51100000000E-03 0.  1.
         12    1    3    3    0    0  0.10518037582E+02 -0.28140344027E+02  0.17574995810E+02  0.34805007603E+02  0.00000000000E+00 0. -1.
</event>
<event>
 7    1  0.5940262E-010  0.4778727E+02  0.7816164E-02  0.1312668E+00
        -11   -1    0    0    0    0  0.00000000000E+00  0.00000000000E+00  0.45593999997E+02  0.45594000000E+02  0.51100000000E-03 0.  1.
         11   -1    0    0    0    0 -0.00000000000E+00 -0.00000000000E+00 -0.45593999997E+02  0.45594000000E+02  0.51100000000E-03 0. -1.
    9900012    2    1    2    0    0 -0.39541961253E+02  0.12861093429E+02  0.12435784541E+02  0.47787272344E+02  0.20000005924E+02 0.  0.
         12    1    1    2    0    0  0.39541961253E+02 -0.12861093429E+02 -0.12435784541E+02  0.43400727656E+02  0.00000000000E+00 0. -1.
         11    1    3    3    0    0 -0.39152709545E-01  0.39086691159E+00 -0.20112377103E+01  0.20492406559E+01  0.51100000000E-03 0. -1.
        -11    1    3    3    0    0 -0.31461050913E+02  0.75149734978E+01  0.56611497138E+01  0.32837800894E+02  0.51100000000E-03 0.  1.
        -12    1    3    3    0    0 -0.80417576306E+01  0.49552530194E+01  0.87858725374E+01  0.12900230793E+02  0.00000000000E+00 0.  1.
</event>
<event>
 7    1  0.5467297E-010  0.4778727E+02  0.7816164E-02  0.1312668E+00
        -11   -1    0    0    0    0  0.00000000000E+00  0.00000000000E+00  0.45593999997E+02  0.45594000000E+02  0.51100000000E-03 0.  1.
         11   -1    0    0    0    0 -0.00000000000E+00 -0.00000000000E+00 -0.45593999997E+02  0.45594000000E+02  0.51100000000E-03 0. -1.
    9900012    2    1    2    0    0  0.15474297406E+02  0.38976681933E+02  0.11179790337E+02  0.47787270436E+02  0.19999997228E+02 0.  0.
         12    1    1    2    0    0 -0.15474297406E+02 -0.38976681933E+02 -0.11179790337E+02  0.43400729564E+02  0.00000000000E+00 0. -1.
         11    1    3    3    0    0 -0.17923287834E+00 -0.13047447307E+00 -0.25398398239E+00  0.33712925894E+00  0.51100000000E-03 0. -1.
        -11    1    3    3    0    0  0.11711754402E+02  0.37661347881E+02  0.14741364025E+02  0.42105226860E+02  0.51100000000E-03 0.  1.
        -12    1    3    3    0    0  0.39417758820E+01  0.14458085250E+01 -0.33075897060E+01  0.53449143172E+01  0.00000000000E+00 0.  1.
</event>
<event>
 7    1  0.5467297E-010  0.4778728E+02  0.7816164E-02  0.1312668E+00
        -11   -1    0    0    0    0  0.00000000000E+00  0.00000000000E+00  0.45593999997E+02  0.45594000000E+02  0.51100000000E-03 0.  1.
         11   -1    0    0    0    0 -0.00000000000E+00 -0.00000000000E+00 -0.45593999997E+02  0.45594000000E+02  0.51100000000E-03 0. -1.
    9900012    2    1    2    0    0  0.10035953620E+02 -0.42870683419E+01  0.42006230679E+02  0.47787277243E+02  0.20000028260E+02 0.  0.
         12    1    1    2    0    0 -0.10035953620E+02  0.42870683419E+01 -0.42006230679E+02  0.43400722757E+02  0.00000000000E+00 0. -1.
         11    1    3    3    0    0 -0.48260808494E+01 -0.39823581956E+00  0.16684736888E+02  0.17373257997E+02  0.51100000000E-03 0. -1.
        -11    1    3    3    0    0  0.12239913156E+02 -0.48869251834E+01  0.23841887421E+02  0.27242120106E+02  0.51100000000E-03 0.  1.
         12    1    3    3    0    0  0.26221213137E+01  0.99809266109E+00  0.14796063692E+01  0.31718991395E+01  0.00000000000E+00 0. -1.
</event>
<event>
 7    1  0.5467297E-010  0.4778728E+02  0.7816164E-02  0.1312668E+00
        -11   -1    0    0    0    0  0.00000000000E+00  0.00000000000E+00  0.45593999997E+02  0.45594000000E+02  0.51100000000E-03 0.  1.
         11   -1    0    0    0    0 -0.00000000000E+00 -0.00000000000E+00 -0.45593999997E+02  0.45594000000E+02  0.51100000000E-03 0. -1.
    9900012    2    1    2    0    0 -0.16239892573E+02 -0.27964793256E+02  0.28945787801E+02  0.47787281066E+02  0.20000045692E+02 0.  0.
         12    1    1    2    0    0  0.16239892573E+02  0.27964793256E+02 -0.28945787801E+02  0.43400718934E+02  0.00000000000E+00 0. -1.
         11    1    3    3    0    0 -0.73730332046E+01 -0.54519013144E+01  0.59790648643E-01  0.91699739237E+01  0.51100000000E-03 0. -1.
        -11    1    3    3    0    0 -0.96712056329E+01 -0.22270137973E+02  0.28939449518E+02  0.37775428554E+02  0.51100000000E-03 0.  1.
        -12    1    3    3    0    0  0.80434626477E+00 -0.24275396787E+00 -0.53452366109E-01  0.84187858864E+00  0.00000000000E+00 0.  1.
</event>
<event>
 7    1  0.5467297E-010  0.4778727E+02  0.7816164E-02  0.1312668E+00
        -11   -1    0    0    0    0  0.00000000000E+00  0.00000000000E+00  0.45593999997E+02  0.45594000000E+02  0.51100000000E-03 0.  1.
         11   -1    0    0    0    0 -0.00000000000E+00 -0.00000000000E+00 -0.45593999997E+02  0.45594000000E+02  0.51100000000E-03 0. -1.
    9900012    2    1    2    0    0  0.15657409467E+02  0.31164070279E+02  0.25831560587E+02  0.47787271090E+02  0.20000000209E+02 0.  0.
         12    1    1    2    0    0 -0.15657409467E+02 -0.31164070279E+02 -0.25831560587E+02  0.43400728910E+02  0.00000000000E+00 0. -1.
         11    1    3    3    0    0  0.49413985768E+01  0.10694732138E+02  0.29456094563E+01  0.12143777449E+02  0.51100000000E-03 0.  1.
        -11    1    3    3    0    0  0.11586623538E+02  0.20209907476E+02  0.15004056175E+02  0.27709419106E+02  0.51100000000E-03 0. -1.
        -12    1    3    3    0    0 -0.87061264846E+00  0.25943066523E+00  0.78818949556E+01  0.79340745361E+01  0.00000000000E+00 0.  1.
</event>
<event>
 7    1  0.5467297E-010  0.4778727E+02  0.7816164E-02  0.1312668E+00
        -11   -1    0    0    0    0  0.00000000000E+00  0.00000000000E+00  0.45593999997E+02  0.45594000000E+02  0.51100000000E-03 0. -1.
         11   -1    0    0    0    0 -0.00000000000E+00 -0.00000000000E+00 -0.45593999997E+02  0.45594000000E+02  0.51100000000E-03 0.  1.
    9900012    2    1    2    0    0 -0.13631992786E+02  0.39358276401E+02 -0.12195003077E+02  0.47787271335E+02  0.20000001325E+02 0.  0.
         12    1    1    2    0    0  0.13631992786E+02 -0.39358276401E+02  0.12195003077E+02  0.43400728665E+02  0.00000000000E+00 0. -1.
         11    1    3    3    0    0 -0.37956927569E+01  0.26451799694E+02 -0.23308533573E+01  0.26824203030E+02  0.51100000000E-03 0. -1.
        -11    1    3    3    0    0 -0.22367599219E+01  0.95628635900E+01 -0.32395304151E+01  0.10341470522E+02  0.51100000000E-03 0.  1.
         12    1    3    3    0    0 -0.75995401076E+01  0.33436131167E+01 -0.66246193047E+01  0.10621597783E+02  0.00000000000E+00 0. -1.
</event>
<event>
 7    1  0.5467297E-010  0.4778727E+02  0.7816164E-02  0.1312668E+00
        -11   -1    0    0    0    0  0.00000000000E+00  0.00000000000E+00  0.45593999997E+02  0.45594000000E+02  0.51100000000E-03 0.  1.
         11   -1    0    0    0    0 -0.00000000000E+00 -0.00000000000E+00 -0.45593999997E+02  0.45594000000E+02  0.51100000000E-03 0. -1.
    9900012    2    1    2    0    0  0.43280755869E+02 -0.30915370290E+01  0.91738404050E+00  0.47787273931E+02  0.20000013161E+02 0.  0.
         12    1    1    2    0    0 -0.43280755869E+02  0.30915370290E+01 -0.91738404050E+00  0.43400726069E+02  0.00000000000E+00 0. -1.
         11    1    3    3    0    0  0.20280960251E+02 -0.71417695526E+01 -0.70056577568E+01  0.22614187182E+02  0.51100000000E-03 0.  1.
        -11    1    3    3    0    0  0.10099343257E+02  0.43254402300E+01  0.38643622088E+01  0.11646435633E+02  0.51100000000E-03 0. -1.
        -12    1    3    3    0    0  0.12900452362E+02 -0.27520770650E+00  0.40586795885E+01  0.13526651116E+02  0.00000000000E+00 0.  1.
</event>
<event>
 7    1  0.5467297E-010  0.4778727E+02  0.7816164E-02  0.1312668E+00
        -11   -1    0    0    0    0  0.00000000000E+00  0.00000000000E+00  0.45593999997E+02  0.45594000000E+02  0.51100000000E-03 0. -1.
         11   -1    0    0    0    0 -0.00000000000E+00 -0.00000000000E+00 -0.45593999997E+02  0.45594000000E+02  0.51100000000E-03 0.  1.
    9900012    2    1    2    0    0  0.18590872504E+02 -0.20108563541E+02 -0.33669696756E+02  0.47787270193E+02  0.19999996118E+02 0.  0.
         12    1    1    2    0    0 -0.18590872504E+02  0.20108563541E+02  0.33669696756E+02  0.43400729807E+02  0.00000000000E+00 0. -1.
         11    1    3    3    0    0  0.11044642237E+02 -0.11357272290E+02 -0.98487664774E+01  0.18653952863E+02  0.51100000000E-03 0. -1.
        -11    1    3    3    0    0  0.55661103187E+01  0.15635281318E+01 -0.12001179615E+02  0.13321205528E+02  0.51100000000E-03 0.  1.
        -12    1    3    3    0    0  0.19801199480E+01 -0.10314819383E+02 -0.11819750663E+02  0.15812111803E+02  0.00000000000E+00 0.  1.
</event>
<event>
 7    1  0.5467297E-010  0.4778723E+02  0.7816164E-02  0.1312668E+00
        -11   -1    0    0    0    0  0.00000000000E+00  0.00000000000E+00  0.45593999997E+02  0.45594000000E+02  0.51100000000E-03 0. -1.
         11   -1    0    0    0    0 -0.00000000000E+00 -0.00000000000E+00 -0.45593999997E+02  0.45594000000E+02  0.51100000000E-03 0.  1.
    9900012    2    1    2    0    0 -0.20309273267E+02  0.13436185898E+02 -0.35925326658E+02  0.47787230795E+02  0.19999816486E+02 0.  0.
         12    1    1    2    0    0  0.20309273267E+02 -0.13436185898E+02  0.35925326658E+02  0.43400769205E+02  0.00000000000E+00 0. -1.
         11    1    3    3    0    0 -0.79605929364E+00  0.76617553301E+01 -0.51942451713E+01  0.92906613488E+01  0.51100000000E-03 0. -1.
        -11    1    3    3    0    0 -0.16011456688E+02  0.17583679740E+01 -0.28464778513E+02  0.32706302439E+02  0.51100000000E-03 0.  1.
        -12    1    3    3    0    0 -0.35017572845E+01  0.40160625944E+01 -0.22663029737E+01  0.57902670069E+01  0.00000000000E+00 0.  1.
</event>
<event>
 7    1  0.5467297E-010  0.4778727E+02  0.7816164E-02  0.1312668E+00
        -11   -1    0    0    0    0  0.00000000000E+00  0.00000000000E+00  0.45593999997E+02  0.45594000000E+02  0.51100000000E-03 0. -1.
         11   -1    0    0    0    0 -0.00000000000E+00 -0.00000000000E+00 -0.45593999997E+02  0.45594000000E+02  0.51100000000E-03 0.  1.
    9900012    2    1    2    0    0 -0.33875690759E+02  0.21957184737E+02  0.15935591115E+02  0.47787269013E+02  0.19999990739E+02 0.  0.
         12    1    1    2    0    0  0.33875690759E+02 -0.21957184737E+02 -0.15935591115E+02  0.43400730987E+02  0.00000000000E+00 0. -1.
         11    1    3    3    0    0 -0.26428975906E+01  0.26873004783E+01 -0.37450349864E+01  0.53133585278E+01  0.51100000000E-03 0. -1.
        -11    1    3    3    0    0 -0.21037850006E+02  0.17087301855E+02  0.12731035967E+02  0.29944052741E+02  0.51100000000E-03 0.  1.
         12    1    3    3    0    0 -0.10194943163E+02  0.21825824042E+01  0.69495901348E+01  0.12529857744E+02  0.00000000000E+00 0. -1.
</event>
<event>
 7    1  0.5467297E-010  0.4778727E+02  0.7816164E-02  0.1312668E+00
        -11   -1    0    0    0    0  0.00000000000E+00  0.00000000000E+00  0.45593999997E+02  0.45594000000E+02  0.51100000000E-03 0.  1.
         11   -1    0    0    0    0 -0.00000000000E+00 -0.00000000000E+00 -0.45593999997E+02  0.45594000000E+02  0.51100000000E-03 0. -1.
    9900012    2    1    2    0    0  0.34469013925E+02 -0.22981289130E+02 -0.12937186870E+02  0.47787269878E+02  0.19999994682E+02 0.  0.
         12    1    1    2    0    0 -0.34469013925E+02  0.22981289130E+02  0.12937186870E+02  0.43400730122E+02  0.00000000000E+00 0. -1.
         11    1    3    3    0    0  0.10620155623E+02 -0.16006697571E+00 -0.56359842211E+01  0.12024044465E+02  0.51100000000E-03 0. -1.
        -11    1    3    3    0    0  0.16895928619E+02 -0.22143631428E+02 -0.43996915527E+01  0.28198760659E+02  0.51100000000E-03 0.  1.
        -12    1    3    3    0    0  0.69529296828E+01 -0.67759072627E+00 -0.29015110959E+01  0.75644647534E+01  0.00000000000E+00 0.  1.
</event>
<event>
 7    1  0.5467297E-010  0.4778727E+02  0.7816164E-02  0.1312668E+00
        -11   -1    0    0    0    0  0.00000000000E+00  0.00000000000E+00  0.45593999997E+02  0.45594000000E+02  0.51100000000E-03 0.  1.
         11   -1    0    0    0    0 -0.00000000000E+00 -0.00000000000E+00 -0.45593999997E+02  0.45594000000E+02  0.51100000000E-03 0. -1.
    9900012    2    1    2    0    0 -0.38483646578E+02  0.20045973994E+02  0.88951349097E+00  0.47787270034E+02  0.19999995393E+02 0.  0.
         12    1    1    2    0    0  0.38483646578E+02 -0.20045973994E+02 -0.88951349097E+00  0.43400729966E+02  0.00000000000E+00 0. -1.
         11    1    3    3    0    0 -0.70944904773E+01  0.37965906604E+01  0.61499930233E+01  0.10127601405E+02  0.51100000000E-03 0. -1.
        -11    1    3    3    0    0 -0.22972062634E+02  0.15434802626E+02 -0.79342075188E+01  0.28790631167E+02  0.51100000000E-03 0.  1.
         12    1    3    3    0    0 -0.84170934664E+01  0.81458070774E+00  0.26737279865E+01  0.88690374617E+01  0.00000000000E+00 0. -1.
</event>
<event>
 7    1  0.5467297E-010  0.4778727E+02  0.7816164E-02  0.1312668E+00
        -11   -1    0    0    0    0  0.00000000000E+00  0.00000000000E+00  0.45593999997E+02  0.45594000000E+02  0.51100000000E-03 0.  1.
         11   -1    0    0    0    0 -0.00000000000E+00 -0.00000000000E+00 -0.45593999997E+02  0.45594000000E+02  0.51100000000E-03 0. -1.
    9900012    2    1    2    0    0  0.27779902190E+02  0.33060761961E+02  0.43458506225E+01  0.47787269997E+02  0.19999995226E+02 0.  0.
         12    1    1    2    0    0 -0.27779902190E+02 -0.33060761961E+02 -0.43458506225E+01  0.43400730003E+02  0.00000000000E+00 0. -1.
         11    1    3    3    0    0 -0.93673114808E+00  0.22931903483E+01  0.25674609211E+01  0.35676383028E+01  0.51100000000E-03 0. -1.
        -11    1    3    3    0    0  0.17672923261E+02  0.10571521932E+02 -0.27000438618E+01  0.20769678131E+02  0.51100000000E-03 0.  1.
        -12    1    3    3    0    0  0.11043710078E+02  0.20196049680E+02  0.44784335631E+01  0.23449953563E+02  0.00000000000E+00 0.  1.
</event>
<event>
 7    1  0.5467297E-010  0.4778727E+02  0.7816164E-02  0.1312668E+00
        -11   -1    0    0    0    0  0.00000000000E+00  0.00000000000E+00  0.45593999997E+02  0.45594000000E+02  0.51100000000E-03 0. -1.
         11   -1    0    0    0    0 -0.00000000000E+00 -0.00000000000E+00 -0.45593999997E+02  0.45594000000E+02  0.51100000000E-03 0.  1.
    9900012    2    1    2    0    0  0.15225981465E+02  0.39881489069E+02 -0.78268498306E+01  0.47787271202E+02  0.20000000720E+02 0.  0.
         12    1    1    2    0    0 -0.15225981465E+02 -0.39881489069E+02  0.78268498306E+01  0.43400728798E+02  0.00000000000E+00 0. -1.
         11    1    3    3    0    0 -0.30741445418E+01  0.68767161523E+01 -0.60801160837E+00  0.75570674259E+01  0.51100000000E-03 0. -1.
        -11    1    3    3    0    0  0.17504585361E+02  0.29689708167E+02 -0.27024515120E+01  0.34571556577E+02  0.51100000000E-03 0.  1.
         12    1    3    3    0    0  0.79554064508E+00  0.33150647491E+01 -0.45163867103E+01  0.56586471992E+01  0.00000000000E+00 0. -1.
</event>
<event>
 7    1  0.5467297E-010  0.4778727E+02  0.7816164E-02  0.1312668E+00
        -11   -1    0    0    0    0  0.00000000000E+00  0.00000000000E+00  0.45593999997E+02  0.45594000000E+02  0.51100000000E-03 0. -1.
         11   -1    0    0    0    0 -0.00000000000E+00 -0.00000000000E+00 -0.45593999997E+02  0.45594000000E+02  0.51100000000E-03 0.  1.
    9900012    2    1    2    0    0 -0.41416080701E+02 -0.46910924140E+01 -0.12096497599E+02  0.47787270250E+02  0.19999996377E+02 0.  0.
         12    1    1    2    0    0  0.41416080701E+02  0.46910924140E+01  0.12096497599E+02  0.43400729750E+02  0.00000000000E+00 0. -1.
         11    1    3    3    0    0 -0.18937361722E+02 -0.28068576137E+01 -0.12648791909E+02  0.22945458280E+02  0.51100000000E-03 0.  1.
        -11    1    3    3    0    0 -0.30279225017E+01  0.31507272046E+00 -0.37193937246E+01  0.48063994252E+01  0.51100000000E-03 0. -1.
         12    1    3    3    0    0 -0.19450796477E+02 -0.21993075208E+01  0.42716880346E+01  0.20035412544E+02  0.00000000000E+00 0. -1.
</event>
<event>
 7    1  0.5467297E-010  0.4778727E+02  0.7816164E-02  0.1312668E+00
        -11   -1    0    0    0    0  0.00000000000E+00  0.00000000000E+00  0.45593999997E+02  0.45594000000E+02  0.51100000000E-03 0.  1.
         11   -1    0    0    0    0 -0.00000000000E+00 -0.00000000000E+00 -0.45593999997E+02  0.45594000000E+02  0.51100000000E-03 0. -1.
    9900012    2    1    2    0    0 -0.39572136108E+02  0.17631837264E+02  0.26053123708E+01  0.47787270813E+02  0.19999998945E+02 0.  0.
         12    1    1    2    0    0  0.39572136108E+02 -0.17631837264E+02 -0.26053123708E+01  0.43400729187E+02  0.00000000000E+00 0. -1.
         11    1    3    3    0    0 -0.79861698056E+01  0.11441781246E+02 -0.23593397310E+01  0.14151316210E+02  0.51100000000E-03 0. -1.
        -11    1    3    3    0    0 -0.24006321379E+02  0.82425127055E+01  0.44254974247E+01  0.25764850272E+02  0.51100000000E-03 0.  1.
         12    1    3    3    0    0 -0.75796449233E+01 -0.20524566876E+01  0.53915467708E+00  0.78711043306E+01  0.00000000000E+00 0. -1.
</event>
<event>
 7    1  0.7353580E-010  0.4778727E+02  0.7816164E-02  0.1312668E+00
        -11   -1    0    0    0    0  0.00000000000E+00  0.00000000000E+00  0.45593999997E+02  0.45594000000E+02  0.51100000000E-03 0. -1.
         11   -1    0    0    0    0 -0.00000000000E+00 -0.00000000000E+00 -0.45593999997E+02  0.45594000000E+02  0.51100000000E-03 0.  1.
    9900012    2    1    2    0    0 -0.20011039283E+02  0.17458239255E+02 -0.34327708550E+02  0.47787269760E+02  0.19999994145E+02 0.  0.
         12    1    1    2    0    0  0.20011039283E+02 -0.17458239255E+02  0.34327708550E+02  0.43400730240E+02  0.00000000000E+00 0. -1.
         11    1    3    3    0    0  0.56958972135E+00  0.86868722934E+01 -0.40943003463E+01  0.96202639402E+01  0.51100000000E-03 0. -1.
        -11    1    3    3    0    0 -0.16088931339E+02  0.90321482473E+01 -0.21415716141E+02  0.28267760995E+02  0.51100000000E-03 0.  1.
         12    1    3    3    0    0 -0.44916976659E+01 -0.26078128594E+00 -0.88176920620E+01  0.98992448248E+01  0.00000000000E+00 0. -1.
</event>
<event>
 7    1  0.5467297E-010  0.4778727E+02  0.7816164E-02  0.1312668E+00
        -11   -1    0    0    0    0  0.00000000000E+00  0.00000000000E+00  0.45593999997E+02  0.45594000000E+02  0.51100000000E-03 0.  1.
         11   -1    0    0    0    0 -0.00000000000E+00 -0.00000000000E+00 -0.45593999997E+02  0.45594000000E+02  0.51100000000E-03 0. -1.
    9900012    2    1    2    0    0 -0.32178062732E+02 -0.13346866248E+02  0.25885458177E+02  0.47787268384E+02  0.19999987869E+02 0.  0.
         12    1    1    2    0    0  0.32178062732E+02  0.13346866248E+02 -0.25885458177E+02  0.43400731616E+02  0.00000000000E+00 0. -1.
         11    1    3    3    0    0 -0.33128507366E+01 -0.55949782812E+01  0.11777952174E+01  0.66080226849E+01  0.51100000000E-03 0. -1.
        -11    1    3    3    0    0 -0.27242901620E+02 -0.91421130409E+01  0.25940493183E+02  0.38712570392E+02  0.51100000000E-03 0.  1.
         12    1    3    3    0    0 -0.16223103752E+01  0.13902250743E+01 -0.12328302234E+01  0.24666753071E+01  0.00000000000E+00 0. -1.
</event>
<event>
 7    1  0.5467297E-010  0.4778726E+02  0.7816164E-02  0.1312668E+00
        -11   -1    0    0    0    0  0.00000000000E+00  0.00000000000E+00  0.45593999997E+02  0.45594000000E+02  0.51100000000E-03 0.  1.
         11   -1    0    0    0    0 -0.00000000000E+00 -0.00000000000E+00 -0.45593999997E+02  0.45594000000E+02  0.51100000000E-03 0. -1.
    9900012    2    1    2    0    0  0.64783847065E+01 -0.41678871245E+02 -0.10223814123E+02  0.47787260930E+02  0.19999953883E+02 0.  0.
         12    1    1    2    0    0 -0.64783847065E+01  0.41678871245E+02  0.10223814123E+02  0.43400739070E+02  0.00000000000E+00 0. -1.
         11    1    3    3    0    0  0.18364462667E+01 -0.14835492630E+02 -0.97216707540E+01  0.17831860783E+02  0.51100000000E-03 0. -1.
        -11    1    3    3    0    0  0.42176062880E+01 -0.32995101020E+01  0.30168056178E+01  0.61462253547E+01  0.51100000000E-03 0.  1.
        -12    1    3    3    0    0  0.42433215179E+00 -0.23543868513E+02 -0.35189489871E+01  0.23809174792E+02  0.00000000000E+00 0.  1.
</event>
<event>
 7    1  0.5467297E-010  0.4778727E+02  0.7816164E-02  0.1312668E+00
        -11   -1    0    0    0    0  0.00000000000E+00  0.00000000000E+00  0.45593999997E+02  0.45594000000E+02  0.51100000000E-03 0.  1.
         11   -1    0    0    0    0 -0.00000000000E+00 -0.00000000000E+00 -0.45593999997E+02  0.45594000000E+02  0.51100000000E-03 0. -1.
    9900012    2    1    2    0    0  0.26864903752E+02 -0.15520379861E+02  0.30348278906E+02  0.47787271006E+02  0.19999999825E+02 0.  0.
         12    1    1    2    0    0 -0.26864903752E+02  0.15520379861E+02 -0.30348278906E+02  0.43400728994E+02  0.00000000000E+00 0. -1.
         11    1    3    3    0    0  0.10519127612E+02 -0.15211115848E+01  0.25967401567E+01  0.10941155601E+02  0.51100000000E-03 0. -1.
        -11    1    3    3    0    0  0.17860522900E+02 -0.13721877350E+02  0.26907951612E+02  0.35090255862E+02  0.51100000000E-03 0.  1.
        -12    1    3    3    0    0 -0.15147467607E+01 -0.27739092637E+00  0.84358713768E+00  0.17558595428E+01  0.00000000000E+00 0.  1.
</event>
<event>
 7    1  0.5467297E-010  0.4778727E+02  0.7816164E-02  0.1312668E+00
        -11   -1    0    0    0    0  0.00000000000E+00  0.00000000000E+00  0.45593999997E+02  0.45594000000E+02  0.51100000000E-03 0. -1.
         11   -1    0    0    0    0 -0.00000000000E+00 -0.00000000000E+00 -0.45593999997E+02  0.45594000000E+02  0.51100000000E-03 0.  1.
    9900012    2    1    2    0    0  0.29197063221E+02 -0.25450515750E+02 -0.19581267456E+02  0.47787270883E+02  0.19999999265E+02 0.  0.
         12    1    1    2    0    0 -0.29197063221E+02  0.25450515750E+02  0.19581267456E+02  0.43400729117E+02  0.00000000000E+00 0. -1.
         11    1    3    3    0    0  0.39471160492E+00  0.12556378864E+01  0.19663761674E+01  0.23662331342E+01  0.51100000000E-03 0. -1.
        -11    1    3    3    0    0  0.14622254341E+02 -0.86370302566E+01 -0.10076532355E+02  0.19747028086E+02  0.51100000000E-03 0.  1.
         12    1    3    3    0    0  0.14180097276E+02 -0.18069123380E+02 -0.11471111268E+02  0.25674009663E+02  0.00000000000E+00 0. -1.
</event>
<event>
 7    1  0.5467297E-010  0.4778727E+02  0.7816164E-02  0.1312668E+00
        -11   -1    0    0    0    0  0.00000000000E+00  0.00000000000E+00  0.45593999997E+02  0.45594000000E+02  0.51100000000E-03 0. -1.
         11   -1    0    0    0    0 -0.00000000000E+00 -0.00000000000E+00 -0.45593999997E+02  0.45594000000E+02  0.51100000000E-03 0.  1.
    9900012    2    1    2    0    0 -0.33128925793E+02  0.27574823849E+02  0.50721530438E+01  0.47787269925E+02  0.19999994897E+02 0.  0.
         12    1    1    2    0    0  0.33128925793E+02 -0.27574823849E+02 -0.50721530438E+01  0.43400730075E+02  0.00000000000E+00 0. -1.
         11    1    3    3    0    0 -0.67266748543E+01  0.85527789506E+00  0.65158980710E+01  0.94040726712E+01  0.51100000000E-03 0. -1.
        -11    1    3    3    0    0 -0.17181921461E+02  0.13309991826E+02 -0.33776854173E+01  0.21995069141E+02  0.51100000000E-03 0.  1.
         12    1    3    3    0    0 -0.92203294781E+01  0.13409554128E+02  0.19339403902E+01  0.16388128112E+02  0.00000000000E+00 0. -1.
</event>
<event>
 7    1  0.5467297E-010  0.4778726E+02  0.7816164E-02  0.1312668E+00
        -11   -1    0    0    0    0  0.00000000000E+00  0.00000000000E+00  0.45593999997E+02  0.45594000000E+02  0.51100000000E-03 0.  1.
         11   -1    0    0    0    0 -0.00000000000E+00 -0.00000000000E+00 -0.45593999997E+02  0.45594000000E+02  0.51100000000E-03 0. -1.
    9900012    2    1    2    0    0 -0.31469693267E+02  0.20924826068E+02  0.21340903240E+02  0.47787261626E+02  0.19999957058E+02 0.  0.
         12    1    1    2    0    0  0.31469693267E+02 -0.20924826068E+02 -0.21340903240E+02  0.43400738374E+02  0.00000000000E+00 0. -1.
         11    1    3    3    0    0 -0.13067256575E+02  0.15397699527E+02  0.31462733667E+01  0.20438722599E+02  0.51100000000E-03 0. -1.
        -11    1    3    3    0    0 -0.94329266409E+01  0.56922494126E+01  0.12766444633E+02  0.16863093347E+02  0.51100000000E-03 0.  1.
         12    1    3    3    0    0 -0.89695100514E+01 -0.16512287112E+00  0.54281852396E+01  0.10485445681E+02  0.00000000000E+00 0. -1.
</event>
<event>
 7    1  0.5467297E-010  0.4778725E+02  0.7816164E-02  0.1312668E+00
        -11   -1    0    0    0    0  0.00000000000E+00  0.00000000000E+00  0.45593999997E+02  0.45594000000E+02  0.51100000000E-03 0.  1.
         11   -1    0    0    0    0 -0.00000000000E+00 -0.00000000000E+00 -0.45593999997E+02  0.45594000000E+02  0.51100000000E-03 0. -1.
    9900012    2    1    2    0    0  0.27299624653E+02  0.46210517032E+01  0.33421566163E+02  0.47787254501E+02  0.19999924572E+02 0.  0.
         12    1    1    2    0    0 -0.27299624653E+02 -0.46210517032E+01 -0.33421566163E+02  0.43400745499E+02  0.00000000000E+00 0. -1.
         11    1    3    3    0    0  0.26083731195E+02  0.13834472600E+01  0.22660234991E+02  0.34579780356E+02  0.51100000000E-03 0. -1.
        -11    1    3    3    0    0 -0.23205189563E+01  0.32768605603E+01  0.68010032876E+01  0.78978648594E+01  0.51100000000E-03 0.  1.
        -12    1    3    3    0    0  0.35364124150E+01 -0.39256116997E-01  0.39603278848E+01  0.53096092857E+01  0.00000000000E+00 0.  1.
</event>
<event>
 7    1  0.5467297E-010  0.4778727E+02  0.7816164E-02  0.1312668E+00
        -11   -1    0    0    0    0  0.00000000000E+00  0.00000000000E+00  0.45593999997E+02  0.45594000000E+02  0.51100000000E-03 0.  1.
         11   -1    0    0    0    0 -0.00000000000E+00 -0.00000000000E+00 -0.45593999997E+02  0.45594000000E+02  0.51100000000E-03 0. -1.
    9900012    2    1    2    0    0 -0.19252716234E+02 -0.10595370883E+02  0.37425847096E+02  0.47787274229E+02  0.20000014521E+02 0.  0.
         12    1    1    2    0    0  0.19252716234E+02  0.10595370883E+02 -0.37425847096E+02  0.43400725771E+02  0.00000000000E+00 0. -1.
         11    1    3    3    0    0 -0.80341348922E+01 -0.11709388755E+00  0.14492135105E+02  0.16570546600E+02  0.51100000000E-03 0. -1.
        -11    1    3    3    0    0 -0.13510746323E+02 -0.44908047599E+01  0.12374770273E+02  0.18863788940E+02  0.51100000000E-03 0.  1.
        -12    1    3    3    0    0  0.22921649810E+01 -0.59874722357E+01  0.10558941718E+02  0.12352938690E+02  0.00000000000E+00 0.  1.
</event>
<event>
 7    1  0.5467297E-010  0.4778727E+02  0.7816164E-02  0.1312668E+00
        -11   -1    0    0    0    0  0.00000000000E+00  0.00000000000E+00  0.45593999997E+02  0.45594000000E+02  0.51100000000E-03 0.  1.
         11   -1    0    0    0    0 -0.00000000000E+00 -0.00000000000E+00 -0.45593999997E+02  0.45594000000E+02  0.51100000000E-03 0. -1.
    9900012    2    1    2    0    0  0.29478078687E+02  0.31805870169E+02  0.17473357211E+01  0.47787266338E+02  0.19999978539E+02 0.  0.
         12    1    1    2    0    0 -0.29478078687E+02 -0.31805870169E+02 -0.17473357211E+01  0.43400733662E+02  0.00000000000E+00 0. -1.
         11    1    3    3    0    0  0.92824178384E+01  0.74150498853E+01 -0.33539733605E+01  0.12344852502E+02  0.51100000000E-03 0. -1.
        -11    1    3    3    0    0  0.12725519550E+02  0.46349572744E+01  0.46408120443E+01  0.14316382694E+02  0.51100000000E-03 0.  1.
        -12    1    3    3    0    0  0.74701412992E+01  0.19755863010E+02  0.46049703733E+00  0.21126031142E+02  0.00000000000E+00 0.  1.
</event>
<event>
 7    1  0.5467297E-010  0.4778727E+02  0.7816164E-02  0.1312668E+00
        -11   -1    0    0    0    0  0.00000000000E+00  0.00000000000E+00  0.45593999997E+02  0.45594000000E+02  0.51100000000E-03 0.  1.
         11   -1    0    0    0    0 -0.00000000000E+00 -0.00000000000E+00 -0.45593999997E+02  0.45594000000E+02  0.51100000000E-03 0. -1.
    9900012    2    1    2    0    0  0.16189450632E+02  0.36969096125E+02  0.15962795863E+02  0.47787271529E+02  0.20000002209E+02 0.  0.
         12    1    1    2    0    0 -0.16189450632E+02 -0.36969096125E+02 -0.15962795863E+02  0.43400728471E+02  0.00000000000E+00 0. -1.
         11    1    3    3    0    0 -0.11639738667E+00 -0.12543425965E+01 -0.12784401286E+01  0.17948072667E+01  0.51100000000E-03 0. -1.
        -11    1    3    3    0    0  0.11154663695E+02  0.24822507698E+02  0.62781835274E+01  0.27928462171E+02  0.51100000000E-03 0.  1.
         12    1    3    3    0    0  0.51511843241E+01  0.13400931023E+02  0.10963052464E+02  0.18064002091E+02  0.00000000000E+00 0. -1.
</event>
<event>
 7    1  0.5467297E-010  0.4778727E+02  0.7816164E-02  0.1312668E+00
        -11   -1    0    0    0    0  0.00000000000E+00  0.00000000000E+00  0.45593999997E+02  0.45594000000E+02  0.51100000000E-03 0. -1.
         11   -1    0    0    0    0 -0.00000000000E+00 -0.00000000000E+00 -0.45593999997E+02  0.45594000000E+02  0.51100000000E-03 0.  1.
    9900012    2    1    2    0    0 -0.20439827146E+01  0.83969105498E+01 -0.42531601020E+02  0.47787273538E+02  0.20000011369E+02 0.  0.
         12    1    1    2    0    0  0.20439827146E+01 -0.83969105498E+01  0.42531601020E+02  0.43400726462E+02  0.00000000000E+00 0. -1.
         11    1    3    3    0    0  0.45087773060E+01 -0.42822286703E+01 -0.77163970437E+01  0.99100625012E+01  0.51100000000E-03 0. -1.
        -11    1    3    3    0    0 -0.26193116385E+01  0.86907078125E+01 -0.24691709045E+02  0.26307217481E+02  0.51100000000E-03 0.  1.
         12    1    3    3    0    0 -0.39334483821E+01  0.39884314076E+01 -0.10123494931E+02  0.11569993556E+02  0.00000000000E+00 0. -1.
</event>
<event>
 7    1  0.5467297E-010  0.4778727E+02  0.7816164E-02  0.1312668E+00
        -11   -1    0    0    0    0  0.00000000000E+00  0.00000000000E+00  0.45593999997E+02  0.45594000000E+02  0.51100000000E-03 0.  1.
         11   -1    0    0    0    0 -0.00000000000E+00 -0.00000000000E+00 -0.45593999997E+02  0.45594000000E+02  0.51100000000E-03 0. -1.
    9900012    2    1    2    0    0  0.33444471490E+02 -0.27304402386E+02  0.44226778684E+01  0.47787272559E+02  0.20000006905E+02 0.  0.
         12    1    1    2    0    0 -0.33444471490E+02  0.27304402386E+02 -0.44226778684E+01  0.43400727441E+02  0.00000000000E+00 0. -1.
         11    1    3    3    0    0  0.17373094562E+02 -0.17455441789E+02  0.10763770154E+02  0.26877046171E+02  0.51100000000E-03 0. -1.
        -11    1    3    3    0    0  0.11710925283E+02 -0.10097077199E+02 -0.40792071392E+01  0.15991768823E+02  0.51100000000E-03 0.  1.
         12    1    3    3    0    0  0.43604516453E+01  0.24811660164E+00 -0.22618851467E+01  0.49184575648E+01  0.00000000000E+00 0. -1.
</event>
<event>
 7    1  0.5467297E-010  0.4778727E+02  0.7816164E-02  0.1312668E+00
        -11   -1    0    0    0    0  0.00000000000E+00  0.00000000000E+00  0.45593999997E+02  0.45594000000E+02  0.51100000000E-03 0. -1.
         11   -1    0    0    0    0 -0.00000000000E+00 -0.00000000000E+00 -0.45593999997E+02  0.45594000000E+02  0.51100000000E-03 0.  1.
    9900012    2    1    2    0    0 -0.36824591226E+02 -0.10855789124E+02 -0.20241655925E+02  0.47787270616E+02  0.19999998047E+02 0.  0.
         12    1    1    2    0    0  0.36824591226E+02  0.10855789124E+02  0.20241655925E+02  0.43400729384E+02  0.00000000000E+00 0. -1.
         11    1    3    3    0    0 -0.73445476329E+01 -0.25069601088E+01 -0.91236339738E+01  0.11977809736E+02  0.51100000000E-03 0. -1.
        -11    1    3    3    0    0 -0.23448022398E+02 -0.94136974845E+01 -0.27173762504E+01  0.25412823311E+02  0.51100000000E-03 0.  1.
        -12    1    3    3    0    0 -0.60320211957E+01  0.10648684690E+01 -0.84006457003E+01  0.10396637569E+02  0.00000000000E+00 0.  1.
</event>
<event>
 7    1  0.5467297E-010  0.4778727E+02  0.7816164E-02  0.1312668E+00
        -11   -1    0    0    0    0  0.00000000000E+00  0.00000000000E+00  0.45593999997E+02  0.45594000000E+02  0.51100000000E-03 0. -1.
         11   -1    0    0    0    0 -0.00000000000E+00 -0.00000000000E+00 -0.45593999997E+02  0.45594000000E+02  0.51100000000E-03 0.  1.
    9900012    2    1    2    0    0  0.21469626312E+02 -0.60459166509E+00 -0.37713564686E+02  0.47787270209E+02  0.19999996193E+02 0.  0.
         12    1    1    2    0    0 -0.21469626312E+02  0.60459166509E+00  0.37713564686E+02  0.43400729791E+02  0.00000000000E+00 0. -1.
         11    1    3    3    0    0  0.16285724943E+02 -0.43456364271E+01 -0.10928449924E+02  0.20088315282E+02  0.51100000000E-03 0. -1.
        -11    1    3    3    0    0  0.33898273987E+01  0.37361923901E+01 -0.22399442618E+02  0.22960511606E+02  0.51100000000E-03 0.  1.
         12    1    3    3    0    0  0.17940739704E+01  0.48523719317E-02 -0.43856721438E+01  0.47384433214E+01  0.00000000000E+00 0. -1.
</event>
<event>
 7    1  0.5467297E-010  0.4778727E+02  0.7816164E-02  0.1312668E+00
        -11   -1    0    0    0    0  0.00000000000E+00  0.00000000000E+00  0.45593999997E+02  0.45594000000E+02  0.51100000000E-03 0.  1.
         11   -1    0    0    0    0 -0.00000000000E+00 -0.00000000000E+00 -0.45593999997E+02  0.45594000000E+02  0.51100000000E-03 0. -1.
    9900012    2    1    2    0    0 -0.41623665789E+02 -0.11058898315E+02  0.53660497999E+01  0.47787271019E+02  0.19999999882E+02 0.  0.
         12    1    1    2    0    0  0.41623665789E+02  0.11058898315E+02 -0.53660497999E+01  0.43400728981E+02  0.00000000000E+00 0. -1.
         11    1    3    3    0    0 -0.24341068597E+02 -0.70611333562E+00 -0.18123546706E+01  0.24418657748E+02  0.51100000000E-03 0. -1.
        -11    1    3    3    0    0 -0.13445012470E+02 -0.47247236745E+01  0.11932930672E+01  0.14300885382E+02  0.51100000000E-03 0.  1.
         12    1    3    3    0    0 -0.38375847222E+01 -0.56280613047E+01  0.59851114033E+01  0.90677278884E+01  0.00000000000E+00 0. -1.
</event>
<event>
 7    1  0.5467297E-010  0.4778727E+02  0.7816164E-02  0.1312668E+00
        -11   -1    0    0    0    0  0.00000000000E+00  0.00000000000E+00  0.45593999997E+02  0.45594000000E+02  0.51100000000E-03 0.  1.
         11   -1    0    0    0    0 -0.00000000000E+00 -0.00000000000E+00 -0.45593999997E+02  0.45594000000E+02  0.51100000000E-03 0. -1.
    9900012    2    1    2    0    0 -0.27388098055E+02 -0.23292533438E+02  0.24309951918E+02  0.47787265083E+02  0.19999972819E+02 0.  0.
         12    1    1    2    0    0  0.27388098055E+02  0.23292533438E+02 -0.24309951918E+02  0.43400734917E+02  0.00000000000E+00 0. -1.
         11    1    3    3    0    0  0.16006036312E+01 -0.59677864064E+01  0.45713009054E+01  0.76859091073E+01  0.51100000000E-03 0. -1.
        -11    1    3    3    0    0 -0.19735560557E+01 -0.31534142490E+00  0.40815473417E+01  0.45446003876E+01  0.51100000000E-03 0.  1.
         12    1    3    3    0    0 -0.27015145631E+02 -0.17009405607E+02  0.15657103671E+02  0.35556755588E+02  0.00000000000E+00 0. -1.
</event>
<event>
 7    1  0.5467297E-010  0.4778727E+02  0.7816164E-02  0.1312668E+00
        -11   -1    0    0    0    0  0.00000000000E+00  0.00000000000E+00  0.45593999997E+02  0.45594000000E+02  0.51100000000E-03 0.  1.
         11   -1    0    0    0    0 -0.00000000000E+00 -0.00000000000E+00 -0.45593999997E+02  0.45594000000E+02  0.51100000000E-03 0. -1.
    9900012    2    1    2    0    0 -0.28176986408E+02  0.18921712487E+02  0.27049014683E+02  0.47787274640E+02  0.20000016392E+02 0.  0.
         12    1    1    2    0    0  0.28176986408E+02 -0.18921712487E+02 -0.27049014683E+02  0.43400725360E+02  0.00000000000E+00 0. -1.
         11    1    3    3    0    0 -0.75710037641E+01  0.11921369543E+02  0.20377808948E+02  0.24793028205E+02  0.51100000000E-03 0. -1.
        -11    1    3    3    0    0 -0.15925690460E+02  0.39178472990E+01  0.49028638770E+01  0.17117687301E+02  0.51100000000E-03 0.  1.
         12    1    3    3    0    0 -0.46802921842E+01  0.30824956445E+01  0.17683418583E+01  0.58765591340E+01  0.00000000000E+00 0. -1.
</event>
<event>
 7    1  0.5467297E-010  0.4778727E+02  0.7816164E-02  0.1312668E+00
        -11   -1    0    0    0    0  0.00000000000E+00  0.00000000000E+00  0.45593999997E+02  0.45594000000E+02  0.51100000000E-03 0.  1.
         11   -1    0    0    0    0 -0.00000000000E+00 -0.00000000000E+00 -0.45593999997E+02  0.45594000000E+02  0.51100000000E-03 0. -1.
    9900012    2    1    2    0    0 -0.16249330771E+01 -0.28184614647E+02  0.32963772217E+02  0.47787272021E+02  0.20000004455E+02 0.  0.
         12    1    1    2    0    0  0.16249330771E+01  0.28184614647E+02 -0.32963772217E+02  0.43400727979E+02  0.00000000000E+00 0. -1.
         11    1    3    3    0    0 -0.26696695860E+01 -0.17850637346E+01  0.12846031301E+02  0.13241378655E+02  0.51100000000E-03 0. -1.
        -11    1    3    3    0    0  0.47390002935E+01 -0.15312484305E+02  0.14348702639E+02  0.21513148701E+02  0.51100000000E-03 0.  1.
         12    1    3    3    0    0 -0.36942637846E+01 -0.11087066608E+02  0.57690382773E+01  0.13032744666E+02  0.00000000000E+00 0. -1.
</event>
<event>
 7    1  0.5467297E-010  0.4778727E+02  0.7816164E-02  0.1312668E+00
        -11   -1    0    0    0    0  0.00000000000E+00  0.00000000000E+00  0.45593999997E+02  0.45594000000E+02  0.51100000000E-03 0. -1.
         11   -1    0    0    0    0 -0.00000000000E+00 -0.00000000000E+00 -0.45593999997E+02  0.45594000000E+02  0.51100000000E-03 0.  1.
    9900012    2    1    2    0    0  0.10545261193E+02  0.15110811489E+02 -0.39294832590E+02  0.47787273903E+02  0.20000013032E+02 0.  0.
         12    1    1    2    0    0 -0.10545261193E+02 -0.15110811489E+02  0.39294832590E+02  0.43400726097E+02  0.00000000000E+00 0. -1.
         11    1    3    3    0    0 -0.36845306763E+01  0.21986752031E+01 -0.17786253896E+02  0.18296468699E+02  0.51100000000E-03 0. -1.
        -11    1    3    3    0    0  0.12170646804E+02  0.13249244563E+02 -0.20088103727E+02  0.26966628205E+02  0.51100000000E-03 0.  1.
         12    1    3    3    0    0  0.20591450645E+01 -0.33710827695E+00 -0.14204749674E+01  0.25241769986E+01  0.00000000000E+00 0. -1.
</event>
<event>
 7    1  0.5467297E-010  0.4778727E+02  0.7816164E-02  0.1312668E+00
        -11   -1    0    0    0    0  0.00000000000E+00  0.00000000000E+00  0.45593999997E+02  0.45594000000E+02  0.51100000000E-03 0. -1.
         11   -1    0    0    0    0 -0.00000000000E+00 -0.00000000000E+00 -0.45593999997E+02  0.45594000000E+02  0.51100000000E-03 0.  1.
    9900012    2    1    2    0    0  0.28880739779E+02 -0.28547984641E+02 -0.15314654400E+02  0.47787271934E+02  0.20000004057E+02 0.  0.
         12    1    1    2    0    0 -0.28880739779E+02  0.28547984641E+02  0.15314654400E+02  0.43400728066E+02  0.00000000000E+00 0. -1.
         11    1    3    3    0    0  0.13336027141E+02 -0.61781756659E+01  0.11218726854E+00  0.14698029144E+02  0.51100000000E-03 0. -1.
        -11    1    3    3    0    0  0.10975767431E+02 -0.22051596865E+02 -0.13763360425E+02  0.28216493146E+02  0.51100000000E-03 0.  1.
         12    1    3    3    0    0  0.45689452071E+01 -0.31821211024E+00 -0.16634812438E+01  0.48727496448E+01  0.00000000000E+00 0. -1.
</event>
<event>
 7    1  0.5467297E-010  0.4778727E+02  0.7816164E-02  0.1312668E+00
        -11   -1    0    0    0    0  0.00000000000E+00  0.00000000000E+00  0.45593999997E+02  0.45594000000E+02  0.51100000000E-03 0. -1.
         11   -1    0    0    0    0 -0.00000000000E+00 -0.00000000000E+00 -0.45593999997E+02  0.45594000000E+02  0.51100000000E-03 0.  1.
    9900012    2    1    2    0    0  0.13163340519E+02  0.39740506753E+02  0.11447357230E+02  0.47787269612E+02  0.19999993471E+02 0.  0.
         12    1    1    2    0    0 -0.13163340519E+02 -0.39740506753E+02 -0.11447357230E+02  0.43400730388E+02  0.00000000000E+00 0. -1.
         11    1    3    3    0    0 -0.21659620385E+01  0.13433222347E+02 -0.29856558562E+01  0.13930434140E+02  0.51100000000E-03 0. -1.
        -11    1    3    3    0    0  0.98139731418E+01  0.18038115849E+02  0.11279108255E+02  0.23428742508E+02  0.51100000000E-03 0.  1.
         12    1    3    3    0    0  0.55153294156E+01  0.82691685569E+01  0.31539048312E+01  0.10428092964E+02  0.00000000000E+00 0. -1.
</event>
<event>
 7    1  0.5467297E-010  0.4778727E+02  0.7816164E-02  0.1312668E+00
        -11   -1    0    0    0    0  0.00000000000E+00  0.00000000000E+00  0.45593999997E+02  0.45594000000E+02  0.51100000000E-03 0.  1.
         11   -1    0    0    0    0 -0.00000000000E+00 -0.00000000000E+00 -0.45593999997E+02  0.45594000000E+02  0.51100000000E-03 0. -1.
    9900012    2    1    2    0    0  0.11715875378E+02  0.21392079773E+02  0.35899030628E+02  0.47787271747E+02  0.20000003204E+02 0.  0.
         12    1    1    2    0    0 -0.11715875378E+02 -0.21392079773E+02 -0.35899030628E+02  0.43400728253E+02  0.00000000000E+00 0. -1.
         11    1    3    3    0    0  0.59191913965E+01  0.78612854203E+01  0.26879482048E+02  0.28624171441E+02  0.51100000000E-03 0.  1.
        -11    1    3    3    0    0  0.60208091610E+01  0.14420041211E+02  0.93239943823E+01  0.18196829476E+02  0.51100000000E-03 0. -1.
        -12    1    3    3    0    0 -0.22412517977E+00 -0.88924685848E+00 -0.30444580209E+00  0.96627083053E+00  0.00000000000E+00 0.  1.
</event>
<event>
 7    1  0.5467297E-010  0.4778727E+02  0.7816164E-02  0.1312668E+00
        -11   -1    0    0    0    0  0.00000000000E+00  0.00000000000E+00  0.45593999997E+02  0.45594000000E+02  0.51100000000E-03 0.  1.
         11   -1    0    0    0    0 -0.00000000000E+00 -0.00000000000E+00 -0.45593999997E+02  0.45594000000E+02  0.51100000000E-03 0. -1.
    9900012    2    1    2    0    0  0.11775056810E+02 -0.11971490146E+02  0.40020678862E+02  0.47787271023E+02  0.19999999902E+02 0.  0.
         12    1    1    2    0    0 -0.11775056810E+02  0.11971490146E+02 -0.40020678862E+02  0.43400728977E+02  0.00000000000E+00 0. -1.
         11    1    3    3    0    0 -0.17715397018E+01 -0.35170819033E+01  0.24657178127E+02  0.24969674637E+02  0.51100000000E-03 0. -1.
        -11    1    3    3    0    0  0.64930830542E+01 -0.15487028852E+01  0.84387326516E+01  0.10759684810E+02  0.51100000000E-03 0.  1.
         12    1    3    3    0    0  0.70535134572E+01 -0.69057053579E+01  0.69247680832E+01  0.12057911576E+02  0.00000000000E+00 0. -1.
</event>
<event>
 7    1  0.5467297E-010  0.4778727E+02  0.7816164E-02  0.1312668E+00
        -11   -1    0    0    0    0  0.00000000000E+00  0.00000000000E+00  0.45593999997E+02  0.45594000000E+02  0.51100000000E-03 0. -1.
         11   -1    0    0    0    0 -0.00000000000E+00 -0.00000000000E+00 -0.45593999997E+02  0.45594000000E+02  0.51100000000E-03 0.  1.
    9900012    2    1    2    0    0  0.30283728847E+02  0.28619580705E+02 -0.12142437841E+02  0.47787269253E+02  0.19999991833E+02 0.  0.
         12    1    1    2    0    0 -0.30283728847E+02 -0.28619580705E+02  0.12142437841E+02  0.43400730747E+02  0.00000000000E+00 0. -1.
         11    1    3    3    0    0 -0.80880782571E-01 -0.11951320526E+01 -0.57149050164E+00  0.13272090938E+01  0.51100000000E-03 0. -1.
        -11    1    3    3    0    0  0.31321037066E+02  0.24993224018E+02 -0.10000761894E+02  0.41299925526E+02  0.51100000000E-03 0.  1.
        -12    1    3    3    0    0 -0.95642743591E+00  0.48214887393E+01 -0.15701854459E+01  0.51601346337E+01  0.00000000000E+00 0.  1.
</event>
<event>
 7    1  0.5467297E-010  0.4778727E+02  0.7816164E-02  0.1312668E+00
        -11   -1    0    0    0    0  0.00000000000E+00  0.00000000000E+00  0.45593999997E+02  0.45594000000E+02  0.51100000000E-03 0. -1.
         11   -1    0    0    0    0 -0.00000000000E+00 -0.00000000000E+00 -0.45593999997E+02  0.45594000000E+02  0.51100000000E-03 0.  1.
    9900012    2    1    2    0    0 -0.42135169239E+01  0.36494800758E+02 -0.23108427695E+02  0.47787266852E+02  0.19999980887E+02 0.  0.
         12    1    1    2    0    0  0.42135169239E+01 -0.36494800758E+02  0.23108427695E+02  0.43400733148E+02  0.00000000000E+00 0. -1.
         11    1    3    3    0    0  0.16596307823E+01 -0.16015205892E+01 -0.42841177709E+01  0.48654812575E+01  0.51100000000E-03 0. -1.
        -11    1    3    3    0    0 -0.33071696284E+01  0.24967293247E+02 -0.12776575609E+02  0.28240821298E+02  0.51100000000E-03 0.  1.
         12    1    3    3    0    0 -0.25659780777E+01  0.13129028100E+02 -0.60477343147E+01  0.14680964297E+02  0.00000000000E+00 0. -1.
</event>
<event>
 7    1  0.5467297E-010  0.4778729E+02  0.7816164E-02  0.1312668E+00
        -11   -1    0    0    0    0  0.00000000000E+00  0.00000000000E+00  0.45593999997E+02  0.45594000000E+02  0.51100000000E-03 0.  1.
         11   -1    0    0    0    0 -0.00000000000E+00 -0.00000000000E+00 -0.45593999997E+02  0.45594000000E+02  0.51100000000E-03 0. -1.
    9900012    2    1    2    0    0 -0.30708323726E+02 -0.77754237444E+01  0.29667538688E+02  0.47787294795E+02  0.20000108289E+02 0.  0.
         12    1    1    2    0    0  0.30708323726E+02  0.77754237444E+01 -0.29667538688E+02  0.43400705205E+02  0.00000000000E+00 0. -1.
         11    1    3    3    0    0 -0.16103369407E+02 -0.49050661514E+01  0.74894036663E+01  0.18424693966E+02  0.51100000000E-03 0. -1.
        -11    1    3    3    0    0  0.67834121749E+00  0.26796088653E+01  0.49750901938E+01  0.56913946600E+01  0.51100000000E-03 0.  1.
        -12    1    3    3    0    0 -0.15283295537E+02 -0.55499664583E+01  0.17203044828E+02  0.23671206169E+02  0.00000000000E+00 0.  1.
</event>
<event>
 7    1  0.5467297E-010  0.4778728E+02  0.7816164E-02  0.1312668E+00
        -11   -1    0    0    0    0  0.00000000000E+00  0.00000000000E+00  0.45593999997E+02  0.45594000000E+02  0.51100000000E-03 0. -1.
         11   -1    0    0    0    0 -0.00000000000E+00 -0.00000000000E+00 -0.45593999997E+02  0.45594000000E+02  0.51100000000E-03 0.  1.
    9900012    2    1    2    0    0 -0.20551383925E+02  0.10901266100E+02 -0.36639131338E+02  0.47787275018E+02  0.20000018116E+02 0.  0.
         12    1    1    2    0    0  0.20551383925E+02 -0.10901266100E+02  0.36639131338E+02  0.43400724982E+02  0.00000000000E+00 0. -1.
         11    1    3    3    0    0  0.24654439135E+01 -0.76084677979E-01 -0.19389737700E+01  0.31374865913E+01  0.51100000000E-03 0. -1.
        -11    1    3    3    0    0 -0.21026367855E+02  0.13146111465E+02 -0.32901845355E+02  0.41200240531E+02  0.51100000000E-03 0.  1.
        -12    1    3    3    0    0 -0.19904599841E+01 -0.21687606875E+01 -0.17983122126E+01  0.34495478953E+01  0.00000000000E+00 0.  1.
</event>
<event>
 7    1  0.5467297E-010  0.4778727E+02  0.7816164E-02  0.1312668E+00
        -11   -1    0    0    0    0  0.00000000000E+00  0.00000000000E+00  0.45593999997E+02  0.45594000000E+02  0.51100000000E-03 0.  1.
         11   -1    0    0    0    0 -0.00000000000E+00 -0.00000000000E+00 -0.45593999997E+02  0.45594000000E+02  0.51100000000E-03 0. -1.
    9900012    2    1    2    0    0  0.22715983937E+02  0.58025136370E+01  0.36523119835E+02  0.47787269900E+02  0.19999994781E+02 0.  0.
         12    1    1    2    0    0 -0.22715983937E+02 -0.58025136370E+01 -0.36523119835E+02  0.43400730100E+02  0.00000000000E+00 0. -1.
         11    1    3    3    0    0  0.32165692349E+01  0.62728114662E+01  0.69702110087E+01  0.99135424092E+01  0.51100000000E-03 0. -1.
        -11    1    3    3    0    0  0.20427353651E+02 -0.23529035963E+01  0.22344318023E+02  0.30365794584E+02  0.51100000000E-03 0.  1.
        -12    1    3    3    0    0 -0.92793894851E+00  0.18826057671E+01  0.72085908031E+01  0.75079329068E+01  0.00000000000E+00 0.  1.
</event>
<event>
 7    1  0.5467297E-010  0.4778727E+02  0.7816164E-02  0.1312668E+00
        -11   -1    0    0    0    0  0.00000000000E+00  0.00000000000E+00  0.45593999997E+02  0.45594000000E+02  0.51100000000E-03 0.  1.
         11   -1    0    0    0    0 -0.00000000000E+00 -0.00000000000E+00 -0.45593999997E+02  0.45594000000E+02  0.51100000000E-03 0. -1.
    9900012    2    1    2    0    0 -0.29164241125E+02  0.49155614099E+01  0.31763306485E+02  0.47787270245E+02  0.19999996357E+02 0.  0.
         12    1    1    2    0    0  0.29164241125E+02 -0.49155614099E+01 -0.31763306485E+02  0.43400729755E+02  0.00000000000E+00 0. -1.
         11    1    3    3    0    0 -0.14545244230E+02  0.60890988094E+00  0.23832545668E+02  0.27927139743E+02  0.51100000000E-03 0. -1.
        -11    1    3    3    0    0 -0.36263894139E+01 -0.88614934003E-01  0.71234704817E+01  0.79938967189E+01  0.51100000000E-03 0.  1.
         12    1    3    3    0    0 -0.10992607481E+02  0.43952664629E+01  0.80729033526E+00  0.11866233783E+02  0.00000000000E+00 0. -1.
</event>
<event>
 7    1  0.5467297E-010  0.4778727E+02  0.7816164E-02  0.1312668E+00
        -11   -1    0    0    0    0  0.00000000000E+00  0.00000000000E+00  0.45593999997E+02  0.45594000000E+02  0.51100000000E-03 0. -1.
         11   -1    0    0    0    0 -0.00000000000E+00 -0.00000000000E+00 -0.45593999997E+02  0.45594000000E+02  0.51100000000E-03 0.  1.
    9900012    2    1    2    0    0  0.96550660844E+01  0.26215902210E+02 -0.33213392199E+02  0.47787271307E+02  0.20000001196E+02 0.  0.
         12    1    1    2    0    0 -0.96550660844E+01 -0.26215902210E+02  0.33213392199E+02  0.43400728693E+02  0.00000000000E+00 0. -1.
         11    1    3    3    0    0  0.44559954400E+01  0.49053018107E+00 -0.10377879152E+01  0.46014692477E+01  0.51100000000E-03 0. -1.
        -11    1    3    3    0    0  0.32067291659E+01  0.18862936905E+02 -0.30236062338E+02  0.35781461214E+02  0.51100000000E-03 0.  1.
        -12    1    3    3    0    0  0.19923414786E+01  0.68624351235E+01 -0.19395419455E+01  0.74043408451E+01  0.00000000000E+00 0.  1.
</event>
<event>
 7    1  0.5467297E-010  0.4778726E+02  0.7816164E-02  0.1312668E+00
        -11   -1    0    0    0    0  0.00000000000E+00  0.00000000000E+00  0.45593999997E+02  0.45594000000E+02  0.51100000000E-03 0. -1.
         11   -1    0    0    0    0 -0.00000000000E+00 -0.00000000000E+00 -0.45593999997E+02  0.45594000000E+02  0.51100000000E-03 0.  1.
    9900012    2    1    2    0    0  0.19106655353E+02  0.34652883388E+02  0.17825185539E+02  0.47787264460E+02  0.19999969981E+02 0.  0.
         12    1    1    2    0    0 -0.19106655353E+02 -0.34652883388E+02 -0.17825185539E+02  0.43400735540E+02  0.00000000000E+00 0. -1.
         11    1    3    3    0    0 -0.31002752073E+01  0.12420170401E+01  0.13489025651E+01  0.36019232474E+01  0.51100000000E-03 0. -1.
        -11    1    3    3    0    0  0.11535808020E+02  0.99870230379E+01  0.61931251803E+01  0.16467249181E+02  0.51100000000E-03 0.  1.
         12    1    3    3    0    0  0.10671122540E+02  0.23423843310E+02  0.10283157794E+02  0.27718092032E+02  0.00000000000E+00 0. -1.
</event>
<event>
 7    1  0.5467297E-010  0.4778726E+02  0.7816164E-02  0.1312668E+00
        -11   -1    0    0    0    0  0.00000000000E+00  0.00000000000E+00  0.45593999997E+02  0.45594000000E+02  0.51100000000E-03 0.  1.
         11   -1    0    0    0    0 -0.00000000000E+00 -0.00000000000E+00 -0.45593999997E+02  0.45594000000E+02  0.51100000000E-03 0. -1.
    9900012    2    1    2    0    0  0.60173877594E+01 -0.23497118158E+02  0.35990286439E+02  0.47787259970E+02  0.19999949507E+02 0.  0.
         12    1    1    2    0    0 -0.60173877594E+01  0.23497118158E+02 -0.35990286439E+02  0.43400740030E+02  0.00000000000E+00 0. -1.
         11    1    3    3    0    0  0.80077535417E+01 -0.32933808083E+01  0.14776122127E+02  0.17126127972E+02  0.51100000000E-03 0. -1.
        -11    1    3    3    0    0  0.24315533804E+01 -0.64454333591E+01  0.10945528033E+02  0.12932928795E+02  0.51100000000E-03 0.  1.
         12    1    3    3    0    0 -0.44219191627E+01 -0.13758303991E+02  0.10268636279E+02  0.17728203203E+02  0.00000000000E+00 0. -1.
</event>
<event>
 7    1  0.5467297E-010  0.4778727E+02  0.7816164E-02  0.1312668E+00
        -11   -1    0    0    0    0  0.00000000000E+00  0.00000000000E+00  0.45593999997E+02  0.45594000000E+02  0.51100000000E-03 0. -1.
         11   -1    0    0    0    0 -0.00000000000E+00 -0.00000000000E+00 -0.45593999997E+02  0.45594000000E+02  0.51100000000E-03 0.  1.
    9900012    2    1    2    0    0  0.38826407035E+02 -0.18529659116E+02  0.57258306140E+01  0.47787270900E+02  0.19999999341E+02 0.  0.
         12    1    1    2    0    0 -0.38826407035E+02  0.18529659116E+02 -0.57258306140E+01  0.43400729100E+02  0.00000000000E+00 0. -1.
         11    1    3    3    0    0  0.23354352975E+02 -0.16501203105E+02  0.78682958258E+01  0.29658482534E+02  0.51100000000E-03 0. -1.
        -11    1    3    3    0    0  0.11274908186E+02  0.24705127766E+01  0.20280629046E+00  0.11544181159E+02  0.51100000000E-03 0.  1.
        -12    1    3    3    0    0  0.41971458742E+01 -0.44989687881E+01 -0.23452715022E+01  0.65846072066E+01  0.00000000000E+00 0.  1.
</event>
<event>
 7    1  0.5467297E-010  0.4778727E+02  0.7816164E-02  0.1312668E+00
        -11   -1    0    0    0    0  0.00000000000E+00  0.00000000000E+00  0.45593999997E+02  0.45594000000E+02  0.51100000000E-03 0.  1.
         11   -1    0    0    0    0 -0.00000000000E+00 -0.00000000000E+00 -0.45593999997E+02  0.45594000000E+02  0.51100000000E-03 0. -1.
    9900012    2    1    2    0    0 -0.38203761776E+02 -0.43183554714E+01  0.20135731241E+02  0.47787270969E+02  0.19999999655E+02 0.  0.
         12    1    1    2    0    0  0.38203761776E+02  0.43183554714E+01 -0.20135731241E+02  0.43400729031E+02  0.00000000000E+00 0. -1.
         11    1    3    3    0    0 -0.68239948966E+01 -0.82550455106E+00  0.10780361718E+02  0.12785326087E+02  0.51100000000E-03 0.  1.
        -11    1    3    3    0    0 -0.63119834653E+01  0.12188969052E+01 -0.24706565988E+01  0.68870159882E+01  0.51100000000E-03 0. -1.
        -12    1    3    3    0    0 -0.25067783414E+02 -0.47117478255E+01  0.11826026121E+02  0.28114928894E+02  0.00000000000E+00 0.  1.
</event>
<event>
 7    1  0.5467297E-010  0.4778727E+02  0.7816164E-02  0.1312668E+00
        -11   -1    0    0    0    0  0.00000000000E+00  0.00000000000E+00  0.45593999997E+02  0.45594000000E+02  0.51100000000E-03 0.  1.
         11   -1    0    0    0    0 -0.00000000000E+00 -0.00000000000E+00 -0.45593999997E+02  0.45594000000E+02  0.51100000000E-03 0. -1.
    9900012    2    1    2    0    0 -0.33960237123E+02 -0.25983602898E+01  0.26899331791E+02  0.47787271522E+02  0.20000002178E+02 0.  0.
         12    1    1    2    0    0  0.33960237123E+02  0.25983602898E+01 -0.26899331791E+02  0.43400728478E+02  0.00000000000E+00 0. -1.
         11    1    3    3    0    0 -0.24559928920E+01  0.53636525027E+01  0.33654985013E+01  0.67917044752E+01  0.51100000000E-03 0. -1.
        -11    1    3    3    0    0 -0.70619225098E+01 -0.44150088817E+01  0.93208469799E+01  0.12499649661E+02  0.51100000000E-03 0.  1.
         12    1    3    3    0    0 -0.24442321721E+02 -0.35470039108E+01  0.14212986310E+02  0.28495917386E+02  0.00000000000E+00 0. -1.
</event>
<event>
 7    1  0.5467297E-010  0.4778727E+02  0.7816164E-02  0.1312668E+00
        -11   -1    0    0    0    0  0.00000000000E+00  0.00000000000E+00  0.45593999997E+02  0.45594000000E+02  0.51100000000E-03 0.  1.
         11   -1    0    0    0    0 -0.00000000000E+00 -0.00000000000E+00 -0.45593999997E+02  0.45594000000E+02  0.51100000000E-03 0. -1.
    9900012    2    1    2    0    0  0.88502849281E+01 -0.10591062660E+02  0.41147603563E+02  0.47787269239E+02  0.19999991768E+02 0.  0.
         12    1    1    2    0    0 -0.88502849281E+01  0.10591062660E+02 -0.41147603563E+02  0.43400730761E+02  0.00000000000E+00 0. -1.
         11    1    3    3    0    0  0.44067659723E+01  0.13989283488E+01  0.14385686778E+02  0.15110412674E+02  0.51100000000E-03 0. -1.
        -11    1    3    3    0    0  0.11092322935E+01 -0.84243559161E+01  0.39894236832E+01  0.93869947517E+01  0.51100000000E-03 0.  1.
        -12    1    3    3    0    0  0.33342866623E+01 -0.35656350928E+01  0.22772493102E+02  0.23289861813E+02  0.00000000000E+00 0.  1.
</event>
<event>
 7    1  0.5467297E-010  0.4778727E+02  0.7816164E-02  0.1312668E+00
        -11   -1    0    0    0    0  0.00000000000E+00  0.00000000000E+00  0.45593999997E+02  0.45594000000E+02  0.51100000000E-03 0. -1.
         11   -1    0    0    0    0 -0.00000000000E+00 -0.00000000000E+00 -0.45593999997E+02  0.45594000000E+02  0.51100000000E-03 0.  1.
    9900012    2    1    2    0    0 -0.35882151766E+02  0.84784127807E+01 -0.22895654012E+02  0.47787271075E+02  0.20000000138E+02 0.  0.
         12    1    1    2    0    0  0.35882151766E+02 -0.84784127807E+01  0.22895654012E+02  0.43400728925E+02  0.00000000000E+00 0. -1.
         11    1    3    3    0    0 -0.31687059612E+02  0.24641841783E+01 -0.14809653396E+02  0.35063767403E+02  0.51100000000E-03 0.  1.
        -11    1    3    3    0    0 -0.54842854058E+00  0.42607278326E+01 -0.77181476238E+00  0.43646619361E+01  0.51100000000E-03 0. -1.
         12    1    3    3    0    0 -0.36466636128E+01  0.17535007698E+01 -0.73141858539E+01  0.83588417356E+01  0.00000000000E+00 0. -1.
</event>
<event>
 7    1  0.5467297E-010  0.4778727E+02  0.7816164E-02  0.1312668E+00
        -11   -1    0    0    0    0  0.00000000000E+00  0.00000000000E+00  0.45593999997E+02  0.45594000000E+02  0.51100000000E-03 0.  1.
         11   -1    0    0    0    0 -0.00000000000E+00 -0.00000000000E+00 -0.45593999997E+02  0.45594000000E+02  0.51100000000E-03 0. -1.
    9900012    2    1    2    0    0 -0.39332063718E+02 -0.11978488323E+01  0.18307848769E+02  0.47787269538E+02  0.19999993131E+02 0.  0.
         12    1    1    2    0    0  0.39332063718E+02  0.11978488323E+01 -0.18307848769E+02  0.43400730462E+02  0.00000000000E+00 0. -1.
         11    1    3    3    0    0 -0.11724012976E+02 -0.55367667861E+01  0.99677325082E+00  0.13003915713E+02  0.51100000000E-03 0. -1.
        -11    1    3    3    0    0 -0.16177023294E+02  0.66121635389E+01  0.58291158057E+01  0.18422686575E+02  0.51100000000E-03 0.  1.
         12    1    3    3    0    0 -0.11431027448E+02 -0.22732455851E+01  0.11481959712E+02  0.16360667249E+02  0.00000000000E+00 0. -1.
</event>
<event>
 7    1  0.5467297E-010  0.4778727E+02  0.7816164E-02  0.1312668E+00
        -11   -1    0    0    0    0  0.00000000000E+00  0.00000000000E+00  0.45593999997E+02  0.45594000000E+02  0.51100000000E-03 0.  1.
         11   -1    0    0    0    0 -0.00000000000E+00 -0.00000000000E+00 -0.45593999997E+02  0.45594000000E+02  0.51100000000E-03 0. -1.
    9900012    2    1    2    0    0 -0.88852501969E+01 -0.27730157874E+02  0.32182511549E+02  0.47787269864E+02  0.19999994616E+02 0.  0.
         12    1    1    2    0    0  0.88852501969E+01  0.27730157874E+02 -0.32182511549E+02  0.43400730136E+02  0.00000000000E+00 0. -1.
         11    1    3    3    0    0 -0.34579910028E+01 -0.11430670685E+01  0.20602914273E+01  0.41843882618E+01  0.51100000000E-03 0. -1.
        -11    1    3    3    0    0 -0.97280371336E+00 -0.21939986870E+02  0.29981031678E+02  0.37164117529E+02  0.51100000000E-03 0.  1.
        -12    1    3    3    0    0 -0.44544554808E+01 -0.46471039351E+01  0.14118844323E+00  0.64387640732E+01  0.00000000000E+00 0.  1.
</event>
<event>
 7    1  0.5467297E-010  0.4778727E+02  0.7816164E-02  0.1312668E+00
        -11   -1    0    0    0    0  0.00000000000E+00  0.00000000000E+00  0.45593999997E+02  0.45594000000E+02  0.51100000000E-03 0.  1.
         11   -1    0    0    0    0 -0.00000000000E+00 -0.00000000000E+00 -0.45593999997E+02  0.45594000000E+02  0.51100000000E-03 0. -1.
    9900012    2    1    2    0    0 -0.85240221026E+01 -0.27961235428E+02  0.32080117289E+02  0.47787267694E+02  0.19999984723E+02 0.  0.
         12    1    1    2    0    0  0.85240221026E+01  0.27961235428E+02 -0.32080117289E+02  0.43400732306E+02  0.00000000000E+00 0. -1.
         11    1    3    3    0    0 -0.11956033968E+02 -0.12101034917E+02  0.22018412922E+02  0.27824311351E+02  0.51100000000E-03 0. -1.
        -11    1    3    3    0    0  0.33895720210E+01 -0.36604668415E+01  0.22213405775E+01  0.54610045052E+01  0.51100000000E-03 0.  1.
         12    1    3    3    0    0  0.42439844749E-01 -0.12199733669E+02  0.78403637896E+01  0.14501951838E+02  0.00000000000E+00 0. -1.
</event>
<event>
 7    1  0.5467297E-010  0.4778727E+02  0.7816164E-02  0.1312668E+00
        -11   -1    0    0    0    0  0.00000000000E+00  0.00000000000E+00  0.45593999997E+02  0.45594000000E+02  0.51100000000E-03 0.  1.
         11   -1    0    0    0    0 -0.00000000000E+00 -0.00000000000E+00 -0.45593999997E+02  0.45594000000E+02  0.51100000000E-03 0. -1.
    9900012    2    1    2    0    0 -0.10256049451E+02  0.11171493248E+02  0.40664903921E+02  0.47787271634E+02  0.20000002689E+02 0.  0.
         12    1    1    2    0    0  0.10256049451E+02 -0.11171493248E+02 -0.40664903921E+02  0.43400728366E+02  0.00000000000E+00 0. -1.
         11    1    3    3    0    0 -0.94149083334E+00  0.11546426318E+02  0.12844730121E+02  0.17297209539E+02  0.51100000000E-03 0. -1.
        -11    1    3    3    0    0  0.67516154782E+00 -0.16664797486E+01  0.16196559775E+01  0.24199759534E+01  0.51100000000E-03 0.  1.
         12    1    3    3    0    0 -0.99897201657E+01  0.12915466795E+01  0.26200517823E+02  0.28070086142E+02  0.00000000000E+00 0. -1.
</event>
<event>
 7    1  0.5467297E-010  0.4778727E+02  0.7816164E-02  0.1312668E+00
        -11   -1    0    0    0    0  0.00000000000E+00  0.00000000000E+00  0.45593999997E+02  0.45594000000E+02  0.51100000000E-03 0.  1.
         11   -1    0    0    0    0 -0.00000000000E+00 -0.00000000000E+00 -0.45593999997E+02  0.45594000000E+02  0.51100000000E-03 0. -1.
    9900012    2    1    2    0    0 -0.35103758951E+02  0.23685424020E+02 -0.95052645934E+01  0.47787271221E+02  0.20000000807E+02 0.  0.
         12    1    1    2    0    0  0.35103758951E+02 -0.23685424020E+02  0.95052645934E+01  0.43400728779E+02  0.00000000000E+00 0. -1.
         11    1    3    3    0    0 -0.17466819072E+02  0.15805115289E+02 -0.11610939072E+02  0.26262241797E+02  0.51100000000E-03 0. -1.
        -11    1    3    3    0    0 -0.16923575031E+02  0.39930843253E+01  0.98075599621E+00  0.17415912174E+02  0.51100000000E-03 0.  1.
         12    1    3    3    0    0 -0.71336484738E+00  0.38872244057E+01  0.11249184823E+01  0.41091172504E+01  0.00000000000E+00 0. -1.
</event>
<event>
 7    1  0.5467297E-010  0.4778727E+02  0.7816164E-02  0.1312668E+00
        -11   -1    0    0    0    0  0.00000000000E+00  0.00000000000E+00  0.45593999997E+02  0.45594000000E+02  0.51100000000E-03 0.  1.
         11   -1    0    0    0    0 -0.00000000000E+00 -0.00000000000E+00 -0.45593999997E+02  0.45594000000E+02  0.51100000000E-03 0. -1.
    9900012    2    1    2    0    0  0.26483294600E+02 -0.22027827361E+02  0.26401394676E+02  0.47787265997E+02  0.19999976989E+02 0.  0.
         12    1    1    2    0    0 -0.26483294600E+02  0.22027827361E+02 -0.26401394676E+02  0.43400734003E+02  0.00000000000E+00 0. -1.
         11    1    3    3    0    0  0.41485180273E+01 -0.10826165414E+01  0.12424024234E+02  0.13143007221E+02  0.51100000000E-03 0. -1.
        -11    1    3    3    0    0  0.17190569708E+02 -0.18520108506E+02  0.14137601306E+02  0.28954824761E+02  0.51100000000E-03 0.  1.
         12    1    3    3    0    0  0.51442068640E+01 -0.24251023135E+01 -0.16023086271E+00  0.56894340158E+01  0.00000000000E+00 0. -1.
</event>
<event>
 7    1  0.5467297E-010  0.4778727E+02  0.7816164E-02  0.1312668E+00
        -11   -1    0    0    0    0  0.00000000000E+00  0.00000000000E+00  0.45593999997E+02  0.45594000000E+02  0.51100000000E-03 0.  1.
         11   -1    0    0    0    0 -0.00000000000E+00 -0.00000000000E+00 -0.45593999997E+02  0.45594000000E+02  0.51100000000E-03 0. -1.
    9900012    2    1    2    0    0  0.42826628045E+02  0.69949817323E+01 -0.75736149199E+00  0.47787269182E+02  0.19999991508E+02 0.  0.
         12    1    1    2    0    0 -0.42826628045E+02 -0.69949817323E+01  0.75736149199E+00  0.43400730818E+02  0.00000000000E+00 0. -1.
         11    1    3    3    0    0  0.19311508957E+02  0.11019100148E+02  0.53225728550E+01  0.22862299279E+02  0.51100000000E-03 0. -1.
        -11    1    3    3    0    0  0.15850558299E+02 -0.19221445752E+01 -0.57502532195E+01  0.16970570129E+02  0.51100000000E-03 0.  1.
         12    1    3    3    0    0  0.76645607888E+01 -0.21019738408E+01 -0.32968112745E+00  0.79543997736E+01  0.00000000000E+00 0. -1.
</event>
<event>
 7    1  0.5467297E-010  0.4778728E+02  0.7816164E-02  0.1312668E+00
        -11   -1    0    0    0    0  0.00000000000E+00  0.00000000000E+00  0.45593999997E+02  0.45594000000E+02  0.51100000000E-03 0.  1.
         11   -1    0    0    0    0 -0.00000000000E+00 -0.00000000000E+00 -0.45593999997E+02  0.45594000000E+02  0.51100000000E-03 0. -1.
    9900012    2    1    2    0    0  0.87931215137E+01 -0.18451293464E+01  0.42460563272E+02  0.47787275102E+02  0.20000018500E+02 0.  0.
         12    1    1    2    0    0 -0.87931215137E+01  0.18451293464E+01 -0.42460563272E+02  0.43400724898E+02  0.00000000000E+00 0. -1.
         11    1    3    3    0    0  0.62918024123E+00 -0.45168421963E+01  0.52899715040E+00  0.45910314144E+01  0.51100000000E-03 0. -1.
        -11    1    3    3    0    0  0.51185487795E+01  0.40696092052E+01  0.20891253830E+02  0.21890768546E+02  0.51100000000E-03 0.  1.
         12    1    3    3    0    0  0.30453924930E+01 -0.13978963553E+01  0.21040312292E+02  0.21305475142E+02  0.00000000000E+00 0. -1.
</event>
<event>
 7    1  0.5467297E-010  0.4778729E+02  0.7816164E-02  0.1312668E+00
        -11   -1    0    0    0    0  0.00000000000E+00  0.00000000000E+00  0.45593999997E+02  0.45594000000E+02  0.51100000000E-03 0.  1.
         11   -1    0    0    0    0 -0.00000000000E+00 -0.00000000000E+00 -0.45593999997E+02  0.45594000000E+02  0.51100000000E-03 0. -1.
    9900012    2    1    2    0    0  0.11358334819E+02  0.73139087143E+01  0.41244592931E+02  0.47787291750E+02  0.20000094404E+02 0.  0.
         12    1    1    2    0    0 -0.11358334819E+02 -0.73139087143E+01 -0.41244592931E+02  0.43400708250E+02  0.00000000000E+00 0. -1.
         11    1    3    3    0    0 -0.34502274656E+01  0.17283860977E+01  0.24116274735E+01  0.45505313315E+01  0.51100000000E-03 0. -1.
        -11    1    3    3    0    0  0.88737024687E+01  0.85896441193E+01  0.25869915958E+02  0.28666655429E+02  0.51100000000E-03 0.  1.
         12    1    3    3    0    0  0.59348598159E+01 -0.30041215028E+01  0.12963049500E+02  0.14570104989E+02  0.00000000000E+00 0. -1.
</event>
<event>
 7    1  0.5467297E-010  0.4778726E+02  0.7816164E-02  0.1312668E+00
        -11   -1    0    0    0    0  0.00000000000E+00  0.00000000000E+00  0.45593999997E+02  0.45594000000E+02  0.51100000000E-03 0. -1.
         11   -1    0    0    0    0 -0.00000000000E+00 -0.00000000000E+00 -0.45593999997E+02  0.45594000000E+02  0.51100000000E-03 0.  1.
    9900012    2    1    2    0    0 -0.25138218654E+01  0.42878761294E+02 -0.62222593206E+01  0.47787262892E+02  0.19999962829E+02 0.  0.
         12    1    1    2    0    0  0.25138218654E+01 -0.42878761294E+02  0.62222593206E+01  0.43400737108E+02  0.00000000000E+00 0. -1.
         11    1    3    3    0    0 -0.84511954995E+01  0.11825749506E+02 -0.48149370911E+01  0.15311912885E+02  0.51100000000E-03 0. -1.
        -11    1    3    3    0    0  0.18953125915E+01  0.23710621973E+02  0.82891534251E+00  0.23800691273E+02  0.51100000000E-03 0.  1.
         12    1    3    3    0    0  0.40420610426E+01  0.73423898150E+01 -0.22362375720E+01  0.86746587337E+01  0.00000000000E+00 0. -1.
</event>
<event>
 7    1  0.5467297E-010  0.4778727E+02  0.7816164E-02  0.1312668E+00
        -11   -1    0    0    0    0  0.00000000000E+00  0.00000000000E+00  0.45593999997E+02  0.45594000000E+02  0.51100000000E-03 0.  1.
         11   -1    0    0    0    0 -0.00000000000E+00 -0.00000000000E+00 -0.45593999997E+02  0.45594000000E+02  0.51100000000E-03 0. -1.
    9900012    2    1    2    0    0 -0.18534093052E+02  0.21119273108E+02  0.33076983258E+02  0.47787272779E+02  0.20000007910E+02 0.  0.
         12    1    1    2    0    0  0.18534093052E+02 -0.21119273108E+02 -0.33076983258E+02  0.43400727221E+02  0.00000000000E+00 0. -1.
         11    1    3    3    0    0  0.25832558939E+00  0.59665957450E+01  0.91149612348E-01  0.59728808298E+01  0.51100000000E-03 0. -1.
        -11    1    3    3    0    0 -0.18982404747E+02  0.12051129689E+02  0.27633500839E+02  0.35625437339E+02  0.51100000000E-03 0.  1.
        -12    1    3    3    0    0  0.18998610566E+00  0.31015476742E+01  0.53523328065E+01  0.61889546102E+01  0.00000000000E+00 0.  1.
</event>
<event>
 7    1  0.5467297E-010  0.4778727E+02  0.7816164E-02  0.1312668E+00
        -11   -1    0    0    0    0  0.00000000000E+00  0.00000000000E+00  0.45593999997E+02  0.45594000000E+02  0.51100000000E-03 0.  1.
         11   -1    0    0    0    0 -0.00000000000E+00 -0.00000000000E+00 -0.45593999997E+02  0.45594000000E+02  0.51100000000E-03 0. -1.
    9900012    2    1    2    0    0 -0.63552529633E+01  0.28221256333E+02  0.32354214141E+02  0.47787265883E+02  0.19999976466E+02 0.  0.
         12    1    1    2    0    0  0.63552529633E+01 -0.28221256333E+02 -0.32354214141E+02  0.43400734117E+02  0.00000000000E+00 0. -1.
         11    1    3    3    0    0  0.24380156847E+01  0.64920855037E+01  0.73547434541E+00  0.69736659972E+01  0.51100000000E-03 0. -1.
        -11    1    3    3    0    0 -0.47158796825E+01  0.98807865657E+01  0.64731233384E+01  0.12718914669E+02  0.51100000000E-03 0.  1.
         12    1    3    3    0    0 -0.40773889656E+01  0.11848384264E+02  0.25145616457E+02  0.28094685217E+02  0.00000000000E+00 0. -1.
</event>
<event>
 7    1  0.5467297E-010  0.4778726E+02  0.7816164E-02  0.1312668E+00
        -11   -1    0    0    0    0  0.00000000000E+00  0.00000000000E+00  0.45593999997E+02  0.45594000000E+02  0.51100000000E-03 0. -1.
         11   -1    0    0    0    0 -0.00000000000E+00 -0.00000000000E+00 -0.45593999997E+02  0.45594000000E+02  0.51100000000E-03 0.  1.
    9900012    2    1    2    0    0  0.21399000280E+02  0.33815543227E+02 -0.16799291659E+02  0.47787258336E+02  0.19999942057E+02 0.  0.
         12    1    1    2    0    0 -0.21399000280E+02 -0.33815543227E+02  0.16799291659E+02  0.43400741664E+02  0.00000000000E+00 0. -1.
         11    1    3    3    0    0  0.12439885166E+02  0.11926869419E+02 -0.14093299001E+02  0.22262570248E+02  0.51100000000E-03 0. -1.
        -11    1    3    3    0    0  0.78412637059E+01  0.72130288132E+01 -0.81175534577E+00  0.10685136788E+02  0.51100000000E-03 0.  1.
         12    1    3    3    0    0  0.11178514086E+01  0.14675644995E+02 -0.18942373121E+01  0.14839551300E+02  0.00000000000E+00 0. -1.
</event>
<event>
 7    1  0.5467297E-010  0.4778727E+02  0.7816164E-02  0.1312668E+00
        -11   -1    0    0    0    0  0.00000000000E+00  0.00000000000E+00  0.45593999997E+02  0.45594000000E+02  0.51100000000E-03 0.  1.
         11   -1    0    0    0    0 -0.00000000000E+00 -0.00000000000E+00 -0.45593999997E+02  0.45594000000E+02  0.51100000000E-03 0. -1.
    9900012    2    1    2    0    0  0.18743811307E+02 -0.38788257348E+02  0.52691235444E+01  0.47787273816E+02  0.20000012635E+02 0.  0.
         12    1    1    2    0    0 -0.18743811307E+02  0.38788257348E+02 -0.52691235444E+01  0.43400726184E+02  0.00000000000E+00 0. -1.
         11    1    3    3    0    0  0.15086089005E+02 -0.16161920734E+02 -0.31693859816E+01  0.22334788359E+02  0.51100000000E-03 0.  1.
        -11    1    3    3    0    0  0.36420835945E+01 -0.97773697327E+01  0.70894381510E+00  0.10457740358E+02  0.51100000000E-03 0. -1.
         12    1    3    3    0    0  0.15638706735E-01 -0.12848966881E+02  0.77295657109E+01  0.14994745098E+02  0.00000000000E+00 0. -1.
</event>
<event>
 7    1  0.5467297E-010  0.4778727E+02  0.7816164E-02  0.1312668E+00
        -11   -1    0    0    0    0  0.00000000000E+00  0.00000000000E+00  0.45593999997E+02  0.45594000000E+02  0.51100000000E-03 0.  1.
         11   -1    0    0    0    0 -0.00000000000E+00 -0.00000000000E+00 -0.45593999997E+02  0.45594000000E+02  0.51100000000E-03 0. -1.
    9900012    2    1    2    0    0  0.14270134788E+02 -0.13475510184E+02  0.38709132815E+02  0.47787273222E+02  0.20000009928E+02 0.  0.
         12    1    1    2    0    0 -0.14270134788E+02  0.13475510184E+02 -0.38709132815E+02  0.43400726778E+02  0.00000000000E+00 0. -1.
         11    1    3    3    0    0  0.31319820410E+01  0.28700569577E+01  0.11445866105E+01  0.43996155759E+01  0.51100000000E-03 0. -1.
        -11    1    3    3    0    0  0.77241998754E+01 -0.49229010307E+01  0.21608159469E+02  0.23469358196E+02  0.51100000000E-03 0.  1.
         12    1    3    3    0    0  0.34139528712E+01 -0.11422666111E+02  0.15956386736E+02  0.19918299450E+02  0.00000000000E+00 0. -1.
</event>
<event>
 7    1  0.5467297E-010  0.4778727E+02  0.7816164E-02  0.1312668E+00
        -11   -1    0    0    0    0  0.00000000000E+00  0.00000000000E+00  0.45593999997E+02  0.45594000000E+02  0.51100000000E-03 0.  1.
         11   -1    0    0    0    0 -0.00000000000E+00 -0.00000000000E+00 -0.45593999997E+02  0.45594000000E+02  0.51100000000E-03 0. -1.
    9900012    2    1    2    0    0  0.19811872157E+02  0.33674360731E+02  0.18898428503E+02  0.47787269028E+02  0.19999990805E+02 0.  0.
         12    1    1    2    0    0 -0.19811872157E+02 -0.33674360731E+02 -0.18898428503E+02  0.43400730972E+02  0.00000000000E+00 0. -1.
         11    1    3    3    0    0 -0.22680799303E+00 -0.71910646804E-01 -0.98503968501E+00  0.10133688613E+01  0.51100000000E-03 0. -1.
        -11    1    3    3    0    0  0.17761121262E+02  0.14834907202E+02  0.89569535094E+01  0.24814490053E+02  0.51100000000E-03 0.  1.
        -12    1    3    3    0    0  0.22775588885E+01  0.18911364176E+02  0.10926514679E+02  0.21959410113E+02  0.00000000000E+00 0.  1.
</event>
<event>
 7    1  0.5467297E-010  0.4778729E+02  0.7816164E-02  0.1312668E+00
        -11   -1    0    0    0    0  0.00000000000E+00  0.00000000000E+00  0.45593999997E+02  0.45594000000E+02  0.51100000000E-03 0.  1.
         11   -1    0    0    0    0 -0.00000000000E+00 -0.00000000000E+00 -0.45593999997E+02  0.45594000000E+02  0.51100000000E-03 0. -1.
    9900012    2    1    2    0    0 -0.85479338466E+01 -0.16542039663E+02  0.39203515895E+02  0.47787286782E+02  0.20000071754E+02 0.  0.
         12    1    1    2    0    0  0.85479338466E+01  0.16542039663E+02 -0.39203515895E+02  0.43400713218E+02  0.00000000000E+00 0. -1.
         11    1    3    3    0    0 -0.64449847887E+01 -0.16875419571E+01  0.18428733428E+02  0.19596015993E+02  0.51100000000E-03 0. -1.
        -11    1    3    3    0    0  0.22894305794E+01 -0.14456167709E+02  0.16342135246E+02  0.21938269345E+02  0.51100000000E-03 0.  1.
        -12    1    3    3    0    0 -0.43923796373E+01 -0.39832999716E+00  0.44326472215E+01  0.62530014437E+01  0.00000000000E+00 0.  1.
</event>
<event>
 7    1  0.5467297E-010  0.4778731E+02  0.7816164E-02  0.1312668E+00
        -11   -1    0    0    0    0  0.00000000000E+00  0.00000000000E+00  0.45593999997E+02  0.45594000000E+02  0.51100000000E-03 0. -1.
         11   -1    0    0    0    0 -0.00000000000E+00 -0.00000000000E+00 -0.45593999997E+02  0.45594000000E+02  0.51100000000E-03 0.  1.
    9900012    2    1    2    0    0 -0.41851614331E+02 -0.45318276940E+01  0.10560520007E+02  0.47787312596E+02  0.20000189449E+02 0.  0.
         12    1    1    2    0    0  0.41851614331E+02  0.45318276940E+01 -0.10560520007E+02  0.43400687404E+02  0.00000000000E+00 0. -1.
         11    1    3    3    0    0 -0.28053263988E+02 -0.40022932438E+01  0.89497213909E+01  0.29717023485E+02  0.51100000000E-03 0. -1.
        -11    1    3    3    0    0 -0.13727960823E+02 -0.39072090309E+01  0.26884859417E+01  0.14524157383E+02  0.51100000000E-03 0.  1.
         12    1    3    3    0    0 -0.70389519758E-01  0.33776745808E+01 -0.10776873256E+01  0.35461317277E+01  0.00000000000E+00 0. -1.
</event>
<event>
 7    1  0.5467297E-010  0.4778727E+02  0.7816164E-02  0.1312668E+00
        -11   -1    0    0    0    0  0.00000000000E+00  0.00000000000E+00  0.45593999997E+02  0.45594000000E+02  0.51100000000E-03 0.  1.
         11   -1    0    0    0    0 -0.00000000000E+00 -0.00000000000E+00 -0.45593999997E+02  0.45594000000E+02  0.51100000000E-03 0. -1.
    9900012    2    1    2    0    0 -0.36989659575E+02  0.11832222962E+02  0.19374902269E+02  0.47787271277E+02  0.20000001062E+02 0.  0.
         12    1    1    2    0    0  0.36989659575E+02 -0.11832222962E+02 -0.19374902269E+02  0.43400728723E+02  0.00000000000E+00 0. -1.
         11    1    3    3    0    0 -0.66026255462E+01  0.68973382796E+01  0.64005740985E+01  0.11495011461E+02  0.51100000000E-03 0.  1.
        -11    1    3    3    0    0 -0.15441563882E+02 -0.34549642966E+01  0.10463315695E+02  0.18969967027E+02  0.51100000000E-03 0. -1.
        -12    1    3    3    0    0 -0.14945470147E+02  0.83898489791E+01  0.25110124754E+01  0.17322292789E+02  0.00000000000E+00 0.  1.
</event>
<event>
 7    1  0.5467297E-010  0.4778727E+02  0.7816164E-02  0.1312668E+00
        -11   -1    0    0    0    0  0.00000000000E+00  0.00000000000E+00  0.45593999997E+02  0.45594000000E+02  0.51100000000E-03 0. -1.
         11   -1    0    0    0    0 -0.00000000000E+00 -0.00000000000E+00 -0.45593999997E+02  0.45594000000E+02  0.51100000000E-03 0.  1.
    9900012    2    1    2    0    0 -0.58988286028E+01  0.42895700702E+01 -0.42783488990E+02  0.47787268204E+02  0.19999987050E+02 0.  0.
         12    1    1    2    0    0  0.58988286028E+01 -0.42895700702E+01  0.42783488990E+02  0.43400731796E+02  0.00000000000E+00 0. -1.
         11    1    3    3    0    0  0.40441456265E+01  0.73876185314E+01 -0.22584470602E+02  0.24103741080E+02  0.51100000000E-03 0.  1.
        -11    1    3    3    0    0 -0.31805756014E+01 -0.43389233232E+01 -0.10457171203E+02  0.11759878681E+02  0.51100000000E-03 0. -1.
         12    1    3    3    0    0 -0.67623986279E+01  0.12408748621E+01 -0.97418471842E+01  0.11923648443E+02  0.00000000000E+00 0. -1.
</event>
<event>
 7    1  0.5467297E-010  0.4778727E+02  0.7816164E-02  0.1312668E+00
        -11   -1    0    0    0    0  0.00000000000E+00  0.00000000000E+00  0.45593999997E+02  0.45594000000E+02  0.51100000000E-03 0. -1.
         11   -1    0    0    0    0 -0.00000000000E+00 -0.00000000000E+00 -0.45593999997E+02  0.45594000000E+02  0.51100000000E-03 0.  1.
    9900012    2    1    2    0    0  0.21536842777E+02 -0.34368988589E+02 -0.15445401245E+02  0.47787269671E+02  0.19999993739E+02 0.  0.
         12    1    1    2    0    0 -0.21536842777E+02  0.34368988589E+02  0.15445401245E+02  0.43400730329E+02  0.00000000000E+00 0. -1.
         11    1    3    3    0    0  0.42241382620E+01 -0.31834060125E+01  0.44494366541E+01  0.69119392863E+01  0.51100000000E-03 0. -1.
        -11    1    3    3    0    0  0.10177360335E+02 -0.17895765266E+02 -0.12379149221E+02  0.24022498070E+02  0.51100000000E-03 0.  1.
         12    1    3    3    0    0  0.71353441800E+01 -0.13289817311E+02 -0.75156886785E+01  0.16852832315E+02  0.00000000000E+00 0. -1.
</event>
<event>
 7    1  0.5467297E-010  0.4778727E+02  0.7816164E-02  0.1312668E+00
        -11   -1    0    0    0    0  0.00000000000E+00  0.00000000000E+00  0.45593999997E+02  0.45594000000E+02  0.51100000000E-03 0. -1.
         11   -1    0    0    0    0 -0.00000000000E+00 -0.00000000000E+00 -0.45593999997E+02  0.45594000000E+02  0.51100000000E-03 0.  1.
    9900012    2    1    2    0    0 -0.25684915310E+02  0.30104138939E+02 -0.17822711500E+02  0.47787273036E+02  0.20000009082E+02 0.  0.
         12    1    1    2    0    0  0.25684915310E+02 -0.30104138939E+02  0.17822711500E+02  0.43400726964E+02  0.00000000000E+00 0. -1.
         11    1    3    3    0    0 -0.23200923092E+02  0.12198052280E+02 -0.95008946589E+01  0.27880859229E+02  0.51100000000E-03 0. -1.
        -11    1    3    3    0    0 -0.13263647749E+01  0.10079706376E+02 -0.44391631437E+01  0.11093506832E+02  0.51100000000E-03 0.  1.
         12    1    3    3    0    0 -0.11576274429E+01  0.78263802830E+01 -0.38826536976E+01  0.88129069759E+01  0.00000000000E+00 0. -1.
</event>
<event>
 7    1  0.5467297E-010  0.4778726E+02  0.7816164E-02  0.1312668E+00
        -11   -1    0    0    0    0  0.00000000000E+00  0.00000000000E+00  0.45593999997E+02  0.45594000000E+02  0.51100000000E-03 0. -1.
         11   -1    0    0    0    0 -0.00000000000E+00 -0.00000000000E+00 -0.45593999997E+02  0.45594000000E+02  0.51100000000E-03 0.  1.
    9900012    2    1    2    0    0 -0.30231794952E+02 -0.11246506288E+02 -0.29037541428E+02  0.47787261045E+02  0.19999954407E+02 0.  0.
         12    1    1    2    0    0  0.30231794952E+02  0.11246506288E+02  0.29037541428E+02  0.43400738955E+02  0.00000000000E+00 0. -1.
         11    1    3    3    0    0 -0.24512099187E+02 -0.42667727223E+01 -0.18870065691E+02  0.31227035329E+02  0.51100000000E-03 0. -1.
        -11    1    3    3    0    0 -0.57937074098E+01 -0.74155886273E+01 -0.11671410190E+02  0.14992658748E+02  0.51100000000E-03 0.  1.
         12    1    3    3    0    0  0.74011644569E-01  0.43585506162E+00  0.15039344533E+01  0.15675669677E+01  0.00000000000E+00 0. -1.
</event>
<event>
 7    1  0.5467297E-010  0.4778728E+02  0.7816164E-02  0.1312668E+00
        -11   -1    0    0    0    0  0.00000000000E+00  0.00000000000E+00  0.45593999997E+02  0.45594000000E+02  0.51100000000E-03 0.  1.
         11   -1    0    0    0    0 -0.00000000000E+00 -0.00000000000E+00 -0.45593999997E+02  0.45594000000E+02  0.51100000000E-03 0. -1.
    9900012    2    1    2    0    0 -0.31182176040E+02 -0.33003084848E+00  0.30185855207E+02  0.47787275610E+02  0.20000020817E+02 0.  0.
         12    1    1    2    0    0  0.31182176040E+02  0.33003084848E+00 -0.30185855207E+02  0.43400724390E+02  0.00000000000E+00 0. -1.
         11    1    3    3    0    0  0.65745075726E+00  0.37919986891E+01  0.46967908525E+00  0.38771244835E+01  0.51100000000E-03 0. -1.
        -11    1    3    3    0    0 -0.27754650919E+02 -0.22870060428E+01  0.25666144713E+02  0.37872180146E+02  0.51100000000E-03 0.  1.
         12    1    3    3    0    0 -0.40849758784E+01 -0.18350234948E+01  0.40500314089E+01  0.60379709809E+01  0.00000000000E+00 0. -1.
</event>
<event>
 7    1  0.5467297E-010  0.4778727E+02  0.7816164E-02  0.1312668E+00
        -11   -1    0    0    0    0  0.00000000000E+00  0.00000000000E+00  0.45593999997E+02  0.45594000000E+02  0.51100000000E-03 0.  1.
         11   -1    0    0    0    0 -0.00000000000E+00 -0.00000000000E+00 -0.45593999997E+02  0.45594000000E+02  0.51100000000E-03 0. -1.
    9900012    2    1    2    0    0 -0.34395928687E+02  0.25664875193E+02  0.64697457796E+01  0.47787270290E+02  0.19999996559E+02 0.  0.
         12    1    1    2    0    0  0.34395928687E+02 -0.25664875193E+02 -0.64697457796E+01  0.43400729710E+02  0.00000000000E+00 0. -1.
         11    1    3    3    0    0 -0.63095193501E+01  0.13901270990E+02  0.19122886643E+01  0.15385454746E+02  0.51100000000E-03 0. -1.
        -11    1    3    3    0    0 -0.25608109690E+02  0.13592447217E+02  0.39086942478E+01  0.29254192763E+02  0.51100000000E-03 0.  1.
         12    1    3    3    0    0 -0.24782996476E+01 -0.18288430134E+01  0.64876286753E+00  0.31476227806E+01  0.00000000000E+00 0. -1.
</event>
<event>
 7    1  0.5467297E-010  0.4778727E+02  0.7816164E-02  0.1312668E+00
        -11   -1    0    0    0    0  0.00000000000E+00  0.00000000000E+00  0.45593999997E+02  0.45594000000E+02  0.51100000000E-03 0.  1.
         11   -1    0    0    0    0 -0.00000000000E+00 -0.00000000000E+00 -0.45593999997E+02  0.45594000000E+02  0.51100000000E-03 0. -1.
    9900012    2    1    2    0    0 -0.31034342070E+02  0.27413491068E+02  0.12999752119E+02  0.47787269183E+02  0.19999991512E+02 0.  0.
         12    1    1    2    0    0  0.31034342070E+02 -0.27413491068E+02 -0.12999752119E+02  0.43400730817E+02  0.00000000000E+00 0. -1.
         11    1    3    3    0    0 -0.13299930429E+02  0.20844813796E+01  0.12979642733E+01  0.13524715285E+02  0.51100000000E-03 0. -1.
        -11    1    3    3    0    0 -0.17504512591E+02  0.21726422842E+02  0.12488210787E+02  0.30567970484E+02  0.51100000000E-03 0.  1.
         12    1    3    3    0    0 -0.22989905049E+00  0.36025868470E+01 -0.78642294074E+00  0.36945834143E+01  0.00000000000E+00 0. -1.
</event>
<event>
 7    1  0.5467297E-010  0.4778727E+02  0.7816164E-02  0.1312668E+00
        -11   -1    0    0    0    0  0.00000000000E+00  0.00000000000E+00  0.45593999997E+02  0.45594000000E+02  0.51100000000E-03 0. -1.
         11   -1    0    0    0    0 -0.00000000000E+00 -0.00000000000E+00 -0.45593999997E+02  0.45594000000E+02  0.51100000000E-03 0.  1.
    9900012    2    1    2    0    0 -0.14865275882E+02  0.32049378426E+02  0.25208816071E+02  0.47787268529E+02  0.19999988529E+02 0.  0.
         12    1    1    2    0    0  0.14865275882E+02 -0.32049378426E+02 -0.25208816071E+02  0.43400731471E+02  0.00000000000E+00 0. -1.
         11    1    3    3    0    0 -0.91759867660E+01  0.77713469164E+01  0.98142097792E+01  0.15521316950E+02  0.51100000000E-03 0. -1.
        -11    1    3    3    0    0  0.38637625876E+01  0.29404422031E+01  0.15557311996E+01  0.50985450385E+01  0.51100000000E-03 0.  1.
        -12    1    3    3    0    0 -0.95530517037E+01  0.21337589306E+02  0.13838875093E+02  0.27167406540E+02  0.00000000000E+00 0.  1.
</event>
<event>
 7    1  0.5467297E-010  0.4778727E+02  0.7816164E-02  0.1312668E+00
        -11   -1    0    0    0    0  0.00000000000E+00  0.00000000000E+00  0.45593999997E+02  0.45594000000E+02  0.51100000000E-03 0.  1.
         11   -1    0    0    0    0 -0.00000000000E+00 -0.00000000000E+00 -0.45593999997E+02  0.45594000000E+02  0.51100000000E-03 0. -1.
    9900012    2    1    2    0    0 -0.17106838599E+02  0.18655360154E+02  0.35255596975E+02  0.47787268354E+02  0.19999987735E+02 0.  0.
         12    1    1    2    0    0  0.17106838599E+02 -0.18655360154E+02 -0.35255596975E+02  0.43400731646E+02  0.00000000000E+00 0. -1.
         11    1    3    3    0    0 -0.14813066437E+02  0.94032406341E+01  0.17208648161E+02  0.24576115305E+02  0.51100000000E-03 0.  1.
        -11    1    3    3    0    0  0.35857921718E+01  0.22996151204E+01  0.10682107876E+02  0.11500154961E+02  0.51100000000E-03 0. -1.
         12    1    3    3    0    0 -0.58795643334E+01  0.69525043992E+01  0.73648409381E+01  0.11710998088E+02  0.00000000000E+00 0. -1.
</event>
<event>
 7    1  0.6115286E-010  0.4778727E+02  0.7816164E-02  0.1312668E+00
        -11   -1    0    0    0    0  0.00000000000E+00  0.00000000000E+00  0.45593999997E+02  0.45594000000E+02  0.51100000000E-03 0. -1.
         11   -1    0    0    0    0 -0.00000000000E+00 -0.00000000000E+00 -0.45593999997E+02  0.45594000000E+02  0.51100000000E-03 0.  1.
    9900012    2    1    2    0    0 -0.73770983382E+01 -0.33081139886E+02 -0.27107934179E+02  0.47787268537E+02  0.19999988569E+02 0.  0.
         12    1    1    2    0    0  0.73770983382E+01  0.33081139886E+02  0.27107934179E+02  0.43400731463E+02  0.00000000000E+00 0. -1.
         11    1    3    3    0    0 -0.27957396216E+01 -0.73078831158E+01  0.95320660241E+00  0.78822534059E+01  0.51100000000E-03 0. -1.
        -11    1    3    3    0    0 -0.76595093525E+01 -0.22479178928E+02 -0.24828044051E+02  0.34357143951E+02  0.51100000000E-03 0.  1.
         12    1    3    3    0    0  0.30781506359E+01 -0.32940778428E+01 -0.32330967297E+01  0.55478711805E+01  0.00000000000E+00 0. -1.
</event>
<event>
 7    1  0.8232388E-010  0.4778727E+02  0.7816164E-02  0.1312668E+00
        -11   -1    0    0    0    0  0.00000000000E+00  0.00000000000E+00  0.45593999997E+02  0.45594000000E+02  0.51100000000E-03 0. -1.
         11   -1    0    0    0    0 -0.00000000000E+00 -0.00000000000E+00 -0.45593999997E+02  0.45594000000E+02  0.51100000000E-03 0.  1.
    9900012    2    1    2    0    0 -0.38130031693E+02  0.20597114318E+02  0.23415282760E+01  0.47787272013E+02  0.20000004416E+02 0.  0.
         12    1    1    2    0    0  0.38130031693E+02 -0.20597114318E+02 -0.23415282760E+01  0.43400727987E+02  0.00000000000E+00 0. -1.
         11    1    3    3    0    0 -0.10808304279E+01  0.42211928492E+01  0.29165731810E+01  0.52433827692E+01  0.51100000000E-03 0. -1.
        -11    1    3    3    0    0 -0.31195485836E+02  0.17957947463E+02  0.17795586362E+01  0.36039048861E+02  0.51100000000E-03 0.  1.
        -12    1    3    3    0    0 -0.58537154287E+01 -0.15820259937E+01 -0.23546035411E+01  0.65048403824E+01  0.00000000000E+00 0.  1.
</event>
<event>
 7    1  0.5467297E-010  0.4778727E+02  0.7816164E-02  0.1312668E+00
        -11   -1    0    0    0    0  0.00000000000E+00  0.00000000000E+00  0.45593999997E+02  0.45594000000E+02  0.51100000000E-03 0.  1.
         11   -1    0    0    0    0 -0.00000000000E+00 -0.00000000000E+00 -0.45593999997E+02  0.45594000000E+02  0.51100000000E-03 0. -1.
    9900012    2    1    2    0    0  0.31349869680E+02  0.29904930782E+02  0.25502884568E+01  0.47787272065E+02  0.20000004654E+02 0.  0.
         12    1    1    2    0    0 -0.31349869680E+02 -0.29904930782E+02 -0.25502884568E+01  0.43400727935E+02  0.00000000000E+00 0. -1.
         11    1    3    3    0    0  0.14995866206E+02  0.11723949834E+02 -0.49006422521E+01  0.19655617460E+02  0.51100000000E-03 0. -1.
        -11    1    3    3    0    0  0.97652439921E+01  0.87628268015E+01 -0.19731868013E+01  0.13268028874E+02  0.51100000000E-03 0.  1.
         12    1    3    3    0    0  0.65887594818E+01  0.94181541471E+01  0.94241175102E+01  0.14863625732E+02  0.00000000000E+00 0. -1.
</event>
<event>
 7    1  0.5467297E-010  0.4778727E+02  0.7816164E-02  0.1312668E+00
        -11   -1    0    0    0    0  0.00000000000E+00  0.00000000000E+00  0.45593999997E+02  0.45594000000E+02  0.51100000000E-03 0.  1.
         11   -1    0    0    0    0 -0.00000000000E+00 -0.00000000000E+00 -0.45593999997E+02  0.45594000000E+02  0.51100000000E-03 0. -1.
    9900012    2    1    2    0    0 -0.32063014980E+02 -0.18813793922E+02  0.22397040961E+02  0.47787271721E+02  0.20000003086E+02 0.  0.
         12    1    1    2    0    0  0.32063014980E+02  0.18813793922E+02 -0.22397040961E+02  0.43400728279E+02  0.00000000000E+00 0. -1.
         11    1    3    3    0    0 -0.26373944368E+01  0.30731496476E+01  0.26413889742E+01  0.48349802632E+01  0.51100000000E-03 0. -1.
        -11    1    3    3    0    0 -0.19982729747E+02 -0.10769000812E+02  0.16344620113E+02  0.27971905076E+02  0.51100000000E-03 0.  1.
         12    1    3    3    0    0 -0.94428907959E+01 -0.11117942757E+02  0.34110318733E+01  0.14980386382E+02  0.00000000000E+00 0. -1.
</event>
<event>
 7    1  0.5467297E-010  0.4778727E+02  0.7816164E-02  0.1312668E+00
        -11   -1    0    0    0    0  0.00000000000E+00  0.00000000000E+00  0.45593999997E+02  0.45594000000E+02  0.51100000000E-03 0.  1.
         11   -1    0    0    0    0 -0.00000000000E+00 -0.00000000000E+00 -0.45593999997E+02  0.45594000000E+02  0.51100000000E-03 0. -1.
    9900012    2    1    2    0    0  0.85639041093E+01 -0.26026119415E+02  0.33658937431E+02  0.47787269426E+02  0.19999992621E+02 0.  0.
         12    1    1    2    0    0 -0.85639041093E+01  0.26026119415E+02 -0.33658937431E+02  0.43400730574E+02  0.00000000000E+00 0. -1.
         11    1    3    3    0    0 -0.28410012841E+01 -0.35187237284E+01  0.10696913524E+02  0.11613641297E+02  0.51100000000E-03 0. -1.
        -11    1    3    3    0    0  0.12422649751E+02 -0.13644771819E+02  0.18754420418E+02  0.26310270054E+02  0.51100000000E-03 0.  1.
        -12    1    3    3    0    0 -0.10177443581E+01 -0.88626238674E+01  0.42076034877E+01  0.98633580744E+01  0.00000000000E+00 0.  1.
</event>
<event>
 7    1  0.5467297E-010  0.4778727E+02  0.7816164E-02  0.1312668E+00
        -11   -1    0    0    0    0  0.00000000000E+00  0.00000000000E+00  0.45593999997E+02  0.45594000000E+02  0.51100000000E-03 0.  1.
         11   -1    0    0    0    0 -0.00000000000E+00 -0.00000000000E+00 -0.45593999997E+02  0.45594000000E+02  0.51100000000E-03 0. -1.
    9900012    2    1    2    0    0 -0.37881781433E+02  0.18832711356E+02  0.96913845865E+01  0.47787270551E+02  0.19999997750E+02 0.  0.
         12    1    1    2    0    0  0.37881781433E+02 -0.18832711356E+02 -0.96913845865E+01  0.43400729449E+02  0.00000000000E+00 0. -1.
         11    1    3    3    0    0 -0.22542357287E+02  0.24986551921E+01  0.13372642880E+01  0.22719802505E+02  0.51100000000E-03 0. -1.
        -11    1    3    3    0    0 -0.10903053783E+02  0.14197628473E+02  0.36741749065E+01  0.18274265992E+02  0.51100000000E-03 0.  1.
         12    1    3    3    0    0 -0.44363703622E+01  0.21364276908E+01  0.46799453920E+01  0.67932020536E+01  0.00000000000E+00 0. -1.
</event>
<event>
 7    1  0.5467297E-010  0.4778725E+02  0.7816164E-02  0.1312668E+00
        -11   -1    0    0    0    0  0.00000000000E+00  0.00000000000E+00  0.45593999997E+02  0.45594000000E+02  0.51100000000E-03 0.  1.
         11   -1    0    0    0    0 -0.00000000000E+00 -0.00000000000E+00 -0.45593999997E+02  0.45594000000E+02  0.51100000000E-03 0. -1.
    9900012    2    1    2    0    0 -0.35341100770E+02 -0.18360277374E+01  0.25124894138E+02  0.47787254535E+02  0.19999924725E+02 0.  0.
         12    1    1    2    0    0  0.35341100770E+02  0.18360277374E+01 -0.25124894138E+02  0.43400745465E+02  0.00000000000E+00 0. -1.
         11    1    3    3    0    0 -0.28862905467E+02  0.29374385206E+00  0.24900484593E+02  0.38120699504E+02  0.51100000000E-03 0.  1.
        -11    1    3    3    0    0 -0.69278886524E+01  0.96187755695E-01 -0.11334172620E+01  0.70206501277E+01  0.51100000000E-03 0. -1.
         12    1    3    3    0    0  0.44969334989E+00 -0.22259593451E+01  0.13578268079E+01  0.26459049029E+01  0.00000000000E+00 0. -1.
</event>
<event>
 7    1  0.5467297E-010  0.4778727E+02  0.7816164E-02  0.1312668E+00
        -11   -1    0    0    0    0  0.00000000000E+00  0.00000000000E+00  0.45593999997E+02  0.45594000000E+02  0.51100000000E-03 0. -1.
         11   -1    0    0    0    0 -0.00000000000E+00 -0.00000000000E+00 -0.45593999997E+02  0.45594000000E+02  0.51100000000E-03 0.  1.
    9900012    2    1    2    0    0  0.34189910841E+02  0.14846498938E+02 -0.22231838398E+02  0.47787272211E+02  0.20000005321E+02 0.  0.
         12    1    1    2    0    0 -0.34189910841E+02 -0.14846498938E+02  0.22231838398E+02  0.43400727789E+02  0.00000000000E+00 0. -1.
         11    1    3    3    0    0  0.16855800567E+02  0.15274045922E+01 -0.56419942312E+01  0.17840489811E+02  0.51100000000E-03 0. -1.
        -11    1    3    3    0    0  0.12581099206E+02  0.15274662049E+02 -0.12974507634E+02  0.23662992341E+02  0.51100000000E-03 0.  1.
        -12    1    3    3    0    0  0.47530110684E+01 -0.19555677034E+01 -0.36153365326E+01  0.62837900588E+01  0.00000000000E+00 0.  1.
</event>
<event>
 7    1  0.5467297E-010  0.4778726E+02  0.7816164E-02  0.1312668E+00
        -11   -1    0    0    0    0  0.00000000000E+00  0.00000000000E+00  0.45593999997E+02  0.45594000000E+02  0.51100000000E-03 0. -1.
         11   -1    0    0    0    0 -0.00000000000E+00 -0.00000000000E+00 -0.45593999997E+02  0.45594000000E+02  0.51100000000E-03 0.  1.
    9900012    2    1    2    0    0 -0.11233454176E+02  0.15574666857E+02 -0.38921245485E+02  0.47787261636E+02  0.19999957103E+02 0.  0.
         12    1    1    2    0    0  0.11233454176E+02 -0.15574666857E+02  0.38921245485E+02  0.43400738364E+02  0.00000000000E+00 0. -1.
         11    1    3    3    0    0  0.63243722823E+00 -0.16961835660E+01  0.19613581243E+00  0.18208473454E+01  0.51100000000E-03 0. -1.
        -11    1    3    3    0    0 -0.10008091960E+02  0.17656764097E+02 -0.27409517694E+02  0.34105789590E+02  0.51100000000E-03 0.  1.
         12    1    3    3    0    0 -0.18577994443E+01 -0.38591367378E+00 -0.11707863604E+02  0.11860624701E+02  0.00000000000E+00 0. -1.
</event>
<event>
 7    1  0.5467297E-010  0.4778727E+02  0.7816164E-02  0.1312668E+00
        -11   -1    0    0    0    0  0.00000000000E+00  0.00000000000E+00  0.45593999997E+02  0.45594000000E+02  0.51100000000E-03 0. -1.
         11   -1    0    0    0    0 -0.00000000000E+00 -0.00000000000E+00 -0.45593999997E+02  0.45594000000E+02  0.51100000000E-03 0.  1.
    9900012    2    1    2    0    0 -0.40763981189E+02  0.98688875089E+00  0.14864288007E+02  0.47787272245E+02  0.20000005472E+02 0.  0.
         12    1    1    2    0    0  0.40763981189E+02 -0.98688875089E+00 -0.14864288007E+02  0.43400727755E+02  0.00000000000E+00 0. -1.
         11    1    3    3    0    0 -0.15488593903E+02  0.67461180877E+01 -0.86326527709E+00  0.16916024283E+02  0.51100000000E-03 0. -1.
        -11    1    3    3    0    0 -0.15391970244E+02 -0.24758946003E+01  0.12456448153E+02  0.19955097166E+02  0.51100000000E-03 0.  1.
         12    1    3    3    0    0 -0.98834170413E+01 -0.32833347365E+01  0.32711051313E+01  0.10916150795E+02  0.00000000000E+00 0. -1.
</event>
<event>
 7    1  0.5467297E-010  0.4778728E+02  0.7816164E-02  0.1312668E+00
        -11   -1    0    0    0    0  0.00000000000E+00  0.00000000000E+00  0.45593999997E+02  0.45594000000E+02  0.51100000000E-03 0.  1.
         11   -1    0    0    0    0 -0.00000000000E+00 -0.00000000000E+00 -0.45593999997E+02  0.45594000000E+02  0.51100000000E-03 0. -1.
    9900012    2    1    2    0    0 -0.25827365503E+02  0.34870752976E+02  0.77472004822E+00  0.47787280961E+02  0.20000045212E+02 0.  0.
         12    1    1    2    0    0  0.25827365503E+02 -0.34870752976E+02 -0.77472004822E+00  0.43400719039E+02  0.00000000000E+00 0. -1.
         11    1    3    3    0    0 -0.64202839377E+01  0.37691110887E+01  0.31530673033E+01  0.80850527469E+01  0.51100000000E-03 0. -1.
        -11    1    3    3    0    0 -0.17052313654E+01 -0.16193214043E+01 -0.73415717822E+00  0.24635346239E+01  0.51100000000E-03 0.  1.
        -12    1    3    3    0    0 -0.17701850200E+02  0.32720963292E+02 -0.16441900769E+01  0.37238693590E+02  0.00000000000E+00 0.  1.
</event>
<event>
 7    1  0.5467297E-010  0.4778727E+02  0.7816164E-02  0.1312668E+00
        -11   -1    0    0    0    0  0.00000000000E+00  0.00000000000E+00  0.45593999997E+02  0.45594000000E+02  0.51100000000E-03 0.  1.
         11   -1    0    0    0    0 -0.00000000000E+00 -0.00000000000E+00 -0.45593999997E+02  0.45594000000E+02  0.51100000000E-03 0. -1.
    9900012    2    1    2    0    0  0.36390162350E+02  0.11081135078E+02  0.20894685738E+02  0.47787270023E+02  0.19999995341E+02 0.  0.
         12    1    1    2    0    0 -0.36390162350E+02 -0.11081135078E+02 -0.20894685738E+02  0.43400729977E+02  0.00000000000E+00 0. -1.
         11    1    3    3    0    0  0.11985356371E+01  0.31787804347E+01  0.25854089786E+00  0.34070480452E+01  0.51100000000E-03 0. -1.
        -11    1    3    3    0    0  0.15733296831E+02  0.91395705507E+01  0.16250076011E+02  0.24395355083E+02  0.51100000000E-03 0.  1.
        -12    1    3    3    0    0  0.19458329882E+02 -0.12372159074E+01  0.43860688290E+01  0.19984866894E+02  0.00000000000E+00 0.  1.
</event>
<event>
 7    1  0.5467297E-010  0.4778727E+02  0.7816164E-02  0.1312668E+00
        -11   -1    0    0    0    0  0.00000000000E+00  0.00000000000E+00  0.45593999997E+02  0.45594000000E+02  0.51100000000E-03 0.  1.
         11   -1    0    0    0    0 -0.00000000000E+00 -0.00000000000E+00 -0.45593999997E+02  0.45594000000E+02  0.51100000000E-03 0. -1.
    9900012    2    1    2    0    0  0.65267334049E+01  0.15656095065E+02  0.39948865879E+02  0.47787269054E+02  0.19999990926E+02 0.  0.
         12    1    1    2    0    0 -0.65267334049E+01 -0.15656095065E+02 -0.39948865879E+02  0.43400730946E+02  0.00000000000E+00 0. -1.
         11    1    3    3    0    0  0.23588926659E+01  0.57389166424E+00  0.27847910101E+02  0.27953529715E+02  0.51100000000E-03 0. -1.
        -11    1    3    3    0    0  0.22215261803E+01  0.76528685110E+01  0.52560291210E+01  0.95460681644E+01  0.51100000000E-03 0.  1.
         12    1    3    3    0    0  0.19463145587E+01  0.74293348901E+01  0.68449266566E+01  0.10287671175E+02  0.00000000000E+00 0. -1.
</event>
<event>
 7    1  0.5467297E-010  0.4778727E+02  0.7816164E-02  0.1312668E+00
        -11   -1    0    0    0    0  0.00000000000E+00  0.00000000000E+00  0.45593999997E+02  0.45594000000E+02  0.51100000000E-03 0.  1.
         11   -1    0    0    0    0 -0.00000000000E+00 -0.00000000000E+00 -0.45593999997E+02  0.45594000000E+02  0.51100000000E-03 0. -1.
    9900012    2    1    2    0    0  0.16416867073E+02 -0.90693545798E+01  0.39138937914E+02  0.47787272149E+02  0.20000005034E+02 0.  0.
         12    1    1    2    0    0 -0.16416867073E+02  0.90693545798E+01 -0.39138937914E+02  0.43400727851E+02  0.00000000000E+00 0. -1.
         11    1    3    3    0    0 -0.60254841040E+00 -0.95737490494E+00 -0.75031014363E+00  0.13574228775E+01  0.51100000000E-03 0. -1.
        -11    1    3    3    0    0 -0.95864806970E+00 -0.19418691428E+01  0.14779418766E+02  0.14937238072E+02  0.51100000000E-03 0.  1.
        -12    1    3    3    0    0  0.17978063553E+02 -0.61701105321E+01  0.25109829292E+02  0.31492611200E+02  0.00000000000E+00 0.  1.
</event>
<event>
 7    1  0.5467297E-010  0.4778727E+02  0.7816164E-02  0.1312668E+00
        -11   -1    0    0    0    0  0.00000000000E+00  0.00000000000E+00  0.45593999997E+02  0.45594000000E+02  0.51100000000E-03 0.  1.
         11   -1    0    0    0    0 -0.00000000000E+00 -0.00000000000E+00 -0.45593999997E+02  0.45594000000E+02  0.51100000000E-03 0. -1.
    9900012    2    1    2    0    0  0.18044735371E+02  0.26402581932E+02  0.29341343418E+02  0.47787271425E+02  0.20000001735E+02 0.  0.
         12    1    1    2    0    0 -0.18044735371E+02 -0.26402581932E+02 -0.29341343418E+02  0.43400728575E+02  0.00000000000E+00 0. -1.
         11    1    3    3    0    0  0.10699911565E+02  0.19358238725E+02  0.29950903220E+02  0.37232863414E+02  0.51100000000E-03 0. -1.
        -11    1    3    3    0    0  0.15852760838E+01  0.25263843266E+01  0.82601135095E+00  0.30948365128E+01  0.51100000000E-03 0.  1.
         12    1    3    3    0    0  0.57595477216E+01  0.45179588806E+01 -0.14355711530E+01  0.74595714984E+01  0.00000000000E+00 0. -1.
</event>
<event>
 7    1  0.5467297E-010  0.4778728E+02  0.7816164E-02  0.1312668E+00
        -11   -1    0    0    0    0  0.00000000000E+00  0.00000000000E+00  0.45593999997E+02  0.45594000000E+02  0.51100000000E-03 0.  1.
         11   -1    0    0    0    0 -0.00000000000E+00 -0.00000000000E+00 -0.45593999997E+02  0.45594000000E+02  0.51100000000E-03 0. -1.
    9900012    2    1    2    0    0  0.36131081614E+02  0.22835058157E+02  0.75317892238E+01  0.47787276635E+02  0.20000025491E+02 0.  0.
         12    1    1    2    0    0 -0.36131081614E+02 -0.22835058157E+02 -0.75317892238E+01  0.43400723365E+02  0.00000000000E+00 0. -1.
         11    1    3    3    0    0  0.24358094805E+01 -0.86551450883E+00 -0.42599544202E+00  0.26198770139E+01  0.51100000000E-03 0. -1.
        -11    1    3    3    0    0  0.21554475414E+01  0.86329125644E+01 -0.13387310467E+01  0.89980739342E+01  0.51100000000E-03 0.  1.
        -12    1    3    3    0    0  0.31539824593E+02  0.15067660102E+02  0.92965157124E+01  0.36169325687E+02  0.00000000000E+00 0.  1.
</event>
<event>
 7    1  0.5467297E-010  0.4778727E+02  0.7816164E-02  0.1312668E+00
        -11   -1    0    0    0    0  0.00000000000E+00  0.00000000000E+00  0.45593999997E+02  0.45594000000E+02  0.51100000000E-03 0.  1.
         11   -1    0    0    0    0 -0.00000000000E+00 -0.00000000000E+00 -0.45593999997E+02  0.45594000000E+02  0.51100000000E-03 0. -1.
    9900012    2    1    2    0    0  0.34199879226E+02 -0.30648672690E+01  0.26544272750E+02  0.47787267675E+02  0.19999984639E+02 0.  0.
         12    1    1    2    0    0 -0.34199879226E+02  0.30648672690E+01 -0.26544272750E+02  0.43400732325E+02  0.00000000000E+00 0. -1.
         11    1    3    3    0    0  0.27746185763E+02 -0.28982255215E+01  0.11414583481E+02  0.30142051222E+02  0.51100000000E-03 0. -1.
        -11    1    3    3    0    0  0.13384495038E+01 -0.29587595934E+01  0.56944600905E+01  0.65553475414E+01  0.51100000000E-03 0.  1.
         12    1    3    3    0    0  0.51152439592E+01  0.27921178459E+01  0.94352291784E+01  0.11089868912E+02  0.00000000000E+00 0. -1.
</event>
<event>
 7    1  0.5467297E-010  0.4778727E+02  0.7816164E-02  0.1312668E+00
        -11   -1    0    0    0    0  0.00000000000E+00  0.00000000000E+00  0.45593999997E+02  0.45594000000E+02  0.51100000000E-03 0. -1.
         11   -1    0    0    0    0 -0.00000000000E+00 -0.00000000000E+00 -0.45593999997E+02  0.45594000000E+02  0.51100000000E-03 0.  1.
    9900012    2    1    2    0    0  0.28445464536E+02 -0.24653803340E+02 -0.21602516127E+02  0.47787272186E+02  0.20000005203E+02 0.  0.
         12    1    1    2    0    0 -0.28445464536E+02  0.24653803340E+02  0.21602516127E+02  0.43400727814E+02  0.00000000000E+00 0. -1.
         11    1    3    3    0    0  0.78933768450E+01 -0.15972478907E+02 -0.16013206741E+02  0.23955130366E+02  0.51100000000E-03 0. -1.
        -11    1    3    3    0    0  0.55822542727E+01 -0.21772189807E+01 -0.44635499291E+01  0.74716212087E+01  0.51100000000E-03 0.  1.
         12    1    3    3    0    0  0.14969833418E+02 -0.65041054532E+01 -0.11257594566E+01  0.16360520611E+02  0.00000000000E+00 0. -1.
</event>
<event>
 7    1  0.5467297E-010  0.4778727E+02  0.7816164E-02  0.1312668E+00
        -11   -1    0    0    0    0  0.00000000000E+00  0.00000000000E+00  0.45593999997E+02  0.45594000000E+02  0.51100000000E-03 0.  1.
         11   -1    0    0    0    0 -0.00000000000E+00 -0.00000000000E+00 -0.45593999997E+02  0.45594000000E+02  0.51100000000E-03 0. -1.
    9900012    2    1    2    0    0  0.12589092778E+02  0.36521911756E+02  0.19780997563E+02  0.47787272358E+02  0.20000005989E+02 0.  0.
         12    1    1    2    0    0 -0.12589092778E+02 -0.36521911756E+02 -0.19780997563E+02  0.43400727642E+02  0.00000000000E+00 0. -1.
         11    1    3    3    0    0  0.33594276441E+01  0.21944075912E+02  0.26942195950E+01  0.22362625991E+02  0.51100000000E-03 0. -1.
        -11    1    3    3    0    0  0.61504373890E+01  0.10860282995E+02  0.16306580981E+02  0.20534804854E+02  0.51100000000E-03 0.  1.
         12    1    3    3    0    0  0.30792277452E+01  0.37175528487E+01  0.78019698687E+00  0.48898415136E+01  0.00000000000E+00 0. -1.
</event>
<event>
 7    1  0.5467297E-010  0.4778725E+02  0.7816164E-02  0.1312668E+00
        -11   -1    0    0    0    0  0.00000000000E+00  0.00000000000E+00  0.45593999997E+02  0.45594000000E+02  0.51100000000E-03 0.  1.
         11   -1    0    0    0    0 -0.00000000000E+00 -0.00000000000E+00 -0.45593999997E+02  0.45594000000E+02  0.51100000000E-03 0. -1.
    9900012    2    1    2    0    0 -0.37873306237E+02  0.13837011302E+02  0.16055381268E+02  0.47787245690E+02  0.19999884397E+02 0.  0.
         12    1    1    2    0    0  0.37873306237E+02 -0.13837011302E+02 -0.16055381268E+02  0.43400754310E+02  0.00000000000E+00 0. -1.
         11    1    3    3    0    0 -0.63876940425E+01 -0.33166846476E+01  0.59719237695E+01  0.93523743510E+01  0.51100000000E-03 0. -1.
        -11    1    3    3    0    0 -0.18117213603E+02  0.14437615438E+02  0.86076173750E+01  0.24713746082E+02  0.51100000000E-03 0.  1.
        -12    1    3    3    0    0 -0.13368398591E+02  0.27160805115E+01  0.14758401231E+01  0.13721125256E+02  0.00000000000E+00 0.  1.
</event>
<event>
 7    1  0.5467297E-010  0.4778727E+02  0.7816164E-02  0.1312668E+00
        -11   -1    0    0    0    0  0.00000000000E+00  0.00000000000E+00  0.45593999997E+02  0.45594000000E+02  0.51100000000E-03 0.  1.
         11   -1    0    0    0    0 -0.00000000000E+00 -0.00000000000E+00 -0.45593999997E+02  0.45594000000E+02  0.51100000000E-03 0. -1.
    9900012    2    1    2    0    0  0.23021803686E+02 -0.34083937395E+02  0.13852980677E+02  0.47787270664E+02  0.19999998264E+02 0.  0.
         12    1    1    2    0    0 -0.23021803686E+02  0.34083937395E+02 -0.13852980677E+02  0.43400729336E+02  0.00000000000E+00 0. -1.
         11    1    3    3    0    0 -0.16875883153E+01  0.82585047706E+00 -0.15911933052E+00  0.18855509950E+01  0.51100000000E-03 0. -1.
        -11    1    3    3    0    0  0.22145102528E+01 -0.21402385577E+00  0.15611196743E+01  0.27178956509E+01  0.51100000000E-03 0.  1.
         12    1    3    3    0    0  0.22494881748E+02 -0.34695764016E+02  0.12450980334E+02  0.43183824018E+02  0.00000000000E+00 0. -1.
</event>
<event>
 7    1  0.5467297E-010  0.4778727E+02  0.7816164E-02  0.1312668E+00
        -11   -1    0    0    0    0  0.00000000000E+00  0.00000000000E+00  0.45593999997E+02  0.45594000000E+02  0.51100000000E-03 0. -1.
         11   -1    0    0    0    0 -0.00000000000E+00 -0.00000000000E+00 -0.45593999997E+02  0.45594000000E+02  0.51100000000E-03 0.  1.
    9900012    2    1    2    0    0 -0.35261365372E+02  0.52257239532E+00 -0.25297948245E+02  0.47787272411E+02  0.20000006232E+02 0.  0.
         12    1    1    2    0    0  0.35261365372E+02 -0.52257239532E+00  0.25297948245E+02  0.43400727589E+02  0.00000000000E+00 0. -1.
         11    1    3    3    0    0 -0.10503739041E+02  0.13558940845E+01 -0.10603846885E+02  0.14986946041E+02  0.51100000000E-03 0.  1.
        -11    1    3    3    0    0 -0.41934648702E+01 -0.67109398515E+01 -0.45604216415E+01  0.91334170559E+01  0.51100000000E-03 0. -1.
        -12    1    3    3    0    0 -0.20564161462E+02  0.58776181623E+01 -0.10133679718E+02  0.23666909315E+02  0.00000000000E+00 0.  1.
</event>
<event>
 7    1  0.5467297E-010  0.4778727E+02  0.7816164E-02  0.1312668E+00
        -11   -1    0    0    0    0  0.00000000000E+00  0.00000000000E+00  0.45593999997E+02  0.45594000000E+02  0.51100000000E-03 0.  1.
         11   -1    0    0    0    0 -0.00000000000E+00 -0.00000000000E+00 -0.45593999997E+02  0.45594000000E+02  0.51100000000E-03 0. -1.
    9900012    2    1    2    0    0  0.57931820281E+01 -0.21817080826E+02  0.37068549784E+02  0.47787270088E+02  0.19999995641E+02 0.  0.
         12    1    1    2    0    0 -0.57931820281E+01  0.21817080826E+02 -0.37068549784E+02  0.43400729912E+02  0.00000000000E+00 0. -1.
         11    1    3    3    0    0  0.15482232747E+01 -0.20575290466E+02  0.22461404385E+02  0.30500069840E+02  0.51100000000E-03 0. -1.
        -11    1    3    3    0    0  0.35542788792E+01  0.26477845081E+01  0.40072169876E+01  0.59750689870E+01  0.51100000000E-03 0.  1.
        -12    1    3    3    0    0  0.69067987423E+00 -0.38895748683E+01  0.10599928411E+02  0.11312131261E+02  0.00000000000E+00 0.  1.
</event>
<event>
 7    1  0.5467297E-010  0.4778726E+02  0.7816164E-02  0.1312668E+00
        -11   -1    0    0    0    0  0.00000000000E+00  0.00000000000E+00  0.45593999997E+02  0.45594000000E+02  0.51100000000E-03 0. -1.
         11   -1    0    0    0    0 -0.00000000000E+00 -0.00000000000E+00 -0.45593999997E+02  0.45594000000E+02  0.51100000000E-03 0.  1.
    9900012    2    1    2    0    0 -0.29315368510E+02 -0.26784274387E+02  0.17516736008E+02  0.47787260079E+02  0.19999950005E+02 0.  0.
         12    1    1    2    0    0  0.29315368510E+02  0.26784274387E+02 -0.17516736008E+02  0.43400739921E+02  0.00000000000E+00 0. -1.
         11    1    3    3    0    0 -0.56050735967E+00 -0.51521667378E+01  0.35370204752E+01  0.62745123075E+01  0.51100000000E-03 0. -1.
        -11    1    3    3    0    0 -0.39910315938E+01  0.15520133448E+01 -0.10508907161E+01  0.44092459858E+01  0.51100000000E-03 0.  1.
        -12    1    3    3    0    0 -0.24763829557E+02 -0.23184120994E+02  0.15030606249E+02  0.37103501786E+02  0.00000000000E+00 0.  1.
</event>
<event>
 7    1  0.5748977E-010  0.4778727E+02  0.7816164E-02  0.1312668E+00
        -11   -1    0    0    0    0  0.00000000000E+00  0.00000000000E+00  0.45593999997E+02  0.45594000000E+02  0.51100000000E-03 0. -1.
         11   -1    0    0    0    0 -0.00000000000E+00 -0.00000000000E+00 -0.45593999997E+02  0.45594000000E+02  0.51100000000E-03 0.  1.
    9900012    2    1    2    0    0  0.10648695143E+02 -0.13395662972E+02 -0.39884649139E+02  0.47787265771E+02  0.19999975955E+02 0.  0.
         12    1    1    2    0    0 -0.10648695143E+02  0.13395662972E+02  0.39884649139E+02  0.43400734229E+02  0.00000000000E+00 0. -1.
         11    1    3    3    0    0 -0.27897299896E+01 -0.20117967864E+01 -0.61010236364E+00  0.34931568645E+01  0.51100000000E-03 0. -1.
        -11    1    3    3    0    0  0.76851644346E+01 -0.25773139432E+01 -0.26681328480E+02  0.27885436867E+02  0.51100000000E-03 0.  1.
        -12    1    3    3    0    0  0.57532606981E+01 -0.88065522428E+01 -0.12593218295E+02  0.16408672039E+02  0.00000000000E+00 0.  1.
</event>
<event>
 7    1  0.5467297E-010  0.4778726E+02  0.7816164E-02  0.1312668E+00
        -11   -1    0    0    0    0  0.00000000000E+00  0.00000000000E+00  0.45593999997E+02  0.45594000000E+02  0.51100000000E-03 0.  1.
         11   -1    0    0    0    0 -0.00000000000E+00 -0.00000000000E+00 -0.45593999997E+02  0.45594000000E+02  0.51100000000E-03 0. -1.
    9900012    2    1    2    0    0  0.11214394473E+02 -0.37624069940E+02  0.18501102314E+02  0.47787261883E+02  0.19999958232E+02 0.  0.
         12    1    1    2    0    0 -0.11214394473E+02  0.37624069940E+02 -0.18501102314E+02  0.43400738117E+02  0.00000000000E+00 0. -1.
         11    1    3    3    0    0 -0.46557087230E-01 -0.17155811123E+01 -0.93261229371E+00  0.19532414256E+01  0.51100000000E-03 0. -1.
        -11    1    3    3    0    0  0.90579990390E+01 -0.11420271161E+02  0.14877910566E+02  0.20828397995E+02  0.51100000000E-03 0.  1.
        -12    1    3    3    0    0  0.22029525215E+01 -0.24488217666E+02  0.45558040418E+01  0.25005622462E+02  0.00000000000E+00 0.  1.
</event>
<event>
 7    1  0.5467297E-010  0.4778727E+02  0.7816164E-02  0.1312668E+00
        -11   -1    0    0    0    0  0.00000000000E+00  0.00000000000E+00  0.45593999997E+02  0.45594000000E+02  0.51100000000E-03 0.  1.
         11   -1    0    0    0    0 -0.00000000000E+00 -0.00000000000E+00 -0.45593999997E+02  0.45594000000E+02  0.51100000000E-03 0. -1.
    9900012    2    1    2    0    0  0.42699426544E+02 -0.68333090459E+01  0.36997080462E+01  0.47787274438E+02  0.20000015473E+02 0.  0.
         12    1    1    2    0    0 -0.42699426544E+02  0.68333090459E+01 -0.36997080462E+01  0.43400725562E+02  0.00000000000E+00 0. -1.
         11    1    3    3    0    0  0.17295986835E+02 -0.39910677570E+00  0.58335075775E+01  0.18257608215E+02  0.51100000000E-03 0. -1.
        -11    1    3    3    0    0  0.41420200488E+01 -0.34681104236E+01  0.45317874684E+01  0.70513273867E+01  0.51100000000E-03 0.  1.
         12    1    3    3    0    0  0.21261419660E+02 -0.29660918466E+01 -0.66655869997E+01  0.22478338837E+02  0.00000000000E+00 0. -1.
</event>
<event>
 7    1  0.5467297E-010  0.4778728E+02  0.7816164E-02  0.1312668E+00
        -11   -1    0    0    0    0  0.00000000000E+00  0.00000000000E+00  0.45593999997E+02  0.45594000000E+02  0.51100000000E-03 0. -1.
         11   -1    0    0    0    0 -0.00000000000E+00 -0.00000000000E+00 -0.45593999997E+02  0.45594000000E+02  0.51100000000E-03 0.  1.
    9900012    2    1    2    0    0 -0.14234640374E+02 -0.66962539784E+01 -0.40449450357E+02  0.47787276065E+02  0.20000022889E+02 0.  0.
         12    1    1    2    0    0  0.14234640374E+02  0.66962539784E+01  0.40449450357E+02  0.43400723935E+02  0.00000000000E+00 0. -1.
         11    1    3    3    0    0 -0.75482079620E+01 -0.15686028019E+01 -0.40589503184E+01  0.87126939655E+01  0.51100000000E-03 0. -1.
        -11    1    3    3    0    0 -0.87098081959E+01 -0.62553965767E+00 -0.28104695119E+02  0.29430017783E+02  0.51100000000E-03 0.  1.
         12    1    3    3    0    0  0.20233757841E+01 -0.45021115189E+01 -0.82858049193E+01  0.96445643164E+01  0.00000000000E+00 0. -1.
</event>
<event>
 7    1  0.5467297E-010  0.4778726E+02  0.7816164E-02  0.1312668E+00
        -11   -1    0    0    0    0  0.00000000000E+00  0.00000000000E+00  0.45593999997E+02  0.45594000000E+02  0.51100000000E-03 0.  1.
         11   -1    0    0    0    0 -0.00000000000E+00 -0.00000000000E+00 -0.45593999997E+02  0.45594000000E+02  0.51100000000E-03 0. -1.
    9900012    2    1    2    0    0  0.15527054619E+02 -0.31259414784E+02  0.25795026853E+02  0.47787264429E+02  0.19999969836E+02 0.  0.
         12    1    1    2    0    0 -0.15527054619E+02  0.31259414784E+02 -0.25795026853E+02  0.43400735571E+02  0.00000000000E+00 0. -1.
         11    1    3    3    0    0  0.89756170493E+01 -0.18033809970E+02  0.28145553077E+01  0.20339658928E+02  0.51100000000E-03 0. -1.
        -11    1    3    3    0    0  0.37106347902E+01 -0.45009622793E+01  0.89952688021E+01  0.10721116223E+02  0.51100000000E-03 0.  1.
         12    1    3    3    0    0  0.28408027797E+01 -0.87246425341E+01  0.13985202744E+02  0.16726489278E+02  0.00000000000E+00 0. -1.
</event>
<event>
 7    1  0.5467297E-010  0.4778726E+02  0.7816164E-02  0.1312668E+00
        -11   -1    0    0    0    0  0.00000000000E+00  0.00000000000E+00  0.45593999997E+02  0.45594000000E+02  0.51100000000E-03 0. -1.
         11   -1    0    0    0    0 -0.00000000000E+00 -0.00000000000E+00 -0.45593999997E+02  0.45594000000E+02  0.51100000000E-03 0.  1.
    9900012    2    1    2    0    0  0.41320358051E+02 -0.23697943834E+01 -0.13062779477E+02  0.47787261267E+02  0.19999955420E+02 0.  0.
         12    1    1    2    0    0 -0.41320358051E+02  0.23697943834E+01  0.13062779477E+02  0.43400738733E+02  0.00000000000E+00 0. -1.
         11    1    3    3    0    0 -0.49294452464E+00  0.81396336791E+00  0.22653587701E+01  0.24571083182E+01  0.51100000000E-03 0. -1.
        -11    1    3    3    0    0  0.39260223955E+02 -0.26759443979E+01 -0.12071960033E+02  0.41161366386E+02  0.51100000000E-03 0.  1.
        -12    1    3    3    0    0  0.25530786207E+01 -0.50781335333E+00 -0.32561782141E+01  0.41687865629E+01  0.00000000000E+00 0.  1.
</event>
<event>
 7    1  0.5467297E-010  0.4778728E+02  0.7816164E-02  0.1312668E+00
        -11   -1    0    0    0    0  0.00000000000E+00  0.00000000000E+00  0.45593999997E+02  0.45594000000E+02  0.51100000000E-03 0.  1.
         11   -1    0    0    0    0 -0.00000000000E+00 -0.00000000000E+00 -0.45593999997E+02  0.45594000000E+02  0.51100000000E-03 0. -1.
    9900012    2    1    2    0    0 -0.40092902665E+02  0.72759757309E+01 -0.14941273437E+02  0.47787282047E+02  0.20000050165E+02 0.  0.
         12    1    1    2    0    0  0.40092902665E+02 -0.72759757309E+01  0.14941273437E+02  0.43400717953E+02  0.00000000000E+00 0. -1.
         11    1    3    3    0    0 -0.21223636943E+02 -0.30323658756E+01 -0.11718284506E+02  0.24432687120E+02  0.51100000000E-03 0. -1.
        -11    1    3    3    0    0 -0.10059241837E+02  0.21996705252E+01  0.16482697673E+01  0.10428024273E+02  0.51100000000E-03 0.  1.
         12    1    3    3    0    0 -0.88100238847E+01  0.81086710813E+01 -0.48712586981E+01  0.12926570653E+02  0.00000000000E+00 0. -1.
</event>
<event>
 7    1  0.5467297E-010  0.4778726E+02  0.7816164E-02  0.1312668E+00
        -11   -1    0    0    0    0  0.00000000000E+00  0.00000000000E+00  0.45593999997E+02  0.45594000000E+02  0.51100000000E-03 0. -1.
         11   -1    0    0    0    0 -0.00000000000E+00 -0.00000000000E+00 -0.45593999997E+02  0.45594000000E+02  0.51100000000E-03 0.  1.
    9900012    2    1    2    0    0 -0.29885904315E+02  0.25516327395E+02 -0.18422116263E+02  0.47787255674E+02  0.19999929920E+02 0.  0.
         12    1    1    2    0    0  0.29885904315E+02 -0.25516327395E+02  0.18422116263E+02  0.43400744326E+02  0.00000000000E+00 0. -1.
         11    1    3    3    0    0  0.17313318302E+01  0.68892907928E+01 -0.25121043932E+01  0.75346205132E+01  0.51100000000E-03 0. -1.
        -11    1    3    3    0    0 -0.23424144431E+02  0.15521729162E+02 -0.13443093206E+02  0.31150142436E+02  0.51100000000E-03 0.  1.
         12    1    3    3    0    0 -0.81930917134E+01  0.31053074400E+01 -0.24669186635E+01  0.91024927253E+01  0.00000000000E+00 0. -1.
</event>
<event>
 7    1  0.5467297E-010  0.4778727E+02  0.7816164E-02  0.1312668E+00
        -11   -1    0    0    0    0  0.00000000000E+00  0.00000000000E+00  0.45593999997E+02  0.45594000000E+02  0.51100000000E-03 0.  1.
         11   -1    0    0    0    0 -0.00000000000E+00 -0.00000000000E+00 -0.45593999997E+02  0.45594000000E+02  0.51100000000E-03 0. -1.
    9900012    2    1    2    0    0 -0.15859085101E+02  0.29397877912E+02  0.27710605340E+02  0.47787268966E+02  0.19999990525E+02 0.  0.
         12    1    1    2    0    0  0.15859085101E+02 -0.29397877912E+02 -0.27710605340E+02  0.43400731034E+02  0.00000000000E+00 0. -1.
         11    1    3    3    0    0  0.12540679521E+01  0.25818563138E+01  0.98035276981E+01  0.10215078269E+02  0.51100000000E-03 0.  1.
        -11    1    3    3    0    0 -0.71092998329E+01  0.59469639431E+01  0.85475909340E+01  0.12608324048E+02  0.51100000000E-03 0. -1.
         12    1    3    3    0    0 -0.10003853220E+02  0.20869057655E+02  0.93594867076E+01  0.24963866650E+02  0.00000000000E+00 0. -1.
</event>
<event>
 7    1  0.5467297E-010  0.4778727E+02  0.7816164E-02  0.1312668E+00
        -11   -1    0    0    0    0  0.00000000000E+00  0.00000000000E+00  0.45593999997E+02  0.45594000000E+02  0.51100000000E-03 0.  1.
         11   -1    0    0    0    0 -0.00000000000E+00 -0.00000000000E+00 -0.45593999997E+02  0.45594000000E+02  0.51100000000E-03 0. -1.
    9900012    2    1    2    0    0  0.20671185926E+02  0.34919797833E+02 -0.15392634395E+02  0.47787269569E+02  0.19999993274E+02 0.  0.
         12    1    1    2    0    0 -0.20671185926E+02 -0.34919797833E+02  0.15392634395E+02  0.43400730431E+02  0.00000000000E+00 0. -1.
         11    1    3    3    0    0  0.66518209179E+01  0.39954775111E+00 -0.13277183828E+01  0.67947918507E+01  0.51100000000E-03 0. -1.
        -11    1    3    3    0    0  0.10870609421E+02  0.21858396650E+02 -0.13581693348E+02  0.27936034933E+02  0.51100000000E-03 0.  1.
         12    1    3    3    0    0  0.31487555875E+01  0.12661853432E+02 -0.48322266412E+00  0.13056442786E+02  0.00000000000E+00 0. -1.
</event>
<event>
 7    1  0.5467297E-010  0.4778728E+02  0.7816164E-02  0.1312668E+00
        -11   -1    0    0    0    0  0.00000000000E+00  0.00000000000E+00  0.45593999997E+02  0.45594000000E+02  0.51100000000E-03 0.  1.
         11   -1    0    0    0    0 -0.00000000000E+00 -0.00000000000E+00 -0.45593999997E+02  0.45594000000E+02  0.51100000000E-03 0. -1.
    9900012    2    1    2    0    0 -0.12071107895E+02  0.24689519582E+02  0.33590755885E+02  0.47787275306E+02  0.20000019431E+02 0.  0.
         12    1    1    2    0    0  0.12071107895E+02 -0.24689519582E+02 -0.33590755885E+02  0.43400724694E+02  0.00000000000E+00 0. -1.
         11    1    3    3    0    0 -0.10340758860E+02  0.15142089549E+01  0.82978447109E+01  0.13344600019E+02  0.51100000000E-03 0. -1.
        -11    1    3    3    0    0 -0.14825413352E+01  0.54181406600E+01  0.62968042600E+01  0.84382415925E+01  0.51100000000E-03 0.  1.
         12    1    3    3    0    0 -0.24780770055E+00  0.17757169967E+02  0.18996106914E+02  0.26004433695E+02  0.00000000000E+00 0. -1.
</event>
<event>
 7    1  0.5467297E-010  0.4778726E+02  0.7816164E-02  0.1312668E+00
        -11   -1    0    0    0    0  0.00000000000E+00  0.00000000000E+00  0.45593999997E+02  0.45594000000E+02  0.51100000000E-03 0.  1.
         11   -1    0    0    0    0 -0.00000000000E+00 -0.00000000000E+00 -0.45593999997E+02  0.45594000000E+02  0.51100000000E-03 0. -1.
    9900012    2    1    2    0    0 -0.16261316190E+02 -0.17245378534E+02  0.36356436755E+02  0.47787262926E+02  0.19999962986E+02 0.  0.
         12    1    1    2    0    0  0.16261316190E+02  0.17245378534E+02 -0.36356436755E+02  0.43400737074E+02  0.00000000000E+00 0. -1.
         11    1    3    3    0    0 -0.58056338908E+01 -0.11028901429E+02  0.12646645452E+02  0.17756117060E+02  0.51100000000E-03 0. -1.
        -11    1    3    3    0    0  0.30524268565E+01  0.52968453134E-01  0.18146450222E+01  0.35514859129E+01  0.51100000000E-03 0.  1.
        -12    1    3    3    0    0 -0.13508109156E+02 -0.62694455575E+01  0.21895146281E+02  0.26479659953E+02  0.00000000000E+00 0.  1.
</event>
<event>
 7    1  0.5467297E-010  0.4778728E+02  0.7816164E-02  0.1312668E+00
        -11   -1    0    0    0    0  0.00000000000E+00  0.00000000000E+00  0.45593999997E+02  0.45594000000E+02  0.51100000000E-03 0.  1.
         11   -1    0    0    0    0 -0.00000000000E+00 -0.00000000000E+00 -0.45593999997E+02  0.45594000000E+02  0.51100000000E-03 0. -1.
    9900012    2    1    2    0    0  0.19206561051E+02 -0.33858660035E+02  0.19191716360E+02  0.47787276231E+02  0.20000023650E+02 0.  0.
         12    1    1    2    0    0 -0.19206561051E+02  0.33858660035E+02 -0.19191716360E+02  0.43400723769E+02  0.00000000000E+00 0. -1.
         11    1    3    3    0    0  0.14471771149E+02 -0.34298884940E+02  0.12115062759E+02  0.39148696200E+02  0.51100000000E-03 0. -1.
        -11    1    3    3    0    0  0.24591960502E+01 -0.30248658812E+00  0.43842035651E+01  0.50359095019E+01  0.51100000000E-03 0.  1.
         12    1    3    3    0    0  0.22755938523E+01  0.74271149277E+00  0.26924500365E+01  0.36026705291E+01  0.00000000000E+00 0. -1.
</event>
<event>
 7    1  0.5467297E-010  0.4778727E+02  0.7816164E-02  0.1312668E+00
        -11   -1    0    0    0    0  0.00000000000E+00  0.00000000000E+00  0.45593999997E+02  0.45594000000E+02  0.51100000000E-03 0.  1.
         11   -1    0    0    0    0 -0.00000000000E+00 -0.00000000000E+00 -0.45593999997E+02  0.45594000000E+02  0.51100000000E-03 0. -1.
    9900012    2    1    2    0    0 -0.19241617375E+02 -0.14152939718E+01  0.38876477914E+02  0.47787269232E+02  0.19999991736E+02 0.  0.
         12    1    1    2    0    0  0.19241617375E+02  0.14152939718E+01 -0.38876477914E+02  0.43400730768E+02  0.00000000000E+00 0. -1.
         11    1    3    3    0    0 -0.79937636101E+01  0.51799061663E+01  0.11383958393E+02  0.14843388882E+02  0.51100000000E-03 0. -1.
        -11    1    3    3    0    0 -0.12658202644E+02 -0.80992808637E+01  0.19106829007E+02  0.24308421579E+02  0.51100000000E-03 0.  1.
        -12    1    3    3    0    0  0.14103488798E+01  0.15040807255E+01  0.83856905133E+01  0.86354587705E+01  0.00000000000E+00 0.  1.
</event>
<event>
 7    1  0.5467297E-010  0.4778726E+02  0.7816164E-02  0.1312668E+00
        -11   -1    0    0    0    0  0.00000000000E+00  0.00000000000E+00  0.45593999997E+02  0.45594000000E+02  0.51100000000E-03 0.  1.
         11   -1    0    0    0    0 -0.00000000000E+00 -0.00000000000E+00 -0.45593999997E+02  0.45594000000E+02  0.51100000000E-03 0. -1.
    9900012    2    1    2    0    0 -0.42837413565E+02  0.67933345919E+01 -0.15589972185E+01  0.47787264198E+02  0.19999968783E+02 0.  0.
         12    1    1    2    0    0  0.42837413565E+02 -0.67933345919E+01  0.15589972185E+01  0.43400735802E+02  0.00000000000E+00 0. -1.
         11    1    3    3    0    0 -0.35025195999E+02  0.69579650921E+01 -0.87389399201E+01  0.36763388095E+02  0.51100000000E-03 0. -1.
        -11    1    3    3    0    0 -0.45680645539E+01  0.18473057462E+00  0.60236944473E+01  0.75621580392E+01  0.51100000000E-03 0.  1.
         12    1    3    3    0    0 -0.32441530124E+01 -0.34936107481E+00  0.11562482542E+01  0.34617180639E+01  0.00000000000E+00 0. -1.
</event>
<event>
 7    1  0.5467297E-010  0.4778727E+02  0.7816164E-02  0.1312668E+00
        -11   -1    0    0    0    0  0.00000000000E+00  0.00000000000E+00  0.45593999997E+02  0.45594000000E+02  0.51100000000E-03 0.  1.
         11   -1    0    0    0    0 -0.00000000000E+00 -0.00000000000E+00 -0.45593999997E+02  0.45594000000E+02  0.51100000000E-03 0. -1.
    9900012    2    1    2    0    0 -0.16114959802E+02  0.85410974140E+01  0.39382497103E+02  0.47787270138E+02  0.19999995868E+02 0.  0.
         12    1    1    2    0    0  0.16114959802E+02 -0.85410974140E+01 -0.39382497103E+02  0.43400729862E+02  0.00000000000E+00 0. -1.
         11    1    3    3    0    0 -0.78626653847E+01  0.10011514220E+02  0.88726609815E+01  0.15516959660E+02  0.51100000000E-03 0. -1.
        -11    1    3    3    0    0 -0.69046543111E+01 -0.24050552895E+01  0.15137993483E+02  0.16811228065E+02  0.51100000000E-03 0.  1.
        -12    1    3    3    0    0 -0.13476401067E+01  0.93463848300E+00  0.15371842639E+02  0.15459082413E+02  0.00000000000E+00 0.  1.
</event>
<event>
 7    1  0.5467297E-010  0.4778728E+02  0.7816164E-02  0.1312668E+00
        -11   -1    0    0    0    0  0.00000000000E+00  0.00000000000E+00  0.45593999997E+02  0.45594000000E+02  0.51100000000E-03 0.  1.
         11   -1    0    0    0    0 -0.00000000000E+00 -0.00000000000E+00 -0.45593999997E+02  0.45594000000E+02  0.51100000000E-03 0. -1.
    9900012    2    1    2    0    0  0.28082495970E+02  0.28354351582E+02  0.17059495454E+02  0.47787283201E+02  0.20000055426E+02 0.  0.
         12    1    1    2    0    0 -0.28082495970E+02 -0.28354351582E+02 -0.17059495454E+02  0.43400716799E+02  0.00000000000E+00 0. -1.
         11    1    3    3    0    0  0.71669250392E+01  0.39712403421E+01 -0.24973564769E+01  0.85657663992E+01  0.51100000000E-03 0. -1.
        -11    1    3    3    0    0  0.60828893531E+01  0.11078433959E+02  0.13275291621E+02  0.18329391963E+02  0.51100000000E-03 0.  1.
         12    1    3    3    0    0  0.14832681578E+02  0.13304677281E+02  0.62815603100E+01  0.20892124838E+02  0.00000000000E+00 0. -1.
</event>
<event>
 7    1  0.5467297E-010  0.4778727E+02  0.7816164E-02  0.1312668E+00
        -11   -1    0    0    0    0  0.00000000000E+00  0.00000000000E+00  0.45593999997E+02  0.45594000000E+02  0.51100000000E-03 0.  1.
         11   -1    0    0    0    0 -0.00000000000E+00 -0.00000000000E+00 -0.45593999997E+02  0.45594000000E+02  0.51100000000E-03 0. -1.
    9900012    2    1    2    0    0 -0.42929365144E+02 -0.60630779938E+01  0.19829083147E+01  0.47787271530E+02  0.20000002212E+02 0.  0.
         12    1    1    2    0    0  0.42929365144E+02  0.60630779938E+01 -0.19829083147E+01  0.43400728470E+02  0.00000000000E+00 0. -1.
         11    1    3    3    0    0 -0.66525706250E+01 -0.54608311043E+01 -0.40875384406E+01  0.95281342893E+01  0.51100000000E-03 0. -1.
        -11    1    3    3    0    0 -0.15604524700E+02 -0.24989748763E+01  0.74151418125E+01  0.17456528719E+02  0.51100000000E-03 0.  1.
        -12    1    3    3    0    0 -0.20672269818E+02  0.18967279868E+01 -0.13446950572E+01  0.20802608521E+02  0.00000000000E+00 0.  1.
</event>
<event>
 7    1  0.5467297E-010  0.4778727E+02  0.7816164E-02  0.1312668E+00
        -11   -1    0    0    0    0  0.00000000000E+00  0.00000000000E+00  0.45593999997E+02  0.45594000000E+02  0.51100000000E-03 0.  1.
         11   -1    0    0    0    0 -0.00000000000E+00 -0.00000000000E+00 -0.45593999997E+02  0.45594000000E+02  0.51100000000E-03 0. -1.
    9900012    2    1    2    0    0 -0.27426486707E+02  0.32796352094E+02  0.74706226151E+01  0.47787273209E+02  0.20000009870E+02 0.  0.
         12    1    1    2    0    0  0.27426486707E+02 -0.32796352094E+02 -0.74706226151E+01  0.43400726791E+02  0.00000000000E+00 0. -1.
         11    1    3    3    0    0 -0.12745714516E+01  0.81073795650E+01  0.12788592007E+01  0.83059988510E+01  0.51100000000E-03 0. -1.
        -11    1    3    3    0    0 -0.25383503427E+02  0.16062739031E+02  0.27588119358E+01  0.30165292555E+02  0.51100000000E-03 0.  1.
        -12    1    3    3    0    0 -0.76841182831E+00  0.86262334980E+01  0.34329514786E+01  0.93159818030E+01  0.00000000000E+00 0.  1.
</event>
<event>
 7    1  0.5467297E-010  0.4778727E+02  0.7816164E-02  0.1312668E+00
        -11   -1    0    0    0    0  0.00000000000E+00  0.00000000000E+00  0.45593999997E+02  0.45594000000E+02  0.51100000000E-03 0.  1.
         11   -1    0    0    0    0 -0.00000000000E+00 -0.00000000000E+00 -0.45593999997E+02  0.45594000000E+02  0.51100000000E-03 0. -1.
    9900012    2    1    2    0    0  0.20063959783E+02 -0.17039497749E+01  0.38446814612E+02  0.47787268660E+02  0.19999989129E+02 0.  0.
         12    1    1    2    0    0 -0.20063959783E+02  0.17039497749E+01 -0.38446814612E+02  0.43400731340E+02  0.00000000000E+00 0. -1.
         11    1    3    3    0    0  0.64804235781E+01 -0.81925239380E+00  0.62975819040E+01  0.90734008142E+01  0.51100000000E-03 0.  1.
        -11    1    3    3    0    0  0.44169295773E+01 -0.27848399040E+01 -0.81553466931E-02  0.52215579048E+01  0.51100000000E-03 0. -1.
        -12    1    3    3    0    0  0.91666066274E+01  0.19001425229E+01  0.32157388055E+02  0.33492309941E+02  0.00000000000E+00 0.  1.
</event>
<event>
 7    1  0.5467297E-010  0.4778727E+02  0.7816164E-02  0.1312668E+00
        -11   -1    0    0    0    0  0.00000000000E+00  0.00000000000E+00  0.45593999997E+02  0.45594000000E+02  0.51100000000E-03 0.  1.
         11   -1    0    0    0    0 -0.00000000000E+00 -0.00000000000E+00 -0.45593999997E+02  0.45594000000E+02  0.51100000000E-03 0. -1.
    9900012    2    1    2    0    0 -0.28933727294E+02  0.16906363300E+02  0.27579662857E+02  0.47787268457E+02  0.19999988204E+02 0.  0.
         12    1    1    2    0    0  0.28933727294E+02 -0.16906363300E+02 -0.27579662857E+02  0.43400731543E+02  0.00000000000E+00 0. -1.
         11    1    3    3    0    0 -0.41441132760E+01  0.10994445668E+01  0.17235540162E+00  0.42909392731E+01  0.51100000000E-03 0. -1.
        -11    1    3    3    0    0 -0.23351282519E+02  0.13502897428E+02  0.15141526614E+02  0.30933419835E+02  0.51100000000E-03 0.  1.
        -12    1    3    3    0    0 -0.14383314992E+01  0.23040213055E+01  0.12265780841E+02  0.12562909349E+02  0.00000000000E+00 0.  1.
</event>
<event>
 7    1  0.5467297E-010  0.4778727E+02  0.7816164E-02  0.1312668E+00
        -11   -1    0    0    0    0  0.00000000000E+00  0.00000000000E+00  0.45593999997E+02  0.45594000000E+02  0.51100000000E-03 0.  1.
         11   -1    0    0    0    0 -0.00000000000E+00 -0.00000000000E+00 -0.45593999997E+02  0.45594000000E+02  0.51100000000E-03 0. -1.
    9900012    2    1    2    0    0  0.18841607945E+02 -0.15687226543E+02  0.35812401375E+02  0.47787270066E+02  0.19999995539E+02 0.  0.
         12    1    1    2    0    0 -0.18841607945E+02  0.15687226543E+02 -0.35812401375E+02  0.43400729934E+02  0.00000000000E+00 0. -1.
         11    1    3    3    0    0  0.49755639129E+00 -0.79044500888E+00 -0.19392600166E+01  0.21524626240E+01  0.51100000000E-03 0. -1.
        -11    1    3    3    0    0  0.92863652836E+01 -0.12731198124E+02  0.28137339422E+02  0.32249493885E+02  0.51100000000E-03 0.  1.
         12    1    3    3    0    0  0.90576862698E+01 -0.21655834098E+01  0.96143219698E+01  0.13385313557E+02  0.00000000000E+00 0. -1.
</event>
<event>
 7    1  0.5467297E-010  0.4778727E+02  0.7816164E-02  0.1312668E+00
        -11   -1    0    0    0    0  0.00000000000E+00  0.00000000000E+00  0.45593999997E+02  0.45594000000E+02  0.51100000000E-03 0.  1.
         11   -1    0    0    0    0 -0.00000000000E+00 -0.00000000000E+00 -0.45593999997E+02  0.45594000000E+02  0.51100000000E-03 0. -1.
    9900012    2    1    2    0    0 -0.26985707923E+02 -0.63345143123E+01  0.33395640300E+02  0.47787270804E+02  0.19999998902E+02 0.  0.
         12    1    1    2    0    0  0.26985707923E+02  0.63345143123E+01 -0.33395640300E+02  0.43400729196E+02  0.00000000000E+00 0. -1.
         11    1    3    3    0    0 -0.95568280406E+01 -0.43102430342E+01  0.90059042680E+00  0.10522462667E+02  0.51100000000E-03 0. -1.
        -11    1    3    3    0    0 -0.91341778920E+01 -0.16234166194E+01  0.22040178974E+02  0.23913138162E+02  0.51100000000E-03 0.  1.
        -12    1    3    3    0    0 -0.82947019909E+01 -0.40085465878E+00  0.10454870899E+02  0.13351669974E+02  0.00000000000E+00 0.  1.
</event>
<event>
 7    1  0.5467297E-010  0.4778727E+02  0.7816164E-02  0.1312668E+00
        -11   -1    0    0    0    0  0.00000000000E+00  0.00000000000E+00  0.45593999997E+02  0.45594000000E+02  0.51100000000E-03 0.  1.
         11   -1    0    0    0    0 -0.00000000000E+00 -0.00000000000E+00 -0.45593999997E+02  0.45594000000E+02  0.51100000000E-03 0. -1.
    9900012    2    1    2    0    0 -0.17413385454E+02  0.37883940697E+02  0.12050087097E+02  0.47787267808E+02  0.19999985246E+02 0.  0.
         12    1    1    2    0    0  0.17413385454E+02 -0.37883940697E+02 -0.12050087097E+02  0.43400732192E+02  0.00000000000E+00 0. -1.
         11    1    3    3    0    0  0.11807656419E+01 -0.39415898919E+00  0.24207202739E+01  0.27220315419E+01  0.51100000000E-03 0. -1.
        -11    1    3    3    0    0 -0.20089628329E+02  0.34681438944E+02  0.81597444564E+01  0.40902039111E+02  0.51100000000E-03 0.  1.
        -12    1    3    3    0    0  0.14954772331E+01  0.35966607425E+01  0.14696223669E+01  0.41631971551E+01  0.00000000000E+00 0.  1.
</event>
<event>
 7    1  0.5467297E-010  0.4778727E+02  0.7816164E-02  0.1312668E+00
        -11   -1    0    0    0    0  0.00000000000E+00  0.00000000000E+00  0.45593999997E+02  0.45594000000E+02  0.51100000000E-03 0.  1.
         11   -1    0    0    0    0 -0.00000000000E+00 -0.00000000000E+00 -0.45593999997E+02  0.45594000000E+02  0.51100000000E-03 0. -1.
    9900012    2    1    2    0    0  0.26734993149E+02 -0.16322994123E+02  0.30040359639E+02  0.47787271860E+02  0.20000003720E+02 0.  0.
         12    1    1    2    0    0 -0.26734993149E+02  0.16322994123E+02 -0.30040359639E+02  0.43400728140E+02  0.00000000000E+00 0. -1.
         11    1    3    3    0    0  0.10511203239E+02 -0.16468074997E+02  0.18559656976E+02  0.26947054662E+02  0.51100000000E-03 0. -1.
        -11    1    3    3    0    0  0.13378043173E+02 -0.11221888965E+01  0.11571485606E+02  0.17723730602E+02  0.51100000000E-03 0.  1.
         12    1    3    3    0    0  0.28457467367E+01  0.12672697706E+01 -0.90782943195E-01  0.31164865961E+01  0.00000000000E+00 0. -1.
</event>
<event>
 7    1  0.5561886E-010  0.4778727E+02  0.7816164E-02  0.1312668E+00
        -11   -1    0    0    0    0  0.00000000000E+00  0.00000000000E+00  0.45593999997E+02  0.45594000000E+02  0.51100000000E-03 0.  1.
         11   -1    0    0    0    0 -0.00000000000E+00 -0.00000000000E+00 -0.45593999997E+02  0.45594000000E+02  0.51100000000E-03 0. -1.
    9900012    2    1    2    0    0 -0.31551636616E+02 -0.29799538402E+02  0.32427943827E+00  0.47787269369E+02  0.19999992363E+02 0.  0.
         12    1    1    2    0    0  0.31551636616E+02  0.29799538402E+02 -0.32427943827E+00  0.43400730631E+02  0.00000000000E+00 0. -1.
         11    1    3    3    0    0  0.31481005612E+00 -0.24061518346E+01  0.29662657389E+01  0.38324149981E+01  0.51100000000E-03 0. -1.
        -11    1    3    3    0    0 -0.19464029306E+02 -0.84632501742E+01 -0.19386833377E+01  0.21312755188E+02  0.51100000000E-03 0.  1.
        -12    1    3    3    0    0 -0.12402417366E+02 -0.18930136393E+02 -0.70330296291E+00  0.22642099183E+02  0.00000000000E+00 0.  1.
</event>
<event>
 7    1  0.5467297E-010  0.4778727E+02  0.7816164E-02  0.1312668E+00
        -11   -1    0    0    0    0  0.00000000000E+00  0.00000000000E+00  0.45593999997E+02  0.45594000000E+02  0.51100000000E-03 0.  1.
         11   -1    0    0    0    0 -0.00000000000E+00 -0.00000000000E+00 -0.45593999997E+02  0.45594000000E+02  0.51100000000E-03 0. -1.
    9900012    2    1    2    0    0  0.66659169214E+01  0.37390682874E+02  0.21002994048E+02  0.47787269901E+02  0.19999994787E+02 0.  0.
         12    1    1    2    0    0 -0.66659169214E+01 -0.37390682874E+02 -0.21002994048E+02  0.43400730099E+02  0.00000000000E+00 0. -1.
         11    1    3    3    0    0  0.47453678077E+01  0.54046579181E+01  0.14500894799E+01  0.73370022899E+01  0.51100000000E-03 0. -1.
        -11    1    3    3    0    0 -0.43930736120E+01  0.23767668378E+02  0.93751829876E+01  0.25924799174E+02  0.51100000000E-03 0.  1.
        -12    1    3    3    0    0  0.63136227257E+01  0.82183565773E+01  0.10177721580E+02  0.14525468437E+02  0.00000000000E+00 0.  1.
</event>
<event>
 7    1  0.5467297E-010  0.4778727E+02  0.7816164E-02  0.1312668E+00
        -11   -1    0    0    0    0  0.00000000000E+00  0.00000000000E+00  0.45593999997E+02  0.45594000000E+02  0.51100000000E-03 0.  1.
         11   -1    0    0    0    0 -0.00000000000E+00 -0.00000000000E+00 -0.45593999997E+02  0.45594000000E+02  0.51100000000E-03 0. -1.
    9900012    2    1    2    0    0  0.41617909047E+02 -0.28800688420E+01  0.11969887500E+02  0.47787270090E+02  0.19999995649E+02 0.  0.
         12    1    1    2    0    0 -0.41617909047E+02  0.28800688420E+01 -0.11969887500E+02  0.43400729910E+02  0.00000000000E+00 0. -1.
         11    1    3    3    0    0  0.21938380784E+02  0.46198920181E+01 -0.14487322441E+01  0.22466303191E+02  0.51100000000E-03 0. -1.
        -11    1    3    3    0    0  0.17255789996E+02 -0.57380084796E+01  0.99201684487E+01  0.20714651144E+02  0.51100000000E-03 0.  1.
        -12    1    3    3    0    0  0.24237382668E+01 -0.17619523804E+01  0.34984512949E+01  0.46063157555E+01  0.00000000000E+00 0.  1.
</event>
<event>
 7    1  0.5467297E-010  0.4778727E+02  0.7816164E-02  0.1312668E+00
        -11   -1    0    0    0    0  0.00000000000E+00  0.00000000000E+00  0.45593999997E+02  0.45594000000E+02  0.51100000000E-03 0.  1.
         11   -1    0    0    0    0 -0.00000000000E+00 -0.00000000000E+00 -0.45593999997E+02  0.45594000000E+02  0.51100000000E-03 0. -1.
    9900012    2    1    2    0    0  0.37698484195E+02  0.43130131546E+01  0.21067635797E+02  0.47787273380E+02  0.20000010648E+02 0.  0.
         12    1    1    2    0    0 -0.37698484195E+02 -0.43130131546E+01 -0.21067635797E+02  0.43400726620E+02  0.00000000000E+00 0. -1.
         11    1    3    3    0    0  0.32621470923E+02  0.26844242249E+01  0.92706900255E+01  0.34019291474E+02  0.51100000000E-03 0. -1.
        -11    1    3    3    0    0  0.23608821823E+01  0.19571756553E+00  0.10506409272E+01  0.25915085690E+01  0.51100000000E-03 0.  1.
         12    1    3    3    0    0  0.27161310899E+01  0.14328713641E+01  0.10746304844E+02  0.11176473337E+02  0.00000000000E+00 0. -1.
</event>
<event>
 7    1  0.5467297E-010  0.4778727E+02  0.7816164E-02  0.1312668E+00
        -11   -1    0    0    0    0  0.00000000000E+00  0.00000000000E+00  0.45593999997E+02  0.45594000000E+02  0.51100000000E-03 0.  1.
         11   -1    0    0    0    0 -0.00000000000E+00 -0.00000000000E+00 -0.45593999997E+02  0.45594000000E+02  0.51100000000E-03 0. -1.
    9900012    2    1    2    0    0  0.40270340352E+02 -0.35689261499E+01  0.15785628640E+02  0.47787267086E+02  0.19999981950E+02 0.  0.
         12    1    1    2    0    0 -0.40270340352E+02  0.35689261499E+01 -0.15785628640E+02  0.43400732914E+02  0.00000000000E+00 0. -1.
         11    1    3    3    0    0  0.89052413259E+01  0.23228330120E+01 -0.23724304159E+01  0.95040676878E+01  0.51100000000E-03 0. -1.
        -11    1    3    3    0    0  0.10186119120E+02 -0.11089614772E+01  0.11865834484E+02  0.15677526799E+02  0.51100000000E-03 0.  1.
        -12    1    3    3    0    0  0.21178979907E+02 -0.47827976846E+01  0.62922245717E+01  0.22605672599E+02  0.00000000000E+00 0.  1.
</event>
<event>
 7    1  0.5467297E-010  0.4778727E+02  0.7816164E-02  0.1312668E+00
        -11   -1    0    0    0    0  0.00000000000E+00  0.00000000000E+00  0.45593999997E+02  0.45594000000E+02  0.51100000000E-03 0. -1.
         11   -1    0    0    0    0 -0.00000000000E+00 -0.00000000000E+00 -0.45593999997E+02  0.45594000000E+02  0.51100000000E-03 0.  1.
    9900012    2    1    2    0    0 -0.21911283648E+02 -0.26717507184E+02  0.26262018062E+02  0.47787272657E+02  0.20000007354E+02 0.  0.
         12    1    1    2    0    0  0.21911283648E+02  0.26717507184E+02 -0.26262018062E+02  0.43400727343E+02  0.00000000000E+00 0. -1.
         11    1    3    3    0    0 -0.64833943675E+01 -0.41277300645E+01  0.84956731821E+01  0.11456396514E+02  0.51100000000E-03 0. -1.
        -11    1    3    3    0    0 -0.42270109606E+00  0.20537462311E+01 -0.53461105320E+00  0.21638759294E+01  0.51100000000E-03 0.  1.
        -12    1    3    3    0    0 -0.15005188184E+02 -0.24643523350E+02  0.18300955933E+02  0.34167000214E+02  0.00000000000E+00 0.  1.
</event>
<event>
 7    1  0.5467297E-010  0.4778725E+02  0.7816164E-02  0.1312668E+00
        -11   -1    0    0    0    0  0.00000000000E+00  0.00000000000E+00  0.45593999997E+02  0.45594000000E+02  0.51100000000E-03 0.  1.
         11   -1    0    0    0    0 -0.00000000000E+00 -0.00000000000E+00 -0.45593999997E+02  0.45594000000E+02  0.51100000000E-03 0. -1.
    9900012    2    1    2    0    0  0.21703364576E+02 -0.16738367424E+02  0.33651397011E+02  0.47787245413E+02  0.19999883135E+02 0.  0.
         12    1    1    2    0    0 -0.21703364576E+02  0.16738367424E+02 -0.33651397011E+02  0.43400754587E+02  0.00000000000E+00 0. -1.
         11    1    3    3    0    0  0.17668508233E+01 -0.95095310628E+01  0.69624449705E+01  0.11917574547E+02  0.51100000000E-03 0. -1.
        -11    1    3    3    0    0  0.18457840957E+02 -0.85699660099E+01  0.27040533517E+02  0.33842675180E+02  0.51100000000E-03 0.  1.
        -12    1    3    3    0    0  0.14786727960E+01  0.13411296489E+01 -0.35158147642E+00  0.20269956851E+01  0.00000000000E+00 0.  1.
</event>
<event>
 7    1  0.5467297E-010  0.4778727E+02  0.7816164E-02  0.1312668E+00
        -11   -1    0    0    0    0  0.00000000000E+00  0.00000000000E+00  0.45593999997E+02  0.45594000000E+02  0.51100000000E-03 0.  1.
         11   -1    0    0    0    0 -0.00000000000E+00 -0.00000000000E+00 -0.45593999997E+02  0.45594000000E+02  0.51100000000E-03 0. -1.
    9900012    2    1    2    0    0  0.23282225262E+02  0.10633571125E+02  0.35049800316E+02  0.47787270164E+02  0.19999995988E+02 0.  0.
         12    1    1    2    0    0 -0.23282225262E+02 -0.10633571125E+02 -0.35049800316E+02  0.43400729836E+02  0.00000000000E+00 0. -1.
         11    1    3    3    0    0  0.12652927866E+02  0.13349766313E+02  0.14783849037E+02  0.23598199863E+02  0.51100000000E-03 0. -1.
        -11    1    3    3    0    0  0.10517237378E+02 -0.10081411902E+01  0.19754731546E+02  0.22402634878E+02  0.51100000000E-03 0.  1.
         12    1    3    3    0    0  0.11206001772E+00 -0.17080539976E+01  0.51121973355E+00  0.17864354234E+01  0.00000000000E+00 0. -1.
</event>
<event>
 7    1  0.5467297E-010  0.4778724E+02  0.7816164E-02  0.1312668E+00
        -11   -1    0    0    0    0  0.00000000000E+00  0.00000000000E+00  0.45593999997E+02  0.45594000000E+02  0.51100000000E-03 0.  1.
         11   -1    0    0    0    0 -0.00000000000E+00 -0.00000000000E+00 -0.45593999997E+02  0.45594000000E+02  0.51100000000E-03 0. -1.
    9900012    2    1    2    0    0 -0.40596537792E+01 -0.34804579403E+02  0.25608322468E+02  0.47787242911E+02  0.19999871730E+02 0.  0.
         12    1    1    2    0    0  0.40596537792E+01  0.34804579403E+02 -0.25608322468E+02  0.43400757089E+02  0.00000000000E+00 0. -1.
         11    1    3    3    0    0  0.26096251885E+01 -0.18873534558E+01 -0.51975594946E+00  0.32622681066E+01  0.51100000000E-03 0.  1.
        -11    1    3    3    0    0  0.24422973347E+01 -0.10119006740E+01  0.73926212590E+00  0.27450442614E+01  0.51100000000E-03 0. -1.
         12    1    3    3    0    0 -0.91115763024E+01 -0.31905325274E+02  0.25388816291E+02  0.41779930543E+02  0.00000000000E+00 0. -1.
</event>
<event>
 7    1  0.5467297E-010  0.4778726E+02  0.7816164E-02  0.1312668E+00
        -11   -1    0    0    0    0  0.00000000000E+00  0.00000000000E+00  0.45593999997E+02  0.45594000000E+02  0.51100000000E-03 0. -1.
         11   -1    0    0    0    0 -0.00000000000E+00 -0.00000000000E+00 -0.45593999997E+02  0.45594000000E+02  0.51100000000E-03 0.  1.
    9900012    2    1    2    0    0 -0.22646899697E+02 -0.34791102540E+02 -0.12661794241E+02  0.47787263656E+02  0.19999966311E+02 0.  0.
         12    1    1    2    0    0  0.22646899697E+02  0.34791102540E+02  0.12661794241E+02  0.43400736344E+02  0.00000000000E+00 0. -1.
         11    1    3    3    0    0 -0.93841139374E+01 -0.22813338339E+02 -0.13423285732E+02  0.28083707032E+02  0.51100000000E-03 0. -1.
        -11    1    3    3    0    0 -0.13888201394E+02 -0.11597009314E+02 -0.65901826535E+00  0.18105443058E+02  0.51100000000E-03 0.  1.
        -12    1    3    3    0    0  0.62541563406E+00 -0.38075488778E+00  0.14205097570E+01  0.15981135660E+01  0.00000000000E+00 0.  1.
</event>
<event>
 7    1  0.5467297E-010  0.4778727E+02  0.7816164E-02  0.1312668E+00
        -11   -1    0    0    0    0  0.00000000000E+00  0.00000000000E+00  0.45593999997E+02  0.45594000000E+02  0.51100000000E-03 0. -1.
         11   -1    0    0    0    0 -0.00000000000E+00 -0.00000000000E+00 -0.45593999997E+02  0.45594000000E+02  0.51100000000E-03 0.  1.
    9900012    2    1    2    0    0 -0.23673515762E+02  0.36338291210E+02 -0.16482084168E+01  0.47787270195E+02  0.19999996127E+02 0.  0.
         12    1    1    2    0    0  0.23673515762E+02 -0.36338291210E+02  0.16482084168E+01  0.43400729805E+02  0.00000000000E+00 0. -1.
         11    1    3    3    0    0  0.13068824408E+01 -0.14107628557E+01  0.38389217449E+00  0.19610117317E+01  0.51100000000E-03 0. -1.
        -11    1    3    3    0    0 -0.17358379091E+02  0.24813486071E+02 -0.44862206451E+01  0.30612882772E+02  0.51100000000E-03 0.  1.
         12    1    3    3    0    0 -0.76220191121E+01  0.12935567995E+02  0.24541200538E+01  0.15213375692E+02  0.00000000000E+00 0. -1.
</event>
<event>
 7    1  0.5467297E-010  0.4778726E+02  0.7816164E-02  0.1312668E+00
        -11   -1    0    0    0    0  0.00000000000E+00  0.00000000000E+00  0.45593999997E+02  0.45594000000E+02  0.51100000000E-03 0. -1.
         11   -1    0    0    0    0 -0.00000000000E+00 -0.00000000000E+00 -0.45593999997E+02  0.45594000000E+02  0.51100000000E-03 0.  1.
    9900012    2    1    2    0    0  0.40944602285E+02 -0.35329440173E+00 -0.14388860963E+02  0.47787255847E+02  0.19999930709E+02 0.  0.
         12    1    1    2    0    0 -0.40944602285E+02  0.35329440173E+00  0.14388860963E+02  0.43400744153E+02  0.00000000000E+00 0. -1.
         11    1    3    3    0    0  0.33185255681E+01  0.10739216121E+01 -0.52059788004E+01  0.62664292149E+01  0.51100000000E-03 0. -1.
        -11    1    3    3    0    0  0.17204241056E+02 -0.48530021502E+01  0.19996279575E+01  0.17987107950E+02  0.51100000000E-03 0.  1.
        -12    1    3    3    0    0  0.20421835661E+02  0.34257861364E+01 -0.11182510120E+02  0.23533718682E+02  0.00000000000E+00 0.  1.
</event>
<event>
 7    1  0.5467297E-010  0.4778725E+02  0.7816164E-02  0.1312668E+00
        -11   -1    0    0    0    0  0.00000000000E+00  0.00000000000E+00  0.45593999997E+02  0.45594000000E+02  0.51100000000E-03 0.  1.
         11   -1    0    0    0    0 -0.00000000000E+00 -0.00000000000E+00 -0.45593999997E+02  0.45594000000E+02  0.51100000000E-03 0. -1.
    9900012    2    1    2    0    0 -0.10495755610E+01  0.14209030038E+02  0.40995445795E+02  0.47787254392E+02  0.19999924073E+02 0.  0.
         12    1    1    2    0    0  0.10495755610E+01 -0.14209030038E+02 -0.40995445795E+02  0.43400745608E+02  0.00000000000E+00 0. -1.
         11    1    3    3    0    0  0.12053409688E+01  0.17962512598E+01  0.10964524396E+00  0.21659611677E+01  0.51100000000E-03 0. -1.
        -11    1    3    3    0    0  0.26479457518E+01  0.14368373931E+02  0.25951072693E+02  0.29781201458E+02  0.51100000000E-03 0.  1.
        -12    1    3    3    0    0 -0.49028622816E+01 -0.19555951536E+01  0.14934727858E+02  0.15840091766E+02  0.00000000000E+00 0.  1.
</event>
<event>
 7    1  0.5467297E-010  0.4778727E+02  0.7816164E-02  0.1312668E+00
        -11   -1    0    0    0    0  0.00000000000E+00  0.00000000000E+00  0.45593999997E+02  0.45594000000E+02  0.51100000000E-03 0. -1.
         11   -1    0    0    0    0 -0.00000000000E+00 -0.00000000000E+00 -0.45593999997E+02  0.45594000000E+02  0.51100000000E-03 0.  1.
    9900012    2    1    2    0    0 -0.36805843283E+02 -0.44401923790E+00 -0.22994694507E+02  0.47787271569E+02  0.20000002391E+02 0.  0.
         12    1    1    2    0    0  0.36805843283E+02  0.44401923790E+00  0.22994694507E+02  0.43400728431E+02  0.00000000000E+00 0. -1.
         11    1    3    3    0    0 -0.34266333712E+01 -0.54749553490E+01 -0.72978244235E+01  0.97455217363E+01  0.51100000000E-03 0. -1.
        -11    1    3    3    0    0 -0.17020077068E+02  0.31760690874E+01 -0.12280972271E+02  0.21227169345E+02  0.51100000000E-03 0.  1.
         12    1    3    3    0    0 -0.16359132844E+02  0.18548670237E+01 -0.34158978132E+01  0.16814580487E+02  0.00000000000E+00 0. -1.
</event>
<event>
 7    1  0.5467297E-010  0.4778725E+02  0.7816164E-02  0.1312668E+00
        -11   -1    0    0    0    0  0.00000000000E+00  0.00000000000E+00  0.45593999997E+02  0.45594000000E+02  0.51100000000E-03 0.  1.
         11   -1    0    0    0    0 -0.00000000000E+00 -0.00000000000E+00 -0.45593999997E+02  0.45594000000E+02  0.51100000000E-03 0. -1.
    9900012    2    1    2    0    0  0.75699540520E+01 -0.12245230648E+02  0.40943557660E+02  0.47787253557E+02  0.19999920268E+02 0.  0.
         12    1    1    2    0    0 -0.75699540520E+01  0.12245230648E+02 -0.40943557660E+02  0.43400746443E+02  0.00000000000E+00 0. -1.
         11    1    3    3    0    0 -0.24542399386E+00 -0.32442392172E+01 -0.10393686378E+01  0.34154953465E+01  0.51100000000E-03 0. -1.
        -11    1    3    3    0    0  0.99967035107E+00 -0.51469013467E+01  0.26588298113E+02  0.27100323450E+02  0.51100000000E-03 0.  1.
         12    1    3    3    0    0  0.68157076948E+01 -0.38540900837E+01  0.15394628185E+02  0.17271434761E+02  0.00000000000E+00 0. -1.
</event>
<event>
 7    1  0.5830582E-010  0.4778727E+02  0.7816164E-02  0.1312668E+00
        -11   -1    0    0    0    0  0.00000000000E+00  0.00000000000E+00  0.45593999997E+02  0.45594000000E+02  0.51100000000E-03 0.  1.
         11   -1    0    0    0    0 -0.00000000000E+00 -0.00000000000E+00 -0.45593999997E+02  0.45594000000E+02  0.51100000000E-03 0. -1.
    9900012    2    1    2    0    0  0.33387428923E+02  0.55694701822E+01  0.27164019852E+02  0.47787269791E+02  0.19999994283E+02 0.  0.
         12    1    1    2    0    0 -0.33387428923E+02 -0.55694701822E+01 -0.27164019852E+02  0.43400730209E+02  0.00000000000E+00 0. -1.
         11    1    3    3    0    0  0.26665034755E+01  0.21138060203E+01 -0.15425935622E+01  0.37360422690E+01  0.51100000000E-03 0. -1.
        -11    1    3    3    0    0  0.28104362283E+02 -0.17201618664E+00  0.20790936888E+02  0.34959230911E+02  0.51100000000E-03 0.  1.
        -12    1    3    3    0    0  0.26165631640E+01  0.36276803485E+01  0.79156765262E+01  0.90919966108E+01  0.00000000000E+00 0.  1.
</event>
<event>
 7    1  0.5467297E-010  0.4778727E+02  0.7816164E-02  0.1312668E+00
        -11   -1    0    0    0    0  0.00000000000E+00  0.00000000000E+00  0.45593999997E+02  0.45594000000E+02  0.51100000000E-03 0.  1.
         11   -1    0    0    0    0 -0.00000000000E+00 -0.00000000000E+00 -0.45593999997E+02  0.45594000000E+02  0.51100000000E-03 0. -1.
    9900012    2    1    2    0    0 -0.63614914620E+01 -0.82281380546E+01  0.42136122214E+02  0.47787267002E+02  0.19999981570E+02 0.  0.
         12    1    1    2    0    0  0.63614914620E+01  0.82281380546E+01 -0.42136122214E+02  0.43400732998E+02  0.00000000000E+00 0. -1.
         11    1    3    3    0    0 -0.18097444650E+01  0.53036574682E+01  0.83523978088E+01  0.10058156242E+02  0.51100000000E-03 0. -1.
        -11    1    3    3    0    0 -0.93840894645E+00 -0.10615519282E+02  0.29669108780E+02  0.31525003997E+02  0.51100000000E-03 0.  1.
         12    1    3    3    0    0 -0.36133380505E+01 -0.29162762404E+01  0.41146156259E+01  0.62041067630E+01  0.00000000000E+00 0. -1.
</event>
<event>
 7    1  0.5467297E-010  0.4778727E+02  0.7816164E-02  0.1312668E+00
        -11   -1    0    0    0    0  0.00000000000E+00  0.00000000000E+00  0.45593999997E+02  0.45594000000E+02  0.51100000000E-03 0. -1.
         11   -1    0    0    0    0 -0.00000000000E+00 -0.00000000000E+00 -0.45593999997E+02  0.45594000000E+02  0.51100000000E-03 0.  1.
    9900012    2    1    2    0    0  0.11465538133E+02 -0.34731359138E+02 -0.23364449777E+02  0.47787269757E+02  0.19999994130E+02 0.  0.
         12    1    1    2    0    0 -0.11465538133E+02  0.34731359138E+02  0.23364449777E+02  0.43400730243E+02  0.00000000000E+00 0. -1.
         11    1    3    3    0    0 -0.15252647385E+01 -0.10800516469E+02 -0.25847061501E+01  0.11209741061E+02  0.51100000000E-03 0. -1.
        -11    1    3    3    0    0  0.13745388317E+02 -0.25119974350E+02 -0.20255864024E+02  0.35074903264E+02  0.51100000000E-03 0.  1.
         12    1    3    3    0    0 -0.75458544562E+00  0.11891316814E+01 -0.52387960357E+00  0.15026254322E+01  0.00000000000E+00 0. -1.
</event>
<event>
 7    1  0.5467297E-010  0.4778727E+02  0.7816164E-02  0.1312668E+00
        -11   -1    0    0    0    0  0.00000000000E+00  0.00000000000E+00  0.45593999997E+02  0.45594000000E+02  0.51100000000E-03 0.  1.
         11   -1    0    0    0    0 -0.00000000000E+00 -0.00000000000E+00 -0.45593999997E+02  0.45594000000E+02  0.51100000000E-03 0. -1.
    9900012    2    1    2    0    0  0.42417644035E+02  0.86915241566E+01 -0.29704919802E+01  0.47787274888E+02  0.20000017525E+02 0.  0.
         12    1    1    2    0    0 -0.42417644035E+02 -0.86915241566E+01  0.29704919802E+01  0.43400725112E+02  0.00000000000E+00 0. -1.
         11    1    3    3    0    0  0.29319157938E+01  0.32444136826E+01  0.19795413268E+01  0.48000973418E+01  0.51100000000E-03 0. -1.
        -11    1    3    3    0    0  0.14820848228E+02  0.61262504039E+01 -0.83485340892E+01  0.18080002984E+02  0.51100000000E-03 0.  1.
        -12    1    3    3    0    0  0.24664880013E+02 -0.67913992980E+00  0.33985007823E+01  0.24907174562E+02  0.00000000000E+00 0.  1.
</event>
<event>
 7    1  0.5467297E-010  0.4778727E+02  0.7816164E-02  0.1312668E+00
        -11   -1    0    0    0    0  0.00000000000E+00  0.00000000000E+00  0.45593999997E+02  0.45594000000E+02  0.51100000000E-03 0.  1.
         11   -1    0    0    0    0 -0.00000000000E+00 -0.00000000000E+00 -0.45593999997E+02  0.45594000000E+02  0.51100000000E-03 0. -1.
    9900012    2    1    2    0    0  0.70707624823E-01  0.22808804742E+02  0.36923931996E+02  0.47787270428E+02  0.19999997191E+02 0.  0.
         12    1    1    2    0    0 -0.70707624823E-01 -0.22808804742E+02 -0.36923931996E+02  0.43400729572E+02  0.00000000000E+00 0. -1.
         11    1    3    3    0    0  0.32664630810E+01  0.75823191645E+01  0.14102813285E+01  0.83755739301E+01  0.51100000000E-03 0. -1.
        -11    1    3    3    0    0 -0.54437534019E+01  0.10508214155E+02  0.23556048767E+02  0.26361799058E+02  0.51100000000E-03 0.  1.
         12    1    3    3    0    0  0.22479979457E+01  0.47182714224E+01  0.11957601901E+02  0.13049897440E+02  0.00000000000E+00 0. -1.
</event>
<event>
 7    1  0.5467297E-010  0.4778727E+02  0.7816164E-02  0.1312668E+00
        -11   -1    0    0    0    0  0.00000000000E+00  0.00000000000E+00  0.45593999997E+02  0.45594000000E+02  0.51100000000E-03 0. -1.
         11   -1    0    0    0    0 -0.00000000000E+00 -0.00000000000E+00 -0.45593999997E+02  0.45594000000E+02  0.51100000000E-03 0.  1.
    9900012    2    1    2    0    0 -0.16974554761E+02 -0.33081549927E+02 -0.22385240524E+02  0.47787269036E+02  0.19999990843E+02 0.  0.
         12    1    1    2    0    0  0.16974554761E+02  0.33081549927E+02  0.22385240524E+02  0.43400730964E+02  0.00000000000E+00 0. -1.
         11    1    3    3    0    0 -0.19338476772E+01 -0.94642459183E+01 -0.18296844561E+01  0.98315544605E+01  0.51100000000E-03 0. -1.
        -11    1    3    3    0    0 -0.35330450054E+00 -0.44825370277E+01 -0.11225300133E+02  0.12092366419E+02  0.51100000000E-03 0.  1.
        -12    1    3    3    0    0 -0.14687402583E+02 -0.19134766981E+02 -0.93302559351E+01  0.25863348156E+02  0.00000000000E+00 0.  1.
</event>
<event>
 7    1  0.5467297E-010  0.4778727E+02  0.7816164E-02  0.1312668E+00
        -11   -1    0    0    0    0  0.00000000000E+00  0.00000000000E+00  0.45593999997E+02  0.45594000000E+02  0.51100000000E-03 0. -1.
         11   -1    0    0    0    0 -0.00000000000E+00 -0.00000000000E+00 -0.45593999997E+02  0.45594000000E+02  0.51100000000E-03 0.  1.
    9900012    2    1    2    0    0  0.16537613968E+02  0.34902994122E+02 -0.19796751719E+02  0.47787273588E+02  0.20000011599E+02 0.  0.
         12    1    1    2    0    0 -0.16537613968E+02 -0.34902994122E+02  0.19796751719E+02  0.43400726412E+02  0.00000000000E+00 0. -1.
         11    1    3    3    0    0  0.11435664169E+02  0.80879677846E+01 -0.74206837894E+00  0.14026414496E+02  0.51100000000E-03 0. -1.
        -11    1    3    3    0    0  0.91550217183E+00  0.14336132038E+02 -0.12566889584E+02  0.19086370533E+02  0.51100000000E-03 0.  1.
        -12    1    3    3    0    0  0.41864476276E+01  0.12478894300E+02 -0.64877937557E+01  0.14674488560E+02  0.00000000000E+00 0.  1.
</event>
<event>
 7    1  0.5467297E-010  0.4778727E+02  0.7816164E-02  0.1312668E+00
        -11   -1    0    0    0    0  0.00000000000E+00  0.00000000000E+00  0.45593999997E+02  0.45594000000E+02  0.51100000000E-03 0.  1.
         11   -1    0    0    0    0 -0.00000000000E+00 -0.00000000000E+00 -0.45593999997E+02  0.45594000000E+02  0.51100000000E-03 0. -1.
    9900012    2    1    2    0    0 -0.18670973845E+01 -0.22833136717E+02  0.36861704158E+02  0.47787269379E+02  0.19999992406E+02 0.  0.
         12    1    1    2    0    0  0.18670973845E+01  0.22833136717E+02 -0.36861704158E+02  0.43400730621E+02  0.00000000000E+00 0. -1.
         11    1    3    3    0    0 -0.58117710329E+01 -0.23451028450E+02  0.25902296793E+02  0.35421129249E+02  0.51100000000E-03 0. -1.
        -11    1    3    3    0    0  0.13541378455E+01 -0.53490612404E+00  0.51605958084E+00  0.15447108526E+01  0.51100000000E-03 0.  1.
         12    1    3    3    0    0  0.25905358029E+01  0.11527978564E+01  0.10443347785E+02  0.10821429277E+02  0.00000000000E+00 0. -1.
</event>
<event>
 7    1  0.5467297E-010  0.4778727E+02  0.7816164E-02  0.1312668E+00
        -11   -1    0    0    0    0  0.00000000000E+00  0.00000000000E+00  0.45593999997E+02  0.45594000000E+02  0.51100000000E-03 0.  1.
         11   -1    0    0    0    0 -0.00000000000E+00 -0.00000000000E+00 -0.45593999997E+02  0.45594000000E+02  0.51100000000E-03 0. -1.
    9900012    2    1    2    0    0 -0.37615464296E+01  0.10282040951E+02  0.41997066992E+02  0.47787271508E+02  0.20000002114E+02 0.  0.
         12    1    1    2    0    0  0.37615464296E+01 -0.10282040951E+02 -0.41997066992E+02  0.43400728492E+02  0.00000000000E+00 0. -1.
         11    1    3    3    0    0  0.19075970242E+01 -0.24662647080E+00  0.15404811005E+01  0.24643119334E+01  0.51100000000E-03 0. -1.
        -11    1    3    3    0    0 -0.28575487475E+01  0.14720051855E+02  0.33735337419E+02  0.36917726128E+02  0.51100000000E-03 0.  1.
        -12    1    3    3    0    0 -0.28115947063E+01 -0.41913844330E+01  0.67212484733E+01  0.84052334469E+01  0.00000000000E+00 0.  1.
</event>
<event>
 7    1  0.5467297E-010  0.4778727E+02  0.7816164E-02  0.1312668E+00
        -11   -1    0    0    0    0  0.00000000000E+00  0.00000000000E+00  0.45593999997E+02  0.45594000000E+02  0.51100000000E-03 0. -1.
         11   -1    0    0    0    0 -0.00000000000E+00 -0.00000000000E+00 -0.45593999997E+02  0.45594000000E+02  0.51100000000E-03 0.  1.
    9900012    2    1    2    0    0 -0.11787758814E+02  0.16568391968E+02 -0.38342671288E+02  0.47787270608E+02  0.19999998012E+02 0.  0.
         12    1    1    2    0    0  0.11787758814E+02 -0.16568391968E+02  0.38342671288E+02  0.43400729392E+02  0.00000000000E+00 0. -1.
         11    1    3    3    0    0  0.19979664115E+01  0.12528478150E+02 -0.15915861422E+02  0.20353606059E+02  0.51100000000E-03 0. -1.
        -11    1    3    3    0    0  0.46251460215E+00  0.10806639665E+01 -0.10655202500E+01  0.15865333372E+01  0.51100000000E-03 0.  1.
         12    1    3    3    0    0 -0.14248239828E+02  0.29592498517E+01 -0.21361289616E+02  0.25847131213E+02  0.00000000000E+00 0. -1.
</event>
<event>
 7    1  0.5467297E-010  0.4778725E+02  0.7816164E-02  0.1312668E+00
        -11   -1    0    0    0    0  0.00000000000E+00  0.00000000000E+00  0.45593999997E+02  0.45594000000E+02  0.51100000000E-03 0. -1.
         11   -1    0    0    0    0 -0.00000000000E+00 -0.00000000000E+00 -0.45593999997E+02  0.45594000000E+02  0.51100000000E-03 0.  1.
    9900012    2    1    2    0    0  0.35327631876E+02 -0.23936163487E+02 -0.79147703517E+01  0.47787250166E+02  0.19999904806E+02 0.  0.
         12    1    1    2    0    0 -0.35327631876E+02  0.23936163487E+02  0.79147703517E+01  0.43400749834E+02  0.00000000000E+00 0. -1.
         11    1    3    3    0    0  0.95858746854E+01 -0.16849526272E+02 -0.31468210459E+01  0.19639195809E+02  0.51100000000E-03 0. -1.
        -11    1    3    3    0    0  0.25841851187E+02 -0.72591146116E+01 -0.54910586514E+01  0.27397951440E+02  0.51100000000E-03 0.  1.
         12    1    3    3    0    0 -0.10009399597E+00  0.17247739689E+00  0.72310934559E+00  0.75010291703E+00  0.00000000000E+00 0. -1.
</event>
<event>
 7    1  0.5467297E-010  0.4778727E+02  0.7816164E-02  0.1312668E+00
        -11   -1    0    0    0    0  0.00000000000E+00  0.00000000000E+00  0.45593999997E+02  0.45594000000E+02  0.51100000000E-03 0.  1.
         11   -1    0    0    0    0 -0.00000000000E+00 -0.00000000000E+00 -0.45593999997E+02  0.45594000000E+02  0.51100000000E-03 0. -1.
    9900012    2    1    2    0    0 -0.24103500793E+02  0.18703633353E+02  0.30867767024E+02  0.47787266226E+02  0.19999978030E+02 0.  0.
         12    1    1    2    0    0  0.24103500793E+02 -0.18703633353E+02 -0.30867767024E+02  0.43400733774E+02  0.00000000000E+00 0. -1.
         11    1    3    3    0    0 -0.21106317661E+01  0.94661569644E+01  0.34340467563E+01  0.10288613683E+02  0.51100000000E-03 0. -1.
        -11    1    3    3    0    0 -0.27036419170E+01 -0.18868379542E+01  0.34713739860E+01  0.47875123699E+01  0.51100000000E-03 0.  1.
         12    1    3    3    0    0 -0.19289227110E+02  0.11124314343E+02  0.23962346282E+02  0.32711140173E+02  0.00000000000E+00 0. -1.
</event>
<event>
 7    1  0.5467297E-010  0.4778727E+02  0.7816164E-02  0.1312668E+00
        -11   -1    0    0    0    0  0.00000000000E+00  0.00000000000E+00  0.45593999997E+02  0.45594000000E+02  0.51100000000E-03 0. -1.
         11   -1    0    0    0    0 -0.00000000000E+00 -0.00000000000E+00 -0.45593999997E+02  0.45594000000E+02  0.51100000000E-03 0.  1.
    9900012    2    1    2    0    0 -0.21360832219E+02 -0.23555148969E+02 -0.29537991324E+02  0.47787272731E+02  0.20000007689E+02 0.  0.
         12    1    1    2    0    0  0.21360832219E+02  0.23555148969E+02  0.29537991324E+02  0.43400727269E+02  0.00000000000E+00 0. -1.
         11    1    3    3    0    0 -0.35574433381E+01 -0.12875222027E+02 -0.49368776212E+01  0.14240769159E+02  0.51100000000E-03 0. -1.
        -11    1    3    3    0    0 -0.14679216202E+02 -0.10317426334E+02 -0.14817780749E+02  0.23270051591E+02  0.51100000000E-03 0.  1.
         12    1    3    3    0    0 -0.31241726792E+01 -0.36250060813E+00 -0.97833329541E+01  0.10276451981E+02  0.00000000000E+00 0. -1.
</event>
<event>
 7    1  0.5467297E-010  0.4778727E+02  0.7816164E-02  0.1312668E+00
        -11   -1    0    0    0    0  0.00000000000E+00  0.00000000000E+00  0.45593999997E+02  0.45594000000E+02  0.51100000000E-03 0.  1.
         11   -1    0    0    0    0 -0.00000000000E+00 -0.00000000000E+00 -0.45593999997E+02  0.45594000000E+02  0.51100000000E-03 0. -1.
    9900012    2    1    2    0    0 -0.33504660764E+02  0.13635366970E+02  0.23982037566E+02  0.47787266698E+02  0.19999980184E+02 0.  0.
         12    1    1    2    0    0  0.33504660764E+02 -0.13635366970E+02 -0.23982037566E+02  0.43400733302E+02  0.00000000000E+00 0. -1.
         11    1    3    3    0    0 -0.26090707777E+02  0.53952753072E+01  0.11123208827E+02  0.28871435759E+02  0.51100000000E-03 0. -1.
        -11    1    3    3    0    0 -0.24684096888E+01  0.69468360446E+01  0.11441735403E+02  0.13611204455E+02  0.51100000000E-03 0.  1.
        -12    1    3    3    0    0 -0.49455432981E+01  0.12932556180E+01  0.14170933360E+01  0.53046264835E+01  0.00000000000E+00 0.  1.
</event>
<event>
 7    1  0.5467297E-010  0.4778727E+02  0.7816164E-02  0.1312668E+00
        -11   -1    0    0    0    0  0.00000000000E+00  0.00000000000E+00  0.45593999997E+02  0.45594000000E+02  0.51100000000E-03 0. -1.
         11   -1    0    0    0    0 -0.00000000000E+00 -0.00000000000E+00 -0.45593999997E+02  0.45594000000E+02  0.51100000000E-03 0.  1.
    9900012    2    1    2    0    0 -0.10129626733E+02 -0.32184122291E+02  0.27298279369E+02  0.47787272795E+02  0.20000007981E+02 0.  0.
         12    1    1    2    0    0  0.10129626733E+02  0.32184122291E+02 -0.27298279369E+02  0.43400727205E+02  0.00000000000E+00 0. -1.
         11    1    3    3    0    0  0.44407934328E+01 -0.13544589225E+02  0.76027496583E+01  0.16154824240E+02  0.51100000000E-03 0. -1.
        -11    1    3    3    0    0 -0.11749799783E+02 -0.10206161334E+02  0.14820922354E+02  0.21491469559E+02  0.51100000000E-03 0.  1.
        -12    1    3    3    0    0 -0.28206203837E+01 -0.84333717317E+01  0.48746073561E+01  0.10140978996E+02  0.00000000000E+00 0.  1.
</event>
<event>
 7    1  0.5467297E-010  0.4778727E+02  0.7816164E-02  0.1312668E+00
        -11   -1    0    0    0    0  0.00000000000E+00  0.00000000000E+00  0.45593999997E+02  0.45594000000E+02  0.51100000000E-03 0.  1.
         11   -1    0    0    0    0 -0.00000000000E+00 -0.00000000000E+00 -0.45593999997E+02  0.45594000000E+02  0.51100000000E-03 0. -1.
    9900012    2    1    2    0    0 -0.19425439884E+02 -0.37463454615E+02  0.10137308260E+02  0.47787272297E+02  0.20000005712E+02 0.  0.
         12    1    1    2    0    0  0.19425439884E+02  0.37463454615E+02 -0.10137308260E+02  0.43400727703E+02  0.00000000000E+00 0. -1.
         11    1    3    3    0    0 -0.23544912340E+01 -0.70728282316E+01  0.62087490337E+01  0.97013964453E+01  0.51100000000E-03 0. -1.
        -11    1    3    3    0    0 -0.15822479210E+02 -0.13488530044E+02  0.38071092721E+01  0.21137298133E+02  0.51100000000E-03 0.  1.
        -12    1    3    3    0    0 -0.12484694399E+01 -0.16902096339E+02  0.12144995381E+00  0.16948577719E+02  0.00000000000E+00 0.  1.
</event>
<event>
 7    1  0.5467297E-010  0.4778727E+02  0.7816164E-02  0.1312668E+00
        -11   -1    0    0    0    0  0.00000000000E+00  0.00000000000E+00  0.45593999997E+02  0.45594000000E+02  0.51100000000E-03 0. -1.
         11   -1    0    0    0    0 -0.00000000000E+00 -0.00000000000E+00 -0.45593999997E+02  0.45594000000E+02  0.51100000000E-03 0.  1.
    9900012    2    1    2    0    0  0.40331754970E+02 -0.11192216454E+02 -0.11476364320E+02  0.47787272977E+02  0.20000008810E+02 0.  0.
         12    1    1    2    0    0 -0.40331754970E+02  0.11192216454E+02  0.11476364320E+02  0.43400727023E+02  0.00000000000E+00 0. -1.
         11    1    3    3    0    0  0.11490006130E+01  0.86801565576E+00  0.13840561582E+01  0.19973145214E+01  0.51100000000E-03 0. -1.
        -11    1    3    3    0    0  0.20917987309E+02  0.17846645038E+01 -0.52509533006E+01  0.21640696183E+02  0.51100000000E-03 0.  1.
        -12    1    3    3    0    0  0.18264767048E+02 -0.13844896614E+02 -0.76094671780E+01  0.24149262272E+02  0.00000000000E+00 0.  1.
</event>
<event>
 7    1  0.5467297E-010  0.4778727E+02  0.7816164E-02  0.1312668E+00
        -11   -1    0    0    0    0  0.00000000000E+00  0.00000000000E+00  0.45593999997E+02  0.45594000000E+02  0.51100000000E-03 0.  1.
         11   -1    0    0    0    0 -0.00000000000E+00 -0.00000000000E+00 -0.45593999997E+02  0.45594000000E+02  0.51100000000E-03 0. -1.
    9900012    2    1    2    0    0  0.97845312263E+01  0.87154181833E+01  0.41375451351E+02  0.47787267979E+02  0.19999986025E+02 0.  0.
         12    1    1    2    0    0 -0.97845312263E+01 -0.87154181833E+01 -0.41375451351E+02  0.43400732021E+02  0.00000000000E+00 0. -1.
         11    1    3    3    0    0 -0.13881258204E+01  0.10434910350E+02  0.18694808806E+02  0.21454839171E+02  0.51100000000E-03 0. -1.
        -11    1    3    3    0    0  0.67925994589E+01 -0.31733082832E+01  0.19012069588E+02  0.20436929396E+02  0.51100000000E-03 0.  1.
         12    1    3    3    0    0  0.43800575878E+01  0.14538161165E+01  0.36685729573E+01  0.58954994119E+01  0.00000000000E+00 0. -1.
</event>
<event>
 7    1  0.5467297E-010  0.4778728E+02  0.7816164E-02  0.1312668E+00
        -11   -1    0    0    0    0  0.00000000000E+00  0.00000000000E+00  0.45593999997E+02  0.45594000000E+02  0.51100000000E-03 0. -1.
         11   -1    0    0    0    0 -0.00000000000E+00 -0.00000000000E+00 -0.45593999997E+02  0.45594000000E+02  0.51100000000E-03 0.  1.
    9900012    2    1    2    0    0  0.39710913934E+02 -0.17229536503E+02  0.31319738432E+01  0.47787275654E+02  0.20000021017E+02 0.  0.
         12    1    1    2    0    0 -0.39710913934E+02  0.17229536503E+02 -0.31319738432E+01  0.43400724346E+02  0.00000000000E+00 0. -1.
         11    1    3    3    0    0  0.61247725672E+01  0.21602248556E-01 -0.22740029145E+01  0.65333295626E+01  0.51100000000E-03 0. -1.
        -11    1    3    3    0    0  0.23298196436E+02 -0.32502453086E+01  0.30704110520E+01  0.23723352968E+02  0.51100000000E-03 0.  1.
        -12    1    3    3    0    0  0.10287944931E+02 -0.14000893443E+02  0.23355657058E+01  0.17530593124E+02  0.00000000000E+00 0.  1.
</event>
<event>
 7    1  0.5467297E-010  0.4778727E+02  0.7816164E-02  0.1312668E+00
        -11   -1    0    0    0    0  0.00000000000E+00  0.00000000000E+00  0.45593999997E+02  0.45594000000E+02  0.51100000000E-03 0.  1.
         11   -1    0    0    0    0 -0.00000000000E+00 -0.00000000000E+00 -0.45593999997E+02  0.45594000000E+02  0.51100000000E-03 0. -1.
    9900012    2    1    2    0    0  0.33428353809E+02 -0.14420541772E+02  0.23626613366E+02  0.47787265876E+02  0.19999976433E+02 0.  0.
         12    1    1    2    0    0 -0.33428353809E+02  0.14420541772E+02 -0.23626613366E+02  0.43400734124E+02  0.00000000000E+00 0. -1.
         11    1    3    3    0    0  0.58005367368E-01  0.21857634187E+01  0.42181936360E+01  0.47512192284E+01  0.51100000000E-03 0. -1.
        -11    1    3    3    0    0  0.18516448909E+02 -0.10489195082E+02  0.15973059796E+02  0.26608658989E+02  0.51100000000E-03 0.  1.
         12    1    3    3    0    0  0.14853899532E+02 -0.61171101086E+01  0.34353599340E+01  0.16427387658E+02  0.00000000000E+00 0. -1.
</event>
<event>
 7    1  0.5467297E-010  0.4778727E+02  0.7816164E-02  0.1312668E+00
        -11   -1    0    0    0    0  0.00000000000E+00  0.00000000000E+00  0.45593999997E+02  0.45594000000E+02  0.51100000000E-03 0.  1.
         11   -1    0    0    0    0 -0.00000000000E+00 -0.00000000000E+00 -0.45593999997E+02  0.45594000000E+02  0.51100000000E-03 0. -1.
    9900012    2    1    2    0    0 -0.12027809277E+02  0.43309169128E+01  0.41475270440E+02  0.47787273100E+02  0.20000009374E+02 0.  0.
         12    1    1    2    0    0  0.12027809277E+02 -0.43309169128E+01 -0.41475270440E+02  0.43400726900E+02  0.00000000000E+00 0. -1.
         11    1    3    3    0    0  0.72145871064E+00  0.10937008172E+01  0.24277807149E+00  0.13325260229E+01  0.51100000000E-03 0. -1.
        -11    1    3    3    0    0 -0.16726584519E+01 -0.63937217073E+01  0.10682917437E+02  0.12561934118E+02  0.51100000000E-03 0.  1.
        -12    1    3    3    0    0 -0.11076609536E+02  0.96309378029E+01  0.30549574932E+02  0.33892812959E+02  0.00000000000E+00 0.  1.
</event>
<event>
 7    1  0.5467297E-010  0.4778727E+02  0.7816164E-02  0.1312668E+00
        -11   -1    0    0    0    0  0.00000000000E+00  0.00000000000E+00  0.45593999997E+02  0.45594000000E+02  0.51100000000E-03 0.  1.
         11   -1    0    0    0    0 -0.00000000000E+00 -0.00000000000E+00 -0.45593999997E+02  0.45594000000E+02  0.51100000000E-03 0. -1.
    9900012    2    1    2    0    0 -0.40150001024E+02  0.10491105511E+02  0.12709749509E+02  0.47787267177E+02  0.19999982365E+02 0.  0.
         12    1    1    2    0    0  0.40150001024E+02 -0.10491105511E+02 -0.12709749509E+02  0.43400732823E+02  0.00000000000E+00 0. -1.
         11    1    3    3    0    0 -0.25497710415E+02 -0.70078063688E+00  0.11135973563E+02  0.27832251748E+02  0.51100000000E-03 0. -1.
        -11    1    3    3    0    0 -0.32974261585E+01  0.63953510996E+01  0.24410139073E+01  0.75981632066E+01  0.51100000000E-03 0.  1.
        -12    1    3    3    0    0 -0.11354864450E+02  0.47965350486E+01 -0.86723796161E+00  0.12356852222E+02  0.00000000000E+00 0.  1.
</event>
<event>
 7    1  0.5467297E-010  0.4778727E+02  0.7816164E-02  0.1312668E+00
        -11   -1    0    0    0    0  0.00000000000E+00  0.00000000000E+00  0.45593999997E+02  0.45594000000E+02  0.51100000000E-03 0.  1.
         11   -1    0    0    0    0 -0.00000000000E+00 -0.00000000000E+00 -0.45593999997E+02  0.45594000000E+02  0.51100000000E-03 0. -1.
    9900012    2    1    2    0    0  0.20795502915E+02  0.24551065246E+02  0.29127574087E+02  0.47787270532E+02  0.19999997662E+02 0.  0.
         12    1    1    2    0    0 -0.20795502915E+02 -0.24551065246E+02 -0.29127574087E+02  0.43400729468E+02  0.00000000000E+00 0. -1.
         11    1    3    3    0    0  0.60071239895E+00  0.12371322080E+02  0.11098352594E+02  0.16630811644E+02  0.51100000000E-03 0. -1.
        -11    1    3    3    0    0  0.87235381848E+01  0.92468707244E-01  0.68153161941E+01  0.11070555723E+02  0.51100000000E-03 0.  1.
         12    1    3    3    0    0  0.11471252331E+02  0.12087274459E+02  0.11213905299E+02  0.20085903165E+02  0.00000000000E+00 0. -1.
</event>
<event>
 7    1  0.5467297E-010  0.4778727E+02  0.7816164E-02  0.1312668E+00
        -11   -1    0    0    0    0  0.00000000000E+00  0.00000000000E+00  0.45593999997E+02  0.45594000000E+02  0.51100000000E-03 0. -1.
         11   -1    0    0    0    0 -0.00000000000E+00 -0.00000000000E+00 -0.45593999997E+02  0.45594000000E+02  0.51100000000E-03 0.  1.
    9900012    2    1    2    0    0  0.40737844722E+02 -0.51296198322E+01 -0.14061951912E+02  0.47787268626E+02  0.19999988974E+02 0.  0.
         12    1    1    2    0    0 -0.40737844722E+02  0.51296198322E+01  0.14061951912E+02  0.43400731374E+02  0.00000000000E+00 0. -1.
         11    1    3    3    0    0  0.37424814591E+01  0.17484454255E+01  0.19766556839E+01  0.45793445854E+01  0.51100000000E-03 0. -1.
        -11    1    3    3    0    0  0.24281121332E+02 -0.81252345220E+01 -0.45075876666E+01  0.25998281405E+02  0.51100000000E-03 0.  1.
        -12    1    3    3    0    0  0.12714241931E+02  0.12471692642E+01 -0.11531019929E+02  0.17209642636E+02  0.00000000000E+00 0.  1.
</event>
<event>
 7    1  0.5467297E-010  0.4778727E+02  0.7816164E-02  0.1312668E+00
        -11   -1    0    0    0    0  0.00000000000E+00  0.00000000000E+00  0.45593999997E+02  0.45594000000E+02  0.51100000000E-03 0.  1.
         11   -1    0    0    0    0 -0.00000000000E+00 -0.00000000000E+00 -0.45593999997E+02  0.45594000000E+02  0.51100000000E-03 0. -1.
    9900012    2    1    2    0    0  0.29664300696E+02  0.31144945601E+02 -0.58004339062E+01  0.47787269525E+02  0.19999993071E+02 0.  0.
         12    1    1    2    0    0 -0.29664300696E+02 -0.31144945601E+02  0.58004339062E+01  0.43400730475E+02  0.00000000000E+00 0. -1.
         11    1    3    3    0    0  0.10743806089E+02  0.24706932281E+02 -0.58047761953E+01  0.27560067107E+02  0.51100000000E-03 0. -1.
        -11    1    3    3    0    0  0.96156186471E+01  0.45111997933E+01 -0.10187695222E+01  0.10670001740E+02  0.51100000000E-03 0.  1.
         12    1    3    3    0    0  0.93048759604E+01  0.19268135268E+01  0.10231118113E+01  0.95572006772E+01  0.00000000000E+00 0. -1.
</event>
<event>
 7    1  0.5467297E-010  0.4778727E+02  0.7816164E-02  0.1312668E+00
        -11   -1    0    0    0    0  0.00000000000E+00  0.00000000000E+00  0.45593999997E+02  0.45594000000E+02  0.51100000000E-03 0. -1.
         11   -1    0    0    0    0 -0.00000000000E+00 -0.00000000000E+00 -0.45593999997E+02  0.45594000000E+02  0.51100000000E-03 0.  1.
    9900012    2    1    2    0    0  0.14452550534E+02 -0.29670856992E+02 -0.28184879758E+02  0.47787269378E+02  0.19999992403E+02 0.  0.
         12    1    1    2    0    0 -0.14452550534E+02  0.29670856992E+02  0.28184879758E+02  0.43400730622E+02  0.00000000000E+00 0. -1.
         11    1    3    3    0    0 -0.38555791435E+01 -0.78302043855E+00 -0.50288328138E+01  0.63849644688E+01  0.51100000000E-03 0. -1.
        -11    1    3    3    0    0  0.53996264919E+01 -0.72600642305E+01 -0.74416802894E+01  0.11715080225E+02  0.51100000000E-03 0.  1.
         12    1    3    3    0    0  0.12908503185E+02 -0.21627772323E+02 -0.15714366655E+02  0.29687224685E+02  0.00000000000E+00 0. -1.
</event>
<event>
 7    1  0.5467297E-010  0.4778725E+02  0.7816164E-02  0.1312668E+00
        -11   -1    0    0    0    0  0.00000000000E+00  0.00000000000E+00  0.45593999997E+02  0.45594000000E+02  0.51100000000E-03 0.  1.
         11   -1    0    0    0    0 -0.00000000000E+00 -0.00000000000E+00 -0.45593999997E+02  0.45594000000E+02  0.51100000000E-03 0. -1.
    9900012    2    1    2    0    0  0.32296924007E+02  0.24698272098E+02 -0.15183181820E+02  0.47787251676E+02  0.19999911689E+02 0.  0.
         12    1    1    2    0    0 -0.32296924007E+02 -0.24698272098E+02  0.15183181820E+02  0.43400748324E+02  0.00000000000E+00 0. -1.
         11    1    3    3    0    0  0.20195516470E+02  0.16987722670E+02 -0.74303083352E+01  0.27416255930E+02  0.51100000000E-03 0.  1.
        -11    1    3    3    0    0 -0.21238832317E+01  0.17736194706E+00  0.62961974584E+00  0.22223317771E+01  0.51100000000E-03 0. -1.
        -12    1    3    3    0    0  0.14225290769E+02  0.75331874810E+01 -0.83824932308E+01  0.18148663969E+02  0.00000000000E+00 0.  1.
</event>
<event>
 7    1  0.5467297E-010  0.4778727E+02  0.7816164E-02  0.1312668E+00
        -11   -1    0    0    0    0  0.00000000000E+00  0.00000000000E+00  0.45593999997E+02  0.45594000000E+02  0.51100000000E-03 0.  1.
         11   -1    0    0    0    0 -0.00000000000E+00 -0.00000000000E+00 -0.45593999997E+02  0.45594000000E+02  0.51100000000E-03 0. -1.
    9900012    2    1    2    0    0  0.28502126432E+02 -0.13893032106E+02  0.29635039354E+02  0.47787272935E+02  0.20000008618E+02 0.  0.
         12    1    1    2    0    0 -0.28502126432E+02  0.13893032106E+02 -0.29635039354E+02  0.43400727065E+02  0.00000000000E+00 0. -1.
         11    1    3    3    0    0  0.40699962801E+01 -0.17864812019E+01  0.80239379757E+01  0.91727839669E+01  0.51100000000E-03 0. -1.
        -11    1    3    3    0    0  0.24421908661E+02 -0.15012508690E+02  0.17522092239E+02  0.33598046915E+02  0.51100000000E-03 0.  1.
        -12    1    3    3    0    0  0.10221491624E-01  0.29059577854E+01  0.40890091394E+01  0.50164420531E+01  0.00000000000E+00 0.  1.
</event>
<event>
 7    1  0.5467297E-010  0.4778727E+02  0.7816164E-02  0.1312668E+00
        -11   -1    0    0    0    0  0.00000000000E+00  0.00000000000E+00  0.45593999997E+02  0.45594000000E+02  0.51100000000E-03 0.  1.
         11   -1    0    0    0    0 -0.00000000000E+00 -0.00000000000E+00 -0.45593999997E+02  0.45594000000E+02  0.51100000000E-03 0. -1.
    9900012    2    1    2    0    0  0.10191185124E+02 -0.25796979622E+02  0.33380813888E+02  0.47787272498E+02  0.20000006628E+02 0.  0.
         12    1    1    2    0    0 -0.10191185124E+02  0.25796979622E+02 -0.33380813888E+02  0.43400727502E+02  0.00000000000E+00 0. -1.
         11    1    3    3    0    0  0.58338084057E+00 -0.28527363531E+00 -0.24614346478E+01  0.25456580758E+01  0.51100000000E-03 0. -1.
        -11    1    3    3    0    0  0.12391772787E+01 -0.10748479237E+01  0.33778781256E+01  0.37551190767E+01  0.51100000000E-03 0.  1.
         12    1    3    3    0    0  0.83686270049E+01 -0.24436858063E+02  0.32464370411E+02  0.41486495346E+02  0.00000000000E+00 0. -1.
</event>
<event>
 7    1  0.5467297E-010  0.4778727E+02  0.7816164E-02  0.1312668E+00
        -11   -1    0    0    0    0  0.00000000000E+00  0.00000000000E+00  0.45593999997E+02  0.45594000000E+02  0.51100000000E-03 0.  1.
         11   -1    0    0    0    0 -0.00000000000E+00 -0.00000000000E+00 -0.45593999997E+02  0.45594000000E+02  0.51100000000E-03 0. -1.
    9900012    2    1    2    0    0  0.27746304213E+01  0.15620704720E+02  0.40397007624E+02  0.47787271724E+02  0.20000003098E+02 0.  0.
         12    1    1    2    0    0 -0.27746304213E+01 -0.15620704720E+02 -0.40397007624E+02  0.43400728276E+02  0.00000000000E+00 0. -1.
         11    1    3    3    0    0  0.20735184209E+01  0.10913206659E+02  0.88588856557E+01  0.14208357173E+02  0.51100000000E-03 0. -1.
        -11    1    3    3    0    0  0.49859441914E+01  0.42962430234E+01  0.24125162821E+02  0.25006815571E+02  0.51100000000E-03 0.  1.
         12    1    3    3    0    0 -0.42848321911E+01  0.41125503741E+00  0.74129591472E+01  0.85720989804E+01  0.00000000000E+00 0. -1.
</event>
<event>
 7    1  0.5467297E-010  0.4778727E+02  0.7816164E-02  0.1312668E+00
        -11   -1    0    0    0    0  0.00000000000E+00  0.00000000000E+00  0.45593999997E+02  0.45594000000E+02  0.51100000000E-03 0.  1.
         11   -1    0    0    0    0 -0.00000000000E+00 -0.00000000000E+00 -0.45593999997E+02  0.45594000000E+02  0.51100000000E-03 0. -1.
    9900012    2    1    2    0    0  0.33344393493E+02 -0.54919612309E+01  0.27232581243E+02  0.47787266173E+02  0.19999977790E+02 0.  0.
         12    1    1    2    0    0 -0.33344393493E+02  0.54919612309E+01 -0.27232581243E+02  0.43400733827E+02  0.00000000000E+00 0. -1.
         11    1    3    3    0    0 -0.90248222970E+00 -0.31126232228E+01  0.79131090193E+00  0.33360261849E+01  0.51100000000E-03 0. -1.
        -11    1    3    3    0    0  0.16682896868E+02 -0.25888118925E+01  0.18880938792E+02  0.25328064373E+02  0.51100000000E-03 0.  1.
        -12    1    3    3    0    0  0.17563978854E+02  0.20947388429E+00  0.75603315483E+01  0.19123175616E+02  0.00000000000E+00 0.  1.
</event>
<event>
 7    1  0.5467297E-010  0.4778728E+02  0.7816164E-02  0.1312668E+00
        -11   -1    0    0    0    0  0.00000000000E+00  0.00000000000E+00  0.45593999997E+02  0.45594000000E+02  0.51100000000E-03 0.  1.
         11   -1    0    0    0    0 -0.00000000000E+00 -0.00000000000E+00 -0.45593999997E+02  0.45594000000E+02  0.51100000000E-03 0. -1.
    9900012    2    1    2    0    0  0.20616726443E+02  0.38104227347E+02 -0.25769971217E+01  0.47787280362E+02  0.20000042484E+02 0.  0.
         12    1    1    2    0    0 -0.20616726443E+02 -0.38104227347E+02  0.25769971217E+01  0.43400719638E+02  0.00000000000E+00 0. -1.
         11    1    3    3    0    0  0.42857656418E+00  0.86276766323E+01 -0.23780138196E+01  0.89596557930E+01  0.51100000000E-03 0. -1.
        -11    1    3    3    0    0  0.22433814518E+02  0.28738322528E+02 -0.34284979394E+00  0.36459357672E+02  0.51100000000E-03 0.  1.
        -12    1    3    3    0    0 -0.22456646400E+01  0.73822818614E+00  0.14386649187E+00  0.23682668974E+01  0.00000000000E+00 0.  1.
</event>
<event>
 7    1  0.5467297E-010  0.4778727E+02  0.7816164E-02  0.1312668E+00
        -11   -1    0    0    0    0  0.00000000000E+00  0.00000000000E+00  0.45593999997E+02  0.45594000000E+02  0.51100000000E-03 0.  1.
         11   -1    0    0    0    0 -0.00000000000E+00 -0.00000000000E+00 -0.45593999997E+02  0.45594000000E+02  0.51100000000E-03 0. -1.
    9900012    2    1    2    0    0 -0.12020847637E+02 -0.41701951903E+02 -0.26420164467E+00  0.47787269904E+02  0.19999994799E+02 0.  0.
         12    1    1    2    0    0  0.12020847637E+02  0.41701951903E+02  0.26420164467E+00  0.43400730096E+02  0.00000000000E+00 0. -1.
         11    1    3    3    0    0  0.29714086264E+00 -0.57395041212E+00 -0.12933143118E+01  0.14458125529E+01  0.51100000000E-03 0. -1.
        -11    1    3    3    0    0 -0.91671497861E+01 -0.60554131136E+01  0.17226085075E+01  0.11120793295E+02  0.51100000000E-03 0.  1.
        -12    1    3    3    0    0 -0.31508387132E+01 -0.35072588377E+02 -0.69349584041E+00  0.35220664056E+02  0.00000000000E+00 0.  1.
</event>
<event>
 7    1  0.5467297E-010  0.4778727E+02  0.7816164E-02  0.1312668E+00
        -11   -1    0    0    0    0  0.00000000000E+00  0.00000000000E+00  0.45593999997E+02  0.45594000000E+02  0.51100000000E-03 0. -1.
         11   -1    0    0    0    0 -0.00000000000E+00 -0.00000000000E+00 -0.45593999997E+02  0.45594000000E+02  0.51100000000E-03 0.  1.
    9900012    2    1    2    0    0 -0.58423285480E+01 -0.15726400376E+00 -0.43005413759E+02  0.47787272501E+02  0.20000006642E+02 0.  0.
         12    1    1    2    0    0  0.58423285480E+01  0.15726400376E+00  0.43005413759E+02  0.43400727499E+02  0.00000000000E+00 0. -1.
         11    1    3    3    0    0  0.71755803795E+00 -0.89696867437E-01 -0.93628769203E+00  0.11830342215E+01  0.51100000000E-03 0. -1.
        -11    1    3    3    0    0  0.48345132549E+01 -0.55897947698E+01 -0.15735974414E+02  0.17385028473E+02  0.51100000000E-03 0.  1.
        -12    1    3    3    0    0 -0.11394399841E+02  0.55222276335E+01 -0.26333151653E+02  0.29219209807E+02  0.00000000000E+00 0.  1.
</event>
<event>
 7    1  0.5467297E-010  0.4778727E+02  0.7816164E-02  0.1312668E+00
        -11   -1    0    0    0    0  0.00000000000E+00  0.00000000000E+00  0.45593999997E+02  0.45594000000E+02  0.51100000000E-03 0.  1.
         11   -1    0    0    0    0 -0.00000000000E+00 -0.00000000000E+00 -0.45593999997E+02  0.45594000000E+02  0.51100000000E-03 0. -1.
    9900012    2    1    2    0    0 -0.32123607644E+02  0.26926590588E+02  0.11254139211E+02  0.47787273069E+02  0.20000009230E+02 0.  0.
         12    1    1    2    0    0  0.32123607644E+02 -0.26926590588E+02 -0.11254139211E+02  0.43400726931E+02  0.00000000000E+00 0. -1.
         11    1    3    3    0    0 -0.91477764712E+01  0.15940955424E+02  0.58181231674E+01  0.19278133511E+02  0.51100000000E-03 0. -1.
        -11    1    3    3    0    0 -0.85723753263E+01  0.10523758244E+02  0.28026474662E+01  0.13859651489E+02  0.51100000000E-03 0.  1.
         12    1    3    3    0    0 -0.14403455847E+02  0.46187691934E+00  0.26333685770E+01  0.14649488069E+02  0.00000000000E+00 0. -1.
</event>
<event>
 7    1  0.5467297E-010  0.4778727E+02  0.7816164E-02  0.1312668E+00
        -11   -1    0    0    0    0  0.00000000000E+00  0.00000000000E+00  0.45593999997E+02  0.45594000000E+02  0.51100000000E-03 0. -1.
         11   -1    0    0    0    0 -0.00000000000E+00 -0.00000000000E+00 -0.45593999997E+02  0.45594000000E+02  0.51100000000E-03 0.  1.
    9900012    2    1    2    0    0 -0.35136602481E+02  0.24742342103E+02 -0.60711611335E+01  0.47787270465E+02  0.19999997359E+02 0.  0.
         12    1    1    2    0    0  0.35136602481E+02 -0.24742342103E+02  0.60711611335E+01  0.43400729535E+02  0.00000000000E+00 0. -1.
         11    1    3    3    0    0 -0.51055005027E+01  0.11383601732E+02 -0.71316704063E+00  0.12496444745E+02  0.51100000000E-03 0. -1.
        -11    1    3    3    0    0 -0.22125426742E+02  0.40725395351E+01 -0.52183687482E+01  0.23094403206E+02  0.51100000000E-03 0.  1.
        -12    1    3    3    0    0 -0.79056752358E+01  0.92862008365E+01 -0.13962534469E+00  0.12196422514E+02  0.00000000000E+00 0.  1.
</event>
<event>
 7    1  0.5467297E-010  0.4778727E+02  0.7816164E-02  0.1312668E+00
        -11   -1    0    0    0    0  0.00000000000E+00  0.00000000000E+00  0.45593999997E+02  0.45594000000E+02  0.51100000000E-03 0. -1.
         11   -1    0    0    0    0 -0.00000000000E+00 -0.00000000000E+00 -0.45593999997E+02  0.45594000000E+02  0.51100000000E-03 0.  1.
    9900012    2    1    2    0    0 -0.31269779579E+02 -0.21753106025E+02 -0.20799676475E+02  0.47787270996E+02  0.19999999779E+02 0.  0.
         12    1    1    2    0    0  0.31269779579E+02  0.21753106025E+02  0.20799676475E+02  0.43400729004E+02  0.00000000000E+00 0. -1.
         11    1    3    3    0    0 -0.59412154896E+00 -0.63158561377E+01 -0.76603266947E+01  0.99460356172E+01  0.51100000000E-03 0. -1.
        -11    1    3    3    0    0 -0.20976365651E+02 -0.59556711402E+01 -0.65934237389E+01  0.22780499808E+02  0.51100000000E-03 0.  1.
        -12    1    3    3    0    0 -0.96992923789E+01 -0.94815787473E+01 -0.65459260409E+01  0.15060735570E+02  0.00000000000E+00 0.  1.
</event>
<event>
 7    1  0.5467297E-010  0.4778727E+02  0.7816164E-02  0.1312668E+00
        -11   -1    0    0    0    0  0.00000000000E+00  0.00000000000E+00  0.45593999997E+02  0.45594000000E+02  0.51100000000E-03 0. -1.
         11   -1    0    0    0    0 -0.00000000000E+00 -0.00000000000E+00 -0.45593999997E+02  0.45594000000E+02  0.51100000000E-03 0.  1.
    9900012    2    1    2    0    0 -0.25015198325E+02  0.32158601430E+02 -0.14956182804E+02  0.47787271927E+02  0.20000004024E+02 0.  0.
         12    1    1    2    0    0  0.25015198325E+02 -0.32158601430E+02  0.14956182804E+02  0.43400728073E+02  0.00000000000E+00 0. -1.
         11    1    3    3    0    0 -0.15978333931E+02  0.28262667378E+02 -0.89424622990E+01  0.33675705706E+02  0.51100000000E-03 0. -1.
        -11    1    3    3    0    0 -0.10027838242E+02  0.50642287262E+01 -0.52942524936E+01  0.12419060436E+02  0.51100000000E-03 0.  1.
         12    1    3    3    0    0  0.99097384816E+00 -0.11682946739E+01 -0.71946801165E+00  0.16925057851E+01  0.00000000000E+00 0. -1.
</event>
<event>
 7    1  0.5467297E-010  0.4778727E+02  0.7816164E-02  0.1312668E+00
        -11   -1    0    0    0    0  0.00000000000E+00  0.00000000000E+00  0.45593999997E+02  0.45594000000E+02  0.51100000000E-03 0.  1.
         11   -1    0    0    0    0 -0.00000000000E+00 -0.00000000000E+00 -0.45593999997E+02  0.45594000000E+02  0.51100000000E-03 0. -1.
    9900012    2    1    2    0    0 -0.16900784815E+02 -0.15314503308E+02  0.36924963235E+02  0.47787269029E+02  0.19999990810E+02 0.  0.
         12    1    1    2    0    0  0.16900784815E+02  0.15314503308E+02 -0.36924963235E+02  0.43400730971E+02  0.00000000000E+00 0. -1.
         11    1    3    3    0    0 -0.49475694070E+01 -0.87494327963E+01  0.29261091996E+02  0.30939336165E+02  0.51100000000E-03 0. -1.
        -11    1    3    3    0    0 -0.44024911691E+01 -0.50692885461E+01  0.59292878490E+01  0.89574588760E+01  0.51100000000E-03 0.  1.
         12    1    3    3    0    0 -0.75507242384E+01 -0.14957819657E+01  0.17345833904E+01  0.78904739878E+01  0.00000000000E+00 0. -1.
</event>
<event>
 7    1  0.5467297E-010  0.4778727E+02  0.7816164E-02  0.1312668E+00
        -11   -1    0    0    0    0  0.00000000000E+00  0.00000000000E+00  0.45593999997E+02  0.45594000000E+02  0.51100000000E-03 0.  1.
         11   -1    0    0    0    0 -0.00000000000E+00 -0.00000000000E+00 -0.45593999997E+02  0.45594000000E+02  0.51100000000E-03 0. -1.
    9900012    2    1    2    0    0  0.86154756929E-01 -0.19383963201E+02  0.38831400993E+02  0.47787272412E+02  0.20000006237E+02 0.  0.
         12    1    1    2    0    0 -0.86154756929E-01  0.19383963201E+02 -0.38831400993E+02  0.43400727588E+02  0.00000000000E+00 0. -1.
         11    1    3    3    0    0  0.51998234066E+01 -0.19154187153E+02  0.23659748444E+02  0.30882110447E+02  0.51100000000E-03 0. -1.
        -11    1    3    3    0    0 -0.81998005763E-01 -0.16547713907E+01  0.70756071935E+01  0.72669945264E+01  0.51100000000E-03 0.  1.
         12    1    3    3    0    0 -0.50316706439E+01  0.14249953419E+01  0.80960453554E+01  0.96381674394E+01  0.00000000000E+00 0. -1.
</event>
<event>
 7    1  0.5467297E-010  0.4778727E+02  0.7816164E-02  0.1312668E+00
        -11   -1    0    0    0    0  0.00000000000E+00  0.00000000000E+00  0.45593999997E+02  0.45594000000E+02  0.51100000000E-03 0.  1.
         11   -1    0    0    0    0 -0.00000000000E+00 -0.00000000000E+00 -0.45593999997E+02  0.45594000000E+02  0.51100000000E-03 0. -1.
    9900012    2    1    2    0    0  0.73064787691E+01 -0.32787077524E+02  0.27481741773E+02  0.47787271717E+02  0.20000003068E+02 0.  0.
         12    1    1    2    0    0 -0.73064787691E+01  0.32787077524E+02 -0.27481741773E+02  0.43400728283E+02  0.00000000000E+00 0. -1.
         11    1    3    3    0    0  0.58989240118E+01 -0.10221398867E+02  0.11571894944E+02  0.16528250124E+02  0.51100000000E-03 0. -1.
        -11    1    3    3    0    0  0.70459825091E+01 -0.62767329833E+01  0.76363598611E+01  0.12139078987E+02  0.51100000000E-03 0.  1.
        -12    1    3    3    0    0 -0.56384277518E+01 -0.16288945674E+02  0.82734869684E+01  0.19119942607E+02  0.00000000000E+00 0.  1.
</event>
<event>
 7    1  0.5467297E-010  0.4778728E+02  0.7816164E-02  0.1312668E+00
        -11   -1    0    0    0    0  0.00000000000E+00  0.00000000000E+00  0.45593999997E+02  0.45594000000E+02  0.51100000000E-03 0.  1.
         11   -1    0    0    0    0 -0.00000000000E+00 -0.00000000000E+00 -0.45593999997E+02  0.45594000000E+02  0.51100000000E-03 0. -1.
    9900012    2    1    2    0    0  0.20083657276E+02  0.24115515392E+02  0.29978517896E+02  0.47787275266E+02  0.20000019249E+02 0.  0.
         12    1    1    2    0    0 -0.20083657276E+02 -0.24115515392E+02 -0.29978517896E+02  0.43400724734E+02  0.00000000000E+00 0. -1.
         11    1    3    3    0    0  0.55329276943E+01 -0.27359019336E+00  0.76730158664E+01  0.94637895798E+01  0.51100000000E-03 0.  1.
        -11    1    3    3    0    0  0.11562864132E+02  0.24551017509E+02  0.22601200733E+02  0.35316661259E+02  0.51100000000E-03 0. -1.
        -12    1    3    3    0    0  0.29878654488E+01 -0.16191192299E+00 -0.29569870414E+00  0.30068244269E+01  0.00000000000E+00 0.  1.
</event>
<event>
 7    1  0.5467297E-010  0.4778727E+02  0.7816164E-02  0.1312668E+00
        -11   -1    0    0    0    0  0.00000000000E+00  0.00000000000E+00  0.45593999997E+02  0.45594000000E+02  0.51100000000E-03 0.  1.
         11   -1    0    0    0    0 -0.00000000000E+00 -0.00000000000E+00 -0.45593999997E+02  0.45594000000E+02  0.51100000000E-03 0. -1.
    9900012    2    1    2    0    0 -0.30090761205E+02 -0.91434292713E-01  0.31275566258E+02  0.47787270572E+02  0.19999997845E+02 0.  0.
         12    1    1    2    0    0  0.30090761205E+02  0.91434292713E-01 -0.31275566258E+02  0.43400729428E+02  0.00000000000E+00 0. -1.
         11    1    3    3    0    0 -0.18729766784E+02  0.26454727150E+01  0.85665708036E+01  0.20765086691E+02  0.51100000000E-03 0.  1.
        -11    1    3    3    0    0 -0.10079740109E+02 -0.52430636235E+01  0.20523744389E+02  0.23458792826E+02  0.51100000000E-03 0. -1.
        -12    1    3    3    0    0 -0.12812543112E+01  0.25061566158E+01  0.21852510659E+01  0.35633910554E+01  0.00000000000E+00 0.  1.
</event>
<event>
 7    1  0.5467297E-010  0.4778727E+02  0.7816164E-02  0.1312668E+00
        -11   -1    0    0    0    0  0.00000000000E+00  0.00000000000E+00  0.45593999997E+02  0.45594000000E+02  0.51100000000E-03 0.  1.
         11   -1    0    0    0    0 -0.00000000000E+00 -0.00000000000E+00 -0.45593999997E+02  0.45594000000E+02  0.51100000000E-03 0. -1.
    9900012    2    1    2    0    0 -0.18785697886E+02 -0.21595574373E+02  0.32624405906E+02  0.47787272606E+02  0.20000007121E+02 0.  0.
         12    1    1    2    0    0  0.18785697886E+02  0.21595574373E+02 -0.32624405906E+02  0.43400727394E+02  0.00000000000E+00 0. -1.
         11    1    3    3    0    0 -0.28727162615E+01 -0.16389577446E+02  0.16098943768E+02  0.23152683177E+02  0.51100000000E-03 0. -1.
        -11    1    3    3    0    0 -0.80554932981E+01 -0.55477611492E+01  0.12272538491E+02  0.15693432618E+02  0.51100000000E-03 0.  1.
         12    1    3    3    0    0 -0.78574883266E+01  0.34176422188E+00  0.42529236469E+01  0.89411568117E+01  0.00000000000E+00 0. -1.
</event>
<event>
 7    1  0.5467297E-010  0.4778727E+02  0.7816164E-02  0.1312668E+00
        -11   -1    0    0    0    0  0.00000000000E+00  0.00000000000E+00  0.45593999997E+02  0.45594000000E+02  0.51100000000E-03 0.  1.
         11   -1    0    0    0    0 -0.00000000000E+00 -0.00000000000E+00 -0.45593999997E+02  0.45594000000E+02  0.51100000000E-03 0. -1.
    9900012    2    1    2    0    0  0.42147663077E+01 -0.33122374636E+02  0.27726654135E+02  0.47787270673E+02  0.19999998308E+02 0.  0.
         12    1    1    2    0    0 -0.42147663077E+01  0.33122374636E+02 -0.27726654135E+02  0.43400729327E+02  0.00000000000E+00 0. -1.
         11    1    3    3    0    0  0.28614023837E+01  0.43820116570E+00 -0.25197290040E+00  0.29057072231E+01  0.51100000000E-03 0. -1.
        -11    1    3    3    0    0 -0.41172297523E+01 -0.20804597221E+02  0.17309581548E+02  0.27375252693E+02  0.51100000000E-03 0.  1.
        -12    1    3    3    0    0  0.54705936763E+01 -0.12755978581E+02  0.10669045487E+02  0.17506310757E+02  0.00000000000E+00 0.  1.
</event>
<event>
 7    1  0.5467297E-010  0.4778727E+02  0.7816164E-02  0.1312668E+00
        -11   -1    0    0    0    0  0.00000000000E+00  0.00000000000E+00  0.45593999997E+02  0.45594000000E+02  0.51100000000E-03 0.  1.
         11   -1    0    0    0    0 -0.00000000000E+00 -0.00000000000E+00 -0.45593999997E+02  0.45594000000E+02  0.51100000000E-03 0. -1.
    9900012    2    1    2    0    0 -0.28555492780E+02  0.32479526911E+02 -0.36451978879E+01  0.47787270698E+02  0.19999998421E+02 0.  0.
         12    1    1    2    0    0  0.28555492780E+02 -0.32479526911E+02  0.36451978879E+01  0.43400729302E+02  0.00000000000E+00 0. -1.
         11    1    3    3    0    0  0.39498456114E+00 -0.67391621216E+00  0.18428512660E+01  0.20015686134E+01  0.51100000000E-03 0. -1.
        -11    1    3    3    0    0 -0.22148867111E+02  0.24069121078E+02 -0.89668104942E+01  0.33916052165E+02  0.51100000000E-03 0.  1.
        -12    1    3    3    0    0 -0.68016102298E+01  0.90843220459E+01  0.34787613403E+01  0.11869649920E+02  0.00000000000E+00 0.  1.
</event>
<event>
 7    1  0.5467297E-010  0.4778727E+02  0.7816164E-02  0.1312668E+00
        -11   -1    0    0    0    0  0.00000000000E+00  0.00000000000E+00  0.45593999997E+02  0.45594000000E+02  0.51100000000E-03 0.  1.
         11   -1    0    0    0    0 -0.00000000000E+00 -0.00000000000E+00 -0.45593999997E+02  0.45594000000E+02  0.51100000000E-03 0. -1.
    9900012    2    1    2    0    0  0.99924794283E+01  0.10928252113E+02  0.40796411242E+02  0.47787268329E+02  0.19999987619E+02 0.  0.
         12    1    1    2    0    0 -0.99924794283E+01 -0.10928252113E+02 -0.40796411242E+02  0.43400731671E+02  0.00000000000E+00 0. -1.
         11    1    3    3    0    0  0.81706020334E+01 -0.15989549393E+01  0.99981071389E+01  0.13010670279E+02  0.51100000000E-03 0. -1.
        -11    1    3    3    0    0  0.53359306051E+01  0.32926300673E+01  0.12147910289E+02  0.13670599579E+02  0.51100000000E-03 0.  1.
         12    1    3    3    0    0 -0.35140532102E+01  0.92345769852E+01  0.18650393814E+02  0.21105998471E+02  0.00000000000E+00 0. -1.
</event>
<event>
 7    1  0.5467297E-010  0.4778727E+02  0.7816164E-02  0.1312668E+00
        -11   -1    0    0    0    0  0.00000000000E+00  0.00000000000E+00  0.45593999997E+02  0.45594000000E+02  0.51100000000E-03 0. -1.
         11   -1    0    0    0    0 -0.00000000000E+00 -0.00000000000E+00 -0.45593999997E+02  0.45594000000E+02  0.51100000000E-03 0.  1.
    9900012    2    1    2    0    0  0.62707341560E+01 -0.24095029498E+02 -0.35548988089E+02  0.47787272961E+02  0.20000008739E+02 0.  0.
         12    1    1    2    0    0 -0.62707341560E+01  0.24095029498E+02  0.35548988089E+02  0.43400727039E+02  0.00000000000E+00 0. -1.
         11    1    3    3    0    0 -0.48083986217E+00  0.17944993077E+01  0.10455098037E+01  0.21317893304E+01  0.51100000000E-03 0. -1.
        -11    1    3    3    0    0  0.61336130256E+01 -0.22677870957E+02 -0.34609379370E+02  0.41829608898E+02  0.51100000000E-03 0.  1.
         12    1    3    3    0    0  0.61796099256E+00 -0.32116578486E+01 -0.19851185226E+01  0.38258747332E+01  0.00000000000E+00 0. -1.
</event>
<event>
 7    1  0.5467297E-010  0.4778727E+02  0.7816164E-02  0.1312668E+00
        -11   -1    0    0    0    0  0.00000000000E+00  0.00000000000E+00  0.45593999997E+02  0.45594000000E+02  0.51100000000E-03 0.  1.
         11   -1    0    0    0    0 -0.00000000000E+00 -0.00000000000E+00 -0.45593999997E+02  0.45594000000E+02  0.51100000000E-03 0. -1.
    9900012    2    1    2    0    0  0.21114390526E+02  0.10012429854E+02  0.36572624502E+02  0.47787273027E+02  0.20000009038E+02 0.  0.
         12    1    1    2    0    0 -0.21114390526E+02 -0.10012429854E+02 -0.36572624502E+02  0.43400726973E+02  0.00000000000E+00 0. -1.
         11    1    3    3    0    0  0.11798076503E+02 -0.42372183996E+01  0.19050185212E+02  0.22804784275E+02  0.51100000000E-03 0. -1.
        -11    1    3    3    0    0  0.58377625391E+01  0.96271558439E+01  0.14781135102E+02  0.18580730779E+02  0.51100000000E-03 0.  1.
        -12    1    3    3    0    0  0.34785514833E+01  0.46224924098E+01  0.27413041878E+01  0.64017579734E+01  0.00000000000E+00 0.  1.
</event>
<event>
 7    1  0.5467297E-010  0.4778727E+02  0.7816164E-02  0.1312668E+00
        -11   -1    0    0    0    0  0.00000000000E+00  0.00000000000E+00  0.45593999997E+02  0.45594000000E+02  0.51100000000E-03 0.  1.
         11   -1    0    0    0    0 -0.00000000000E+00 -0.00000000000E+00 -0.45593999997E+02  0.45594000000E+02  0.51100000000E-03 0. -1.
    9900012    2    1    2    0    0  0.32703703145E+02  0.15878699183E+02  0.23705651303E+02  0.47787272001E+02  0.20000004361E+02 0.  0.
         12    1    1    2    0    0 -0.32703703145E+02 -0.15878699183E+02 -0.23705651303E+02  0.43400727999E+02  0.00000000000E+00 0. -1.
         11    1    3    3    0    0  0.65329636417E+00 -0.70866705672E+00 -0.51375270450E+00  0.10922212410E+01  0.51100000000E-03 0. -1.
        -11    1    3    3    0    0  0.28456134960E+02  0.66104785763E+01  0.19233753869E+02  0.34976954299E+02  0.51100000000E-03 0.  1.
        -12    1    3    3    0    0  0.35942718214E+01  0.99768876633E+01  0.49856501387E+01  0.11718096461E+02  0.00000000000E+00 0.  1.
</event>
<event>
 7    1  0.5467297E-010  0.4778727E+02  0.7816164E-02  0.1312668E+00
        -11   -1    0    0    0    0  0.00000000000E+00  0.00000000000E+00  0.45593999997E+02  0.45594000000E+02  0.51100000000E-03 0. -1.
         11   -1    0    0    0    0 -0.00000000000E+00 -0.00000000000E+00 -0.45593999997E+02  0.45594000000E+02  0.51100000000E-03 0.  1.
    9900012    2    1    2    0    0 -0.19704376268E+02 -0.26529226874E+02 -0.28134692495E+02  0.47787271383E+02  0.20000001544E+02 0.  0.
         12    1    1    2    0    0  0.19704376268E+02  0.26529226874E+02  0.28134692495E+02  0.43400728617E+02  0.00000000000E+00 0. -1.
         11    1    3    3    0    0 -0.14597907392E+02 -0.13909925538E+02 -0.87092397977E+01  0.21964420931E+02  0.51100000000E-03 0. -1.
        -11    1    3    3    0    0  0.71504384910E+00 -0.10924219747E+02 -0.12732295023E+02  0.16791700379E+02  0.51100000000E-03 0.  1.
        -12    1    3    3    0    0 -0.58215127251E+01 -0.16950815898E+01 -0.66931576745E+01  0.90311500740E+01  0.00000000000E+00 0.  1.
</event>
<event>
 7    1  0.5467297E-010  0.4778727E+02  0.7816164E-02  0.1312668E+00
        -11   -1    0    0    0    0  0.00000000000E+00  0.00000000000E+00  0.45593999997E+02  0.45594000000E+02  0.51100000000E-03 0.  1.
         11   -1    0    0    0    0 -0.00000000000E+00 -0.00000000000E+00 -0.45593999997E+02  0.45594000000E+02  0.51100000000E-03 0. -1.
    9900012    2    1    2    0    0  0.14507266179E+02 -0.10041734335E+02  0.39652567588E+02  0.47787270550E+02  0.19999997747E+02 0.  0.
         12    1    1    2    0    0 -0.14507266179E+02  0.10041734335E+02 -0.39652567588E+02  0.43400729450E+02  0.00000000000E+00 0. -1.
         11    1    3    3    0    0  0.42651884070E+01  0.14280551939E+01  0.35454898865E+01  0.57272744461E+01  0.51100000000E-03 0. -1.
        -11    1    3    3    0    0  0.96328848751E+01 -0.12066089142E+02  0.17120005953E+02  0.23053797568E+02  0.51100000000E-03 0.  1.
        -12    1    3    3    0    0  0.60919289703E+00  0.59629961354E+00  0.18987071749E+02  0.19006198536E+02  0.00000000000E+00 0.  1.
</event>
<event>
 7    1  0.5467297E-010  0.4778727E+02  0.7816164E-02  0.1312668E+00
        -11   -1    0    0    0    0  0.00000000000E+00  0.00000000000E+00  0.45593999997E+02  0.45594000000E+02  0.51100000000E-03 0. -1.
         11   -1    0    0    0    0 -0.00000000000E+00 -0.00000000000E+00 -0.45593999997E+02  0.45594000000E+02  0.51100000000E-03 0.  1.
    9900012    2    1    2    0    0 -0.29818628228E+02 -0.17015376184E+02 -0.26550885958E+02  0.47787272342E+02  0.20000005917E+02 0.  0.
         12    1    1    2    0    0  0.29818628228E+02  0.17015376184E+02  0.26550885958E+02  0.43400727658E+02  0.00000000000E+00 0. -1.
         11    1    3    3    0    0 -0.12262082477E+02 -0.77724275465E+01 -0.92530639302E+00  0.14547353327E+02  0.51100000000E-03 0. -1.
        -11    1    3    3    0    0 -0.17960246160E+02 -0.89731027941E+01 -0.22828952881E+02  0.30401449074E+02  0.51100000000E-03 0.  1.
         12    1    3    3    0    0  0.40370040918E+00 -0.26984584314E+00 -0.27966266838E+01  0.28384699413E+01  0.00000000000E+00 0. -1.
</event>
<event>
 7    1  0.5467297E-010  0.4778727E+02  0.7816164E-02  0.1312668E+00
        -11   -1    0    0    0    0  0.00000000000E+00  0.00000000000E+00  0.45593999997E+02  0.45594000000E+02  0.51100000000E-03 0. -1.
         11   -1    0    0    0    0 -0.00000000000E+00 -0.00000000000E+00 -0.45593999997E+02  0.45594000000E+02  0.51100000000E-03 0.  1.
    9900012    2    1    2    0    0  0.40411262133E+02 -0.22540969247E+01  0.15667559935E+02  0.47787268503E+02  0.19999988414E+02 0.  0.
         12    1    1    2    0    0 -0.40411262133E+02  0.22540969247E+01 -0.15667559935E+02  0.43400731497E+02  0.00000000000E+00 0. -1.
         11    1    3    3    0    0  0.12271481613E+02 -0.51870483621E+01  0.93631689028E+01  0.16283846716E+02  0.51100000000E-03 0. -1.
        -11    1    3    3    0    0  0.25853850024E+02  0.12244690271E+00  0.20789877207E+01  0.25937593268E+02  0.51100000000E-03 0.  1.
         12    1    3    3    0    0  0.22859304957E+01  0.28105045347E+01  0.42254033113E+01  0.55658285200E+01  0.00000000000E+00 0. -1.
</event>
<event>
 7    1  0.5467297E-010  0.4778725E+02  0.7816164E-02  0.1312668E+00
        -11   -1    0    0    0    0  0.00000000000E+00  0.00000000000E+00  0.45593999997E+02  0.45594000000E+02  0.51100000000E-03 0. -1.
         11   -1    0    0    0    0 -0.00000000000E+00 -0.00000000000E+00 -0.45593999997E+02  0.45594000000E+02  0.51100000000E-03 0.  1.
    9900012    2    1    2    0    0 -0.11146999800E+02 -0.57996825512E+01 -0.41541943838E+02  0.47787250927E+02  0.19999908278E+02 0.  0.
         12    1    1    2    0    0  0.11146999800E+02  0.57996825512E+01  0.41541943838E+02  0.43400749073E+02  0.00000000000E+00 0. -1.
         11    1    3    3    0    0 -0.95556885868E+00  0.23804436227E+01 -0.28416403093E+01  0.38281253367E+01  0.51100000000E-03 0. -1.
        -11    1    3    3    0    0  0.84686004253E+00  0.26036597577E+01 -0.53174730876E+00  0.27890807674E+01  0.51100000000E-03 0.  1.
        -12    1    3    3    0    0 -0.11038290984E+02 -0.10783785932E+02 -0.38168556220E+02  0.41170044823E+02  0.00000000000E+00 0.  1.
</event>
<event>
 7    1  0.5467297E-010  0.4778727E+02  0.7816164E-02  0.1312668E+00
        -11   -1    0    0    0    0  0.00000000000E+00  0.00000000000E+00  0.45593999997E+02  0.45594000000E+02  0.51100000000E-03 0.  1.
         11   -1    0    0    0    0 -0.00000000000E+00 -0.00000000000E+00 -0.45593999997E+02  0.45594000000E+02  0.51100000000E-03 0. -1.
    9900012    2    1    2    0    0  0.41534487003E+01  0.11081396677E+02  0.41756132110E+02  0.47787273541E+02  0.20000011381E+02 0.  0.
         12    1    1    2    0    0 -0.41534487003E+01 -0.11081396677E+02 -0.41756132110E+02  0.43400726459E+02  0.00000000000E+00 0. -1.
         11    1    3    3    0    0 -0.37918169282E+01 -0.42693553277E+01  0.94780153155E+01  0.11065172620E+02  0.51100000000E-03 0. -1.
        -11    1    3    3    0    0  0.40158849292E+01  0.73876847706E+01  0.18627648257E+02  0.20437575636E+02  0.51100000000E-03 0.  1.
         12    1    3    3    0    0  0.39293806992E+01  0.79630672337E+01  0.13650468538E+02  0.16284525285E+02  0.00000000000E+00 0. -1.
</event>
<event>
 7    1  0.5467297E-010  0.4778724E+02  0.7816164E-02  0.1312668E+00
        -11   -1    0    0    0    0  0.00000000000E+00  0.00000000000E+00  0.45593999997E+02  0.45594000000E+02  0.51100000000E-03 0.  1.
         11   -1    0    0    0    0 -0.00000000000E+00 -0.00000000000E+00 -0.45593999997E+02  0.45594000000E+02  0.51100000000E-03 0. -1.
    9900012    2    1    2    0    0 -0.11057309809E+02 -0.38464494008E+02  0.16788226769E+02  0.47787240127E+02  0.19999859034E+02 0.  0.
         12    1    1    2    0    0  0.11057309809E+02  0.38464494008E+02 -0.16788226769E+02  0.43400759873E+02  0.00000000000E+00 0. -1.
         11    1    3    3    0    0  0.30584000933E+01  0.50955825793E+00  0.12584954391E+01  0.33462324755E+01  0.51100000000E-03 0. -1.
        -11    1    3    3    0    0 -0.11112484664E+02 -0.25897408204E+02  0.95899699017E+01  0.29767945681E+02  0.51100000000E-03 0.  1.
        -12    1    3    3    0    0 -0.30032252387E+01 -0.13076644062E+02  0.59397614283E+01  0.14673061970E+02  0.00000000000E+00 0.  1.
</event>
<event>
 7    1  0.5467297E-010  0.4778728E+02  0.7816164E-02  0.1312668E+00
        -11   -1    0    0    0    0  0.00000000000E+00  0.00000000000E+00  0.45593999997E+02  0.45594000000E+02  0.51100000000E-03 0. -1.
         11   -1    0    0    0    0 -0.00000000000E+00 -0.00000000000E+00 -0.45593999997E+02  0.45594000000E+02  0.51100000000E-03 0.  1.
    9900012    2    1    2    0    0 -0.32352919827E+02 -0.27508385527E+02 -0.89554462624E+01  0.47787277501E+02  0.20000029440E+02 0.  0.
         12    1    1    2    0    0  0.32352919827E+02  0.27508385527E+02  0.89554462624E+01  0.43400722499E+02  0.00000000000E+00 0. -1.
         11    1    3    3    0    0 -0.14633247332E+02 -0.64682419719E+01  0.32472988575E+01  0.16325288108E+02  0.51100000000E-03 0. -1.
        -11    1    3    3    0    0 -0.18741951021E+02 -0.19871069343E+02 -0.10811666401E+02  0.29377070234E+02  0.51100000000E-03 0.  1.
         12    1    3    3    0    0  0.10222785261E+01 -0.11690742124E+01 -0.13910787185E+01  0.20849191591E+01  0.00000000000E+00 0. -1.
</event>
<event>
 7    1  0.5467297E-010  0.4778727E+02  0.7816164E-02  0.1312668E+00
        -11   -1    0    0    0    0  0.00000000000E+00  0.00000000000E+00  0.45593999997E+02  0.45594000000E+02  0.51100000000E-03 0.  1.
         11   -1    0    0    0    0 -0.00000000000E+00 -0.00000000000E+00 -0.45593999997E+02  0.45594000000E+02  0.51100000000E-03 0. -1.
    9900012    2    1    2    0    0  0.47192859476E+01 -0.31070076556E+02  0.29933294014E+02  0.47787269504E+02  0.19999992978E+02 0.  0.
         12    1    1    2    0    0 -0.47192859476E+01  0.31070076556E+02 -0.29933294014E+02  0.43400730496E+02  0.00000000000E+00 0. -1.
         11    1    3    3    0    0 -0.10803241299E+01  0.16278649625E+01  0.52162671003E+01  0.55701424833E+01  0.51100000000E-03 0. -1.
        -11    1    3    3    0    0  0.32527051570E+01 -0.23735304341E+02  0.13032801445E+02  0.27272672710E+02  0.51100000000E-03 0.  1.
         12    1    3    3    0    0  0.25469049205E+01 -0.89626371777E+01  0.11684225469E+02  0.14944454311E+02  0.00000000000E+00 0. -1.
</event>
<event>
 7    1  0.5467297E-010  0.4778727E+02  0.7816164E-02  0.1312668E+00
        -11   -1    0    0    0    0  0.00000000000E+00  0.00000000000E+00  0.45593999997E+02  0.45594000000E+02  0.51100000000E-03 0. -1.
         11   -1    0    0    0    0 -0.00000000000E+00 -0.00000000000E+00 -0.45593999997E+02  0.45594000000E+02  0.51100000000E-03 0.  1.
    9900012    2    1    2    0    0 -0.95649235656E+01  0.41998968134E+02 -0.53124377414E+01  0.47787273256E+02  0.20000010082E+02 0.  0.
         12    1    1    2    0    0  0.95649235656E+01 -0.41998968134E+02  0.53124377414E+01  0.43400726744E+02  0.00000000000E+00 0. -1.
         11    1    3    3    0    0  0.29486805229E+01  0.49958291695E+00  0.16523022778E+01  0.34167825502E+01  0.51100000000E-03 0. -1.
        -11    1    3    3    0    0 -0.11710700467E+02  0.39973393062E+02 -0.53276606100E+01  0.41992816364E+02  0.51100000000E-03 0.  1.
         12    1    3    3    0    0 -0.80290362150E+00  0.15259921553E+01 -0.16370794092E+01  0.23776743418E+01  0.00000000000E+00 0. -1.
</event>
<event>
 7    1  0.5467297E-010  0.4778727E+02  0.7816164E-02  0.1312668E+00
        -11   -1    0    0    0    0  0.00000000000E+00  0.00000000000E+00  0.45593999997E+02  0.45594000000E+02  0.51100000000E-03 0. -1.
         11   -1    0    0    0    0 -0.00000000000E+00 -0.00000000000E+00 -0.45593999997E+02  0.45594000000E+02  0.51100000000E-03 0.  1.
    9900012    2    1    2    0    0  0.28756974969E+02 -0.23245901580E+01 -0.32423079497E+02  0.47787269443E+02  0.19999992700E+02 0.  0.
         12    1    1    2    0    0 -0.28756974969E+02  0.23245901580E+01  0.32423079497E+02  0.43400730557E+02  0.00000000000E+00 0. -1.
         11    1    3    3    0    0  0.20280893116E+02  0.71199076560E+01 -0.19849334870E+02  0.29257542714E+02  0.51100000000E-03 0. -1.
        -11    1    3    3    0    0  0.77564954608E+01 -0.73249229187E+01 -0.12288164788E+02  0.16273189967E+02  0.51100000000E-03 0.  1.
         12    1    3    3    0    0  0.71958639210E+00 -0.21195748953E+01 -0.28557983881E+00  0.22565367617E+01  0.00000000000E+00 0. -1.
</event>
<event>
 7    1  0.5467297E-010  0.4778727E+02  0.7816164E-02  0.1312668E+00
        -11   -1    0    0    0    0  0.00000000000E+00  0.00000000000E+00  0.45593999997E+02  0.45594000000E+02  0.51100000000E-03 0. -1.
         11   -1    0    0    0    0 -0.00000000000E+00 -0.00000000000E+00 -0.45593999997E+02  0.45594000000E+02  0.51100000000E-03 0.  1.
    9900012    2    1    2    0    0  0.35386833572E+02 -0.99206533182E+01 -0.23086278574E+02  0.47787267162E+02  0.19999982298E+02 0.  0.
         12    1    1    2    0    0 -0.35386833572E+02  0.99206533182E+01  0.23086278574E+02  0.43400732838E+02  0.00000000000E+00 0. -1.
         11    1    3    3    0    0  0.16642912680E+01 -0.30567195575E+01 -0.18226714175E+01  0.39288078644E+01  0.51100000000E-03 0. -1.
        -11    1    3    3    0    0  0.11321255254E+02 -0.10296071307E+02 -0.11687719889E+02  0.19255718666E+02  0.51100000000E-03 0.  1.
        -12    1    3    3    0    0  0.22401287050E+02  0.34321375462E+01 -0.95758872676E+01  0.24602740632E+02  0.00000000000E+00 0.  1.
</event>
<event>
 7    1  0.5467297E-010  0.4778727E+02  0.7816164E-02  0.1312668E+00
        -11   -1    0    0    0    0  0.00000000000E+00  0.00000000000E+00  0.45593999997E+02  0.45594000000E+02  0.51100000000E-03 0.  1.
         11   -1    0    0    0    0 -0.00000000000E+00 -0.00000000000E+00 -0.45593999997E+02  0.45594000000E+02  0.51100000000E-03 0. -1.
    9900012    2    1    2    0    0 -0.12907031777E+02  0.30446461190E+02  0.28107729656E+02  0.47787274952E+02  0.20000017815E+02 0.  0.
         12    1    1    2    0    0  0.12907031777E+02 -0.30446461190E+02 -0.28107729656E+02  0.43400725048E+02  0.00000000000E+00 0. -1.
         11    1    3    3    0    0 -0.10573966955E+02  0.95361626871E+01  0.17883273949E+02  0.22859542064E+02  0.51100000000E-03 0. -1.
        -11    1    3    3    0    0 -0.44266735990E+01  0.13447426661E+02  0.96949416572E+01  0.17158689255E+02  0.51100000000E-03 0.  1.
         12    1    3    3    0    0  0.20936087764E+01  0.74628718427E+01  0.52951404906E+00  0.77690436333E+01  0.00000000000E+00 0. -1.
</event>
<event>
 7    1  0.5467297E-010  0.4778727E+02  0.7816164E-02  0.1312668E+00
        -11   -1    0    0    0    0  0.00000000000E+00  0.00000000000E+00  0.45593999997E+02  0.45594000000E+02  0.51100000000E-03 0.  1.
         11   -1    0    0    0    0 -0.00000000000E+00 -0.00000000000E+00 -0.45593999997E+02  0.45594000000E+02  0.51100000000E-03 0. -1.
    9900012    2    1    2    0    0  0.88667100428E+01  0.13557970773E+02  0.40263959160E+02  0.47787268143E+02  0.19999986772E+02 0.  0.
         12    1    1    2    0    0 -0.88667100428E+01 -0.13557970773E+02 -0.40263959160E+02  0.43400731857E+02  0.00000000000E+00 0. -1.
         11    1    3    3    0    0  0.16317175518E+01  0.74159362341E+01  0.22784580924E+01  0.79277981771E+01  0.51100000000E-03 0. -1.
        -11    1    3    3    0    0  0.31309204366E+01  0.93408168422E+00  0.25627878689E+02  0.25835311837E+02  0.51100000000E-03 0.  1.
        -12    1    3    3    0    0  0.41040720545E+01  0.52079528544E+01  0.12357622379E+02  0.14024158129E+02  0.00000000000E+00 0.  1.
</event>
<event>
 7    1  0.5467297E-010  0.4778727E+02  0.7816164E-02  0.1312668E+00
        -11   -1    0    0    0    0  0.00000000000E+00  0.00000000000E+00  0.45593999997E+02  0.45594000000E+02  0.51100000000E-03 0. -1.
         11   -1    0    0    0    0 -0.00000000000E+00 -0.00000000000E+00 -0.45593999997E+02  0.45594000000E+02  0.51100000000E-03 0.  1.
    9900012    2    1    2    0    0 -0.31642927765E+02  0.25320380790E+02 -0.15531471453E+02  0.47787272283E+02  0.20000005647E+02 0.  0.
         12    1    1    2    0    0  0.31642927765E+02 -0.25320380790E+02  0.15531471453E+02  0.43400727717E+02  0.00000000000E+00 0. -1.
         11    1    3    3    0    0  0.48792215917E+00 -0.85060541116E+00 -0.68873214276E+00  0.11983112386E+01  0.51100000000E-03 0. -1.
        -11    1    3    3    0    0 -0.23380322802E+01  0.31318382924E+00  0.25517902469E+01  0.34750701834E+01  0.51100000000E-03 0.  1.
        -12    1    3    3    0    0 -0.29792817644E+02  0.25857802372E+02 -0.17394529557E+02  0.43113890861E+02  0.00000000000E+00 0.  1.
</event>
<event>
 7    1  0.5467297E-010  0.4778727E+02  0.7816164E-02  0.1312668E+00
        -11   -1    0    0    0    0  0.00000000000E+00  0.00000000000E+00  0.45593999997E+02  0.45594000000E+02  0.51100000000E-03 0.  1.
         11   -1    0    0    0    0 -0.00000000000E+00 -0.00000000000E+00 -0.45593999997E+02  0.45594000000E+02  0.51100000000E-03 0. -1.
    9900012    2    1    2    0    0 -0.48782642544E+01  0.38516039230E+02 -0.19399489958E+02  0.47787274767E+02  0.20000016974E+02 0.  0.
         12    1    1    2    0    0  0.48782642544E+01 -0.38516039230E+02  0.19399489958E+02  0.43400725233E+02  0.00000000000E+00 0. -1.
         11    1    3    3    0    0  0.24509912319E+01  0.13905185400E+02  0.71169961788E+00  0.14137469917E+02  0.51100000000E-03 0. -1.
        -11    1    3    3    0    0 -0.56773725946E+01  0.23408612920E+02 -0.20426899545E+02  0.31582494260E+02  0.51100000000E-03 0.  1.
        -12    1    3    3    0    0 -0.16518828917E+01  0.12022409093E+01  0.31570996915E+00  0.20673105902E+01  0.00000000000E+00 0.  1.
</event>
<event>
 7    1  0.5467297E-010  0.4778726E+02  0.7816164E-02  0.1312668E+00
        -11   -1    0    0    0    0  0.00000000000E+00  0.00000000000E+00  0.45593999997E+02  0.45594000000E+02  0.51100000000E-03 0. -1.
         11   -1    0    0    0    0 -0.00000000000E+00 -0.00000000000E+00 -0.45593999997E+02  0.45594000000E+02  0.51100000000E-03 0.  1.
    9900012    2    1    2    0    0 -0.38433287726E+02 -0.48105826382E+00 -0.20156259749E+02  0.47787264643E+02  0.19999970815E+02 0.  0.
         12    1    1    2    0    0  0.38433287726E+02  0.48105826382E+00  0.20156259749E+02  0.43400735357E+02  0.00000000000E+00 0. -1.
         11    1    3    3    0    0 -0.11876809811E+02  0.21723882362E+01  0.13628983929E+01  0.12150529792E+02  0.51100000000E-03 0. -1.
        -11    1    3    3    0    0 -0.10900245757E+01  0.22239556671E+01 -0.18732403316E+01  0.31053441011E+01  0.51100000000E-03 0.  1.
         12    1    3    3    0    0 -0.25466453339E+02 -0.48774021671E+01 -0.19645917810E+02  0.32531390750E+02  0.00000000000E+00 0. -1.
</event>
<event>
 7    1  0.5467297E-010  0.4778727E+02  0.7816164E-02  0.1312668E+00
        -11   -1    0    0    0    0  0.00000000000E+00  0.00000000000E+00  0.45593999997E+02  0.45594000000E+02  0.51100000000E-03 0. -1.
         11   -1    0    0    0    0 -0.00000000000E+00 -0.00000000000E+00 -0.45593999997E+02  0.45594000000E+02  0.51100000000E-03 0.  1.
    9900012    2    1    2    0    0  0.80747079535E+01 -0.41599038017E+02  0.93777535833E+01  0.47787272647E+02  0.20000007306E+02 0.  0.
         12    1    1    2    0    0 -0.80747079535E+01  0.41599038017E+02 -0.93777535833E+01  0.43400727353E+02  0.00000000000E+00 0. -1.
         11    1    3    3    0    0 -0.11279581552E+01 -0.72050817547E+01 -0.54556612653E+01  0.91076743900E+01  0.51100000000E-03 0. -1.
        -11    1    3    3    0    0  0.47572656726E+01 -0.17946741293E+02  0.93045756769E+01  0.20767576376E+02  0.51100000000E-03 0.  1.
         12    1    3    3    0    0  0.44454004361E+01 -0.16447214969E+02  0.55288391716E+01  0.17912021881E+02  0.00000000000E+00 0. -1.
</event>
<event>
 7    1  0.5467297E-010  0.4778727E+02  0.7816164E-02  0.1312668E+00
        -11   -1    0    0    0    0  0.00000000000E+00  0.00000000000E+00  0.45593999997E+02  0.45594000000E+02  0.51100000000E-03 0. -1.
         11   -1    0    0    0    0 -0.00000000000E+00 -0.00000000000E+00 -0.45593999997E+02  0.45594000000E+02  0.51100000000E-03 0.  1.
    9900012    2    1    2    0    0  0.66809498549E+00  0.36372633362E+02 -0.23668721084E+02  0.47787272283E+02  0.20000005647E+02 0.  0.
         12    1    1    2    0    0 -0.66809498549E+00 -0.36372633362E+02  0.23668721084E+02  0.43400727717E+02  0.00000000000E+00 0. -1.
         11    1    3    3    0    0 -0.67428260257E+01  0.69385308384E+01 -0.81814479869E+01  0.12670635518E+02  0.51100000000E-03 0. -1.
        -11    1    3    3    0    0  0.66922958134E+01  0.98909798555E+01 -0.52918815121E+01  0.13062247737E+02  0.51100000000E-03 0.  1.
        -12    1    3    3    0    0  0.71862519781E+00  0.19543122668E+02 -0.10195391585E+02  0.22054389027E+02  0.00000000000E+00 0.  1.
</event>
<event>
 7    1  0.5467297E-010  0.4778724E+02  0.7816164E-02  0.1312668E+00
        -11   -1    0    0    0    0  0.00000000000E+00  0.00000000000E+00  0.45593999997E+02  0.45594000000E+02  0.51100000000E-03 0. -1.
         11   -1    0    0    0    0 -0.00000000000E+00 -0.00000000000E+00 -0.45593999997E+02  0.45594000000E+02  0.51100000000E-03 0.  1.
    9900012    2    1    2    0    0  0.23842451464E+02  0.43622627451E+01 -0.36001861857E+02  0.47787240960E+02  0.19999862833E+02 0.  0.
         12    1    1    2    0    0 -0.23842451464E+02 -0.43622627451E+01  0.36001861857E+02  0.43400759040E+02  0.00000000000E+00 0. -1.
         11    1    3    3    0    0 -0.13641700011E+01 -0.16888497411E+01 -0.59604296440E+01  0.63434923380E+01  0.51100000000E-03 0. -1.
        -11    1    3    3    0    0  0.22831736614E+02  0.61375393266E+01 -0.19525762806E+02  0.30662892871E+02  0.51100000000E-03 0.  1.
        -12    1    3    3    0    0  0.23748848515E+01 -0.86426840439E-01 -0.10515669407E+02  0.10780855751E+02  0.00000000000E+00 0.  1.
</event>
<event>
 7    1  0.5467297E-010  0.4778728E+02  0.7816164E-02  0.1312668E+00
        -11   -1    0    0    0    0  0.00000000000E+00  0.00000000000E+00  0.45593999997E+02  0.45594000000E+02  0.51100000000E-03 0.  1.
         11   -1    0    0    0    0 -0.00000000000E+00 -0.00000000000E+00 -0.45593999997E+02  0.45594000000E+02  0.51100000000E-03 0. -1.
    9900012    2    1    2    0    0  0.36304185877E+02 -0.20300734922E+02  0.12389862595E+02  0.47787280586E+02  0.20000043504E+02 0.  0.
         12    1    1    2    0    0 -0.36304185877E+02  0.20300734922E+02 -0.12389862595E+02  0.43400719414E+02  0.00000000000E+00 0. -1.
         11    1    3    3    0    0  0.18202791068E+02 -0.15235445331E+02 -0.34256911518E+00  0.23739792563E+02  0.51100000000E-03 0. -1.
        -11    1    3    3    0    0  0.14900447425E+02 -0.34189836949E+01  0.13467538312E+02  0.20373693122E+02  0.51100000000E-03 0.  1.
        -12    1    3    3    0    0  0.32009473845E+01 -0.16463058953E+01 -0.73510660153E+00  0.36737949010E+01  0.00000000000E+00 0.  1.
</event>
<event>
 7    1  0.5467297E-010  0.4778726E+02  0.7816164E-02  0.1312668E+00
        -11   -1    0    0    0    0  0.00000000000E+00  0.00000000000E+00  0.45593999997E+02  0.45594000000E+02  0.51100000000E-03 0.  1.
         11   -1    0    0    0    0 -0.00000000000E+00 -0.00000000000E+00 -0.45593999997E+02  0.45594000000E+02  0.51100000000E-03 0. -1.
    9900012    2    1    2    0    0 -0.24146107103E+02 -0.27520578658E+02  0.23306807373E+02  0.47787262589E+02  0.19999961449E+02 0.  0.
         12    1    1    2    0    0  0.24146107103E+02  0.27520578658E+02 -0.23306807373E+02  0.43400737411E+02  0.00000000000E+00 0. -1.
         11    1    3    3    0    0 -0.10766858538E+02 -0.88261939387E+01  0.55204752443E+01  0.14976734938E+02  0.51100000000E-03 0. -1.
        -11    1    3    3    0    0 -0.43288533242E+01  0.11399989034E+00  0.93375912507E+01  0.10292841090E+02  0.51100000000E-03 0.  1.
        -12    1    3    3    0    0 -0.90503952410E+01 -0.18808384610E+02  0.84487408775E+01  0.22517686561E+02  0.00000000000E+00 0.  1.
</event>
<event>
 7    1  0.5467297E-010  0.4778727E+02  0.7816164E-02  0.1312668E+00
        -11   -1    0    0    0    0  0.00000000000E+00  0.00000000000E+00  0.45593999997E+02  0.45594000000E+02  0.51100000000E-03 0. -1.
         11   -1    0    0    0    0 -0.00000000000E+00 -0.00000000000E+00 -0.45593999997E+02  0.45594000000E+02  0.51100000000E-03 0.  1.
    9900012    2    1    2    0    0 -0.19730494964E+02  0.35099387101E+02 -0.16197649582E+02  0.47787271223E+02  0.20000000813E+02 0.  0.
         12    1    1    2    0    0  0.19730494964E+02 -0.35099387101E+02  0.16197649582E+02  0.43400728777E+02  0.00000000000E+00 0. -1.
         11    1    3    3    0    0 -0.51186020200E+01  0.13404164968E+02 -0.11187282703E+02  0.18194147952E+02  0.51100000000E-03 0. -1.
        -11    1    3    3    0    0 -0.13634096019E+02  0.93384688407E+01 -0.96276456572E+00  0.16553624691E+02  0.51100000000E-03 0.  1.
         12    1    3    3    0    0 -0.97779692581E+00  0.12356753292E+02 -0.40476023134E+01  0.13039498581E+02  0.00000000000E+00 0. -1.
</event>
<event>
 7    1  0.5467297E-010  0.4778727E+02  0.7816164E-02  0.1312668E+00
        -11   -1    0    0    0    0  0.00000000000E+00  0.00000000000E+00  0.45593999997E+02  0.45594000000E+02  0.51100000000E-03 0. -1.
         11   -1    0    0    0    0 -0.00000000000E+00 -0.00000000000E+00 -0.45593999997E+02  0.45594000000E+02  0.51100000000E-03 0.  1.
    9900012    2    1    2    0    0  0.24624990448E+02 -0.35178395670E+02  0.63018717637E+01  0.47787271156E+02  0.20000000509E+02 0.  0.
         12    1    1    2    0    0 -0.24624990448E+02  0.35178395670E+02 -0.63018717637E+01  0.43400728844E+02  0.00000000000E+00 0. -1.
         11    1    3    3    0    0  0.56178491391E+01 -0.13026006166E+02 -0.59649332727E+01  0.15388875683E+02  0.51100000000E-03 0. -1.
        -11    1    3    3    0    0  0.15903418730E+02 -0.21252215767E+02  0.12074405497E+02  0.29161047147E+02  0.51100000000E-03 0.  1.
         12    1    3    3    0    0  0.31037225788E+01 -0.90017373634E+00  0.19239953904E+00  0.32373483261E+01  0.00000000000E+00 0. -1.
</event>
<event>
 7    1  0.5467297E-010  0.4778727E+02  0.7816164E-02  0.1312668E+00
        -11   -1    0    0    0    0  0.00000000000E+00  0.00000000000E+00  0.45593999997E+02  0.45594000000E+02  0.51100000000E-03 0.  1.
         11   -1    0    0    0    0 -0.00000000000E+00 -0.00000000000E+00 -0.45593999997E+02  0.45594000000E+02  0.51100000000E-03 0. -1.
    9900012    2    1    2    0    0 -0.11570456921E+02 -0.41486345944E+02 -0.53508108029E+01  0.47787267870E+02  0.19999985529E+02 0.  0.
         12    1    1    2    0    0  0.11570456921E+02  0.41486345944E+02  0.53508108029E+01  0.43400732130E+02  0.00000000000E+00 0. -1.
         11    1    3    3    0    0 -0.24021157407E-01 -0.12467691840E+00 -0.81934935510E+00  0.82912904713E+00  0.51100000000E-03 0. -1.
        -11    1    3    3    0    0 -0.10006361135E+01 -0.10558848901E+02  0.66675495207E+01  0.12527840182E+02  0.51100000000E-03 0.  1.
        -12    1    3    3    0    0 -0.10545799651E+02 -0.30802820124E+02 -0.11199010969E+02  0.34430298641E+02  0.00000000000E+00 0.  1.
</event>
<event>
 7    1  0.5467297E-010  0.4778727E+02  0.7816164E-02  0.1312668E+00
        -11   -1    0    0    0    0  0.00000000000E+00  0.00000000000E+00  0.45593999997E+02  0.45594000000E+02  0.51100000000E-03 0. -1.
         11   -1    0    0    0    0 -0.00000000000E+00 -0.00000000000E+00 -0.45593999997E+02  0.45594000000E+02  0.51100000000E-03 0.  1.
    9900012    2    1    2    0    0 -0.23141645980E+02  0.19119390721E+02 -0.31345438739E+02  0.47787269476E+02  0.19999992851E+02 0.  0.
         12    1    1    2    0    0  0.23141645980E+02 -0.19119390721E+02  0.31345438739E+02  0.43400730524E+02  0.00000000000E+00 0. -1.
         11    1    3    3    0    0 -0.91574405478E+01  0.13163738392E+02 -0.50388390986E+01  0.16808706838E+02  0.51100000000E-03 0. -1.
        -11    1    3    3    0    0 -0.78184968191E+01  0.53565919991E+01 -0.20033983772E+02  0.22162636946E+02  0.51100000000E-03 0.  1.
        -12    1    3    3    0    0 -0.61657086133E+01  0.59906032978E+00 -0.62726158692E+01  0.88159256930E+01  0.00000000000E+00 0.  1.
</event>
<event>
 7    1  0.5467297E-010  0.4778727E+02  0.7816164E-02  0.1312668E+00
        -11   -1    0    0    0    0  0.00000000000E+00  0.00000000000E+00  0.45593999997E+02  0.45594000000E+02  0.51100000000E-03 0.  1.
         11   -1    0    0    0    0 -0.00000000000E+00 -0.00000000000E+00 -0.45593999997E+02  0.45594000000E+02  0.51100000000E-03 0. -1.
    9900012    2    1    2    0    0 -0.42992434819E+02  0.32862312709E+01 -0.49471629846E+01  0.47787272019E+02  0.20000004446E+02 0.  0.
         12    1    1    2    0    0  0.42992434819E+02 -0.32862312709E+01  0.49471629846E+01  0.43400727981E+02  0.00000000000E+00 0. -1.
         11    1    3    3    0    0 -0.23894652093E+02  0.47456820910E+01  0.41685289219E+01  0.24715431025E+02  0.51100000000E-03 0.  1.
        -11    1    3    3    0    0 -0.16923611364E+02 -0.14042273842E+01 -0.10967412810E+02  0.20215454983E+02  0.51100000000E-03 0. -1.
         12    1    3    3    0    0 -0.21741713625E+01 -0.55223435887E-01  0.18517209036E+01  0.28563860115E+01  0.00000000000E+00 0. -1.
</event>
<event>
 7    1  0.5467297E-010  0.4778727E+02  0.7816164E-02  0.1312668E+00
        -11   -1    0    0    0    0  0.00000000000E+00  0.00000000000E+00  0.45593999997E+02  0.45594000000E+02  0.51100000000E-03 0. -1.
         11   -1    0    0    0    0 -0.00000000000E+00 -0.00000000000E+00 -0.45593999997E+02  0.45594000000E+02  0.51100000000E-03 0.  1.
    9900012    2    1    2    0    0 -0.19247125789E+02 -0.83521913328E+01 -0.37992267432E+02  0.47787270331E+02  0.19999996746E+02 0.  0.
         12    1    1    2    0    0  0.19247125789E+02  0.83521913328E+01  0.37992267432E+02  0.43400729669E+02  0.00000000000E+00 0. -1.
         11    1    3    3    0    0  0.70209613063E+00  0.13713081355E+01  0.10901195597E+01  0.18872694282E+01  0.51100000000E-03 0. -1.
        -11    1    3    3    0    0 -0.19130241261E+02 -0.58552277447E+01 -0.34146485389E+02  0.39575652709E+02  0.51100000000E-03 0.  1.
         12    1    3    3    0    0 -0.81898065896E+00 -0.38682717237E+01 -0.49359016026E+01  0.63243481939E+01  0.00000000000E+00 0. -1.
</event>
<event>
 7    1  0.5467297E-010  0.4778727E+02  0.7816164E-02  0.1312668E+00
        -11   -1    0    0    0    0  0.00000000000E+00  0.00000000000E+00  0.45593999997E+02  0.45594000000E+02  0.51100000000E-03 0. -1.
         11   -1    0    0    0    0 -0.00000000000E+00 -0.00000000000E+00 -0.45593999997E+02  0.45594000000E+02  0.51100000000E-03 0.  1.
    9900012    2    1    2    0    0  0.50893972247E+01 -0.23068213065E+02 -0.36408501352E+02  0.47787269720E+02  0.19999993961E+02 0.  0.
         12    1    1    2    0    0 -0.50893972247E+01  0.23068213065E+02  0.36408501352E+02  0.43400730280E+02  0.00000000000E+00 0. -1.
         11    1    3    3    0    0  0.56255368104E+01 -0.67637058262E+01 -0.65635240498E+01  0.10976075306E+02  0.51100000000E-03 0. -1.
        -11    1    3    3    0    0  0.22058485934E+01 -0.27173406407E+01 -0.18701483377E+02  0.19026171158E+02  0.51100000000E-03 0.  1.
        -12    1    3    3    0    0 -0.27419881792E+01 -0.13587166598E+02 -0.11143493925E+02  0.17785023255E+02  0.00000000000E+00 0.  1.
</event>
<event>
 7    1  0.5467297E-010  0.4778727E+02  0.7816164E-02  0.1312668E+00
        -11   -1    0    0    0    0  0.00000000000E+00  0.00000000000E+00  0.45593999997E+02  0.45594000000E+02  0.51100000000E-03 0.  1.
         11   -1    0    0    0    0 -0.00000000000E+00 -0.00000000000E+00 -0.45593999997E+02  0.45594000000E+02  0.51100000000E-03 0. -1.
    9900012    2    1    2    0    0  0.32096662382E+02 -0.97879462391E+01  0.27524964224E+02  0.47787270937E+02  0.19999999512E+02 0.  0.
         12    1    1    2    0    0 -0.32096662382E+02  0.97879462391E+01 -0.27524964224E+02  0.43400729063E+02  0.00000000000E+00 0. -1.
         11    1    3    3    0    0  0.16204616504E+01  0.18217435676E+01 -0.87609996818E+00  0.25907908062E+01  0.51100000000E-03 0. -1.
        -11    1    3    3    0    0  0.24243992304E+02 -0.30582307519E+01  0.21629875690E+02  0.32633961769E+02  0.51100000000E-03 0.  1.
        -12    1    3    3    0    0  0.62322084283E+01 -0.85514590548E+01  0.67711885022E+01  0.12562518362E+02  0.00000000000E+00 0.  1.
</event>
<event>
 7    1  0.5467297E-010  0.4778726E+02  0.7816164E-02  0.1312668E+00
        -11   -1    0    0    0    0  0.00000000000E+00  0.00000000000E+00  0.45593999997E+02  0.45594000000E+02  0.51100000000E-03 0. -1.
         11   -1    0    0    0    0 -0.00000000000E+00 -0.00000000000E+00 -0.45593999997E+02  0.45594000000E+02  0.51100000000E-03 0.  1.
    9900012    2    1    2    0    0 -0.33242585257E+02 -0.27836928292E+02  0.19131533920E+01  0.47787260292E+02  0.19999950976E+02 0.  0.
         12    1    1    2    0    0  0.33242585257E+02  0.27836928292E+02 -0.19131533920E+01  0.43400739708E+02  0.00000000000E+00 0. -1.
         11    1    3    3    0    0 -0.69801591570E+01 -0.56224942759E+01  0.52157657118E+01  0.10370114559E+02  0.51100000000E-03 0. -1.
        -11    1    3    3    0    0 -0.26345467972E+02 -0.20634096017E+02 -0.62771915439E+01  0.34047800737E+02  0.51100000000E-03 0.  1.
        -12    1    3    3    0    0  0.83041872362E-01 -0.15803379994E+01  0.29745792241E+01  0.33693449965E+01  0.00000000000E+00 0.  1.
</event>
<event>
 7    1  0.5467297E-010  0.4778727E+02  0.7816164E-02  0.1312668E+00
        -11   -1    0    0    0    0  0.00000000000E+00  0.00000000000E+00  0.45593999997E+02  0.45594000000E+02  0.51100000000E-03 0.  1.
         11   -1    0    0    0    0 -0.00000000000E+00 -0.00000000000E+00 -0.45593999997E+02  0.45594000000E+02  0.51100000000E-03 0. -1.
    9900012    2    1    2    0    0  0.85985209123E+01 -0.36687647421E+02  0.21533811884E+02  0.47787273169E+02  0.20000009688E+02 0.  0.
         12    1    1    2    0    0 -0.85985209123E+01  0.36687647421E+02 -0.21533811884E+02  0.43400726831E+02  0.00000000000E+00 0. -1.
         11    1    3    3    0    0  0.68303669235E+01 -0.12496897470E+02  0.35342153752E+01  0.14673685197E+02  0.51100000000E-03 0. -1.
        -11    1    3    3    0    0  0.28423950137E+01 -0.10032596014E+02  0.15523329958E+02  0.18700426879E+02  0.51100000000E-03 0.  1.
        -12    1    3    3    0    0 -0.10742410248E+01 -0.14158153937E+02  0.24762665511E+01  0.14413161094E+02  0.00000000000E+00 0.  1.
</event>
<event>
 7    1  0.5467297E-010  0.4778727E+02  0.7816164E-02  0.1312668E+00
        -11   -1    0    0    0    0  0.00000000000E+00  0.00000000000E+00  0.45593999997E+02  0.45594000000E+02  0.51100000000E-03 0. -1.
         11   -1    0    0    0    0 -0.00000000000E+00 -0.00000000000E+00 -0.45593999997E+02  0.45594000000E+02  0.51100000000E-03 0.  1.
    9900012    2    1    2    0    0  0.21468949619E+00  0.28017460223E+02 -0.33145122546E+02  0.47787270541E+02  0.19999997705E+02 0.  0.
         12    1    1    2    0    0 -0.21468949619E+00 -0.28017460223E+02  0.33145122546E+02  0.43400729459E+02  0.00000000000E+00 0. -1.
         11    1    3    3    0    0  0.64654482365E+01  0.19181435965E+02 -0.27474429921E+02  0.34125852463E+02  0.51100000000E-03 0. -1.
        -11    1    3    3    0    0 -0.14304897599E+01  0.67443727848E+01 -0.17719667293E+01  0.71184781775E+01  0.51100000000E-03 0.  1.
         12    1    3    3    0    0 -0.48202689804E+01  0.20916514734E+01 -0.38987258960E+01  0.65429399005E+01  0.00000000000E+00 0. -1.
</event>
<event>
 7    1  0.5467297E-010  0.4778727E+02  0.7816164E-02  0.1312668E+00
        -11   -1    0    0    0    0  0.00000000000E+00  0.00000000000E+00  0.45593999997E+02  0.45594000000E+02  0.51100000000E-03 0.  1.
         11   -1    0    0    0    0 -0.00000000000E+00 -0.00000000000E+00 -0.45593999997E+02  0.45594000000E+02  0.51100000000E-03 0. -1.
    9900012    2    1    2    0    0 -0.35278127921E+02  0.14170018680E+02  0.20935316511E+02  0.47787271706E+02  0.20000003017E+02 0.  0.
         12    1    1    2    0    0  0.35278127921E+02 -0.14170018680E+02 -0.20935316511E+02  0.43400728294E+02  0.00000000000E+00 0. -1.
         11    1    3    3    0    0  0.24862899764E+01  0.12464345401E+01  0.43444720204E+00  0.28149567566E+01  0.51100000000E-03 0. -1.
        -11    1    3    3    0    0 -0.14557485478E+02  0.47251031291E+01  0.62524020097E+01  0.16532982616E+02  0.51100000000E-03 0.  1.
         12    1    3    3    0    0 -0.23206932420E+02  0.81984810112E+01  0.14248467299E+02  0.28439332334E+02  0.00000000000E+00 0. -1.
</event>
<event>
 7    1  0.5467297E-010  0.4778728E+02  0.7816164E-02  0.1312668E+00
        -11   -1    0    0    0    0  0.00000000000E+00  0.00000000000E+00  0.45593999997E+02  0.45594000000E+02  0.51100000000E-03 0.  1.
         11   -1    0    0    0    0 -0.00000000000E+00 -0.00000000000E+00 -0.45593999997E+02  0.45594000000E+02  0.51100000000E-03 0. -1.
    9900012    2    1    2    0    0  0.41601904394E+02  0.96088861128E+01 -0.77829133022E+01  0.47787275570E+02  0.20000020635E+02 0.  0.
         12    1    1    2    0    0 -0.41601904394E+02 -0.96088861128E+01  0.77829133022E+01  0.43400724430E+02  0.00000000000E+00 0. -1.
         11    1    3    3    0    0  0.35143353828E+01 -0.36114171225E+01  0.18858385297E+01  0.53804529583E+01  0.51100000000E-03 0. -1.
        -11    1    3    3    0    0  0.26528949167E+02  0.55564409602E+01 -0.88551609834E+01  0.28514435929E+02  0.51100000000E-03 0.  1.
         12    1    3    3    0    0  0.11558619844E+02  0.76638622751E+01 -0.81359084855E+00  0.13892386683E+02  0.00000000000E+00 0. -1.
</event>
<event>
 7    1  0.5467297E-010  0.4778728E+02  0.7816164E-02  0.1312668E+00
        -11   -1    0    0    0    0  0.00000000000E+00  0.00000000000E+00  0.45593999997E+02  0.45594000000E+02  0.51100000000E-03 0. -1.
         11   -1    0    0    0    0 -0.00000000000E+00 -0.00000000000E+00 -0.45593999997E+02  0.45594000000E+02  0.51100000000E-03 0.  1.
    9900012    2    1    2    0    0 -0.93416642025E+01  0.24479992453E+02 -0.34598932001E+02  0.47787276317E+02  0.20000024039E+02 0.  0.
         12    1    1    2    0    0  0.93416642025E+01 -0.24479992453E+02  0.34598932001E+02  0.43400723683E+02  0.00000000000E+00 0. -1.
         11    1    3    3    0    0  0.21684180537E+01  0.71058562183E+01 -0.12722640844E+02  0.14732984075E+02  0.51100000000E-03 0.  1.
        -11    1    3    3    0    0 -0.77591187873E+01  0.18197917748E+02 -0.13828069946E+02  0.24136769739E+02  0.51100000000E-03 0. -1.
        -12    1    3    3    0    0 -0.37509634690E+01 -0.82378151318E+00 -0.80482212108E+01  0.89175225026E+01  0.00000000000E+00 0.  1.
</event>
<event>
 7    1  0.5467297E-010  0.4778727E+02  0.7816164E-02  0.1312668E+00
        -11   -1    0    0    0    0  0.00000000000E+00  0.00000000000E+00  0.45593999997E+02  0.45594000000E+02  0.51100000000E-03 0.  1.
         11   -1    0    0    0    0 -0.00000000000E+00 -0.00000000000E+00 -0.45593999997E+02  0.45594000000E+02  0.51100000000E-03 0. -1.
    9900012    2    1    2    0    0  0.10359011077E+02  0.41874224591E+02  0.47815880723E+01  0.47787269820E+02  0.19999994419E+02 0.  0.
         12    1    1    2    0    0 -0.10359011077E+02 -0.41874224591E+02 -0.47815880723E+01  0.43400730180E+02  0.00000000000E+00 0. -1.
         11    1    3    3    0    0  0.12084216611E+01  0.14179529388E+01  0.45025868122E+01  0.48727981397E+01  0.51100000000E-03 0. -1.
        -11    1    3    3    0    0  0.52988453588E+01  0.33230502153E+02 -0.36215365046E+01  0.33844638606E+02  0.51100000000E-03 0.  1.
        -12    1    3    3    0    0  0.38517440574E+01  0.72257694999E+01  0.39005377647E+01  0.90698330747E+01  0.00000000000E+00 0.  1.
</event>
<event>
 7    1  0.5467297E-010  0.4778727E+02  0.7816164E-02  0.1312668E+00
        -11   -1    0    0    0    0  0.00000000000E+00  0.00000000000E+00  0.45593999997E+02  0.45594000000E+02  0.51100000000E-03 0.  1.
         11   -1    0    0    0    0 -0.00000000000E+00 -0.00000000000E+00 -0.45593999997E+02  0.45594000000E+02  0.51100000000E-03 0. -1.
    9900012    2    1    2    0    0 -0.29749212358E+02 -0.31337760333E+02  0.40684566518E+01  0.47787271917E+02  0.20000003978E+02 0.  0.
         12    1    1    2    0    0  0.29749212358E+02  0.31337760333E+02 -0.40684566518E+01  0.43400728083E+02  0.00000000000E+00 0. -1.
         11    1    3    3    0    0 -0.16259098483E+02 -0.39327666525E+01  0.66673201369E+00  0.16741250517E+02  0.51100000000E-03 0. -1.
        -11    1    3    3    0    0 -0.42825272629E+01 -0.12303425919E+02  0.29282339574E+01  0.13352486041E+02  0.51100000000E-03 0.  1.
         12    1    3    3    0    0 -0.92075866118E+01 -0.15101567762E+02  0.47349068073E+00  0.17693535359E+02  0.00000000000E+00 0. -1.
</event>
<event>
 7    1  0.5467297E-010  0.4778728E+02  0.7816164E-02  0.1312668E+00
        -11   -1    0    0    0    0  0.00000000000E+00  0.00000000000E+00  0.45593999997E+02  0.45594000000E+02  0.51100000000E-03 0. -1.
         11   -1    0    0    0    0 -0.00000000000E+00 -0.00000000000E+00 -0.45593999997E+02  0.45594000000E+02  0.51100000000E-03 0.  1.
    9900012    2    1    2    0    0 -0.44872674221E+01 -0.27088378301E+02 -0.33611113563E+02  0.47787276932E+02  0.20000026841E+02 0.  0.
         12    1    1    2    0    0  0.44872674221E+01  0.27088378301E+02  0.33611113563E+02  0.43400723068E+02  0.00000000000E+00 0. -1.
         11    1    3    3    0    0 -0.89639889372E+00 -0.86232667616E+01 -0.66655362303E+01  0.10935887441E+02  0.51100000000E-03 0. -1.
        -11    1    3    3    0    0 -0.72728188483E+01 -0.19323784681E+02 -0.25482879866E+02  0.32797556539E+02  0.51100000000E-03 0.  1.
        -12    1    3    3    0    0  0.36819503199E+01  0.85867314136E+00 -0.14626974671E+01  0.40538329520E+01  0.00000000000E+00 0.  1.
</event>
<event>
 7    1  0.5467297E-010  0.4778728E+02  0.7816164E-02  0.1312668E+00
        -11   -1    0    0    0    0  0.00000000000E+00  0.00000000000E+00  0.45593999997E+02  0.45594000000E+02  0.51100000000E-03 0.  1.
         11   -1    0    0    0    0 -0.00000000000E+00 -0.00000000000E+00 -0.45593999997E+02  0.45594000000E+02  0.51100000000E-03 0. -1.
    9900012    2    1    2    0    0 -0.13800902905E+01  0.15415243108E+02  0.40547359531E+02  0.47787277261E+02  0.20000028346E+02 0.  0.
         12    1    1    2    0    0  0.13800902905E+01 -0.15415243108E+02 -0.40547359531E+02  0.43400722739E+02  0.00000000000E+00 0. -1.
         11    1    3    3    0    0  0.10898961139E+00  0.38473118706E+01 -0.44926413568E+00  0.38749872115E+01  0.51100000000E-03 0. -1.
        -11    1    3    3    0    0 -0.10112956977E+01 -0.19201240391E+01  0.43951036647E+01  0.49016866279E+01  0.51100000000E-03 0.  1.
         12    1    3    3    0    0 -0.47778420410E+00  0.13488055276E+02  0.36601520002E+02  0.39010603422E+02  0.00000000000E+00 0. -1.
</event>
<event>
 7    1  0.5467297E-010  0.4778727E+02  0.7816164E-02  0.1312668E+00
        -11   -1    0    0    0    0  0.00000000000E+00  0.00000000000E+00  0.45593999997E+02  0.45594000000E+02  0.51100000000E-03 0.  1.
         11   -1    0    0    0    0 -0.00000000000E+00 -0.00000000000E+00 -0.45593999997E+02  0.45594000000E+02  0.51100000000E-03 0. -1.
    9900012    2    1    2    0    0  0.27652331250E+02  0.13261540901E+02  0.30709986988E+02  0.47787271994E+02  0.20000004329E+02 0.  0.
         12    1    1    2    0    0 -0.27652331250E+02 -0.13261540901E+02 -0.30709986988E+02  0.43400728006E+02  0.00000000000E+00 0. -1.
         11    1    3    3    0    0  0.41054615810E+01  0.83165851531E+01  0.60182205028E+01  0.11056192006E+02  0.51100000000E-03 0. -1.
        -11    1    3    3    0    0  0.62172033862E+01 -0.42813523622E+01  0.73533353070E+01  0.10538270085E+02  0.51100000000E-03 0.  1.
        -12    1    3    3    0    0  0.17329666283E+02  0.92263081106E+01  0.17338431179E+02  0.26192809902E+02  0.00000000000E+00 0.  1.
</event>
<event>
 7    1  0.5467297E-010  0.4778727E+02  0.7816164E-02  0.1312668E+00
        -11   -1    0    0    0    0  0.00000000000E+00  0.00000000000E+00  0.45593999997E+02  0.45594000000E+02  0.51100000000E-03 0. -1.
         11   -1    0    0    0    0 -0.00000000000E+00 -0.00000000000E+00 -0.45593999997E+02  0.45594000000E+02  0.51100000000E-03 0.  1.
    9900012    2    1    2    0    0  0.10883576809E+02 -0.20192365932E+02 -0.36843446366E+02  0.47787269290E+02  0.19999991999E+02 0.  0.
         12    1    1    2    0    0 -0.10883576809E+02  0.20192365932E+02  0.36843446366E+02  0.43400730710E+02  0.00000000000E+00 0. -1.
         11    1    3    3    0    0  0.38224222613E+01 -0.11138551424E-01 -0.25106841383E+01  0.45732451405E+01  0.51100000000E-03 0. -1.
        -11    1    3    3    0    0  0.43317730316E+01 -0.14910752344E+02 -0.33871470862E+02  0.37260855219E+02  0.51100000000E-03 0.  1.
        -12    1    3    3    0    0  0.27293815166E+01 -0.52704750372E+01 -0.46129136498E+00  0.59531689295E+01  0.00000000000E+00 0.  1.
</event>
<event>
 7    1  0.5467297E-010  0.4778727E+02  0.7816164E-02  0.1312668E+00
        -11   -1    0    0    0    0  0.00000000000E+00  0.00000000000E+00  0.45593999997E+02  0.45594000000E+02  0.51100000000E-03 0. -1.
         11   -1    0    0    0    0 -0.00000000000E+00 -0.00000000000E+00 -0.45593999997E+02  0.45594000000E+02  0.51100000000E-03 0.  1.
    9900012    2    1    2    0    0 -0.61251695158E+01 -0.11172254690E+02 -0.41488385098E+02  0.47787273341E+02  0.20000010472E+02 0.  0.
         12    1    1    2    0    0  0.61251695158E+01  0.11172254690E+02  0.41488385098E+02  0.43400726659E+02  0.00000000000E+00 0. -1.
         11    1    3    3    0    0  0.36895930533E+01  0.24704348933E+01 -0.14432130818E+02  0.15099753166E+02  0.51100000000E-03 0. -1.
        -11    1    3    3    0    0 -0.31040236561E+01 -0.90997068383E+01 -0.10393053153E+02  0.14158219574E+02  0.51100000000E-03 0.  1.
         12    1    3    3    0    0 -0.67107389129E+01 -0.45429827453E+01 -0.16663201127E+02  0.18529300602E+02  0.00000000000E+00 0. -1.
</event>
<event>
 7    1  0.5467297E-010  0.4778726E+02  0.7816164E-02  0.1312668E+00
        -11   -1    0    0    0    0  0.00000000000E+00  0.00000000000E+00  0.45593999997E+02  0.45594000000E+02  0.51100000000E-03 0.  1.
         11   -1    0    0    0    0 -0.00000000000E+00 -0.00000000000E+00 -0.45593999997E+02  0.45594000000E+02  0.51100000000E-03 0. -1.
    9900012    2    1    2    0    0 -0.59240290981E+01  0.35008030062E+02  0.24959323490E+02  0.47787261312E+02  0.19999955625E+02 0.  0.
         12    1    1    2    0    0  0.59240290981E+01 -0.35008030062E+02 -0.24959323490E+02  0.43400738688E+02  0.00000000000E+00 0. -1.
         11    1    3    3    0    0 -0.19251123250E+01  0.18712943425E+02  0.46452033048E+01  0.19376744388E+02  0.51100000000E-03 0. -1.
        -11    1    3    3    0    0  0.15928036570E+01  0.62637898499E+01  0.13723525890E+02  0.15169286400E+02  0.51100000000E-03 0.  1.
        -12    1    3    3    0    0 -0.55917204301E+01  0.10031296788E+02  0.65905942946E+01  0.13241230523E+02  0.00000000000E+00 0.  1.
</event>
<event>
 7    1  0.5467297E-010  0.4778727E+02  0.7816164E-02  0.1312668E+00
        -11   -1    0    0    0    0  0.00000000000E+00  0.00000000000E+00  0.45593999997E+02  0.45594000000E+02  0.51100000000E-03 0.  1.
         11   -1    0    0    0    0 -0.00000000000E+00 -0.00000000000E+00 -0.45593999997E+02  0.45594000000E+02  0.51100000000E-03 0. -1.
    9900012    2    1    2    0    0  0.53602946573E+00 -0.15536978059E+02  0.40520837133E+02  0.47787271242E+02  0.20000000900E+02 0.  0.
         12    1    1    2    0    0 -0.53602946573E+00  0.15536978059E+02 -0.40520837133E+02  0.43400728758E+02  0.00000000000E+00 0. -1.
         11    1    3    3    0    0  0.23691055488E+01 -0.19162039611E+02  0.32641362092E+02  0.37924331802E+02  0.51100000000E-03 0. -1.
        -11    1    3    3    0    0 -0.14969502854E+01  0.44662795680E+01  0.75501287433E+01  0.88990425125E+01  0.51100000000E-03 0.  1.
        -12    1    3    3    0    0 -0.33612579773E+00 -0.84121801659E+00  0.32934629787E+00  0.96389692771E+00  0.00000000000E+00 0.  1.
</event>
<event>
 7    1  0.5467297E-010  0.4778727E+02  0.7816164E-02  0.1312668E+00
        -11   -1    0    0    0    0  0.00000000000E+00  0.00000000000E+00  0.45593999997E+02  0.45594000000E+02  0.51100000000E-03 0.  1.
         11   -1    0    0    0    0 -0.00000000000E+00 -0.00000000000E+00 -0.45593999997E+02  0.45594000000E+02  0.51100000000E-03 0. -1.
    9900012    2    1    2    0    0  0.99131860040E+01  0.12195598647E+02  0.40455152640E+02  0.47787271225E+02  0.20000000823E+02 0.  0.
         12    1    1    2    0    0 -0.99131860040E+01 -0.12195598647E+02 -0.40455152640E+02  0.43400728775E+02  0.00000000000E+00 0. -1.
         11    1    3    3    0    0  0.26810225464E+01  0.39665368163E+01  0.34389365860E+00  0.47999540955E+01  0.51100000000E-03 0. -1.
        -11    1    3    3    0    0  0.70568949134E+01  0.10552973889E+02  0.29372323353E+02  0.31998412510E+02  0.51100000000E-03 0.  1.
        -12    1    3    3    0    0  0.17526854419E+00 -0.23239120585E+01  0.10738935628E+02  0.10988904620E+02  0.00000000000E+00 0.  1.
</event>
<event>
 7    1  0.6397710E-010  0.4778728E+02  0.7816164E-02  0.1312668E+00
        -11   -1    0    0    0    0  0.00000000000E+00  0.00000000000E+00  0.45593999997E+02  0.45594000000E+02  0.51100000000E-03 0. -1.
         11   -1    0    0    0    0 -0.00000000000E+00 -0.00000000000E+00 -0.45593999997E+02  0.45594000000E+02  0.51100000000E-03 0.  1.
    9900012    2    1    2    0    0 -0.25640245155E+02 -0.14644835967E+02 -0.31807694172E+02  0.47787276496E+02  0.20000024855E+02 0.  0.
         12    1    1    2    0    0  0.25640245155E+02  0.14644835967E+02  0.31807694172E+02  0.43400723504E+02  0.00000000000E+00 0. -1.
         11    1    3    3    0    0  0.37356495018E+00 -0.28479645355E+01  0.59779875667E+00  0.29339080391E+01  0.51100000000E-03 0. -1.
        -11    1    3    3    0    0 -0.26863974984E+02 -0.10505665067E+02 -0.28063151172E+02  0.40244038123E+02  0.51100000000E-03 0.  1.
        -12    1    3    3    0    0  0.85016487825E+00 -0.12912063640E+01 -0.43423417568E+01  0.46093303340E+01  0.00000000000E+00 0.  1.
</event>
<event>
 7    1  0.5467297E-010  0.4778727E+02  0.7816164E-02  0.1312668E+00
        -11   -1    0    0    0    0  0.00000000000E+00  0.00000000000E+00  0.45593999997E+02  0.45594000000E+02  0.51100000000E-03 0. -1.
         11   -1    0    0    0    0 -0.00000000000E+00 -0.00000000000E+00 -0.45593999997E+02  0.45594000000E+02  0.51100000000E-03 0.  1.
    9900012    2    1    2    0    0 -0.18068116793E+02 -0.39378994914E+02 -0.25418676429E+01  0.47787272172E+02  0.20000005139E+02 0.  0.
         12    1    1    2    0    0  0.18068116793E+02  0.39378994914E+02  0.25418676429E+01  0.43400727828E+02  0.00000000000E+00 0. -1.
         11    1    3    3    0    0 -0.89822660155E-01 -0.65610675711E+01  0.28576662466E+01  0.71569499384E+01  0.51100000000E-03 0. -1.
        -11    1    3    3    0    0 -0.11297393823E+02 -0.21788814686E+02  0.37375580250E+01  0.24826455504E+02  0.51100000000E-03 0.  1.
        -12    1    3    3    0    0 -0.66809003098E+01 -0.11029112657E+02 -0.91370919145E+01  0.15803866730E+02  0.00000000000E+00 0.  1.
</event>
<event>
 7    1  0.5467297E-010  0.4778725E+02  0.7816164E-02  0.1312668E+00
        -11   -1    0    0    0    0  0.00000000000E+00  0.00000000000E+00  0.45593999997E+02  0.45594000000E+02  0.51100000000E-03 0.  1.
         11   -1    0    0    0    0 -0.00000000000E+00 -0.00000000000E+00 -0.45593999997E+02  0.45594000000E+02  0.51100000000E-03 0. -1.
    9900012    2    1    2    0    0  0.97190826181E+01 -0.15069660303E+02  0.39523028965E+02  0.47787250616E+02  0.19999906857E+02 0.  0.
         12    1    1    2    0    0 -0.97190826181E+01  0.15069660303E+02 -0.39523028965E+02  0.43400749384E+02  0.00000000000E+00 0. -1.
         11    1    3    3    0    0 -0.35615934347E+01 -0.35718859447E+01  0.41620043563E+01  0.65395410786E+01  0.51100000000E-03 0. -1.
        -11    1    3    3    0    0  0.12784588779E+02 -0.13840400038E+02  0.31364364409E+02  0.36588601210E+02  0.51100000000E-03 0.  1.
        -12    1    3    3    0    0  0.49608727359E+00  0.23426256795E+01  0.39966601994E+01  0.46591083274E+01  0.00000000000E+00 0.  1.
</event>
<event>
 7    1  0.5467297E-010  0.4778727E+02  0.7816164E-02  0.1312668E+00
        -11   -1    0    0    0    0  0.00000000000E+00  0.00000000000E+00  0.45593999997E+02  0.45594000000E+02  0.51100000000E-03 0.  1.
         11   -1    0    0    0    0 -0.00000000000E+00 -0.00000000000E+00 -0.45593999997E+02  0.45594000000E+02  0.51100000000E-03 0. -1.
    9900012    2    1    2    0    0  0.25090261482E+02 -0.27186915911E+02  0.22693030308E+02  0.47787271405E+02  0.20000001645E+02 0.  0.
         12    1    1    2    0    0 -0.25090261482E+02  0.27186915911E+02 -0.22693030308E+02  0.43400728595E+02  0.00000000000E+00 0. -1.
         11    1    3    3    0    0  0.13389904291E+02 -0.14486137391E+02  0.78834244781E+01  0.21243495362E+02  0.51100000000E-03 0. -1.
        -11    1    3    3    0    0  0.51310778251E+01 -0.12523398851E+02  0.14685873193E+02  0.19970937637E+02  0.51100000000E-03 0.  1.
        -12    1    3    3    0    0  0.65692793662E+01 -0.17737966893E+00  0.12373263693E+00  0.65728384054E+01  0.00000000000E+00 0.  1.
</event>
<event>
 7    1  0.5467297E-010  0.4778727E+02  0.7816164E-02  0.1312668E+00
        -11   -1    0    0    0    0  0.00000000000E+00  0.00000000000E+00  0.45593999997E+02  0.45594000000E+02  0.51100000000E-03 0. -1.
         11   -1    0    0    0    0 -0.00000000000E+00 -0.00000000000E+00 -0.45593999997E+02  0.45594000000E+02  0.51100000000E-03 0.  1.
    9900012    2    1    2    0    0  0.49811052209E+01 -0.99970187219E+01 -0.41938903053E+02  0.47787269800E+02  0.19999994328E+02 0.  0.
         12    1    1    2    0    0 -0.49811052209E+01  0.99970187219E+01  0.41938903053E+02  0.43400730200E+02  0.00000000000E+00 0. -1.
         11    1    3    3    0    0  0.17712623772E+01  0.40689716671E+01 -0.30348586593E+01  0.53762689832E+01  0.51100000000E-03 0. -1.
        -11    1    3    3    0    0  0.24954132374E+01 -0.11339253628E+02 -0.37510993540E+02  0.39266784904E+02  0.51100000000E-03 0.  1.
         12    1    3    3    0    0  0.71442960641E+00 -0.27267367612E+01 -0.13930508538E+01  0.31442159132E+01  0.00000000000E+00 0. -1.
</event>
<event>
 7    1  0.5467297E-010  0.4778727E+02  0.7816164E-02  0.1312668E+00
        -11   -1    0    0    0    0  0.00000000000E+00  0.00000000000E+00  0.45593999997E+02  0.45594000000E+02  0.51100000000E-03 0. -1.
         11   -1    0    0    0    0 -0.00000000000E+00 -0.00000000000E+00 -0.45593999997E+02  0.45594000000E+02  0.51100000000E-03 0.  1.
    9900012    2    1    2    0    0 -0.14474725990E+02 -0.40822839699E+02 -0.27570573648E+01  0.47787270757E+02  0.19999998688E+02 0.  0.
         12    1    1    2    0    0  0.14474725990E+02  0.40822839699E+02  0.27570573648E+01  0.43400729243E+02  0.00000000000E+00 0. -1.
         11    1    3    3    0    0  0.22303961274E+01 -0.12273151463E+01  0.25798914523E+01  0.36244736887E+01  0.51100000000E-03 0. -1.
        -11    1    3    3    0    0 -0.71740942174E+01 -0.16217687670E+02  0.20664253758E+01  0.17853602866E+02  0.51100000000E-03 0.  1.
         12    1    3    3    0    0 -0.95310278999E+01 -0.23377836882E+02 -0.74033741929E+01  0.26309194202E+02  0.00000000000E+00 0. -1.
</event>
<event>
 7    1  0.5467297E-010  0.4778727E+02  0.7816164E-02  0.1312668E+00
        -11   -1    0    0    0    0  0.00000000000E+00  0.00000000000E+00  0.45593999997E+02  0.45594000000E+02  0.51100000000E-03 0.  1.
         11   -1    0    0    0    0 -0.00000000000E+00 -0.00000000000E+00 -0.45593999997E+02  0.45594000000E+02  0.51100000000E-03 0. -1.
    9900012    2    1    2    0    0 -0.36730240129E+02  0.16979750791E+02  0.15690790395E+02  0.47787269821E+02  0.19999994420E+02 0.  0.
         12    1    1    2    0    0  0.36730240129E+02 -0.16979750791E+02 -0.15690790395E+02  0.43400730179E+02  0.00000000000E+00 0. -1.
         11    1    3    3    0    0  0.11136555289E+00  0.65791083780E+01  0.30506814601E+01  0.72528426819E+01  0.51100000000E-03 0. -1.
        -11    1    3    3    0    0 -0.23810760412E+02  0.59499302734E+01  0.10060886892E+02  0.26524996267E+02  0.51100000000E-03 0.  1.
         12    1    3    3    0    0 -0.13030845270E+02  0.44507121400E+01  0.25792220434E+01  0.14009430872E+02  0.00000000000E+00 0. -1.
</event>
<event>
 7    1  0.5467297E-010  0.4778727E+02  0.7816164E-02  0.1312668E+00
        -11   -1    0    0    0    0  0.00000000000E+00  0.00000000000E+00  0.45593999997E+02  0.45594000000E+02  0.51100000000E-03 0.  1.
         11   -1    0    0    0    0 -0.00000000000E+00 -0.00000000000E+00 -0.45593999997E+02  0.45594000000E+02  0.51100000000E-03 0. -1.
    9900012    2    1    2    0    0  0.37166069318E+01 -0.27244675621E+02  0.33578828138E+02  0.47787271713E+02  0.20000003047E+02 0.  0.
         12    1    1    2    0    0 -0.37166069318E+01  0.27244675621E+02 -0.33578828138E+02  0.43400728287E+02  0.00000000000E+00 0. -1.
         11    1    3    3    0    0  0.30003129054E+01 -0.18991592120E+01 -0.68342770128E+00  0.36160416102E+01  0.51100000000E-03 0. -1.
        -11    1    3    3    0    0 -0.41757805278E+01 -0.19457512434E+02  0.21559454733E+02  0.29340109437E+02  0.51100000000E-03 0.  1.
        -12    1    3    3    0    0  0.48920745542E+01 -0.58880039752E+01  0.12702801106E+02  0.14831120666E+02  0.00000000000E+00 0.  1.
</event>
<event>
 7    1  0.5467297E-010  0.4778727E+02  0.7816164E-02  0.1312668E+00
        -11   -1    0    0    0    0  0.00000000000E+00  0.00000000000E+00  0.45593999997E+02  0.45594000000E+02  0.51100000000E-03 0.  1.
         11   -1    0    0    0    0 -0.00000000000E+00 -0.00000000000E+00 -0.45593999997E+02  0.45594000000E+02  0.51100000000E-03 0. -1.
    9900012    2    1    2    0    0 -0.38148430317E+01 -0.16779708054E+02  0.39843585631E+02  0.47787274825E+02  0.20000017238E+02 0.  0.
         12    1    1    2    0    0  0.38148430317E+01  0.16779708054E+02 -0.39843585631E+02  0.43400725175E+02  0.00000000000E+00 0. -1.
         11    1    3    3    0    0  0.34342379144E+01 -0.32422721501E+01  0.14216012806E+02  0.14980031345E+02  0.51100000000E-03 0. -1.
        -11    1    3    3    0    0 -0.90183719109E+01 -0.78698030642E+01  0.23723603894E+02  0.26572057018E+02  0.51100000000E-03 0.  1.
        -12    1    3    3    0    0  0.17692909647E+01 -0.56676328396E+01  0.19039689317E+01  0.62351864620E+01  0.00000000000E+00 0.  1.
</event>
<event>
 7    1  0.5467297E-010  0.4778728E+02  0.7816164E-02  0.1312668E+00
        -11   -1    0    0    0    0  0.00000000000E+00  0.00000000000E+00  0.45593999997E+02  0.45594000000E+02  0.51100000000E-03 0.  1.
         11   -1    0    0    0    0 -0.00000000000E+00 -0.00000000000E+00 -0.45593999997E+02  0.45594000000E+02  0.51100000000E-03 0. -1.
    9900012    2    1    2    0    0  0.26930661579E+02 -0.46071095515E+01  0.33721449279E+02  0.47787284188E+02  0.20000059929E+02 0.  0.
         12    1    1    2    0    0 -0.26930661579E+02  0.46071095515E+01 -0.33721449279E+02  0.43400715812E+02  0.00000000000E+00 0. -1.
         11    1    3    3    0    0 -0.22652399436E+01 -0.32688897127E+00  0.11165598975E+01  0.25465417074E+01  0.51100000000E-03 0. -1.
        -11    1    3    3    0    0  0.28220814997E+02 -0.55382562820E+01  0.27119721305E+02  0.39529305150E+02  0.51100000000E-03 0.  1.
         12    1    3    3    0    0  0.97508652561E+00  0.12580357017E+01  0.54851680764E+01  0.57114373310E+01  0.00000000000E+00 0. -1.
</event>
<event>
 7    1  0.5467297E-010  0.4778727E+02  0.7816164E-02  0.1312668E+00
        -11   -1    0    0    0    0  0.00000000000E+00  0.00000000000E+00  0.45593999997E+02  0.45594000000E+02  0.51100000000E-03 0. -1.
         11   -1    0    0    0    0 -0.00000000000E+00 -0.00000000000E+00 -0.45593999997E+02  0.45594000000E+02  0.51100000000E-03 0.  1.
    9900012    2    1    2    0    0 -0.14576473029E+02 -0.25612875178E+02 -0.31861111607E+02  0.47787269895E+02  0.19999994758E+02 0.  0.
         12    1    1    2    0    0  0.14576473029E+02  0.25612875178E+02  0.31861111607E+02  0.43400730105E+02  0.00000000000E+00 0. -1.
         11    1    3    3    0    0 -0.16828052422E+02 -0.21180039579E+02 -0.24902751141E+02  0.36768525120E+02  0.51100000000E-03 0. -1.
        -11    1    3    3    0    0  0.19773434174E+01 -0.27961929926E+01 -0.82391097836E+01  0.89225283709E+01  0.51100000000E-03 0.  1.
         12    1    3    3    0    0  0.27423597569E+00 -0.16366426070E+01  0.12807493182E+01  0.20962164033E+01  0.00000000000E+00 0. -1.
</event>
<event>
 7    1  0.5467297E-010  0.4778727E+02  0.7816164E-02  0.1312668E+00
        -11   -1    0    0    0    0  0.00000000000E+00  0.00000000000E+00  0.45593999997E+02  0.45594000000E+02  0.51100000000E-03 0. -1.
         11   -1    0    0    0    0 -0.00000000000E+00 -0.00000000000E+00 -0.45593999997E+02  0.45594000000E+02  0.51100000000E-03 0.  1.
    9900012    2    1    2    0    0  0.14338389710E+02  0.38135239209E+02 -0.14957852129E+02  0.47787271558E+02  0.20000002341E+02 0.  0.
         12    1    1    2    0    0 -0.14338389710E+02 -0.38135239209E+02  0.14957852129E+02  0.43400728442E+02  0.00000000000E+00 0. -1.
         11    1    3    3    0    0  0.27596117669E+01  0.11974776493E+02 -0.11366232126E+02  0.16739234216E+02  0.51100000000E-03 0. -1.
        -11    1    3    3    0    0  0.12205261222E+02  0.14317322772E+02 -0.63034896071E+00  0.18824225692E+02  0.51100000000E-03 0.  1.
        -12    1    3    3    0    0 -0.62648327910E+00  0.11843139944E+02 -0.29612710430E+01  0.12223811649E+02  0.00000000000E+00 0.  1.
</event>
<event>
 7    1  0.5467297E-010  0.4778731E+02  0.7816164E-02  0.1312668E+00
        -11   -1    0    0    0    0  0.00000000000E+00  0.00000000000E+00  0.45593999997E+02  0.45594000000E+02  0.51100000000E-03 0.  1.
         11   -1    0    0    0    0 -0.00000000000E+00 -0.00000000000E+00 -0.45593999997E+02  0.45594000000E+02  0.51100000000E-03 0. -1.
    9900012    2    1    2    0    0 -0.20915478039E+02  0.31305738222E+02  0.21589667170E+02  0.47787306506E+02  0.20000161685E+02 0.  0.
         12    1    1    2    0    0  0.20915478039E+02 -0.31305738222E+02 -0.21589667170E+02  0.43400693494E+02  0.00000000000E+00 0. -1.
         11    1    3    3    0    0 -0.55120524234E+01  0.63553963663E+01 -0.30610256359E+00  0.84182827187E+01  0.51100000000E-03 0. -1.
        -11    1    3    3    0    0 -0.15367557133E+02  0.26540203016E+02  0.22048523282E+02  0.37771438515E+02  0.51100000000E-03 0.  1.
        -12    1    3    3    0    0 -0.35868482109E-01 -0.15898611599E+01 -0.15275354853E+00  0.15975852723E+01  0.00000000000E+00 0.  1.
</event>
<event>
 7    1  0.5467297E-010  0.4778727E+02  0.7816164E-02  0.1312668E+00
        -11   -1    0    0    0    0  0.00000000000E+00  0.00000000000E+00  0.45593999997E+02  0.45594000000E+02  0.51100000000E-03 0. -1.
         11   -1    0    0    0    0 -0.00000000000E+00 -0.00000000000E+00 -0.45593999997E+02  0.45594000000E+02  0.51100000000E-03 0.  1.
    9900012    2    1    2    0    0  0.21770121327E+02  0.13761580180E+02  0.34932850214E+02  0.47787270793E+02  0.19999998856E+02 0.  0.
         12    1    1    2    0    0 -0.21770121327E+02 -0.13761580180E+02 -0.34932850214E+02  0.43400729207E+02  0.00000000000E+00 0. -1.
         11    1    3    3    0    0  0.69291341022E+01  0.10443785930E+02  0.64500483081E+01  0.14095697478E+02  0.51100000000E-03 0. -1.
        -11    1    3    3    0    0  0.11113101742E+02 -0.57446053173E+00  0.12071873324E+02  0.16418317850E+02  0.51100000000E-03 0.  1.
         12    1    3    3    0    0  0.37278854828E+01  0.38922547816E+01  0.16410928582E+02  0.17273255465E+02  0.00000000000E+00 0. -1.
</event>
<event>
 7    1  0.5467297E-010  0.4778727E+02  0.7816164E-02  0.1312668E+00
        -11   -1    0    0    0    0  0.00000000000E+00  0.00000000000E+00  0.45593999997E+02  0.45594000000E+02  0.51100000000E-03 0.  1.
         11   -1    0    0    0    0 -0.00000000000E+00 -0.00000000000E+00 -0.45593999997E+02  0.45594000000E+02  0.51100000000E-03 0. -1.
    9900012    2    1    2    0    0  0.10295948599E+02  0.10856107720E+01  0.42147812631E+02  0.47787271689E+02  0.20000002941E+02 0.  0.
         12    1    1    2    0    0 -0.10295948599E+02 -0.10856107720E+01 -0.42147812631E+02  0.43400728311E+02  0.00000000000E+00 0. -1.
         11    1    3    3    0    0  0.77886958124E+01  0.10016454679E+01  0.35387678594E+01  0.86133590617E+01  0.51100000000E-03 0. -1.
        -11    1    3    3    0    0  0.34382714458E+01 -0.20977665672E+01  0.28899241529E+02  0.29178562273E+02  0.51100000000E-03 0.  1.
         12    1    3    3    0    0 -0.93101865953E+00  0.21817318713E+01  0.97098032428E+01  0.99953503548E+01  0.00000000000E+00 0. -1.
</event>
<event>
 7    1  0.5467297E-010  0.4778728E+02  0.7816164E-02  0.1312668E+00
        -11   -1    0    0    0    0  0.00000000000E+00  0.00000000000E+00  0.45593999997E+02  0.45594000000E+02  0.51100000000E-03 0.  1.
         11   -1    0    0    0    0 -0.00000000000E+00 -0.00000000000E+00 -0.45593999997E+02  0.45594000000E+02  0.51100000000E-03 0. -1.
    9900012    2    1    2    0    0 -0.30396010699E+02  0.84295181486E+01  0.29810204730E+02  0.47787279399E+02  0.20000038092E+02 0.  0.
         12    1    1    2    0    0  0.30396010699E+02 -0.84295181486E+01 -0.29810204730E+02  0.43400720601E+02  0.00000000000E+00 0. -1.
         11    1    3    3    0    0 -0.16803228980E+02 -0.46483885369E+01  0.17088765569E+02  0.24412741121E+02  0.51100000000E-03 0. -1.
        -11    1    3    3    0    0 -0.52848010297E+01  0.20913933195E+01  0.50790810658E+01  0.76223429911E+01  0.51100000000E-03 0.  1.
         12    1    3    3    0    0 -0.83079806893E+01  0.10986513366E+02  0.76423580960E+01  0.15752195286E+02  0.00000000000E+00 0. -1.
</event>
<event>
 7    1  0.5467297E-010  0.4778727E+02  0.7816164E-02  0.1312668E+00
        -11   -1    0    0    0    0  0.00000000000E+00  0.00000000000E+00  0.45593999997E+02  0.45594000000E+02  0.51100000000E-03 0. -1.
         11   -1    0    0    0    0 -0.00000000000E+00 -0.00000000000E+00 -0.45593999997E+02  0.45594000000E+02  0.51100000000E-03 0.  1.
    9900012    2    1    2    0    0  0.11848055353E+02 -0.41497176646E+02  0.46077445489E+01  0.47787269648E+02  0.19999993633E+02 0.  0.
         12    1    1    2    0    0 -0.11848055353E+02  0.41497176646E+02 -0.46077445489E+01  0.43400730352E+02  0.00000000000E+00 0. -1.
         11    1    3    3    0    0  0.23513594358E+01 -0.14014003009E+01 -0.36050694032E+00  0.27609381585E+01  0.51100000000E-03 0. -1.
        -11    1    3    3    0    0 -0.44736364380E+01 -0.50354648702E+01  0.25690732591E+01  0.72089851651E+01  0.51100000000E-03 0.  1.
        -12    1    3    3    0    0  0.13970332355E+02 -0.35060311475E+02  0.23991782301E+01  0.37817346325E+02  0.00000000000E+00 0.  1.
</event>
<event>
 7    1  0.8055903E-010  0.4778727E+02  0.7816164E-02  0.1312668E+00
        -11   -1    0    0    0    0  0.00000000000E+00  0.00000000000E+00  0.45593999997E+02  0.45594000000E+02  0.51100000000E-03 0. -1.
         11   -1    0    0    0    0 -0.00000000000E+00 -0.00000000000E+00 -0.45593999997E+02  0.45594000000E+02  0.51100000000E-03 0.  1.
    9900012    2    1    2    0    0 -0.24854856300E+02  0.35178468916E+02 -0.53230302544E+01  0.47787271803E+02  0.20000003457E+02 0.  0.
         12    1    1    2    0    0  0.24854856300E+02 -0.35178468916E+02  0.53230302544E+01  0.43400728197E+02  0.00000000000E+00 0. -1.
         11    1    3    3    0    0 -0.10984295942E+01  0.10868796550E+02 -0.36408307203E+01  0.11514900547E+02  0.51100000000E-03 0. -1.
        -11    1    3    3    0    0 -0.17467200460E+02  0.17080410792E+02  0.45381451884E+01  0.24848305511E+02  0.51100000000E-03 0.  1.
        -12    1    3    3    0    0 -0.62892262458E+01  0.72292615735E+01 -0.62203447225E+01  0.11424065745E+02  0.00000000000E+00 0.  1.
</event>
<event>
 7    1  0.5467297E-010  0.4778728E+02  0.7816164E-02  0.1312668E+00
        -11   -1    0    0    0    0  0.00000000000E+00  0.00000000000E+00  0.45593999997E+02  0.45594000000E+02  0.51100000000E-03 0. -1.
         11   -1    0    0    0    0 -0.00000000000E+00 -0.00000000000E+00 -0.45593999997E+02  0.45594000000E+02  0.51100000000E-03 0.  1.
    9900012    2    1    2    0    0 -0.29445473827E+02 -0.26846597923E+02  0.17200193980E+02  0.47787280860E+02  0.20000044751E+02 0.  0.
         12    1    1    2    0    0  0.29445473827E+02  0.26846597923E+02 -0.17200193980E+02  0.43400719140E+02  0.00000000000E+00 0. -1.
         11    1    3    3    0    0 -0.52848248136E+00 -0.10244713094E+02  0.53347613898E+01  0.11562574085E+02  0.51100000000E-03 0.  1.
        -11    1    3    3    0    0 -0.22575031065E+02 -0.95106814410E+01  0.66858120411E+01  0.25392620424E+02  0.51100000000E-03 0. -1.
         12    1    3    3    0    0 -0.63419602803E+01 -0.70912033880E+01  0.51796205488E+01  0.10832086351E+02  0.00000000000E+00 0. -1.
</event>
<event>
 7    1  0.5467297E-010  0.4778727E+02  0.7816164E-02  0.1312668E+00
        -11   -1    0    0    0    0  0.00000000000E+00  0.00000000000E+00  0.45593999997E+02  0.45594000000E+02  0.51100000000E-03 0. -1.
         11   -1    0    0    0    0 -0.00000000000E+00 -0.00000000000E+00 -0.45593999997E+02  0.45594000000E+02  0.51100000000E-03 0.  1.
    9900012    2    1    2    0    0 -0.29081257737E+02 -0.23369308876E+02 -0.22176089552E+02  0.47787273085E+02  0.20000009305E+02 0.  0.
         12    1    1    2    0    0  0.29081257737E+02  0.23369308876E+02  0.22176089552E+02  0.43400726915E+02  0.00000000000E+00 0. -1.
         11    1    3    3    0    0 -0.45510753752E+01 -0.13440580322E+01  0.32329442431E+01  0.57420125222E+01  0.51100000000E-03 0. -1.
        -11    1    3    3    0    0 -0.13210421189E+02 -0.12147962167E+02 -0.17502751924E+02  0.25068596650E+02  0.51100000000E-03 0.  1.
         12    1    3    3    0    0 -0.11319761173E+02 -0.98772886763E+01 -0.79062818709E+01  0.16976663913E+02  0.00000000000E+00 0. -1.
</event>
<event>
 7    1  0.5467297E-010  0.4778727E+02  0.7816164E-02  0.1312668E+00
        -11   -1    0    0    0    0  0.00000000000E+00  0.00000000000E+00  0.45593999997E+02  0.45594000000E+02  0.51100000000E-03 0.  1.
         11   -1    0    0    0    0 -0.00000000000E+00 -0.00000000000E+00 -0.45593999997E+02  0.45594000000E+02  0.51100000000E-03 0. -1.
    9900012    2    1    2    0    0  0.96795676731E+01 -0.23464457036E+02  0.35204381517E+02  0.47787271293E+02  0.20000001134E+02 0.  0.
         12    1    1    2    0    0 -0.96795676731E+01  0.23464457036E+02 -0.35204381517E+02  0.43400728707E+02  0.00000000000E+00 0. -1.
         11    1    3    3    0    0  0.63443388494E+01 -0.17171963766E+02  0.10154952644E+02  0.20934422335E+02  0.51100000000E-03 0. -1.
        -11    1    3    3    0    0 -0.10533703196E+01 -0.49594352842E+01  0.13969998794E+02  0.14861576429E+02  0.51100000000E-03 0.  1.
         12    1    3    3    0    0  0.43885991433E+01 -0.13330579856E+01  0.11079430078E+02  0.11991272530E+02  0.00000000000E+00 0. -1.
</event>
<event>
 7    1  0.6202271E-010  0.4778727E+02  0.7816164E-02  0.1312668E+00
        -11   -1    0    0    0    0  0.00000000000E+00  0.00000000000E+00  0.45593999997E+02  0.45594000000E+02  0.51100000000E-03 0.  1.
         11   -1    0    0    0    0 -0.00000000000E+00 -0.00000000000E+00 -0.45593999997E+02  0.45594000000E+02  0.51100000000E-03 0. -1.
    9900012    2    1    2    0    0  0.20824995661E+02 -0.18495489303E+02  0.33284525497E+02  0.47787271822E+02  0.20000003543E+02 0.  0.
         12    1    1    2    0    0 -0.20824995661E+02  0.18495489303E+02 -0.33284525497E+02  0.43400728178E+02  0.00000000000E+00 0. -1.
         11    1    3    3    0    0  0.28095985078E+01  0.11503063328E+01  0.34043045281E+01  0.45613964984E+01  0.51100000000E-03 0. -1.
        -11    1    3    3    0    0 -0.14694533426E+01 -0.47249408125E+01  0.54407453243E+00  0.49779891689E+01  0.51100000000E-03 0.  1.
        -12    1    3    3    0    0  0.19484850496E+02 -0.14920854824E+02  0.29336146436E+02  0.38247886154E+02  0.00000000000E+00 0.  1.
</event>
<event>
 7    1  0.5467297E-010  0.4778727E+02  0.7816164E-02  0.1312668E+00
        -11   -1    0    0    0    0  0.00000000000E+00  0.00000000000E+00  0.45593999997E+02  0.45594000000E+02  0.51100000000E-03 0. -1.
         11   -1    0    0    0    0 -0.00000000000E+00 -0.00000000000E+00 -0.45593999997E+02  0.45594000000E+02  0.51100000000E-03 0.  1.
    9900012    2    1    2    0    0 -0.26983335164E+02 -0.28417608590E+02 -0.18653746185E+02  0.47787273032E+02  0.20000009063E+02 0.  0.
         12    1    1    2    0    0  0.26983335164E+02  0.28417608590E+02  0.18653746185E+02  0.43400726968E+02  0.00000000000E+00 0. -1.
         11    1    3    3    0    0 -0.21521377172E+00 -0.55958766829E+01  0.85605784546E+00  0.56650673530E+01  0.51100000000E-03 0. -1.
        -11    1    3    3    0    0 -0.11705848387E+02 -0.29497918225E+01 -0.90243026045E+01  0.15072033573E+02  0.51100000000E-03 0.  1.
        -12    1    3    3    0    0 -0.15062273006E+02 -0.19871940085E+02 -0.10485501426E+02  0.27050172107E+02  0.00000000000E+00 0.  1.
</event>
<event>
 7    1  0.5467297E-010  0.4778727E+02  0.7816164E-02  0.1312668E+00
        -11   -1    0    0    0    0  0.00000000000E+00  0.00000000000E+00  0.45593999997E+02  0.45594000000E+02  0.51100000000E-03 0.  1.
         11   -1    0    0    0    0 -0.00000000000E+00 -0.00000000000E+00 -0.45593999997E+02  0.45594000000E+02  0.51100000000E-03 0. -1.
    9900012    2    1    2    0    0  0.31414027340E+02  0.47176510697E+01  0.29572384819E+02  0.47787270868E+02  0.19999999196E+02 0.  0.
         12    1    1    2    0    0 -0.31414027340E+02 -0.47176510697E+01 -0.29572384819E+02  0.43400729132E+02  0.00000000000E+00 0. -1.
         11    1    3    3    0    0  0.26858252486E+01 -0.96818152714E+00 -0.23233504413E+01  0.36808953082E+01  0.51100000000E-03 0. -1.
        -11    1    3    3    0    0  0.81434627838E+01  0.15171507963E+01  0.40293017431E+01  0.92115691088E+01  0.51100000000E-03 0.  1.
         12    1    3    3    0    0  0.20584739307E+02  0.41686818005E+01  0.27866433517E+02  0.34894806451E+02  0.00000000000E+00 0. -1.
</event>
<event>
 7    1  0.5467297E-010  0.4778726E+02  0.7816164E-02  0.1312668E+00
        -11   -1    0    0    0    0  0.00000000000E+00  0.00000000000E+00  0.45593999997E+02  0.45594000000E+02  0.51100000000E-03 0.  1.
         11   -1    0    0    0    0 -0.00000000000E+00 -0.00000000000E+00 -0.45593999997E+02  0.45594000000E+02  0.51100000000E-03 0. -1.
    9900012    2    1    2    0    0  0.24566168932E+02  0.35524112149E+02  0.42620857307E+01  0.47787256058E+02  0.19999931669E+02 0.  0.
         12    1    1    2    0    0 -0.24566168932E+02 -0.35524112149E+02 -0.42620857307E+01  0.43400743942E+02  0.00000000000E+00 0. -1.
         11    1    3    3    0    0 -0.97759624912E-01 -0.44832868130E+00  0.38904763091E+01  0.39174432636E+01  0.51100000000E-03 0. -1.
        -11    1    3    3    0    0  0.15975998379E+02  0.19966658192E+02  0.15631271530E+01  0.25619198472E+02  0.51100000000E-03 0.  1.
         12    1    3    3    0    0  0.86879301775E+01  0.16005782638E+02 -0.11915177314E+01  0.18250614322E+02  0.00000000000E+00 0. -1.
</event>
<event>
 7    1  0.5467297E-010  0.4778727E+02  0.7816164E-02  0.1312668E+00
        -11   -1    0    0    0    0  0.00000000000E+00  0.00000000000E+00  0.45593999997E+02  0.45594000000E+02  0.51100000000E-03 0. -1.
         11   -1    0    0    0    0 -0.00000000000E+00 -0.00000000000E+00 -0.45593999997E+02  0.45594000000E+02  0.51100000000E-03 0.  1.
    9900012    2    1    2    0    0  0.73836540681E+01 -0.42526822298E+02  0.45358833438E+01  0.47787271897E+02  0.20000003885E+02 0.  0.
         12    1    1    2    0    0 -0.73836540681E+01  0.42526822298E+02 -0.45358833438E+01  0.43400728103E+02  0.00000000000E+00 0. -1.
         11    1    3    3    0    0 -0.17287203368E+01 -0.10184419594E+02  0.68716576102E+01  0.12406875314E+02  0.51100000000E-03 0. -1.
        -11    1    3    3    0    0  0.86834155499E+01 -0.12262587331E+02 -0.28299998473E+01  0.15289919982E+02  0.51100000000E-03 0.  1.
        -12    1    3    3    0    0  0.42895885490E+00 -0.20079815373E+02  0.49422558092E+00  0.20090476601E+02  0.00000000000E+00 0.  1.
</event>
<event>
 7    1  0.5467297E-010  0.4778727E+02  0.7816164E-02  0.1312668E+00
        -11   -1    0    0    0    0  0.00000000000E+00  0.00000000000E+00  0.45593999997E+02  0.45594000000E+02  0.51100000000E-03 0.  1.
         11   -1    0    0    0    0 -0.00000000000E+00 -0.00000000000E+00 -0.45593999997E+02  0.45594000000E+02  0.51100000000E-03 0. -1.
    9900012    2    1    2    0    0  0.83752839149E+01  0.43741364672E+01  0.42359712314E+02  0.47787266391E+02  0.19999978784E+02 0.  0.
         12    1    1    2    0    0 -0.83752839149E+01 -0.43741364672E+01 -0.42359712314E+02  0.43400733609E+02  0.00000000000E+00 0. -1.
         11    1    3    3    0    0  0.62024207281E-02  0.11735958852E+01 -0.14292436072E+01  0.18493521357E+01  0.51100000000E-03 0. -1.
        -11    1    3    3    0    0  0.54106810271E+01 -0.32185775366E+01  0.26952935616E+02  0.27678429311E+02  0.51100000000E-03 0.  1.
        -12    1    3    3    0    0  0.29584004671E+01  0.64191181187E+01  0.16836020305E+02  0.18259484945E+02  0.00000000000E+00 0.  1.
</event>
<event>
 7    1  0.5467297E-010  0.4778726E+02  0.7816164E-02  0.1312668E+00
        -11   -1    0    0    0    0  0.00000000000E+00  0.00000000000E+00  0.45593999997E+02  0.45594000000E+02  0.51100000000E-03 0.  1.
         11   -1    0    0    0    0 -0.00000000000E+00 -0.00000000000E+00 -0.45593999997E+02  0.45594000000E+02  0.51100000000E-03 0. -1.
    9900012    2    1    2    0    0  0.32058588691E+02  0.12644677887E+02  0.26381490232E+02  0.47787262511E+02  0.19999961092E+02 0.  0.
         12    1    1    2    0    0 -0.32058588691E+02 -0.12644677887E+02 -0.26381490232E+02  0.43400737489E+02  0.00000000000E+00 0. -1.
         11    1    3    3    0    0  0.36397962793E+01  0.11641853450E+01  0.82057487795E+01  0.90519477333E+01  0.51100000000E-03 0. -1.
        -11    1    3    3    0    0  0.61543118838E+01  0.10186782255E+02  0.60934554570E+01  0.13370725004E+02  0.51100000000E-03 0.  1.
        -12    1    3    3    0    0  0.22264480528E+02  0.12937102872E+01  0.12082285995E+02  0.25364589773E+02  0.00000000000E+00 0.  1.
</event>
<event>
 7    1  0.5467297E-010  0.4778727E+02  0.7816164E-02  0.1312668E+00
        -11   -1    0    0    0    0  0.00000000000E+00  0.00000000000E+00  0.45593999997E+02  0.45594000000E+02  0.51100000000E-03 0.  1.
         11   -1    0    0    0    0 -0.00000000000E+00 -0.00000000000E+00 -0.45593999997E+02  0.45594000000E+02  0.51100000000E-03 0. -1.
    9900012    2    1    2    0    0  0.97422827471E+01  0.16872657949E+02  0.38781757149E+02  0.47787270202E+02  0.19999996161E+02 0.  0.
         12    1    1    2    0    0 -0.97422827471E+01 -0.16872657949E+02 -0.38781757149E+02  0.43400729798E+02  0.00000000000E+00 0. -1.
         11    1    3    3    0    0  0.10248810931E+02  0.99112864672E+00  0.12170720927E+02  0.15941985749E+02  0.51100000000E-03 0. -1.
        -11    1    3    3    0    0 -0.38084331233E+01  0.64898475716E+01  0.12045615390E+02  0.14202786161E+02  0.51100000000E-03 0.  1.
         12    1    3    3    0    0  0.33019049397E+01  0.93916817306E+01  0.14565420832E+02  0.17642498292E+02  0.00000000000E+00 0. -1.
</event>
<event>
 7    1  0.5467297E-010  0.4778728E+02  0.7816164E-02  0.1312668E+00
        -11   -1    0    0    0    0  0.00000000000E+00  0.00000000000E+00  0.45593999997E+02  0.45594000000E+02  0.51100000000E-03 0. -1.
         11   -1    0    0    0    0 -0.00000000000E+00 -0.00000000000E+00 -0.45593999997E+02  0.45594000000E+02  0.51100000000E-03 0.  1.
    9900012    2    1    2    0    0 -0.14430081621E+02 -0.19346062418E+02 -0.36071113829E+02  0.47787278353E+02  0.20000033322E+02 0.  0.
         12    1    1    2    0    0  0.14430081621E+02  0.19346062418E+02  0.36071113829E+02  0.43400721647E+02  0.00000000000E+00 0. -1.
         11    1    3    3    0    0 -0.12448706401E+02 -0.15845192644E+02 -0.20720512841E+02  0.28902942301E+02  0.51100000000E-03 0. -1.
        -11    1    3    3    0    0 -0.31132052943E+01  0.53004439107E+00 -0.14193505608E+02  0.14540584443E+02  0.51100000000E-03 0.  1.
         12    1    3    3    0    0  0.11318300743E+01 -0.40309141643E+01 -0.11570953799E+01  0.43437516084E+01  0.00000000000E+00 0. -1.
</event>
<event>
 7    1  0.5467297E-010  0.4778727E+02  0.7816164E-02  0.1312668E+00
        -11   -1    0    0    0    0  0.00000000000E+00  0.00000000000E+00  0.45593999997E+02  0.45594000000E+02  0.51100000000E-03 0.  1.
         11   -1    0    0    0    0 -0.00000000000E+00 -0.00000000000E+00 -0.45593999997E+02  0.45594000000E+02  0.51100000000E-03 0. -1.
    9900012    2    1    2    0    0 -0.43097947194E+02  0.44179189126E+01  0.25830370189E+01  0.47787272586E+02  0.20000007029E+02 0.  0.
         12    1    1    2    0    0  0.43097947194E+02 -0.44179189126E+01 -0.25830370189E+01  0.43400727414E+02  0.00000000000E+00 0. -1.
         11    1    3    3    0    0 -0.48286419157E+01  0.58400287572E+01 -0.15019107651E+01  0.77251184355E+01  0.51100000000E-03 0. -1.
        -11    1    3    3    0    0 -0.29174222119E+02  0.82496658838E+00 -0.13757726405E+01  0.29218291475E+02  0.51100000000E-03 0.  1.
        -12    1    3    3    0    0 -0.90950831591E+01 -0.22470764330E+01  0.54607204245E+01  0.10843862675E+02  0.00000000000E+00 0.  1.
</event>
<event>
 7    1  0.5467297E-010  0.4778727E+02  0.7816164E-02  0.1312668E+00
        -11   -1    0    0    0    0  0.00000000000E+00  0.00000000000E+00  0.45593999997E+02  0.45594000000E+02  0.51100000000E-03 0. -1.
         11   -1    0    0    0    0 -0.00000000000E+00 -0.00000000000E+00 -0.45593999997E+02  0.45594000000E+02  0.51100000000E-03 0.  1.
    9900012    2    1    2    0    0  0.21107717543E+02  0.17249497428E+02 -0.33771920606E+02  0.47787268177E+02  0.19999986927E+02 0.  0.
         12    1    1    2    0    0 -0.21107717543E+02 -0.17249497428E+02  0.33771920606E+02  0.43400731823E+02  0.00000000000E+00 0. -1.
         11    1    3    3    0    0  0.17472072866E+02  0.16428292446E+02 -0.24839418801E+02  0.34527653403E+02  0.51100000000E-03 0. -1.
        -11    1    3    3    0    0  0.36439282070E+01  0.41840625415E+01 -0.80605303253E+01  0.97855373646E+01  0.51100000000E-03 0.  1.
         12    1    3    3    0    0 -0.82835305540E-02 -0.33628575598E+01 -0.87197147953E+00  0.34740774092E+01  0.00000000000E+00 0. -1.
</event>
<event>
 7    1  0.5467297E-010  0.4778727E+02  0.7816164E-02  0.1312668E+00
        -11   -1    0    0    0    0  0.00000000000E+00  0.00000000000E+00  0.45593999997E+02  0.45594000000E+02  0.51100000000E-03 0.  1.
         11   -1    0    0    0    0 -0.00000000000E+00 -0.00000000000E+00 -0.45593999997E+02  0.45594000000E+02  0.51100000000E-03 0. -1.
    9900012    2    1    2    0    0 -0.25044429613E+02  0.35114277365E+02 -0.48360995459E+01  0.47787265118E+02  0.19999972979E+02 0.  0.
         12    1    1    2    0    0  0.25044429613E+02 -0.35114277365E+02  0.48360995459E+01  0.43400734882E+02  0.00000000000E+00 0. -1.
         11    1    3    3    0    0 -0.26824816444E+02  0.26265568843E+02 -0.49902154085E+01  0.37872854843E+02  0.51100000000E-03 0.  1.
        -11    1    3    3    0    0  0.35524591340E+00  0.50448360208E+01  0.20180536697E+01  0.54450997245E+01  0.51100000000E-03 0. -1.
        -12    1    3    3    0    0  0.14251409185E+01  0.38038725014E+01 -0.18639378071E+01  0.44693105501E+01  0.00000000000E+00 0.  1.
</event>
<event>
 7    1  0.5467297E-010  0.4778727E+02  0.7816164E-02  0.1312668E+00
        -11   -1    0    0    0    0  0.00000000000E+00  0.00000000000E+00  0.45593999997E+02  0.45594000000E+02  0.51100000000E-03 0.  1.
         11   -1    0    0    0    0 -0.00000000000E+00 -0.00000000000E+00 -0.45593999997E+02  0.45594000000E+02  0.51100000000E-03 0. -1.
    9900012    2    1    2    0    0 -0.55346851531E+01 -0.42359412752E+02  0.76596724474E+01  0.47787272236E+02  0.20000005433E+02 0.  0.
         12    1    1    2    0    0  0.55346851531E+01  0.42359412752E+02 -0.76596724474E+01  0.43400727764E+02  0.00000000000E+00 0. -1.
         11    1    3    3    0    0 -0.28591463989E+01 -0.38979530820E+01  0.58056921830E+01  0.75547877763E+01  0.51100000000E-03 0. -1.
        -11    1    3    3    0    0 -0.25245571770E+01 -0.36315432778E+02  0.46562404923E+01  0.36699654257E+02  0.51100000000E-03 0.  1.
        -12    1    3    3    0    0 -0.15098157725E+00 -0.21460268916E+01 -0.28022602279E+01  0.35328302027E+01  0.00000000000E+00 0.  1.
</event>
<event>
 7    1  0.5467297E-010  0.4778727E+02  0.7816164E-02  0.1312668E+00
        -11   -1    0    0    0    0  0.00000000000E+00  0.00000000000E+00  0.45593999997E+02  0.45594000000E+02  0.51100000000E-03 0.  1.
         11   -1    0    0    0    0 -0.00000000000E+00 -0.00000000000E+00 -0.45593999997E+02  0.45594000000E+02  0.51100000000E-03 0. -1.
    9900012    2    1    2    0    0 -0.29649836608E+02 -0.29097326809E+02  0.12564085720E+02  0.47787268574E+02  0.19999988739E+02 0.  0.
         12    1    1    2    0    0  0.29649836608E+02  0.29097326809E+02 -0.12564085720E+02  0.43400731426E+02  0.00000000000E+00 0. -1.
         11    1    3    3    0    0 -0.12115104663E+02 -0.14270295615E+02 -0.25616402463E+01  0.18893890519E+02  0.51100000000E-03 0. -1.
        -11    1    3    3    0    0 -0.16523123368E+02 -0.15989278582E+02  0.13544934136E+02  0.26685874099E+02  0.51100000000E-03 0.  1.
         12    1    3    3    0    0 -0.10116085766E+01  0.11622473888E+01  0.15807918301E+01  0.22075039559E+01  0.00000000000E+00 0. -1.
</event>
<event>
 7    1  0.5467297E-010  0.4778727E+02  0.7816164E-02  0.1312668E+00
        -11   -1    0    0    0    0  0.00000000000E+00  0.00000000000E+00  0.45593999997E+02  0.45594000000E+02  0.51100000000E-03 0.  1.
         11   -1    0    0    0    0 -0.00000000000E+00 -0.00000000000E+00 -0.45593999997E+02  0.45594000000E+02  0.51100000000E-03 0. -1.
    9900012    2    1    2    0    0  0.18219880780E+01 -0.43353692060E+02 -0.87228622432E+00  0.47787272598E+02  0.20000007082E+02 0.  0.
         12    1    1    2    0    0 -0.18219880780E+01  0.43353692060E+02  0.87228622432E+00  0.43400727402E+02  0.00000000000E+00 0. -1.
         11    1    3    3    0    0 -0.62251637495E+01 -0.15234462693E+02 -0.60727379595E+01  0.17541940139E+02  0.51100000000E-03 0. -1.
        -11    1    3    3    0    0  0.70374174144E+01 -0.27264319624E+02  0.39660386896E+01  0.28435854683E+02  0.51100000000E-03 0.  1.
         12    1    3    3    0    0  0.10097344131E+01 -0.85490974370E+00  0.12344130455E+01  0.18094777760E+01  0.00000000000E+00 0. -1.
</event>
<event>
 7    1  0.5467297E-010  0.4778727E+02  0.7816164E-02  0.1312668E+00
        -11   -1    0    0    0    0  0.00000000000E+00  0.00000000000E+00  0.45593999997E+02  0.45594000000E+02  0.51100000000E-03 0. -1.
         11   -1    0    0    0    0 -0.00000000000E+00 -0.00000000000E+00 -0.45593999997E+02  0.45594000000E+02  0.51100000000E-03 0.  1.
    9900012    2    1    2    0    0 -0.29846740920E+02 -0.15758753436E+02 -0.27284739332E+02  0.47787271275E+02  0.20000001053E+02 0.  0.
         12    1    1    2    0    0  0.29846740920E+02  0.15758753436E+02  0.27284739332E+02  0.43400728725E+02  0.00000000000E+00 0. -1.
         11    1    3    3    0    0 -0.64553005017E+00  0.25316530384E+01 -0.14188564972E+01  0.29730674687E+01  0.51100000000E-03 0. -1.
        -11    1    3    3    0    0 -0.26173859048E+02 -0.14856602619E+02 -0.26613906483E+02  0.40175733439E+02  0.51100000000E-03 0.  1.
        -12    1    3    3    0    0 -0.30273518217E+01 -0.34338038561E+01  0.74802364782E+00  0.46384703677E+01  0.00000000000E+00 0.  1.
</event>
<event>
 7    1  0.5467297E-010  0.4778727E+02  0.7816164E-02  0.1312668E+00
        -11   -1    0    0    0    0  0.00000000000E+00  0.00000000000E+00  0.45593999997E+02  0.45594000000E+02  0.51100000000E-03 0. -1.
         11   -1    0    0    0    0 -0.00000000000E+00 -0.00000000000E+00 -0.45593999997E+02  0.45594000000E+02  0.51100000000E-03 0.  1.
    9900012    2    1    2    0    0  0.42554686253E+02  0.36182587924E+01 -0.77220584454E+01  0.47787270681E+02  0.19999998345E+02 0.  0.
         12    1    1    2    0    0 -0.42554686253E+02 -0.36182587924E+01  0.77220584454E+01  0.43400729319E+02  0.00000000000E+00 0. -1.
         11    1    3    3    0    0  0.21435589707E+00  0.65880034478E+00  0.31903684001E+01  0.32647231328E+01  0.51100000000E-03 0. -1.
        -11    1    3    3    0    0  0.37863133940E+02  0.26766109128E+01 -0.70585252474E+01  0.38608340248E+02  0.51100000000E-03 0.  1.
         12    1    3    3    0    0  0.44771964154E+01  0.28284753477E+00 -0.38539015980E+01  0.59142073008E+01  0.00000000000E+00 0. -1.
</event>
<event>
 7    1  0.5467297E-010  0.4778727E+02  0.7816164E-02  0.1312668E+00
        -11   -1    0    0    0    0  0.00000000000E+00  0.00000000000E+00  0.45593999997E+02  0.45594000000E+02  0.51100000000E-03 0.  1.
         11   -1    0    0    0    0 -0.00000000000E+00 -0.00000000000E+00 -0.45593999997E+02  0.45594000000E+02  0.51100000000E-03 0. -1.
    9900012    2    1    2    0    0 -0.36145932987E+02  0.70199827133E+01  0.22974217888E+02  0.47787270555E+02  0.19999997767E+02 0.  0.
         12    1    1    2    0    0  0.36145932987E+02 -0.70199827133E+01 -0.22974217888E+02  0.43400729445E+02  0.00000000000E+00 0. -1.
         11    1    3    3    0    0  0.12197580688E+01  0.68866942006E+00  0.24706682175E+01  0.28401191909E+01  0.51100000000E-03 0. -1.
        -11    1    3    3    0    0 -0.31290995243E+02  0.67140012772E+01  0.11353273874E+02  0.33957341244E+02  0.51100000000E-03 0.  1.
        -12    1    3    3    0    0 -0.60746958128E+01 -0.38268798394E+00  0.91502757966E+01  0.10989810120E+02  0.00000000000E+00 0.  1.
</event>
<event>
 7    1  0.5467297E-010  0.4778727E+02  0.7816164E-02  0.1312668E+00
        -11   -1    0    0    0    0  0.00000000000E+00  0.00000000000E+00  0.45593999997E+02  0.45594000000E+02  0.51100000000E-03 0.  1.
         11   -1    0    0    0    0 -0.00000000000E+00 -0.00000000000E+00 -0.45593999997E+02  0.45594000000E+02  0.51100000000E-03 0. -1.
    9900012    2    1    2    0    0  0.22347968954E+02  0.23719725333E+02  0.28662978059E+02  0.47787269620E+02  0.19999993507E+02 0.  0.
         12    1    1    2    0    0 -0.22347968954E+02 -0.23719725333E+02 -0.28662978059E+02  0.43400730380E+02  0.00000000000E+00 0. -1.
         11    1    3    3    0    0  0.52250252143E+01 -0.13467501885E+01  0.11818305256E+02  0.12991803722E+02  0.51100000000E-03 0. -1.
        -11    1    3    3    0    0  0.10922451908E+02  0.17800205951E+02  0.11970232538E+02  0.24071430262E+02  0.51100000000E-03 0.  1.
         12    1    3    3    0    0  0.62004918324E+01  0.72662695701E+01  0.48744402657E+01  0.10724035636E+02  0.00000000000E+00 0. -1.
</event>
<event>
 7    1  0.5467297E-010  0.4778727E+02  0.7816164E-02  0.1312668E+00
        -11   -1    0    0    0    0  0.00000000000E+00  0.00000000000E+00  0.45593999997E+02  0.45594000000E+02  0.51100000000E-03 0. -1.
         11   -1    0    0    0    0 -0.00000000000E+00 -0.00000000000E+00 -0.45593999997E+02  0.45594000000E+02  0.51100000000E-03 0.  1.
    9900012    2    1    2    0    0 -0.38454499047E+02  0.14472434754E+02  0.13979401976E+02  0.47787267929E+02  0.19999985796E+02 0.  0.
         12    1    1    2    0    0  0.38454499047E+02 -0.14472434754E+02 -0.13979401976E+02  0.43400732071E+02  0.00000000000E+00 0. -1.
         11    1    3    3    0    0 -0.99681929927E+01  0.98403749776E+01  0.31092305297E+01  0.14348002160E+02  0.51100000000E-03 0. -1.
        -11    1    3    3    0    0 -0.14382976105E+02 -0.17994779811E+01 -0.20742236937E-01  0.14495121702E+02  0.51100000000E-03 0.  1.
        -12    1    3    3    0    0 -0.14103329949E+02  0.64315377574E+01  0.10890913683E+02  0.18944144067E+02  0.00000000000E+00 0.  1.
</event>
<event>
 7    1  0.5467297E-010  0.4778727E+02  0.7816164E-02  0.1312668E+00
        -11   -1    0    0    0    0  0.00000000000E+00  0.00000000000E+00  0.45593999997E+02  0.45594000000E+02  0.51100000000E-03 0. -1.
         11   -1    0    0    0    0 -0.00000000000E+00 -0.00000000000E+00 -0.45593999997E+02  0.45594000000E+02  0.51100000000E-03 0.  1.
    9900012    2    1    2    0    0  0.36135113211E+02  0.72906137667E+01  0.22906854269E+02  0.47787269264E+02  0.19999991883E+02 0.  0.
         12    1    1    2    0    0 -0.36135113211E+02 -0.72906137667E+01 -0.22906854269E+02  0.43400730736E+02  0.00000000000E+00 0. -1.
         11    1    3    3    0    0  0.16306180608E+02  0.75361140964E-01  0.81670606215E+00  0.16326794369E+02  0.51100000000E-03 0. -1.
        -11    1    3    3    0    0  0.88324200624E+01  0.70996275691E+01  0.12464377496E+02  0.16845683792E+02  0.51100000000E-03 0.  1.
        -12    1    3    3    0    0  0.10996512541E+02  0.11562505665E+00  0.96257707107E+01  0.14614791103E+02  0.00000000000E+00 0.  1.
</event>
<event>
 7    1  0.5467297E-010  0.4778727E+02  0.7816164E-02  0.1312668E+00
        -11   -1    0    0    0    0  0.00000000000E+00  0.00000000000E+00  0.45593999997E+02  0.45594000000E+02  0.51100000000E-03 0.  1.
         11   -1    0    0    0    0 -0.00000000000E+00 -0.00000000000E+00 -0.45593999997E+02  0.45594000000E+02  0.51100000000E-03 0. -1.
    9900012    2    1    2    0    0  0.19502105158E+02  0.36746129783E+02  0.12369850587E+02  0.47787270016E+02  0.19999995310E+02 0.  0.
         12    1    1    2    0    0 -0.19502105158E+02 -0.36746129783E+02 -0.12369850587E+02  0.43400729984E+02  0.00000000000E+00 0. -1.
         11    1    3    3    0    0  0.49538229382E+01  0.37639673157E+01 -0.39822923926E+01  0.73869117105E+01  0.51100000000E-03 0. -1.
        -11    1    3    3    0    0  0.88732056470E+01  0.18585342637E+02  0.13606460811E+02  0.24683689259E+02  0.51100000000E-03 0.  1.
         12    1    3    3    0    0  0.56750765730E+01  0.14396819830E+02  0.27456821693E+01  0.15716669046E+02  0.00000000000E+00 0. -1.
</event>
<event>
 7    1  0.5467297E-010  0.4778728E+02  0.7816164E-02  0.1312668E+00
        -11   -1    0    0    0    0  0.00000000000E+00  0.00000000000E+00  0.45593999997E+02  0.45594000000E+02  0.51100000000E-03 0. -1.
         11   -1    0    0    0    0 -0.00000000000E+00 -0.00000000000E+00 -0.45593999997E+02  0.45594000000E+02  0.51100000000E-03 0.  1.
    9900012    2    1    2    0    0  0.31247793560E+02  0.24798189074E+01  0.30017472997E+02  0.47787276627E+02  0.20000025454E+02 0.  0.
         12    1    1    2    0    0 -0.31247793560E+02 -0.24798189074E+01 -0.30017472997E+02  0.43400723373E+02  0.00000000000E+00 0. -1.
         11    1    3    3    0    0  0.58917453523E+01 -0.31258054026E+01  0.13825671716E+02  0.15350326426E+02  0.51100000000E-03 0. -1.
        -11    1    3    3    0    0  0.13262557484E+02  0.81839883709E+01  0.10718138672E+02  0.18914322445E+02  0.51100000000E-03 0.  1.
        -12    1    3    3    0    0  0.12093490723E+02 -0.25783640609E+01  0.54736626080E+01  0.13522627757E+02  0.00000000000E+00 0.  1.
</event>
<event>
 7    1  0.5467297E-010  0.4778727E+02  0.7816164E-02  0.1312668E+00
        -11   -1    0    0    0    0  0.00000000000E+00  0.00000000000E+00  0.45593999997E+02  0.45594000000E+02  0.51100000000E-03 0.  1.
         11   -1    0    0    0    0 -0.00000000000E+00 -0.00000000000E+00 -0.45593999997E+02  0.45594000000E+02  0.51100000000E-03 0. -1.
    9900012    2    1    2    0    0 -0.14847879517E+02  0.39289514879E+02  0.10931505972E+02  0.47787270416E+02  0.19999997135E+02 0.  0.
         12    1    1    2    0    0  0.14847879517E+02 -0.39289514879E+02 -0.10931505972E+02  0.43400729584E+02  0.00000000000E+00 0. -1.
         11    1    3    3    0    0  0.37052584575E+01  0.37351990061E+01  0.16451759296E+01  0.55124636917E+01  0.51100000000E-03 0. -1.
        -11    1    3    3    0    0 -0.10837710880E+02  0.26462821136E+02  0.10089247093E+02  0.30323749550E+02  0.51100000000E-03 0.  1.
         12    1    3    3    0    0 -0.77154270942E+01  0.90914947375E+01 -0.80291705079E+00  0.11951057175E+02  0.00000000000E+00 0. -1.
</event>
<event>
 7    1  0.5467297E-010  0.4778727E+02  0.7816164E-02  0.1312668E+00
        -11   -1    0    0    0    0  0.00000000000E+00  0.00000000000E+00  0.45593999997E+02  0.45594000000E+02  0.51100000000E-03 0. -1.
         11   -1    0    0    0    0 -0.00000000000E+00 -0.00000000000E+00 -0.45593999997E+02  0.45594000000E+02  0.51100000000E-03 0.  1.
    9900012    2    1    2    0    0 -0.23840746323E+02  0.35134815954E+02  0.89881456029E+01  0.47787271449E+02  0.20000001845E+02 0.  0.
         12    1    1    2    0    0  0.23840746323E+02 -0.35134815954E+02 -0.89881456029E+01  0.43400728551E+02  0.00000000000E+00 0. -1.
         11    1    3    3    0    0 -0.32637014714E+01  0.59022884542E+01 -0.48615250146E+01  0.83140352429E+01  0.51100000000E-03 0. -1.
        -11    1    3    3    0    0 -0.15558541591E+02  0.27592694469E+02  0.12143680030E+02  0.33924828215E+02  0.51100000000E-03 0.  1.
        -12    1    3    3    0    0 -0.50185032612E+01  0.16398330306E+01  0.17059905880E+01  0.55484079912E+01  0.00000000000E+00 0.  1.
</event>
<event>
 7    1  0.5467297E-010  0.4778727E+02  0.7816164E-02  0.1312668E+00
        -11   -1    0    0    0    0  0.00000000000E+00  0.00000000000E+00  0.45593999997E+02  0.45594000000E+02  0.51100000000E-03 0.  1.
         11   -1    0    0    0    0 -0.00000000000E+00 -0.00000000000E+00 -0.45593999997E+02  0.45594000000E+02  0.51100000000E-03 0. -1.
    9900012    2    1    2    0    0 -0.24147689040E+02  0.34550853750E+02 -0.10332033167E+02  0.47787270857E+02  0.19999999143E+02 0.  0.
         12    1    1    2    0    0  0.24147689040E+02 -0.34550853750E+02  0.10332033167E+02  0.43400729143E+02  0.00000000000E+00 0. -1.
         11    1    3    3    0    0 -0.11773691548E+02  0.43056457828E+01 -0.31362415044E+01  0.12922631671E+02  0.51100000000E-03 0. -1.
        -11    1    3    3    0    0 -0.12068326318E+02  0.28770163120E+02 -0.41590767224E+01  0.31474826536E+02  0.51100000000E-03 0.  1.
         12    1    3    3    0    0 -0.30567117412E+00  0.14750448476E+01 -0.30367149399E+01  0.33898126490E+01  0.00000000000E+00 0. -1.
</event>
<event>
 7    1  0.5467297E-010  0.4778727E+02  0.7816164E-02  0.1312668E+00
        -11   -1    0    0    0    0  0.00000000000E+00  0.00000000000E+00  0.45593999997E+02  0.45594000000E+02  0.51100000000E-03 0.  1.
         11   -1    0    0    0    0 -0.00000000000E+00 -0.00000000000E+00 -0.45593999997E+02  0.45594000000E+02  0.51100000000E-03 0. -1.
    9900012    2    1    2    0    0  0.28770074612E+02  0.15419874599E+02  0.28603036205E+02  0.47787269523E+02  0.19999993063E+02 0.  0.
         12    1    1    2    0    0 -0.28770074612E+02 -0.15419874599E+02 -0.28603036205E+02  0.43400730477E+02  0.00000000000E+00 0. -1.
         11    1    3    3    0    0  0.33265808808E-01  0.23327826308E+01  0.11360104877E+02  0.11597196406E+02  0.51100000000E-03 0. -1.
        -11    1    3    3    0    0  0.18885289432E+02  0.78559581429E+01  0.13109287723E+02  0.24294519138E+02  0.51100000000E-03 0.  1.
        -12    1    3    3    0    0  0.98515193708E+01  0.52311338252E+01  0.41336436055E+01  0.11895553979E+02  0.00000000000E+00 0.  1.
</event>
<event>
 7    1  0.5467297E-010  0.4778727E+02  0.7816164E-02  0.1312668E+00
        -11   -1    0    0    0    0  0.00000000000E+00  0.00000000000E+00  0.45593999997E+02  0.45594000000E+02  0.51100000000E-03 0. -1.
         11   -1    0    0    0    0 -0.00000000000E+00 -0.00000000000E+00 -0.45593999997E+02  0.45594000000E+02  0.51100000000E-03 0.  1.
    9900012    2    1    2    0    0 -0.37506588036E+02  0.10212919168E+02 -0.19302207871E+02  0.47787273131E+02  0.20000009515E+02 0.  0.
         12    1    1    2    0    0  0.37506588036E+02 -0.10212919168E+02  0.19302207871E+02  0.43400726869E+02  0.00000000000E+00 0. -1.
         11    1    3    3    0    0 -0.66009871402E+01 -0.21477751407E+01 -0.91249898236E+01  0.11465226069E+02  0.51100000000E-03 0. -1.
        -11    1    3    3    0    0 -0.28411330680E+02  0.82595109590E+01 -0.10767218570E+02  0.31485809951E+02  0.51100000000E-03 0.  1.
         12    1    3    3    0    0 -0.24942702161E+01  0.41011833496E+01  0.59000052234E+00  0.48362371110E+01  0.00000000000E+00 0. -1.
</event>
<event>
 7    1  0.5467297E-010  0.4778732E+02  0.7816164E-02  0.1312668E+00
        -11   -1    0    0    0    0  0.00000000000E+00  0.00000000000E+00  0.45593999997E+02  0.45594000000E+02  0.51100000000E-03 0.  1.
         11   -1    0    0    0    0 -0.00000000000E+00 -0.00000000000E+00 -0.45593999997E+02  0.45594000000E+02  0.51100000000E-03 0. -1.
    9900012    2    1    2    0    0 -0.49254598823E+01 -0.40763736647E+02 -0.14059763296E+02  0.47787316544E+02  0.20000207449E+02 0.  0.
         12    1    1    2    0    0  0.49254598823E+01  0.40763736647E+02  0.14059763296E+02  0.43400683456E+02  0.00000000000E+00 0. -1.
         11    1    3    3    0    0 -0.11242599645E+01  0.36776703504E-01 -0.47689076467E+01  0.48997748314E+01  0.51100000000E-03 0. -1.
        -11    1    3    3    0    0 -0.50604538797E+01 -0.30059106367E+02 -0.36791098925E+01  0.30703320976E+02  0.51100000000E-03 0.  1.
         12    1    3    3    0    0  0.12592539619E+01 -0.10741406983E+02 -0.56117457570E+01  0.12184220737E+02  0.00000000000E+00 0. -1.
</event>
<event>
 7    1  0.5467297E-010  0.4778727E+02  0.7816164E-02  0.1312668E+00
        -11   -1    0    0    0    0  0.00000000000E+00  0.00000000000E+00  0.45593999997E+02  0.45594000000E+02  0.51100000000E-03 0.  1.
         11   -1    0    0    0    0 -0.00000000000E+00 -0.00000000000E+00 -0.45593999997E+02  0.45594000000E+02  0.51100000000E-03 0. -1.
    9900012    2    1    2    0    0 -0.50832239033E+01  0.33121103600E+00  0.43100749617E+02  0.47787268628E+02  0.19999988985E+02 0.  0.
         12    1    1    2    0    0  0.50832239033E+01 -0.33121103600E+00 -0.43100749617E+02  0.43400731372E+02  0.00000000000E+00 0. -1.
         11    1    3    3    0    0 -0.10784439055E+01  0.56100135458E+01  0.27650968842E+01  0.63467357186E+01  0.51100000000E-03 0. -1.
        -11    1    3    3    0    0  0.56839874107E+00 -0.31788363674E+01  0.67814075351E+01  0.75110296363E+01  0.51100000000E-03 0.  1.
         12    1    3    3    0    0 -0.45731787388E+01 -0.20999661424E+01  0.33554245198E+02  0.33929503274E+02  0.00000000000E+00 0. -1.
</event>
<event>
 7    1  0.5467297E-010  0.4778727E+02  0.7816164E-02  0.1312668E+00
        -11   -1    0    0    0    0  0.00000000000E+00  0.00000000000E+00  0.45593999997E+02  0.45594000000E+02  0.51100000000E-03 0.  1.
         11   -1    0    0    0    0 -0.00000000000E+00 -0.00000000000E+00 -0.45593999997E+02  0.45594000000E+02  0.51100000000E-03 0. -1.
    9900012    2    1    2    0    0 -0.21604235427E+02 -0.16948690727E+02  0.33609853541E+02  0.47787270043E+02  0.19999995435E+02 0.  0.
         12    1    1    2    0    0  0.21604235427E+02  0.16948690727E+02 -0.33609853541E+02  0.43400729957E+02  0.00000000000E+00 0. -1.
         11    1    3    3    0    0  0.13556900010E+00 -0.28234580170E+00 -0.13529202420E+01  0.13887013890E+01  0.51100000000E-03 0. -1.
        -11    1    3    3    0    0 -0.17610593082E+02 -0.62003606285E+01  0.26025722858E+02  0.32029919001E+02  0.51100000000E-03 0.  1.
        -12    1    3    3    0    0 -0.41292113445E+01 -0.10465984297E+02  0.89370509251E+01  0.14368649654E+02  0.00000000000E+00 0.  1.
</event>
<event>
 7    1  0.5467297E-010  0.4778727E+02  0.7816164E-02  0.1312668E+00
        -11   -1    0    0    0    0  0.00000000000E+00  0.00000000000E+00  0.45593999997E+02  0.45594000000E+02  0.51100000000E-03 0.  1.
         11   -1    0    0    0    0 -0.00000000000E+00 -0.00000000000E+00 -0.45593999997E+02  0.45594000000E+02  0.51100000000E-03 0. -1.
    9900012    2    1    2    0    0 -0.32070633876E+02  0.23263347139E+01  0.29149372914E+02  0.47787270378E+02  0.19999996963E+02 0.  0.
         12    1    1    2    0    0  0.32070633876E+02 -0.23263347139E+01 -0.29149372914E+02  0.43400729622E+02  0.00000000000E+00 0. -1.
         11    1    3    3    0    0 -0.41302762097E+00  0.46312669700E+01  0.61700667820E+00  0.46904075585E+01  0.51100000000E-03 0. -1.
        -11    1    3    3    0    0 -0.30282986788E+02 -0.22015245139E+01  0.28606783070E+02  0.41716352152E+02  0.51100000000E-03 0.  1.
        -12    1    3    3    0    0 -0.13746194668E+01 -0.10340774213E+00 -0.74416833438E-01  0.13805106681E+01  0.00000000000E+00 0.  1.
</event>
<event>
 7    1  0.5467297E-010  0.4778727E+02  0.7816164E-02  0.1312668E+00
        -11   -1    0    0    0    0  0.00000000000E+00  0.00000000000E+00  0.45593999997E+02  0.45594000000E+02  0.51100000000E-03 0.  1.
         11   -1    0    0    0    0 -0.00000000000E+00 -0.00000000000E+00 -0.45593999997E+02  0.45594000000E+02  0.51100000000E-03 0. -1.
    9900012    2    1    2    0    0  0.14314561033E+02 -0.60514677413E+01  0.40522790198E+02  0.47787269075E+02  0.19999991020E+02 0.  0.
         12    1    1    2    0    0 -0.14314561033E+02  0.60514677413E+01 -0.40522790198E+02  0.43400730925E+02  0.00000000000E+00 0. -1.
         11    1    3    3    0    0  0.15357342611E+02  0.17341979537E+01  0.17945261883E+02  0.23683070724E+02  0.51100000000E-03 0. -1.
        -11    1    3    3    0    0 -0.12803005666E+01 -0.39919086490E+01  0.15656292697E+02  0.16207837780E+02  0.51100000000E-03 0.  1.
         12    1    3    3    0    0  0.23751898869E+00 -0.37937570461E+01  0.69212356178E+01  0.78963605713E+01  0.00000000000E+00 0. -1.
</event>
<event>
 7    1  0.5467297E-010  0.4778727E+02  0.7816164E-02  0.1312668E+00
        -11   -1    0    0    0    0  0.00000000000E+00  0.00000000000E+00  0.45593999997E+02  0.45594000000E+02  0.51100000000E-03 0.  1.
         11   -1    0    0    0    0 -0.00000000000E+00 -0.00000000000E+00 -0.45593999997E+02  0.45594000000E+02  0.51100000000E-03 0. -1.
    9900012    2    1    2    0    0 -0.38210756925E+02  0.13711252478E+01  0.20534883614E+02  0.47787269888E+02  0.19999994726E+02 0.  0.
         12    1    1    2    0    0  0.38210756925E+02 -0.13711252478E+01 -0.20534883614E+02  0.43400730112E+02  0.00000000000E+00 0. -1.
         11    1    3    3    0    0  0.59886959760E+00 -0.11285479218E+01 -0.27094838166E+00  0.13060162684E+01  0.51100000000E-03 0. -1.
        -11    1    3    3    0    0 -0.37949322985E+02  0.51762721887E+01  0.17408232734E+02  0.42071266632E+02  0.51100000000E-03 0.  1.
        -12    1    3    3    0    0 -0.86030353708E+00 -0.26765990192E+01  0.33975992620E+01  0.44099869875E+01  0.00000000000E+00 0.  1.
</event>
<event>
 7    1  0.5467297E-010  0.4778727E+02  0.7816164E-02  0.1312668E+00
        -11   -1    0    0    0    0  0.00000000000E+00  0.00000000000E+00  0.45593999997E+02  0.45594000000E+02  0.51100000000E-03 0.  1.
         11   -1    0    0    0    0 -0.00000000000E+00 -0.00000000000E+00 -0.45593999997E+02  0.45594000000E+02  0.51100000000E-03 0. -1.
    9900012    2    1    2    0    0  0.11570113107E+02 -0.33427001767E+02  0.25147393052E+02  0.47787270262E+02  0.19999996434E+02 0.  0.
         12    1    1    2    0    0 -0.11570113107E+02  0.33427001767E+02 -0.25147393052E+02  0.43400729738E+02  0.00000000000E+00 0. -1.
         11    1    3    3    0    0  0.53930915696E+01 -0.62688457753E+01  0.64429672722E+01  0.10483114593E+02  0.51100000000E-03 0. -1.
        -11    1    3    3    0    0  0.75643244035E+01 -0.41468376175E+01  0.84423108276E+01  0.12070123375E+02  0.51100000000E-03 0.  1.
        -12    1    3    3    0    0 -0.13873028657E+01 -0.23011318374E+02  0.10262114952E+02  0.25234032295E+02  0.00000000000E+00 0.  1.
</event>
<event>
 7    1  0.5467297E-010  0.4778727E+02  0.7816164E-02  0.1312668E+00
        -11   -1    0    0    0    0  0.00000000000E+00  0.00000000000E+00  0.45593999997E+02  0.45594000000E+02  0.51100000000E-03 0.  1.
         11   -1    0    0    0    0 -0.00000000000E+00 -0.00000000000E+00 -0.45593999997E+02  0.45594000000E+02  0.51100000000E-03 0. -1.
    9900012    2    1    2    0    0  0.83255209591E+01 -0.28014069929E+02  0.32086152920E+02  0.47787267029E+02  0.19999981691E+02 0.  0.
         12    1    1    2    0    0 -0.83255209591E+01  0.28014069929E+02 -0.32086152920E+02  0.43400732971E+02  0.00000000000E+00 0. -1.
         11    1    3    3    0    0  0.49220318129E+00  0.34354974620E+00  0.18974595141E+00  0.62951901241E+00  0.51100000000E-03 0. -1.
        -11    1    3    3    0    0  0.17958623702E+01 -0.72473288296E+01  0.21700795319E+02  0.22949366321E+02  0.51100000000E-03 0.  1.
        -12    1    3    3    0    0  0.60374554076E+01 -0.21110290845E+02  0.10195611650E+02  0.24208381695E+02  0.00000000000E+00 0.  1.
</event>
<event>
 7    1  0.5467297E-010  0.4778728E+02  0.7816164E-02  0.1312668E+00
        -11   -1    0    0    0    0  0.00000000000E+00  0.00000000000E+00  0.45593999997E+02  0.45594000000E+02  0.51100000000E-03 0.  1.
         11   -1    0    0    0    0 -0.00000000000E+00 -0.00000000000E+00 -0.45593999997E+02  0.45594000000E+02  0.51100000000E-03 0. -1.
    9900012    2    1    2    0    0  0.46529834690E+01 -0.35875937546E+02  0.23976842885E+02  0.47787284053E+02  0.20000059313E+02 0.  0.
         12    1    1    2    0    0 -0.46529834690E+01  0.35875937546E+02 -0.23976842885E+02  0.43400715947E+02  0.00000000000E+00 0. -1.
         11    1    3    3    0    0  0.28081393445E+01 -0.49475212039E+01  0.37205124014E+01  0.67974866996E+01  0.51100000000E-03 0. -1.
        -11    1    3    3    0    0  0.89821311341E+01 -0.22459906762E+02  0.16557465296E+02  0.29313405615E+02  0.51100000000E-03 0.  1.
        -12    1    3    3    0    0 -0.71372870096E+01 -0.84685095794E+01  0.36988651877E+01  0.11676391738E+02  0.00000000000E+00 0.  1.
</event>
<event>
 7    1  0.5467297E-010  0.4778728E+02  0.7816164E-02  0.1312668E+00
        -11   -1    0    0    0    0  0.00000000000E+00  0.00000000000E+00  0.45593999997E+02  0.45594000000E+02  0.51100000000E-03 0.  1.
         11   -1    0    0    0    0 -0.00000000000E+00 -0.00000000000E+00 -0.45593999997E+02  0.45594000000E+02  0.51100000000E-03 0. -1.
    9900012    2    1    2    0    0 -0.30414422463E+02  0.25019769198E+02  0.18237230555E+02  0.47787279697E+02  0.20000039450E+02 0.  0.
         12    1    1    2    0    0  0.30414422463E+02 -0.25019769198E+02 -0.18237230555E+02  0.43400720303E+02  0.00000000000E+00 0. -1.
         11    1    3    3    0    0 -0.11000561059E+01  0.35069126245E+01 -0.25216116649E+01  0.44572508614E+01  0.51100000000E-03 0. -1.
        -11    1    3    3    0    0 -0.18069072097E+02  0.14533769196E+02  0.19000032604E+02  0.29978709991E+02  0.51100000000E-03 0.  1.
        -12    1    3    3    0    0 -0.11245294260E+02  0.69790873776E+01  0.17588096160E+01  0.13351318845E+02  0.00000000000E+00 0.  1.
</event>
<event>
 7    1  0.5467297E-010  0.4778727E+02  0.7816164E-02  0.1312668E+00
        -11   -1    0    0    0    0  0.00000000000E+00  0.00000000000E+00  0.45593999997E+02  0.45594000000E+02  0.51100000000E-03 0.  1.
         11   -1    0    0    0    0 -0.00000000000E+00 -0.00000000000E+00 -0.45593999997E+02  0.45594000000E+02  0.51100000000E-03 0. -1.
    9900012    2    1    2    0    0 -0.35796204806E+02  0.84794431841E+01  0.23029415620E+02  0.47787271676E+02  0.20000002882E+02 0.  0.
         12    1    1    2    0    0  0.35796204806E+02 -0.84794431841E+01 -0.23029415620E+02  0.43400728324E+02  0.00000000000E+00 0. -1.
         11    1    3    3    0    0  0.21473750147E+01  0.69539392472E+00  0.37296956042E+01  0.43595208137E+01  0.51100000000E-03 0. -1.
        -11    1    3    3    0    0 -0.25689878425E+02  0.35897716627E+01  0.12351945873E+02  0.28730243319E+02  0.51100000000E-03 0.  1.
         12    1    3    3    0    0 -0.12253701395E+02  0.41942775966E+01  0.69477741435E+01  0.14697507543E+02  0.00000000000E+00 0. -1.
</event>
<event>
 7    1  0.5467297E-010  0.4778727E+02  0.7816164E-02  0.1312668E+00
        -11   -1    0    0    0    0  0.00000000000E+00  0.00000000000E+00  0.45593999997E+02  0.45594000000E+02  0.51100000000E-03 0. -1.
         11   -1    0    0    0    0 -0.00000000000E+00 -0.00000000000E+00 -0.45593999997E+02  0.45594000000E+02  0.51100000000E-03 0.  1.
    9900012    2    1    2    0    0 -0.19362656266E+02 -0.38360319835E+02 -0.60989175326E+01  0.47787269700E+02  0.19999993871E+02 0.  0.
         12    1    1    2    0    0  0.19362656266E+02  0.38360319835E+02  0.60989175326E+01  0.43400730300E+02  0.00000000000E+00 0. -1.
         11    1    3    3    0    0 -0.13269850274E+02 -0.11923992074E+02 -0.32874803802E+01  0.18140508283E+02  0.51100000000E-03 0. -1.
        -11    1    3    3    0    0 -0.22941115528E+00 -0.16185408512E+02 -0.62425783459E+01  0.17349059423E+02  0.51100000000E-03 0.  1.
        -12    1    3    3    0    0 -0.58633948369E+01 -0.10250919248E+02  0.34311411935E+01  0.12297701994E+02  0.00000000000E+00 0.  1.
</event>
<event>
 7    1  0.5467297E-010  0.4778727E+02  0.7816164E-02  0.1312668E+00
        -11   -1    0    0    0    0  0.00000000000E+00  0.00000000000E+00  0.45593999997E+02  0.45594000000E+02  0.51100000000E-03 0. -1.
         11   -1    0    0    0    0 -0.00000000000E+00 -0.00000000000E+00 -0.45593999997E+02  0.45594000000E+02  0.51100000000E-03 0.  1.
    9900012    2    1    2    0    0 -0.10780699289E+02 -0.41242849393E+02  0.81503026054E+01  0.47787268027E+02  0.19999986244E+02 0.  0.
         12    1    1    2    0    0  0.10780699289E+02  0.41242849393E+02 -0.81503026054E+01  0.43400731973E+02  0.00000000000E+00 0. -1.
         11    1    3    3    0    0 -0.64881776483E-01 -0.19173767487E+02  0.10937200096E+02  0.22073964652E+02  0.51100000000E-03 0. -1.
        -11    1    3    3    0    0 -0.11009990408E+02 -0.18952442228E+02 -0.65936920806E+00  0.21928285916E+02  0.51100000000E-03 0.  1.
         12    1    3    3    0    0  0.29417289510E+00 -0.31166396779E+01 -0.21275282824E+01  0.37850174592E+01  0.00000000000E+00 0. -1.
</event>
<event>
 7    1  0.5467297E-010  0.4778728E+02  0.7816164E-02  0.1312668E+00
        -11   -1    0    0    0    0  0.00000000000E+00  0.00000000000E+00  0.45593999997E+02  0.45594000000E+02  0.51100000000E-03 0.  1.
         11   -1    0    0    0    0 -0.00000000000E+00 -0.00000000000E+00 -0.45593999997E+02  0.45594000000E+02  0.51100000000E-03 0. -1.
    9900012    2    1    2    0    0 -0.10902611434E+02  0.41869237618E+02 -0.34238585173E+01  0.47787276482E+02  0.20000024790E+02 0.  0.
         12    1    1    2    0    0  0.10902611434E+02 -0.41869237618E+02  0.34238585173E+01  0.43400723518E+02  0.00000000000E+00 0. -1.
         11    1    3    3    0    0 -0.55796615548E+01  0.29182615953E+02  0.25216358869E+01  0.29818054007E+02  0.51100000000E-03 0. -1.
        -11    1    3    3    0    0 -0.44155416961E+01  0.12906680718E+02 -0.79281740738E+01  0.15777685510E+02  0.51100000000E-03 0.  1.
         12    1    3    3    0    0 -0.90740818314E+00 -0.22005905379E+00  0.19826796696E+01  0.21915369653E+01  0.00000000000E+00 0. -1.
</event>
<event>
 7    1  0.5467297E-010  0.4778727E+02  0.7816164E-02  0.1312668E+00
        -11   -1    0    0    0    0  0.00000000000E+00  0.00000000000E+00  0.45593999997E+02  0.45594000000E+02  0.51100000000E-03 0.  1.
         11   -1    0    0    0    0 -0.00000000000E+00 -0.00000000000E+00 -0.45593999997E+02  0.45594000000E+02  0.51100000000E-03 0. -1.
    9900012    2    1    2    0    0 -0.30107704759E+02 -0.37997259845E+01  0.31027590130E+02  0.47787272441E+02  0.20000006366E+02 0.  0.
         12    1    1    2    0    0  0.30107704759E+02  0.37997259845E+01 -0.31027590130E+02  0.43400727559E+02  0.00000000000E+00 0. -1.
         11    1    3    3    0    0 -0.94253146775E+01 -0.10173387000E+02  0.14668512862E+02  0.20186620065E+02  0.51100000000E-03 0. -1.
        -11    1    3    3    0    0 -0.19543368120E+02  0.54235419101E+01  0.16450320395E+02  0.26114576115E+02  0.51100000000E-03 0.  1.
         12    1    3    3    0    0 -0.11390219614E+01  0.95011910532E+00 -0.91243126717E-01  0.14860762601E+01  0.00000000000E+00 0. -1.
</event>
<event>
 7    1  0.5467297E-010  0.4778728E+02  0.7816164E-02  0.1312668E+00
        -11   -1    0    0    0    0  0.00000000000E+00  0.00000000000E+00  0.45593999997E+02  0.45594000000E+02  0.51100000000E-03 0.  1.
         11   -1    0    0    0    0 -0.00000000000E+00 -0.00000000000E+00 -0.45593999997E+02  0.45594000000E+02  0.51100000000E-03 0. -1.
    9900012    2    1    2    0    0 -0.13765366110E+02 -0.31761466749E+01  0.41037170166E+02  0.47787279418E+02  0.20000038176E+02 0.  0.
         12    1    1    2    0    0  0.13765366110E+02  0.31761466749E+01 -0.41037170166E+02  0.43400720582E+02  0.00000000000E+00 0. -1.
         11    1    3    3    0    0 -0.23395245261E+01 -0.30313837655E+00 -0.14865551477E+01  0.27883892038E+01  0.51100000000E-03 0. -1.
        -11    1    3    3    0    0 -0.43571449310E+01  0.14393183803E+00  0.29925616751E+02  0.30241494118E+02  0.51100000000E-03 0.  1.
        -12    1    3    3    0    0 -0.70686966524E+01 -0.30169401364E+01  0.12598108563E+02  0.14757396095E+02  0.00000000000E+00 0.  1.
</event>
<event>
 7    1  0.5467297E-010  0.4778728E+02  0.7816164E-02  0.1312668E+00
        -11   -1    0    0    0    0  0.00000000000E+00  0.00000000000E+00  0.45593999997E+02  0.45594000000E+02  0.51100000000E-03 0.  1.
         11   -1    0    0    0    0 -0.00000000000E+00 -0.00000000000E+00 -0.45593999997E+02  0.45594000000E+02  0.51100000000E-03 0. -1.
    9900012    2    1    2    0    0 -0.44248790045E+01 -0.26372139063E+02  0.34184111258E+02  0.47787277247E+02  0.20000028282E+02 0.  0.
         12    1    1    2    0    0  0.44248790045E+01  0.26372139063E+02 -0.34184111258E+02  0.43400722753E+02  0.00000000000E+00 0. -1.
         11    1    3    3    0    0 -0.75337220231E+01 -0.55776075148E+01  0.82454448948E+01  0.12484151348E+02  0.51100000000E-03 0. -1.
        -11    1    3    3    0    0  0.18682801048E+01 -0.11711073116E+02  0.22643641523E+02  0.25561185531E+02  0.51100000000E-03 0.  1.
        -12    1    3    3    0    0  0.12405629138E+01 -0.90834584327E+01  0.32950248398E+01  0.97419403681E+01  0.00000000000E+00 0.  1.
</event>
<event>
 7    1  0.5467297E-010  0.4778727E+02  0.7816164E-02  0.1312668E+00
        -11   -1    0    0    0    0  0.00000000000E+00  0.00000000000E+00  0.45593999997E+02  0.45594000000E+02  0.51100000000E-03 0. -1.
         11   -1    0    0    0    0 -0.00000000000E+00 -0.00000000000E+00 -0.45593999997E+02  0.45594000000E+02  0.51100000000E-03 0.  1.
    9900012    2    1    2    0    0  0.71385963554E+01 -0.25548782587E+02 -0.34350014314E+02  0.47787270364E+02  0.19999996896E+02 0.  0.
         12    1    1    2    0    0 -0.71385963554E+01  0.25548782587E+02  0.34350014314E+02  0.43400729636E+02  0.00000000000E+00 0. -1.
         11    1    3    3    0    0  0.11087028616E+01 -0.11257174910E+02 -0.75660366076E+01  0.13608751566E+02  0.51100000000E-03 0. -1.
        -11    1    3    3    0    0  0.27471364966E+01 -0.90898990329E+01 -0.26353932935E+02  0.28012547274E+02  0.51100000000E-03 0.  1.
        -12    1    3    3    0    0  0.32827569972E+01 -0.52017086445E+01 -0.43004477111E+00  0.61659715236E+01  0.00000000000E+00 0.  1.
</event>
<event>
 7    1  0.5467297E-010  0.4778727E+02  0.7816164E-02  0.1312668E+00
        -11   -1    0    0    0    0  0.00000000000E+00  0.00000000000E+00  0.45593999997E+02  0.45594000000E+02  0.51100000000E-03 0. -1.
         11   -1    0    0    0    0 -0.00000000000E+00 -0.00000000000E+00 -0.45593999997E+02  0.45594000000E+02  0.51100000000E-03 0.  1.
    9900012    2    1    2    0    0  0.88410133453E+01  0.35479048377E+02 -0.23381545627E+02  0.47787273432E+02  0.20000010887E+02 0.  0.
         12    1    1    2    0    0 -0.88410133453E+01 -0.35479048377E+02  0.23381545627E+02  0.43400726568E+02  0.00000000000E+00 0. -1.
         11    1    3    3    0    0  0.49976660270E+01  0.42978108291E+01 -0.98901360638E+01  0.11885395882E+02  0.51100000000E-03 0. -1.
        -11    1    3    3    0    0  0.65360066944E+01  0.29033848172E+02 -0.11379455896E+02  0.31861822608E+02  0.51100000000E-03 0.  1.
         12    1    3    3    0    0 -0.26926593760E+01  0.21473893763E+01 -0.21119536667E+01  0.40400549426E+01  0.00000000000E+00 0. -1.
</event>
<event>
 7    1  0.5467297E-010  0.4778727E+02  0.7816164E-02  0.1312668E+00
        -11   -1    0    0    0    0  0.00000000000E+00  0.00000000000E+00  0.45593999997E+02  0.45594000000E+02  0.51100000000E-03 0.  1.
         11   -1    0    0    0    0 -0.00000000000E+00 -0.00000000000E+00 -0.45593999997E+02  0.45594000000E+02  0.51100000000E-03 0. -1.
    9900012    2    1    2    0    0  0.13828369753E+02 -0.23935435128E+02  0.33458850322E+02  0.47787268098E+02  0.19999986564E+02 0.  0.
         12    1    1    2    0    0 -0.13828369753E+02  0.23935435128E+02 -0.33458850322E+02  0.43400731902E+02  0.00000000000E+00 0. -1.
         11    1    3    3    0    0  0.85813168899E+01 -0.21167002627E+02  0.19617490403E+02  0.30108585649E+02  0.51100000000E-03 0. -1.
        -11    1    3    3    0    0  0.21765351399E+01 -0.60919681454E+01  0.83759240446E+01  0.10583264381E+02  0.51100000000E-03 0.  1.
         12    1    3    3    0    0  0.30705177229E+01  0.33235356441E+01  0.54654358740E+01  0.70954180678E+01  0.00000000000E+00 0. -1.
</event>
<event>
 7    1  0.5467297E-010  0.4778727E+02  0.7816164E-02  0.1312668E+00
        -11   -1    0    0    0    0  0.00000000000E+00  0.00000000000E+00  0.45593999997E+02  0.45594000000E+02  0.51100000000E-03 0.  1.
         11   -1    0    0    0    0 -0.00000000000E+00 -0.00000000000E+00 -0.45593999997E+02  0.45594000000E+02  0.51100000000E-03 0. -1.
    9900012    2    1    2    0    0 -0.96853494786E+01 -0.17009881331E+02  0.38736041358E+02  0.47787274689E+02  0.20000016618E+02 0.  0.
         12    1    1    2    0    0  0.96853494786E+01  0.17009881331E+02 -0.38736041358E+02  0.43400725311E+02  0.00000000000E+00 0. -1.
         11    1    3    3    0    0 -0.54733131819E+01 -0.16135801320E+02  0.28243599607E+02  0.32985180922E+02  0.51100000000E-03 0. -1.
        -11    1    3    3    0    0 -0.53317974053E+01 -0.25504215348E+01  0.11201448062E+02  0.12665115575E+02  0.51100000000E-03 0.  1.
         12    1    3    3    0    0  0.11197611085E+01  0.16763415243E+01 -0.70900631097E+00  0.21369781925E+01  0.00000000000E+00 0. -1.
</event>
<event>
 7    1  0.5467297E-010  0.4778726E+02  0.7816164E-02  0.1312668E+00
        -11   -1    0    0    0    0  0.00000000000E+00  0.00000000000E+00  0.45593999997E+02  0.45594000000E+02  0.51100000000E-03 0. -1.
         11   -1    0    0    0    0 -0.00000000000E+00 -0.00000000000E+00 -0.45593999997E+02  0.45594000000E+02  0.51100000000E-03 0.  1.
    9900012    2    1    2    0    0  0.95931638890E+01  0.25244214282E+01 -0.42251892458E+02  0.47787263678E+02  0.19999966415E+02 0.  0.
         12    1    1    2    0    0 -0.95931638890E+01 -0.25244214282E+01  0.42251892458E+02  0.43400736322E+02  0.00000000000E+00 0. -1.
         11    1    3    3    0    0  0.16132288693E+01 -0.28179490804E+01 -0.84539156073E+01  0.90560495670E+01  0.51100000000E-03 0. -1.
        -11    1    3    3    0    0  0.12667250839E+02  0.35901324440E+01 -0.19047607321E+02  0.23155121241E+02  0.51100000000E-03 0.  1.
        -12    1    3    3    0    0 -0.46873158192E+01  0.17522380646E+01 -0.14750369530E+02  0.15576092870E+02  0.00000000000E+00 0.  1.
</event>
<event>
 7    1  0.5467297E-010  0.4778727E+02  0.7816164E-02  0.1312668E+00
        -11   -1    0    0    0    0  0.00000000000E+00  0.00000000000E+00  0.45593999997E+02  0.45594000000E+02  0.51100000000E-03 0.  1.
         11   -1    0    0    0    0 -0.00000000000E+00 -0.00000000000E+00 -0.45593999997E+02  0.45594000000E+02  0.51100000000E-03 0. -1.
    9900012    2    1    2    0    0  0.40961477637E+02  0.14158788623E+02  0.23041536496E+01  0.47787273399E+02  0.20000010734E+02 0.  0.
         12    1    1    2    0    0 -0.40961477637E+02 -0.14158788623E+02 -0.23041536496E+01  0.43400726601E+02  0.00000000000E+00 0. -1.
         11    1    3    3    0    0  0.19596509750E+02  0.47598904965E+00  0.30255745251E+01  0.19834411043E+02  0.51100000000E-03 0. -1.
        -11    1    3    3    0    0  0.18881201918E+02  0.10828300871E+02  0.37594191429E+01  0.22088121654E+02  0.51100000000E-03 0.  1.
         12    1    3    3    0    0  0.24837659687E+01  0.28544987021E+01 -0.44808400184E+01  0.58647407017E+01  0.00000000000E+00 0. -1.
</event>
<event>
 7    1  0.5467297E-010  0.4778727E+02  0.7816164E-02  0.1312668E+00
        -11   -1    0    0    0    0  0.00000000000E+00  0.00000000000E+00  0.45593999997E+02  0.45594000000E+02  0.51100000000E-03 0.  1.
         11   -1    0    0    0    0 -0.00000000000E+00 -0.00000000000E+00 -0.45593999997E+02  0.45594000000E+02  0.51100000000E-03 0. -1.
    9900012    2    1    2    0    0  0.40495371077E+02  0.34697148962E+01  0.15222001273E+02  0.47787270480E+02  0.19999997427E+02 0.  0.
         12    1    1    2    0    0 -0.40495371077E+02 -0.34697148962E+01 -0.15222001273E+02  0.43400729520E+02  0.00000000000E+00 0. -1.
         11    1    3    3    0    0  0.34773046611E+02  0.42964990370E+01  0.76340322716E+01  0.35859491402E+02  0.51100000000E-03 0. -1.
        -11    1    3    3    0    0  0.65278845628E+01  0.59098946862E-01  0.29969917289E+01  0.71832255453E+01  0.51100000000E-03 0.  1.
         12    1    3    3    0    0 -0.80556009726E+00 -0.88588308766E+00  0.45909772721E+01  0.47445535331E+01  0.00000000000E+00 0. -1.
</event>
<event>
 7    1  0.5467297E-010  0.4778727E+02  0.7816164E-02  0.1312668E+00
        -11   -1    0    0    0    0  0.00000000000E+00  0.00000000000E+00  0.45593999997E+02  0.45594000000E+02  0.51100000000E-03 0.  1.
         11   -1    0    0    0    0 -0.00000000000E+00 -0.00000000000E+00 -0.45593999997E+02  0.45594000000E+02  0.51100000000E-03 0. -1.
    9900012    2    1    2    0    0  0.18761782496E+02 -0.32972856678E+02  0.21081028762E+02  0.47787268052E+02  0.19999986357E+02 0.  0.
         12    1    1    2    0    0 -0.18761782496E+02  0.32972856678E+02 -0.21081028762E+02  0.43400731948E+02  0.00000000000E+00 0. -1.
         11    1    3    3    0    0  0.68762524750E+01 -0.42476868837E+01 -0.18797498382E+01  0.82981414592E+01  0.51100000000E-03 0. -1.
        -11    1    3    3    0    0  0.76001137534E+01 -0.24310583165E+02  0.21059659903E+02  0.33049590896E+02  0.51100000000E-03 0.  1.
        -12    1    3    3    0    0  0.42854162681E+01 -0.44145866290E+01  0.19011186974E+01  0.64395356973E+01  0.00000000000E+00 0.  1.
</event>
<event>
 7    1  0.5467297E-010  0.4778727E+02  0.7816164E-02  0.1312668E+00
        -11   -1    0    0    0    0  0.00000000000E+00  0.00000000000E+00  0.45593999997E+02  0.45594000000E+02  0.51100000000E-03 0. -1.
         11   -1    0    0    0    0 -0.00000000000E+00 -0.00000000000E+00 -0.45593999997E+02  0.45594000000E+02  0.51100000000E-03 0.  1.
    9900012    2    1    2    0    0  0.39367964847E+02  0.45664433530E+00 -0.18264123960E+02  0.47787269542E+02  0.19999993151E+02 0.  0.
         12    1    1    2    0    0 -0.39367964847E+02 -0.45664433530E+00  0.18264123960E+02  0.43400730458E+02  0.00000000000E+00 0. -1.
         11    1    3    3    0    0 -0.17724323124E+01  0.18309045933E+00 -0.23358550273E+01  0.29379001665E+01  0.51100000000E-03 0. -1.
        -11    1    3    3    0    0  0.29516809837E+02  0.18909806793E+01 -0.14760402664E+02  0.33055821847E+02  0.51100000000E-03 0.  1.
         12    1    3    3    0    0  0.11623587322E+02 -0.16174268033E+01 -0.11678662687E+01  0.11793547529E+02  0.00000000000E+00 0. -1.
</event>
<event>
 7    1  0.5467297E-010  0.4778727E+02  0.7816164E-02  0.1312668E+00
        -11   -1    0    0    0    0  0.00000000000E+00  0.00000000000E+00  0.45593999997E+02  0.45594000000E+02  0.51100000000E-03 0.  1.
         11   -1    0    0    0    0 -0.00000000000E+00 -0.00000000000E+00 -0.45593999997E+02  0.45594000000E+02  0.51100000000E-03 0. -1.
    9900012    2    1    2    0    0  0.65095603368E+01  0.42571638141E+02  0.53762762561E+01  0.47787273092E+02  0.20000009335E+02 0.  0.
         12    1    1    2    0    0 -0.65095603368E+01 -0.42571638141E+02 -0.53762762561E+01  0.43400726908E+02  0.00000000000E+00 0. -1.
         11    1    3    3    0    0 -0.25847202092E+01  0.24308476172E+02  0.10393021391E+02  0.26563088794E+02  0.51100000000E-03 0. -1.
        -11    1    3    3    0    0  0.74053361151E+01  0.16896609280E+02 -0.45796943424E+01  0.19008103763E+02  0.51100000000E-03 0.  1.
        -12    1    3    3    0    0  0.16889444308E+01  0.13665526889E+01 -0.43705079284E+00  0.22160805350E+01  0.00000000000E+00 0.  1.
</event>
<event>
 7    1  0.5467297E-010  0.4778726E+02  0.7816164E-02  0.1312668E+00
        -11   -1    0    0    0    0  0.00000000000E+00  0.00000000000E+00  0.45593999997E+02  0.45594000000E+02  0.51100000000E-03 0.  1.
         11   -1    0    0    0    0 -0.00000000000E+00 -0.00000000000E+00 -0.45593999997E+02  0.45594000000E+02  0.51100000000E-03 0. -1.
    9900012    2    1    2    0    0 -0.12644012914E+02  0.36825053302E+02  0.19174682804E+02  0.47787261828E+02  0.19999957978E+02 0.  0.
         12    1    1    2    0    0  0.12644012914E+02 -0.36825053302E+02 -0.19174682804E+02  0.43400738172E+02  0.00000000000E+00 0. -1.
         11    1    3    3    0    0 -0.12721382032E+01  0.19561468774E+02  0.79615502046E+00  0.19618951534E+02  0.51100000000E-03 0. -1.
        -11    1    3    3    0    0 -0.33307654869E+01  0.72595307375E+01  0.10175287403E+02  0.12935658439E+02  0.51100000000E-03 0.  1.
         12    1    3    3    0    0 -0.80411092244E+01  0.10004053790E+02  0.82032403800E+01  0.15232651855E+02  0.00000000000E+00 0. -1.
</event>
<event>
 7    1  0.5467297E-010  0.4778727E+02  0.7816164E-02  0.1312668E+00
        -11   -1    0    0    0    0  0.00000000000E+00  0.00000000000E+00  0.45593999997E+02  0.45594000000E+02  0.51100000000E-03 0.  1.
         11   -1    0    0    0    0 -0.00000000000E+00 -0.00000000000E+00 -0.45593999997E+02  0.45594000000E+02  0.51100000000E-03 0. -1.
    9900012    2    1    2    0    0  0.13726347607E+02  0.34787570568E+02  0.22023532216E+02  0.47787266642E+02  0.19999979930E+02 0.  0.
         12    1    1    2    0    0 -0.13726347607E+02 -0.34787570568E+02 -0.22023532216E+02  0.43400733358E+02  0.00000000000E+00 0. -1.
         11    1    3    3    0    0 -0.10506666017E+01  0.24748425493E+01  0.85230041301E+01  0.89370210705E+01  0.51100000000E-03 0. -1.
        -11    1    3    3    0    0  0.15018586166E+02  0.31972582203E+02  0.14170846654E+02  0.38060699393E+02  0.51100000000E-03 0.  1.
        -12    1    3    3    0    0 -0.24157195676E+00  0.34014581609E+00 -0.67031856764E+00  0.78954617890E+00  0.00000000000E+00 0.  1.
</event>
<event>
 7    1  0.5467297E-010  0.4778727E+02  0.7816164E-02  0.1312668E+00
        -11   -1    0    0    0    0  0.00000000000E+00  0.00000000000E+00  0.45593999997E+02  0.45594000000E+02  0.51100000000E-03 0.  1.
         11   -1    0    0    0    0 -0.00000000000E+00 -0.00000000000E+00 -0.45593999997E+02  0.45594000000E+02  0.51100000000E-03 0. -1.
    9900012    2    1    2    0    0  0.30676105559E+02 -0.20255220330E+02 -0.23072190001E+02  0.47787270117E+02  0.19999995772E+02 0.  0.
         12    1    1    2    0    0 -0.30676105559E+02  0.20255220330E+02  0.23072190001E+02  0.43400729883E+02  0.00000000000E+00 0. -1.
         11    1    3    3    0    0  0.19285086307E+01  0.57938299253E+00  0.23994190609E+01  0.31324179609E+01  0.51100000000E-03 0. -1.
        -11    1    3    3    0    0  0.22698673292E+02 -0.14449609673E+02 -0.23304133603E+02  0.35596399146E+02  0.51100000000E-03 0.  1.
         12    1    3    3    0    0  0.60489236368E+01 -0.63849936502E+01 -0.21674754592E+01  0.90584530105E+01  0.00000000000E+00 0. -1.
</event>
<event>
 7    1  0.5467297E-010  0.4778727E+02  0.7816164E-02  0.1312668E+00
        -11   -1    0    0    0    0  0.00000000000E+00  0.00000000000E+00  0.45593999997E+02  0.45594000000E+02  0.51100000000E-03 0.  1.
         11   -1    0    0    0    0 -0.00000000000E+00 -0.00000000000E+00 -0.45593999997E+02  0.45594000000E+02  0.51100000000E-03 0. -1.
    9900012    2    1    2    0    0 -0.12723070977E+02 -0.40976290695E+02  0.65337931682E+01  0.47787269737E+02  0.19999994037E+02 0.  0.
         12    1    1    2    0    0  0.12723070977E+02  0.40976290695E+02 -0.65337931682E+01  0.43400730263E+02  0.00000000000E+00 0. -1.
         11    1    3    3    0    0 -0.51095122298E+01 -0.73946515951E+00  0.37338917460E+01  0.63714889767E+01  0.51100000000E-03 0. -1.
        -11    1    3    3    0    0 -0.83175559082E+01 -0.35956716520E+02  0.32800574108E+01  0.37051666306E+02  0.51100000000E-03 0.  1.
         12    1    3    3    0    0  0.70399716119E+00 -0.42801090163E+01 -0.48015598858E+00  0.43641144540E+01  0.00000000000E+00 0. -1.
</event>
<event>
 7    1  0.5467297E-010  0.4778726E+02  0.7816164E-02  0.1312668E+00
        -11   -1    0    0    0    0  0.00000000000E+00  0.00000000000E+00  0.45593999997E+02  0.45594000000E+02  0.51100000000E-03 0.  1.
         11   -1    0    0    0    0 -0.00000000000E+00 -0.00000000000E+00 -0.45593999997E+02  0.45594000000E+02  0.51100000000E-03 0. -1.
    9900012    2    1    2    0    0 -0.39193203833E+02 -0.49794793549E+01  0.17964448898E+02  0.47787264228E+02  0.19999968920E+02 0.  0.
         12    1    1    2    0    0  0.39193203833E+02  0.49794793549E+01 -0.17964448898E+02  0.43400735772E+02  0.00000000000E+00 0. -1.
         11    1    3    3    0    0 -0.72914726582E+01  0.48771891851E+01  0.18637605618E+01  0.89680628658E+01  0.51100000000E-03 0. -1.
        -11    1    3    3    0    0 -0.17272931861E+02  0.68130947464E+00  0.82740968391E+01  0.19164525469E+02  0.51100000000E-03 0.  1.
         12    1    3    3    0    0 -0.14628799314E+02 -0.10537978015E+02  0.78265914970E+01  0.19654675893E+02  0.00000000000E+00 0. -1.
</event>
<event>
 7    1  0.5467297E-010  0.4778727E+02  0.7816164E-02  0.1312668E+00
        -11   -1    0    0    0    0  0.00000000000E+00  0.00000000000E+00  0.45593999997E+02  0.45594000000E+02  0.51100000000E-03 0.  1.
         11   -1    0    0    0    0 -0.00000000000E+00 -0.00000000000E+00 -0.45593999997E+02  0.45594000000E+02  0.51100000000E-03 0. -1.
    9900012    2    1    2    0    0 -0.61501407859E+01  0.97650692257E+00  0.42951664495E+02  0.47787270970E+02  0.19999999660E+02 0.  0.
         12    1    1    2    0    0  0.61501407859E+01 -0.97650692257E+00 -0.42951664495E+02  0.43400729030E+02  0.00000000000E+00 0. -1.
         11    1    3    3    0    0  0.32167056347E+01 -0.36844538725E+01  0.16149408152E+02  0.16873819348E+02  0.51100000000E-03 0. -1.
        -11    1    3    3    0    0  0.29483083799E+00 -0.27694093691E+01  0.25751564453E+01  0.37931496748E+01  0.51100000000E-03 0.  1.
         12    1    3    3    0    0 -0.96616772585E+01  0.74303701642E+01  0.24227099898E+02  0.27120301947E+02  0.00000000000E+00 0. -1.
</event>
<event>
 7    1  0.5467297E-010  0.4778727E+02  0.7816164E-02  0.1312668E+00
        -11   -1    0    0    0    0  0.00000000000E+00  0.00000000000E+00  0.45593999997E+02  0.45594000000E+02  0.51100000000E-03 0.  1.
         11   -1    0    0    0    0 -0.00000000000E+00 -0.00000000000E+00 -0.45593999997E+02  0.45594000000E+02  0.51100000000E-03 0. -1.
    9900012    2    1    2    0    0 -0.92654757072E+01  0.14420836442E+01  0.42375639632E+02  0.47787268675E+02  0.19999989198E+02 0.  0.
         12    1    1    2    0    0  0.92654757072E+01 -0.14420836442E+01 -0.42375639632E+02  0.43400731325E+02  0.00000000000E+00 0. -1.
         11    1    3    3    0    0 -0.91802337516E+01 -0.42975135939E+01  0.40143294065E+02  0.41403253175E+02  0.51100000000E-03 0. -1.
        -11    1    3    3    0    0  0.57163908490E+00  0.39383496028E+01  0.99497502451E+00  0.41021146252E+01  0.51100000000E-03 0.  1.
         12    1    3    3    0    0 -0.65688104057E+00  0.18012476352E+01  0.12373705424E+01  0.22819008751E+01  0.00000000000E+00 0. -1.
</event>
<event>
 7    1  0.6228744E-010  0.4778727E+02  0.7816164E-02  0.1312668E+00
        -11   -1    0    0    0    0  0.00000000000E+00  0.00000000000E+00  0.45593999997E+02  0.45594000000E+02  0.51100000000E-03 0. -1.
         11   -1    0    0    0    0 -0.00000000000E+00 -0.00000000000E+00 -0.45593999997E+02  0.45594000000E+02  0.51100000000E-03 0.  1.
    9900012    2    1    2    0    0  0.47309060701E+01  0.21433667387E+02 -0.37441154246E+02  0.47787267274E+02  0.19999982808E+02 0.  0.
         12    1    1    2    0    0 -0.47309060701E+01 -0.21433667387E+02  0.37441154246E+02  0.43400732726E+02  0.00000000000E+00 0. -1.
         11    1    3    3    0    0  0.47519316379E+01  0.88977346434E+01 -0.69480046316E+01  0.12248481730E+02  0.51100000000E-03 0. -1.
        -11    1    3    3    0    0 -0.65747312214E+01  0.75574099904E+01 -0.16295399871E+02  0.19128031619E+02  0.51100000000E-03 0.  1.
        -12    1    3    3    0    0  0.65537056537E+01  0.49785227530E+01 -0.14197749743E+02  0.16410753925E+02  0.00000000000E+00 0.  1.
</event>
<event>
 7    1  0.5467297E-010  0.4778727E+02  0.7816164E-02  0.1312668E+00
        -11   -1    0    0    0    0  0.00000000000E+00  0.00000000000E+00  0.45593999997E+02  0.45594000000E+02  0.51100000000E-03 0.  1.
         11   -1    0    0    0    0 -0.00000000000E+00 -0.00000000000E+00 -0.45593999997E+02  0.45594000000E+02  0.51100000000E-03 0. -1.
    9900012    2    1    2    0    0  0.10389173717E+01 -0.26910353321E+02  0.34034933572E+02  0.47787272259E+02  0.20000005539E+02 0.  0.
         12    1    1    2    0    0 -0.10389173717E+01  0.26910353321E+02 -0.34034933572E+02  0.43400727741E+02  0.00000000000E+00 0. -1.
         11    1    3    3    0    0 -0.38336349976E+01 -0.22130710927E+02  0.20204163218E+02  0.30210483860E+02  0.51100000000E-03 0.  1.
        -11    1    3    3    0    0  0.36944531190E+01  0.15328030365E+01  0.30560273754E+01  0.50336639317E+01  0.51100000000E-03 0. -1.
        -12    1    3    3    0    0  0.11780992503E+01 -0.63124454300E+01  0.10774742979E+02  0.12543124467E+02  0.00000000000E+00 0.  1.
</event>
<event>
 7    1  0.5467297E-010  0.4778727E+02  0.7816164E-02  0.1312668E+00
        -11   -1    0    0    0    0  0.00000000000E+00  0.00000000000E+00  0.45593999997E+02  0.45594000000E+02  0.51100000000E-03 0.  1.
         11   -1    0    0    0    0 -0.00000000000E+00 -0.00000000000E+00 -0.45593999997E+02  0.45594000000E+02  0.51100000000E-03 0. -1.
    9900012    2    1    2    0    0  0.35880876473E+02  0.90473718773E+01  0.22678870090E+02  0.47787269788E+02  0.19999994272E+02 0.  0.
         12    1    1    2    0    0 -0.35880876473E+02 -0.90473718773E+01 -0.22678870090E+02  0.43400730212E+02  0.00000000000E+00 0. -1.
         11    1    3    3    0    0  0.14224392419E+02  0.11523070832E+02  0.41109061271E+01  0.18762037483E+02  0.51100000000E-03 0. -1.
        -11    1    3    3    0    0  0.16320236174E+02 -0.38169684219E+00  0.15556468400E+02  0.22549933716E+02  0.51100000000E-03 0.  1.
         12    1    3    3    0    0  0.53362478806E+01 -0.20940021126E+01  0.30114955632E+01  0.64752985891E+01  0.00000000000E+00 0. -1.
</event>
<event>
 7    1  0.5467297E-010  0.4778728E+02  0.7816164E-02  0.1312668E+00
        -11   -1    0    0    0    0  0.00000000000E+00  0.00000000000E+00  0.45593999997E+02  0.45594000000E+02  0.51100000000E-03 0. -1.
         11   -1    0    0    0    0 -0.00000000000E+00 -0.00000000000E+00 -0.45593999997E+02  0.45594000000E+02  0.51100000000E-03 0.  1.
    9900012    2    1    2    0    0  0.27366397884E+02  0.70600745272E+01 -0.32937180070E+02  0.47787283226E+02  0.20000055541E+02 0.  0.
         12    1    1    2    0    0 -0.27366397884E+02 -0.70600745272E+01  0.32937180070E+02  0.43400716774E+02  0.00000000000E+00 0. -1.
         11    1    3    3    0    0  0.14271677314E+01  0.28821828855E+01  0.12024239424E+01  0.34336000812E+01  0.51100000000E-03 0. -1.
        -11    1    3    3    0    0  0.20562845051E+02 -0.12853203485E+01 -0.25992447165E+02  0.33167603996E+02  0.51100000000E-03 0.  1.
        -12    1    3    3    0    0  0.53763851024E+01  0.54632119901E+01 -0.81471568481E+01  0.11186079149E+02  0.00000000000E+00 0.  1.
</event>
<event>
 7    1  0.5467297E-010  0.4778727E+02  0.7816164E-02  0.1312668E+00
        -11   -1    0    0    0    0  0.00000000000E+00  0.00000000000E+00  0.45593999997E+02  0.45594000000E+02  0.51100000000E-03 0.  1.
         11   -1    0    0    0    0 -0.00000000000E+00 -0.00000000000E+00 -0.45593999997E+02  0.45594000000E+02  0.51100000000E-03 0. -1.
    9900012    2    1    2    0    0 -0.49844682088E+01 -0.67377798583E-01  0.43113500133E+02  0.47787270089E+02  0.19999995644E+02 0.  0.
         12    1    1    2    0    0  0.49844682088E+01  0.67377798583E-01 -0.43113500133E+02  0.43400729911E+02  0.00000000000E+00 0. -1.
         11    1    3    3    0    0 -0.16539660477E+01  0.61734432375E+01  0.76021954214E+01  0.99317863741E+01  0.51100000000E-03 0. -1.
        -11    1    3    3    0    0 -0.27989447473E+01 -0.55672258318E+01  0.36214135263E+02  0.36746315302E+02  0.51100000000E-03 0.  1.
        -12    1    3    3    0    0 -0.53155741377E+00 -0.67359520437E+00 -0.70283055178E+00  0.11091684128E+01  0.00000000000E+00 0.  1.
</event>
<event>
 7    1  0.5467297E-010  0.4778727E+02  0.7816164E-02  0.1312668E+00
        -11   -1    0    0    0    0  0.00000000000E+00  0.00000000000E+00  0.45593999997E+02  0.45594000000E+02  0.51100000000E-03 0. -1.
         11   -1    0    0    0    0 -0.00000000000E+00 -0.00000000000E+00 -0.45593999997E+02  0.45594000000E+02  0.51100000000E-03 0.  1.
    9900012    2    1    2    0    0  0.71545029878E-01 -0.34988352648E+02 -0.25679437431E+02  0.47787269056E+02  0.19999990932E+02 0.  0.
         12    1    1    2    0    0 -0.71545029878E-01  0.34988352648E+02  0.25679437431E+02  0.43400730944E+02  0.00000000000E+00 0. -1.
         11    1    3    3    0    0  0.79821278667E+01 -0.76499959536E+01 -0.89996540103E+01  0.14255896181E+02  0.51100000000E-03 0. -1.
        -11    1    3    3    0    0 -0.75628619387E+01 -0.26729834478E+02 -0.14695010606E+02  0.31426489923E+02  0.51100000000E-03 0.  1.
        -12    1    3    3    0    0 -0.34772089814E+00 -0.60852221712E+00 -0.19847728149E+01  0.21048829513E+01  0.00000000000E+00 0.  1.
</event>
<event>
 7    1  0.5467297E-010  0.4778727E+02  0.7816164E-02  0.1312668E+00
        -11   -1    0    0    0    0  0.00000000000E+00  0.00000000000E+00  0.45593999997E+02  0.45594000000E+02  0.51100000000E-03 0.  1.
         11   -1    0    0    0    0 -0.00000000000E+00 -0.00000000000E+00 -0.45593999997E+02  0.45594000000E+02  0.51100000000E-03 0. -1.
    9900012    2    1    2    0    0 -0.39395888300E+02 -0.10160062876E+02  0.15111591331E+02  0.47787273219E+02  0.20000009914E+02 0.  0.
         12    1    1    2    0    0  0.39395888300E+02  0.10160062876E+02 -0.15111591331E+02  0.43400726781E+02  0.00000000000E+00 0. -1.
         11    1    3    3    0    0 -0.87990307420E+01  0.20572630292E+01  0.76778213581E+01  0.11857664789E+02  0.51100000000E-03 0. -1.
        -11    1    3    3    0    0 -0.15160013156E+02 -0.12242524670E+02  0.21073572664E+01  0.19599652142E+02  0.51100000000E-03 0.  1.
        -12    1    3    3    0    0 -0.15436844402E+02  0.25198763968E-01  0.53264127066E+01  0.16329956289E+02  0.00000000000E+00 0.  1.
</event>
<event>
 7    1  0.5467297E-010  0.4778726E+02  0.7816164E-02  0.1312668E+00
        -11   -1    0    0    0    0  0.00000000000E+00  0.00000000000E+00  0.45593999997E+02  0.45594000000E+02  0.51100000000E-03 0.  1.
         11   -1    0    0    0    0 -0.00000000000E+00 -0.00000000000E+00 -0.45593999997E+02  0.45594000000E+02  0.51100000000E-03 0. -1.
    9900012    2    1    2    0    0 -0.21900381980E+02  0.28883033219E+01  0.37358463223E+02  0.47787264968E+02  0.19999972297E+02 0.  0.
         12    1    1    2    0    0  0.21900381980E+02 -0.28883033219E+01 -0.37358463223E+02  0.43400735032E+02  0.00000000000E+00 0. -1.
         11    1    3    3    0    0 -0.77580892050E+00 -0.48608442759E+01  0.55507412664E+01  0.74189227940E+01  0.51100000000E-03 0.  1.
        -11    1    3    3    0    0  0.11922139008E+01  0.95817519379E+00  0.19071165864E+01  0.24447019497E+01  0.51100000000E-03 0. -1.
         12    1    3    3    0    0 -0.22316786960E+02  0.67909724040E+01  0.29900605370E+02  0.37923640225E+02  0.00000000000E+00 0. -1.
</event>
<event>
 7    1  0.7567417E-010  0.4778727E+02  0.7816164E-02  0.1312668E+00
        -11   -1    0    0    0    0  0.00000000000E+00  0.00000000000E+00  0.45593999997E+02  0.45594000000E+02  0.51100000000E-03 0. -1.
         11   -1    0    0    0    0 -0.00000000000E+00 -0.00000000000E+00 -0.45593999997E+02  0.45594000000E+02  0.51100000000E-03 0.  1.
    9900012    2    1    2    0    0  0.21577545562E+01  0.14562836216E+02 -0.40827581745E+02  0.47787268042E+02  0.19999986310E+02 0.  0.
         12    1    1    2    0    0 -0.21577545562E+01 -0.14562836216E+02  0.40827581745E+02  0.43400731958E+02  0.00000000000E+00 0. -1.
         11    1    3    3    0    0  0.26833529390E+01 -0.46698473292E-01 -0.19578500536E+01  0.33220085545E+01  0.51100000000E-03 0. -1.
        -11    1    3    3    0    0  0.32611523568E+00  0.14112106941E+02 -0.15082841496E+02  0.20657928776E+02  0.51100000000E-03 0.  1.
        -12    1    3    3    0    0 -0.85171361848E+00  0.49742774817E+00 -0.23786890195E+02  0.23807330711E+02  0.00000000000E+00 0.  1.
</event>
<event>
 7    1  0.5467297E-010  0.4778727E+02  0.7816164E-02  0.1312668E+00
        -11   -1    0    0    0    0  0.00000000000E+00  0.00000000000E+00  0.45593999997E+02  0.45594000000E+02  0.51100000000E-03 0.  1.
         11   -1    0    0    0    0 -0.00000000000E+00 -0.00000000000E+00 -0.45593999997E+02  0.45594000000E+02  0.51100000000E-03 0. -1.
    9900012    2    1    2    0    0  0.19912425963E+02 -0.15277438432E+02  0.35407882295E+02  0.47787274644E+02  0.20000016412E+02 0.  0.
         12    1    1    2    0    0 -0.19912425963E+02  0.15277438432E+02 -0.35407882295E+02  0.43400725356E+02  0.00000000000E+00 0. -1.
         11    1    3    3    0    0 -0.18740217995E+01  0.10473684979E+00  0.71581729266E+00  0.20088111336E+01  0.51100000000E-03 0. -1.
        -11    1    3    3    0    0  0.22043768957E+02 -0.12181608397E+02  0.34285519274E+02  0.42541934196E+02  0.51100000000E-03 0.  1.
        -12    1    3    3    0    0 -0.25732119390E+00 -0.32005668840E+01  0.40654572859E+00  0.32365293148E+01  0.00000000000E+00 0.  1.
</event>
<event>
 7    1  0.5467297E-010  0.4778732E+02  0.7816164E-02  0.1312668E+00
        -11   -1    0    0    0    0  0.00000000000E+00  0.00000000000E+00  0.45593999997E+02  0.45594000000E+02  0.51100000000E-03 0.  1.
         11   -1    0    0    0    0 -0.00000000000E+00 -0.00000000000E+00 -0.45593999997E+02  0.45594000000E+02  0.51100000000E-03 0. -1.
    9900012    2    1    2    0    0  0.77202442734E+01 -0.42687144738E+02 -0.13508501550E+01  0.47787316899E+02  0.20000209067E+02 0.  0.
         12    1    1    2    0    0 -0.77202442734E+01  0.42687144738E+02  0.13508501550E+01  0.43400683101E+02  0.00000000000E+00 0. -1.
         11    1    3    3    0    0  0.36995823664E+00  0.15340684551E+01 -0.12014828078E+00  0.15826152382E+01  0.51100000000E-03 0. -1.
        -11    1    3    3    0    0  0.16981589864E+01 -0.30018428979E+02 -0.49535965897E+01  0.30471756460E+02  0.51100000000E-03 0.  1.
        -12    1    3    3    0    0  0.56521270503E+01 -0.14202784214E+02  0.37228947154E+01  0.15732945201E+02  0.00000000000E+00 0.  1.
</event>
<event>
 7    1  0.5467297E-010  0.4778727E+02  0.7816164E-02  0.1312668E+00
        -11   -1    0    0    0    0  0.00000000000E+00  0.00000000000E+00  0.45593999997E+02  0.45594000000E+02  0.51100000000E-03 0. -1.
         11   -1    0    0    0    0 -0.00000000000E+00 -0.00000000000E+00 -0.45593999997E+02  0.45594000000E+02  0.51100000000E-03 0.  1.
    9900012    2    1    2    0    0 -0.25545062866E+02 -0.26992082685E+02 -0.22416531316E+02  0.47787266818E+02  0.19999980732E+02 0.  0.
         12    1    1    2    0    0  0.25545062866E+02  0.26992082685E+02  0.22416531316E+02  0.43400733182E+02  0.00000000000E+00 0. -1.
         11    1    3    3    0    0 -0.75039099048E+00 -0.78377485630E+01 -0.10166746779E+02  0.12859087429E+02  0.51100000000E-03 0.  1.
        -11    1    3    3    0    0 -0.14447851414E+01 -0.50911811795E+01 -0.33086249129E+01  0.62413563416E+01  0.51100000000E-03 0. -1.
         12    1    3    3    0    0 -0.23349886734E+02 -0.14063152942E+02 -0.89411596236E+01  0.28686823048E+02  0.00000000000E+00 0. -1.
</event>
<event>
 7    1  0.5467297E-010  0.4778727E+02  0.7816164E-02  0.1312668E+00
        -11   -1    0    0    0    0  0.00000000000E+00  0.00000000000E+00  0.45593999997E+02  0.45594000000E+02  0.51100000000E-03 0. -1.
         11   -1    0    0    0    0 -0.00000000000E+00 -0.00000000000E+00 -0.45593999997E+02  0.45594000000E+02  0.51100000000E-03 0.  1.
    9900012    2    1    2    0    0 -0.26559530874E+02  0.33740950134E+02  0.63057659409E+01  0.47787273274E+02  0.20000010168E+02 0.  0.
         12    1    1    2    0    0  0.26559530874E+02 -0.33740950134E+02 -0.63057659409E+01  0.43400726726E+02  0.00000000000E+00 0. -1.
         11    1    3    3    0    0 -0.63513131888E+01  0.15802684987E+00 -0.36262255145E+00  0.63636190241E+01  0.51100000000E-03 0. -1.
        -11    1    3    3    0    0 -0.79960051663E+01  0.20749251503E+02  0.80629062732E+01  0.23653287179E+02  0.51100000000E-03 0.  1.
        -12    1    3    3    0    0 -0.12212212519E+02  0.12833671781E+02 -0.13945177809E+01  0.17770367071E+02  0.00000000000E+00 0.  1.
</event>
<event>
 7    1  0.5467297E-010  0.4778727E+02  0.7816164E-02  0.1312668E+00
        -11   -1    0    0    0    0  0.00000000000E+00  0.00000000000E+00  0.45593999997E+02  0.45594000000E+02  0.51100000000E-03 0.  1.
         11   -1    0    0    0    0 -0.00000000000E+00 -0.00000000000E+00 -0.45593999997E+02  0.45594000000E+02  0.51100000000E-03 0. -1.
    9900012    2    1    2    0    0 -0.32495094484E+02 -0.12710564830E+02  0.25809558454E+02  0.47787274989E+02  0.20000017986E+02 0.  0.
         12    1    1    2    0    0  0.32495094484E+02  0.12710564830E+02 -0.25809558454E+02  0.43400725011E+02  0.00000000000E+00 0. -1.
         11    1    3    3    0    0 -0.10706358835E+02 -0.17008665559E+01 -0.59719616148E+00  0.10857058075E+02  0.51100000000E-03 0. -1.
        -11    1    3    3    0    0 -0.15802427584E+01 -0.41999404612E+01  0.43258756280E+01  0.62329661690E+01  0.51100000000E-03 0.  1.
         12    1    3    3    0    0 -0.20208492891E+02 -0.68097578132E+01  0.22080878988E+02  0.30697250745E+02  0.00000000000E+00 0. -1.
</event>
<event>
 7    1  0.5467297E-010  0.4778727E+02  0.7816164E-02  0.1312668E+00
        -11   -1    0    0    0    0  0.00000000000E+00  0.00000000000E+00  0.45593999997E+02  0.45594000000E+02  0.51100000000E-03 0.  1.
         11   -1    0    0    0    0 -0.00000000000E+00 -0.00000000000E+00 -0.45593999997E+02  0.45594000000E+02  0.51100000000E-03 0. -1.
    9900012    2    1    2    0    0 -0.56356016571E+01  0.18406619224E+02  0.38898068400E+02  0.47787270023E+02  0.19999995343E+02 0.  0.
         12    1    1    2    0    0  0.56356016571E+01 -0.18406619224E+02 -0.38898068400E+02  0.43400729977E+02  0.00000000000E+00 0. -1.
         11    1    3    3    0    0  0.11747966596E+01 -0.38096108605E+01  0.49879408223E+01  0.63853610711E+01  0.51100000000E-03 0.  1.
        -11    1    3    3    0    0 -0.54926934793E+01  0.14424865847E+02  0.18579466406E+02  0.24154564963E+02  0.51100000000E-03 0. -1.
        -12    1    3    3    0    0 -0.13177048374E+01  0.77913642374E+01  0.15330661171E+02  0.17247343989E+02  0.00000000000E+00 0.  1.
</event>
<event>
 7    1  0.5467297E-010  0.4778727E+02  0.7816164E-02  0.1312668E+00
        -11   -1    0    0    0    0  0.00000000000E+00  0.00000000000E+00  0.45593999997E+02  0.45594000000E+02  0.51100000000E-03 0.  1.
         11   -1    0    0    0    0 -0.00000000000E+00 -0.00000000000E+00 -0.45593999997E+02  0.45594000000E+02  0.51100000000E-03 0. -1.
    9900012    2    1    2    0    0 -0.12170695291E+02  0.31080620236E+02  0.27739725097E+02  0.47787272741E+02  0.20000007737E+02 0.  0.
         12    1    1    2    0    0  0.12170695291E+02 -0.31080620236E+02 -0.27739725097E+02  0.43400727259E+02  0.00000000000E+00 0. -1.
         11    1    3    3    0    0  0.57735759175E+00 -0.55458506745E+00  0.25899833938E+01  0.27108892686E+01  0.51100000000E-03 0. -1.
        -11    1    3    3    0    0 -0.39451035164E+01  0.18455881557E+02  0.21877844206E+02  0.28893311911E+02  0.51100000000E-03 0.  1.
        -12    1    3    3    0    0 -0.88029493665E+01  0.13179323746E+02  0.32718974974E+01  0.16183071562E+02  0.00000000000E+00 0.  1.
</event>
<event>
 7    1  0.5467297E-010  0.4778727E+02  0.7816164E-02  0.1312668E+00
        -11   -1    0    0    0    0  0.00000000000E+00  0.00000000000E+00  0.45593999997E+02  0.45594000000E+02  0.51100000000E-03 0.  1.
         11   -1    0    0    0    0 -0.00000000000E+00 -0.00000000000E+00 -0.45593999997E+02  0.45594000000E+02  0.51100000000E-03 0. -1.
    9900012    2    1    2    0    0 -0.37015038906E+02  0.22475313433E+02  0.28931719847E+01  0.47787271167E+02  0.20000000558E+02 0.  0.
         12    1    1    2    0    0  0.37015038906E+02 -0.22475313433E+02 -0.28931719847E+01  0.43400728833E+02  0.00000000000E+00 0. -1.
         11    1    3    3    0    0 -0.11595872465E+02  0.45282806575E+01 -0.51175338858E+01  0.13459522178E+02  0.51100000000E-03 0. -1.
        -11    1    3    3    0    0 -0.26169479380E+02  0.18787160764E+02  0.80322252193E+01  0.33201140083E+02  0.51100000000E-03 0.  1.
        -12    1    3    3    0    0  0.75031293909E+00 -0.84012798818E+00 -0.21519348812E-01  0.11266089053E+01  0.00000000000E+00 0.  1.
</event>
<event>
 7    1  0.5467297E-010  0.4778727E+02  0.7816164E-02  0.1312668E+00
        -11   -1    0    0    0    0  0.00000000000E+00  0.00000000000E+00  0.45593999997E+02  0.45594000000E+02  0.51100000000E-03 0.  1.
         11   -1    0    0    0    0 -0.00000000000E+00 -0.00000000000E+00 -0.45593999997E+02  0.45594000000E+02  0.51100000000E-03 0. -1.
    9900012    2    1    2    0    0  0.25107963204E+02  0.28323839915E+02  0.21236137679E+02  0.47787271120E+02  0.20000000344E+02 0.  0.
         12    1    1    2    0    0 -0.25107963204E+02 -0.28323839915E+02 -0.21236137679E+02  0.43400728880E+02  0.00000000000E+00 0. -1.
         11    1    3    3    0    0  0.27046484731E+01 -0.95739189016E+00  0.46652177113E+01  0.54768585110E+01  0.51100000000E-03 0. -1.
        -11    1    3    3    0    0  0.20220043210E+02  0.30242472270E+02  0.14539736341E+02  0.39177304776E+02  0.51100000000E-03 0.  1.
        -12    1    3    3    0    0  0.21832715210E+01 -0.96124046458E+00  0.20311836268E+01  0.31331078326E+01  0.00000000000E+00 0.  1.
</event>
<event>
 7    1  0.5467297E-010  0.4778729E+02  0.7816164E-02  0.1312668E+00
        -11   -1    0    0    0    0  0.00000000000E+00  0.00000000000E+00  0.45593999997E+02  0.45594000000E+02  0.51100000000E-03 0.  1.
         11   -1    0    0    0    0 -0.00000000000E+00 -0.00000000000E+00 -0.45593999997E+02  0.45594000000E+02  0.51100000000E-03 0. -1.
    9900012    2    1    2    0    0  0.22778147728E+02 -0.27666919572E+02  0.24481003906E+02  0.47787285665E+02  0.20000066662E+02 0.  0.
         12    1    1    2    0    0 -0.22778147728E+02  0.27666919572E+02 -0.24481003906E+02  0.43400714335E+02  0.00000000000E+00 0. -1.
         11    1    3    3    0    0  0.19993280515E+01  0.30244975372E+01  0.33268191806E+01  0.49206324930E+01  0.51100000000E-03 0. -1.
        -11    1    3    3    0    0  0.20574185940E+02 -0.28977113280E+02  0.20449881074E+02  0.41002046990E+02  0.51100000000E-03 0.  1.
         12    1    3    3    0    0  0.20463373692E+00 -0.17143038283E+01  0.70430365220E+00  0.18646061826E+01  0.00000000000E+00 0. -1.
</event>
<event>
 7    1  0.5467297E-010  0.4778726E+02  0.7816164E-02  0.1312668E+00
        -11   -1    0    0    0    0  0.00000000000E+00  0.00000000000E+00  0.45593999997E+02  0.45594000000E+02  0.51100000000E-03 0.  1.
         11   -1    0    0    0    0 -0.00000000000E+00 -0.00000000000E+00 -0.45593999997E+02  0.45594000000E+02  0.51100000000E-03 0. -1.
    9900012    2    1    2    0    0  0.19576008246E+02  0.30087895548E+02  0.24395143537E+02  0.47787255933E+02  0.19999931102E+02 0.  0.
         12    1    1    2    0    0 -0.19576008246E+02 -0.30087895548E+02 -0.24395143537E+02  0.43400744067E+02  0.00000000000E+00 0. -1.
         11    1    3    3    0    0  0.36674748595E+01  0.47843276662E+01 -0.20595547820E+01  0.63703947463E+01  0.51100000000E-03 0. -1.
        -11    1    3    3    0    0  0.12434698196E+02  0.25353116950E+02  0.22174795233E+02  0.35904370239E+02  0.51100000000E-03 0.  1.
         12    1    3    3    0    0  0.34738351901E+01 -0.49549068018E-01  0.42799030852E+01  0.55124909484E+01  0.00000000000E+00 0. -1.
</event>
<event>
 7    1  0.5467297E-010  0.4778727E+02  0.7816164E-02  0.1312668E+00
        -11   -1    0    0    0    0  0.00000000000E+00  0.00000000000E+00  0.45593999997E+02  0.45594000000E+02  0.51100000000E-03 0.  1.
         11   -1    0    0    0    0 -0.00000000000E+00 -0.00000000000E+00 -0.45593999997E+02  0.45594000000E+02  0.51100000000E-03 0. -1.
    9900012    2    1    2    0    0 -0.40282617745E+02  0.19220918727E+01  0.16038689652E+02  0.47787270797E+02  0.19999998873E+02 0.  0.
         12    1    1    2    0    0  0.40282617745E+02 -0.19220918727E+01 -0.16038689652E+02  0.43400729203E+02  0.00000000000E+00 0. -1.
         11    1    3    3    0    0  0.10112009282E+01  0.13618779384E+01  0.85095265648E+00  0.18977248276E+01  0.51100000000E-03 0. -1.
        -11    1    3    3    0    0 -0.39875759075E+02  0.41589487537E+00  0.10855810316E+02  0.41329139215E+02  0.51100000000E-03 0.  1.
        -12    1    3    3    0    0 -0.14180595983E+01  0.14431905886E+00  0.43319266792E+01  0.45604067548E+01  0.00000000000E+00 0.  1.
</event>
<event>
 7    1  0.5467297E-010  0.4778727E+02  0.7816164E-02  0.1312668E+00
        -11   -1    0    0    0    0  0.00000000000E+00  0.00000000000E+00  0.45593999997E+02  0.45594000000E+02  0.51100000000E-03 0.  1.
         11   -1    0    0    0    0 -0.00000000000E+00 -0.00000000000E+00 -0.45593999997E+02  0.45594000000E+02  0.51100000000E-03 0. -1.
    9900012    2    1    2    0    0  0.42904604240E+02  0.58523425173E+01  0.29272039954E+01  0.47787268426E+02  0.19999988059E+02 0.  0.
         12    1    1    2    0    0 -0.42904604240E+02 -0.58523425173E+01 -0.29272039954E+01  0.43400731574E+02  0.00000000000E+00 0. -1.
         11    1    3    3    0    0  0.96711946985E+00  0.35537586881E+00 -0.29058556518E+01  0.30831168332E+01  0.51100000000E-03 0. -1.
        -11    1    3    3    0    0  0.40052685726E+02  0.83383091865E+01  0.54596573609E+01  0.41274118922E+02  0.51100000000E-03 0.  1.
        -12    1    3    3    0    0  0.18847990441E+01 -0.28413425380E+01  0.37340228621E+00  0.34300326707E+01  0.00000000000E+00 0.  1.
</event>
<event>
 7    1  0.5467297E-010  0.4778727E+02  0.7816164E-02  0.1312668E+00
        -11   -1    0    0    0    0  0.00000000000E+00  0.00000000000E+00  0.45593999997E+02  0.45594000000E+02  0.51100000000E-03 0.  1.
         11   -1    0    0    0    0 -0.00000000000E+00 -0.00000000000E+00 -0.45593999997E+02  0.45594000000E+02  0.51100000000E-03 0. -1.
    9900012    2    1    2    0    0  0.43042655284E+02 -0.23572913664E+01  0.50394614222E+01  0.47787272265E+02  0.20000005566E+02 0.  0.
         12    1    1    2    0    0 -0.43042655284E+02  0.23572913664E+01 -0.50394614222E+01  0.43400727735E+02  0.00000000000E+00 0. -1.
         11    1    3    3    0    0  0.92412160045E+01  0.14495375835E+01  0.53450627288E+01  0.10773621874E+02  0.51100000000E-03 0. -1.
        -11    1    3    3    0    0  0.26980475949E+02 -0.68531530597E+01 -0.48689040962E+01  0.28259830443E+02  0.51100000000E-03 0.  1.
        -12    1    3    3    0    0  0.68209633304E+01  0.30463241098E+01  0.45633027895E+01  0.87538199482E+01  0.00000000000E+00 0.  1.
</event>
<event>
 7    1  0.5467297E-010  0.4778727E+02  0.7816164E-02  0.1312668E+00
        -11   -1    0    0    0    0  0.00000000000E+00  0.00000000000E+00  0.45593999997E+02  0.45594000000E+02  0.51100000000E-03 0. -1.
         11   -1    0    0    0    0 -0.00000000000E+00 -0.00000000000E+00 -0.45593999997E+02  0.45594000000E+02  0.51100000000E-03 0.  1.
    9900012    2    1    2    0    0 -0.43171386362E+02 -0.11851558533E+01 -0.42953337757E+01  0.47787273196E+02  0.20000009812E+02 0.  0.
         12    1    1    2    0    0  0.43171386362E+02  0.11851558533E+01  0.42953337757E+01  0.43400726804E+02  0.00000000000E+00 0. -1.
         11    1    3    3    0    0  0.56872276882E+00 -0.27328720090E+00 -0.64723067207E+00  0.90390225464E+00  0.51100000000E-03 0. -1.
        -11    1    3    3    0    0 -0.26111176719E+02  0.37659325303E+01 -0.90018033106E+01  0.27874867902E+02  0.51100000000E-03 0.  1.
        -12    1    3    3    0    0 -0.17628932412E+02 -0.46778011827E+01  0.53537002070E+01  0.19008503040E+02  0.00000000000E+00 0.  1.
</event>
<event>
 7    1  0.5467297E-010  0.4778727E+02  0.7816164E-02  0.1312668E+00
        -11   -1    0    0    0    0  0.00000000000E+00  0.00000000000E+00  0.45593999997E+02  0.45594000000E+02  0.51100000000E-03 0.  1.
         11   -1    0    0    0    0 -0.00000000000E+00 -0.00000000000E+00 -0.45593999997E+02  0.45594000000E+02  0.51100000000E-03 0. -1.
    9900012    2    1    2    0    0 -0.10625959447E+02 -0.40723708788E+02  0.10596794419E+02  0.47787268167E+02  0.19999986882E+02 0.  0.
         12    1    1    2    0    0  0.10625959447E+02  0.40723708788E+02 -0.10596794419E+02  0.43400731833E+02  0.00000000000E+00 0. -1.
         11    1    3    3    0    0 -0.18227706397E+01 -0.45201513317E+01  0.59943378589E+00  0.49105582159E+01  0.51100000000E-03 0. -1.
        -11    1    3    3    0    0 -0.25733598774E+01 -0.34800715833E+02  0.61854828844E+01  0.35439698112E+02  0.51100000000E-03 0.  1.
        -12    1    3    3    0    0 -0.62298289304E+01 -0.14028416239E+01  0.38118777485E+01  0.74370118389E+01  0.00000000000E+00 0.  1.
</event>
<event>
 7    1  0.5467297E-010  0.4778728E+02  0.7816164E-02  0.1312668E+00
        -11   -1    0    0    0    0  0.00000000000E+00  0.00000000000E+00  0.45593999997E+02  0.45594000000E+02  0.51100000000E-03 0.  1.
         11   -1    0    0    0    0 -0.00000000000E+00 -0.00000000000E+00 -0.45593999997E+02  0.45594000000E+02  0.51100000000E-03 0. -1.
    9900012    2    1    2    0    0 -0.28515329075E+02  0.82088601600E+00  0.32708180045E+02  0.47787275491E+02  0.20000020272E+02 0.  0.
         12    1    1    2    0    0  0.28515329075E+02 -0.82088601600E+00 -0.32708180045E+02  0.43400724509E+02  0.00000000000E+00 0. -1.
         11    1    3    3    0    0 -0.19762851281E+02  0.55659941653E+01  0.21472353032E+02  0.29708795445E+02  0.51100000000E-03 0. -1.
        -11    1    3    3    0    0 -0.25964166555E+01  0.31847544110E+01  0.36454468331E+01  0.54930249391E+01  0.51100000000E-03 0.  1.
         12    1    3    3    0    0 -0.61560611384E+01 -0.79298625603E+01  0.75903801798E+01  0.12585455107E+02  0.00000000000E+00 0. -1.
</event>
<event>
 7    1  0.5467297E-010  0.4778728E+02  0.7816164E-02  0.1312668E+00
        -11   -1    0    0    0    0  0.00000000000E+00  0.00000000000E+00  0.45593999997E+02  0.45594000000E+02  0.51100000000E-03 0.  1.
         11   -1    0    0    0    0 -0.00000000000E+00 -0.00000000000E+00 -0.45593999997E+02  0.45594000000E+02  0.51100000000E-03 0. -1.
    9900012    2    1    2    0    0 -0.24257284118E+02  0.22618724358E+02  0.27992859124E+02  0.47787277814E+02  0.20000030863E+02 0.  0.
         12    1    1    2    0    0  0.24257284118E+02 -0.22618724358E+02 -0.27992859124E+02  0.43400722186E+02  0.00000000000E+00 0. -1.
         11    1    3    3    0    0 -0.73804623771E+00 -0.19180103777E+01  0.44646913875E+01  0.49149715671E+01  0.51100000000E-03 0. -1.
        -11    1    3    3    0    0 -0.17212154654E+02  0.21390193686E+02  0.22978720892E+02  0.35802517619E+02  0.51100000000E-03 0.  1.
         12    1    3    3    0    0 -0.63070832261E+01  0.31465410498E+01  0.54944684408E+00  0.70697886273E+01  0.00000000000E+00 0. -1.
</event>
<event>
 7    1  0.5467297E-010  0.4778727E+02  0.7816164E-02  0.1312668E+00
        -11   -1    0    0    0    0  0.00000000000E+00  0.00000000000E+00  0.45593999997E+02  0.45594000000E+02  0.51100000000E-03 0. -1.
         11   -1    0    0    0    0 -0.00000000000E+00 -0.00000000000E+00 -0.45593999997E+02  0.45594000000E+02  0.51100000000E-03 0.  1.
    9900012    2    1    2    0    0 -0.26262977213E+02  0.23377631348E+02 -0.25443386320E+02  0.47787268129E+02  0.19999986705E+02 0.  0.
         12    1    1    2    0    0  0.26262977213E+02 -0.23377631348E+02  0.25443386320E+02  0.43400731871E+02  0.00000000000E+00 0. -1.
         11    1    3    3    0    0 -0.43157712431E+01  0.32167031768E+00 -0.10047925225E+02  0.10940299576E+02  0.51100000000E-03 0. -1.
        -11    1    3    3    0    0 -0.76445722639E+01  0.14912294995E+02 -0.10059325819E+02  0.19544975398E+02  0.51100000000E-03 0.  1.
         12    1    3    3    0    0 -0.14302633707E+02  0.81436660352E+01 -0.53361352756E+01  0.17301993154E+02  0.00000000000E+00 0. -1.
</event>
<event>
 7    1  0.5467297E-010  0.4778726E+02  0.7816164E-02  0.1312668E+00
        -11   -1    0    0    0    0  0.00000000000E+00  0.00000000000E+00  0.45593999997E+02  0.45594000000E+02  0.51100000000E-03 0.  1.
         11   -1    0    0    0    0 -0.00000000000E+00 -0.00000000000E+00 -0.45593999997E+02  0.45594000000E+02  0.51100000000E-03 0. -1.
    9900012    2    1    2    0    0  0.12006155214E+02  0.28093251520E+02  0.30826051509E+02  0.47787262730E+02  0.19999962089E+02 0.  0.
         12    1    1    2    0    0 -0.12006155214E+02 -0.28093251520E+02 -0.30826051509E+02  0.43400737270E+02  0.00000000000E+00 0. -1.
         11    1    3    3    0    0  0.13757843067E+02  0.20216047352E+02  0.16123079406E+02  0.29290280064E+02  0.51100000000E-03 0. -1.
        -11    1    3    3    0    0  0.30925456542E+01  0.32878222975E+01  0.66731834720E+01  0.80563634473E+01  0.51100000000E-03 0.  1.
         12    1    3    3    0    0 -0.48442335071E+01  0.45893818705E+01  0.80297886301E+01  0.10440619219E+02  0.00000000000E+00 0. -1.
</event>
<event>
 7    1  0.5467297E-010  0.4778727E+02  0.7816164E-02  0.1312668E+00
        -11   -1    0    0    0    0  0.00000000000E+00  0.00000000000E+00  0.45593999997E+02  0.45594000000E+02  0.51100000000E-03 0. -1.
         11   -1    0    0    0    0 -0.00000000000E+00 -0.00000000000E+00 -0.45593999997E+02  0.45594000000E+02  0.51100000000E-03 0.  1.
    9900012    2    1    2    0    0 -0.39706708785E+02  0.12480649933E+02  0.12297740616E+02  0.47787265334E+02  0.19999973965E+02 0.  0.
         12    1    1    2    0    0  0.39706708785E+02 -0.12480649933E+02 -0.12297740616E+02  0.43400734666E+02  0.00000000000E+00 0. -1.
         11    1    3    3    0    0 -0.17697691560E+02  0.30872392136E+00  0.10703744672E+02  0.20685109313E+02  0.51100000000E-03 0. -1.
        -11    1    3    3    0    0 -0.20403631725E+02  0.13885223592E+02  0.17973281597E+01  0.24745464443E+02  0.51100000000E-03 0.  1.
         12    1    3    3    0    0 -0.16053855001E+01 -0.17132975805E+01 -0.20333221587E+00  0.23566915779E+01  0.00000000000E+00 0. -1.
</event>
<event>
 7    1  0.5467297E-010  0.4778727E+02  0.7816164E-02  0.1312668E+00
        -11   -1    0    0    0    0  0.00000000000E+00  0.00000000000E+00  0.45593999997E+02  0.45594000000E+02  0.51100000000E-03 0. -1.
         11   -1    0    0    0    0 -0.00000000000E+00 -0.00000000000E+00 -0.45593999997E+02  0.45594000000E+02  0.51100000000E-03 0.  1.
    9900012    2    1    2    0    0  0.28062596825E+01 -0.22262461236E+02 -0.37150116220E+02  0.47787269489E+02  0.19999992910E+02 0.  0.
         12    1    1    2    0    0 -0.28062596825E+01  0.22262461236E+02  0.37150116220E+02  0.43400730511E+02  0.00000000000E+00 0. -1.
         11    1    3    3    0    0 -0.16432676267E+01 -0.10332059205E+02 -0.80768643068E+01  0.13216940387E+02  0.51100000000E-03 0. -1.
        -11    1    3    3    0    0  0.33825025108E+01 -0.38743053856E+01 -0.24917839407E+02  0.25443079343E+02  0.51100000000E-03 0.  1.
        -12    1    3    3    0    0  0.10670247984E+01 -0.80560966456E+01 -0.41554125063E+01  0.91272497600E+01  0.00000000000E+00 0.  1.
</event>
<event>
 7    1  0.5467297E-010  0.4778727E+02  0.7816164E-02  0.1312668E+00
        -11   -1    0    0    0    0  0.00000000000E+00  0.00000000000E+00  0.45593999997E+02  0.45594000000E+02  0.51100000000E-03 0. -1.
         11   -1    0    0    0    0 -0.00000000000E+00 -0.00000000000E+00 -0.45593999997E+02  0.45594000000E+02  0.51100000000E-03 0.  1.
    9900012    2    1    2    0    0 -0.39910573962E+02 -0.31520220305E+01 -0.16758095808E+02  0.47787274983E+02  0.20000017959E+02 0.  0.
         12    1    1    2    0    0  0.39910573962E+02  0.31520220305E+01  0.16758095808E+02  0.43400725017E+02  0.00000000000E+00 0. -1.
         11    1    3    3    0    0  0.11753026753E+01  0.91202462840E+00 -0.90526747141E-01  0.14904095593E+01  0.51100000000E-03 0. -1.
        -11    1    3    3    0    0 -0.40927630829E+02 -0.39069429537E+01 -0.18046504577E+02  0.44900016661E+02  0.51100000000E-03 0.  1.
        -12    1    3    3    0    0 -0.15824580861E+00 -0.15710370527E+00  0.13789355155E+01  0.13968487628E+01  0.00000000000E+00 0.  1.
</event>
<event>
 7    1  0.5467297E-010  0.4778727E+02  0.7816164E-02  0.1312668E+00
        -11   -1    0    0    0    0  0.00000000000E+00  0.00000000000E+00  0.45593999997E+02  0.45594000000E+02  0.51100000000E-03 0.  1.
         11   -1    0    0    0    0 -0.00000000000E+00 -0.00000000000E+00 -0.45593999997E+02  0.45594000000E+02  0.51100000000E-03 0. -1.
    9900012    2    1    2    0    0  0.66230668935E+01  0.28549679370E+02  0.32010527350E+02  0.47787273412E+02  0.20000010792E+02 0.  0.
         12    1    1    2    0    0 -0.66230668935E+01 -0.28549679370E+02 -0.32010527350E+02  0.43400726588E+02  0.00000000000E+00 0. -1.
         11    1    3    3    0    0  0.64747106634E+00  0.20681520732E+01 -0.16511386263E+01  0.27244689031E+01  0.51100000000E-03 0. -1.
        -11    1    3    3    0    0  0.39438251859E+01  0.26888575309E+02  0.27937090655E+02  0.38974738918E+02  0.51100000000E-03 0.  1.
        -12    1    3    3    0    0  0.20317706412E+01 -0.40704801191E+00  0.57245753209E+01  0.60880655900E+01  0.00000000000E+00 0.  1.
</event>
<event>
 7    1  0.5467297E-010  0.4778725E+02  0.7816164E-02  0.1312668E+00
        -11   -1    0    0    0    0  0.00000000000E+00  0.00000000000E+00  0.45593999997E+02  0.45594000000E+02  0.51100000000E-03 0.  1.
         11   -1    0    0    0    0 -0.00000000000E+00 -0.00000000000E+00 -0.45593999997E+02  0.45594000000E+02  0.51100000000E-03 0. -1.
    9900012    2    1    2    0    0  0.40214263652E+02  0.67950273496E+01 -0.14841344612E+02  0.47787252223E+02  0.19999914184E+02 0.  0.
         12    1    1    2    0    0 -0.40214263652E+02 -0.67950273496E+01  0.14841344612E+02  0.43400747777E+02  0.00000000000E+00 0. -1.
         11    1    3    3    0    0  0.48126104647E+01  0.70204586568E+01 -0.16570760947E+01  0.86714451323E+01  0.51100000000E-03 0. -1.
        -11    1    3    3    0    0  0.27430457884E+02  0.35298775832E+01 -0.75928211395E+01  0.28679975394E+02  0.51100000000E-03 0.  1.
         12    1    3    3    0    0  0.79711953029E+01 -0.37553088904E+01 -0.55914473773E+01  0.10435831696E+02  0.00000000000E+00 0. -1.
</event>
<event>
 7    1  0.5467297E-010  0.4778727E+02  0.7816164E-02  0.1312668E+00
        -11   -1    0    0    0    0  0.00000000000E+00  0.00000000000E+00  0.45593999997E+02  0.45594000000E+02  0.51100000000E-03 0.  1.
         11   -1    0    0    0    0 -0.00000000000E+00 -0.00000000000E+00 -0.45593999997E+02  0.45594000000E+02  0.51100000000E-03 0. -1.
    9900012    2    1    2    0    0 -0.40936506118E+02  0.14118334213E+02  0.29152780782E+01  0.47787265671E+02  0.19999975499E+02 0.  0.
         12    1    1    2    0    0  0.40936506118E+02 -0.14118334213E+02 -0.29152780782E+01  0.43400734329E+02  0.00000000000E+00 0. -1.
         11    1    3    3    0    0 -0.11711779806E+02  0.89604838252E+01  0.80828678190E+01  0.16816325670E+02  0.51100000000E-03 0. -1.
        -11    1    3    3    0    0 -0.22024084358E+02  0.51592652444E+01 -0.67350286079E+01  0.23601671980E+02  0.51100000000E-03 0.  1.
        -12    1    3    3    0    0 -0.72006419537E+01 -0.14148569813E-02  0.15674388671E+01  0.73692680199E+01  0.00000000000E+00 0.  1.
</event>
<event>
 7    1  0.5467297E-010  0.4778727E+02  0.7816164E-02  0.1312668E+00
        -11   -1    0    0    0    0  0.00000000000E+00  0.00000000000E+00  0.45593999997E+02  0.45594000000E+02  0.51100000000E-03 0.  1.
         11   -1    0    0    0    0 -0.00000000000E+00 -0.00000000000E+00 -0.45593999997E+02  0.45594000000E+02  0.51100000000E-03 0. -1.
    9900012    2    1    2    0    0 -0.75041949171E+01 -0.10455078072E+02  0.41448785189E+02  0.47787269678E+02  0.19999993771E+02 0.  0.
         12    1    1    2    0    0  0.75041949171E+01  0.10455078072E+02 -0.41448785189E+02  0.43400730322E+02  0.00000000000E+00 0. -1.
         11    1    3    3    0    0 -0.69754241605E+00  0.70935097286E+00  0.17803304753E+02  0.17831079737E+02  0.51100000000E-03 0.  1.
        -11    1    3    3    0    0 -0.60185248407E+01 -0.13685160274E+02  0.22638916624E+02  0.27129813843E+02  0.51100000000E-03 0. -1.
        -12    1    3    3    0    0 -0.78812766038E+00  0.25207312291E+01  0.10065638119E+01  0.28263760978E+01  0.00000000000E+00 0.  1.
</event>
<event>
 7    1  0.5467297E-010  0.4778728E+02  0.7816164E-02  0.1312668E+00
        -11   -1    0    0    0    0  0.00000000000E+00  0.00000000000E+00  0.45593999997E+02  0.45594000000E+02  0.51100000000E-03 0. -1.
         11   -1    0    0    0    0 -0.00000000000E+00 -0.00000000000E+00 -0.45593999997E+02  0.45594000000E+02  0.51100000000E-03 0.  1.
    9900012    2    1    2    0    0 -0.43300885348E+02 -0.18622438935E+01 -0.22776445774E+01  0.47787282390E+02  0.20000051730E+02 0.  0.
         12    1    1    2    0    0  0.43300885348E+02  0.18622438935E+01  0.22776445774E+01  0.43400717610E+02  0.00000000000E+00 0. -1.
         11    1    3    3    0    0 -0.35049286852E+01  0.33169241508E+01 -0.89962680350E+00  0.49087513236E+01  0.51100000000E-03 0. -1.
        -11    1    3    3    0    0 -0.37878953780E+02 -0.82326040400E+01 -0.30922655820E+01  0.38886411707E+02  0.51100000000E-03 0.  1.
        -12    1    3    3    0    0 -0.19170028824E+01  0.30534359958E+01  0.17142478081E+01  0.39921193593E+01  0.00000000000E+00 0.  1.
</event>
<event>
 7    1  0.5467297E-010  0.4778727E+02  0.7816164E-02  0.1312668E+00
        -11   -1    0    0    0    0  0.00000000000E+00  0.00000000000E+00  0.45593999997E+02  0.45594000000E+02  0.51100000000E-03 0.  1.
         11   -1    0    0    0    0 -0.00000000000E+00 -0.00000000000E+00 -0.45593999997E+02  0.45594000000E+02  0.51100000000E-03 0. -1.
    9900012    2    1    2    0    0 -0.15590075000E+02 -0.25311250853E+02  0.31621410464E+02  0.47787268923E+02  0.19999990329E+02 0.  0.
         12    1    1    2    0    0  0.15590075000E+02  0.25311250853E+02 -0.31621410464E+02  0.43400731077E+02  0.00000000000E+00 0. -1.
         11    1    3    3    0    0 -0.14544604521E+02 -0.11979085603E+02  0.12883025446E+02  0.22825782735E+02  0.51100000000E-03 0. -1.
        -11    1    3    3    0    0  0.43050257048E+01 -0.64742826261E+01  0.82671578704E+01  0.11348809689E+02  0.51100000000E-03 0.  1.
        -12    1    3    3    0    0 -0.53504961839E+01 -0.68578826238E+01  0.10471227147E+02  0.13612676499E+02  0.00000000000E+00 0.  1.
</event>
<event>
 7    1  0.5467297E-010  0.4778727E+02  0.7816164E-02  0.1312668E+00
        -11   -1    0    0    0    0  0.00000000000E+00  0.00000000000E+00  0.45593999997E+02  0.45594000000E+02  0.51100000000E-03 0.  1.
         11   -1    0    0    0    0 -0.00000000000E+00 -0.00000000000E+00 -0.45593999997E+02  0.45594000000E+02  0.51100000000E-03 0. -1.
    9900012    2    1    2    0    0 -0.27180475832E+02  0.32805244960E+02  0.82861721895E+01  0.47787274052E+02  0.20000013711E+02 0.  0.
         12    1    1    2    0    0  0.27180475832E+02 -0.32805244960E+02 -0.82861721895E+01  0.43400725948E+02  0.00000000000E+00 0. -1.
         11    1    3    3    0    0 -0.19844635714E+02  0.27433171121E+02 -0.12549456875E+01  0.33881607596E+02  0.51100000000E-03 0.  1.
        -11    1    3    3    0    0 -0.70480669807E+01  0.60854174472E+01  0.84747828265E+01  0.12590849768E+02  0.51100000000E-03 0. -1.
         12    1    3    3    0    0 -0.28777313732E+00 -0.71334360815E+00  0.10663350505E+01  0.13148166875E+01  0.00000000000E+00 0. -1.
</event>
<event>
 7    1  0.5467297E-010  0.4778726E+02  0.7816164E-02  0.1312668E+00
        -11   -1    0    0    0    0  0.00000000000E+00  0.00000000000E+00  0.45593999997E+02  0.45594000000E+02  0.51100000000E-03 0. -1.
         11   -1    0    0    0    0 -0.00000000000E+00 -0.00000000000E+00 -0.45593999997E+02  0.45594000000E+02  0.51100000000E-03 0.  1.
    9900012    2    1    2    0    0  0.31378941772E+02 -0.55444203013E+01 -0.29466012010E+02  0.47787257529E+02  0.19999938379E+02 0.  0.
         12    1    1    2    0    0 -0.31378941772E+02  0.55444203013E+01  0.29466012010E+02  0.43400742471E+02  0.00000000000E+00 0. -1.
         11    1    3    3    0    0  0.82670646742E+01  0.36914272797E+01 -0.11054565135E+02  0.14288960923E+02  0.51100000000E-03 0. -1.
        -11    1    3    3    0    0  0.46807877752E+01  0.27820358419E+01 -0.64951942680E+01  0.84756738058E+01  0.51100000000E-03 0.  1.
         12    1    3    3    0    0  0.18431089323E+02 -0.12017883423E+02 -0.11916252608E+02  0.25022622800E+02  0.00000000000E+00 0. -1.
</event>
<event>
 7    1  0.5467297E-010  0.4778726E+02  0.7816164E-02  0.1312668E+00
        -11   -1    0    0    0    0  0.00000000000E+00  0.00000000000E+00  0.45593999997E+02  0.45594000000E+02  0.51100000000E-03 0.  1.
         11   -1    0    0    0    0 -0.00000000000E+00 -0.00000000000E+00 -0.45593999997E+02  0.45594000000E+02  0.51100000000E-03 0. -1.
    9900012    2    1    2    0    0  0.29733811461E+02  0.50136570793E+01  0.31215184419E+02  0.47787262223E+02  0.19999959779E+02 0.  0.
         12    1    1    2    0    0 -0.29733811461E+02 -0.50136570793E+01 -0.31215184419E+02  0.43400737777E+02  0.00000000000E+00 0. -1.
         11    1    3    3    0    0  0.36870084579E+00 -0.11995130070E+01  0.40028553220E+01  0.41949520566E+01  0.51100000000E-03 0. -1.
        -11    1    3    3    0    0  0.22417035518E+02 -0.20672471432E+01  0.22407969164E+02  0.31763407790E+02  0.51100000000E-03 0.  1.
        -12    1    3    3    0    0  0.69480750973E+01  0.82804172295E+01  0.48043599334E+01  0.11828902376E+02  0.00000000000E+00 0.  1.
</event>
<event>
 7    1  0.5467297E-010  0.4778727E+02  0.7816164E-02  0.1312668E+00
        -11   -1    0    0    0    0  0.00000000000E+00  0.00000000000E+00  0.45593999997E+02  0.45594000000E+02  0.51100000000E-03 0.  1.
         11   -1    0    0    0    0 -0.00000000000E+00 -0.00000000000E+00 -0.45593999997E+02  0.45594000000E+02  0.51100000000E-03 0. -1.
    9900012    2    1    2    0    0 -0.11930488532E+02  0.39454544346E+02  0.13587696130E+02  0.47787272906E+02  0.20000008488E+02 0.  0.
         12    1    1    2    0    0  0.11930488532E+02 -0.39454544346E+02 -0.13587696130E+02  0.43400727094E+02  0.00000000000E+00 0. -1.
         11    1    3    3    0    0 -0.83949640205E+01  0.43510717115E+01  0.26051067711E+01  0.98078452014E+01  0.51100000000E-03 0. -1.
        -11    1    3    3    0    0 -0.43186436547E+01  0.24898576547E+02  0.11429281517E+02  0.27734784537E+02  0.51100000000E-03 0.  1.
         12    1    3    3    0    0  0.78311914363E+00  0.10204896088E+02 -0.44669215720E+00  0.10244643168E+02  0.00000000000E+00 0. -1.
</event>
<event>
 7    1  0.5467297E-010  0.4778726E+02  0.7816164E-02  0.1312668E+00
        -11   -1    0    0    0    0  0.00000000000E+00  0.00000000000E+00  0.45593999997E+02  0.45594000000E+02  0.51100000000E-03 0. -1.
         11   -1    0    0    0    0 -0.00000000000E+00 -0.00000000000E+00 -0.45593999997E+02  0.45594000000E+02  0.51100000000E-03 0.  1.
    9900012    2    1    2    0    0 -0.40535952836E+02  0.11040182468E+02 -0.10889217232E+02  0.47787260914E+02  0.19999953813E+02 0.  0.
         12    1    1    2    0    0  0.40535952836E+02 -0.11040182468E+02  0.10889217232E+02  0.43400739086E+02  0.00000000000E+00 0. -1.
         11    1    3    3    0    0 -0.58300206301E+00  0.24017080933E+01  0.13517528267E+01  0.28169716250E+01  0.51100000000E-03 0. -1.
        -11    1    3    3    0    0  0.95720072691E+00  0.72762719388E+00  0.63300071136E+00  0.13588100407E+01  0.51100000000E-03 0.  1.
        -12    1    3    3    0    0 -0.40910151500E+02  0.79108471811E+01 -0.12873970770E+02  0.43611479249E+02  0.00000000000E+00 0.  1.
</event>
<event>
 7    1  0.5467297E-010  0.4778728E+02  0.7816164E-02  0.1312668E+00
        -11   -1    0    0    0    0  0.00000000000E+00  0.00000000000E+00  0.45593999997E+02  0.45594000000E+02  0.51100000000E-03 0.  1.
         11   -1    0    0    0    0 -0.00000000000E+00 -0.00000000000E+00 -0.45593999997E+02  0.45594000000E+02  0.51100000000E-03 0. -1.
    9900012    2    1    2    0    0  0.14573500373E+01 -0.16465963851E+02  0.40129425314E+02  0.47787278684E+02  0.20000034832E+02 0.  0.
         12    1    1    2    0    0 -0.14573500373E+01  0.16465963851E+02 -0.40129425314E+02  0.43400721316E+02  0.00000000000E+00 0. -1.
         11    1    3    3    0    0 -0.12546828558E+01 -0.13942137725E+02  0.13463591282E+02  0.19422299655E+02  0.51100000000E-03 0. -1.
        -11    1    3    3    0    0  0.14549555771E+00  0.60398590928E+00  0.22669675822E+02  0.22678187099E+02  0.51100000000E-03 0.  1.
        -12    1    3    3    0    0  0.25665373354E+01 -0.31278120357E+01  0.39961582101E+01  0.56867919309E+01  0.00000000000E+00 0.  1.
</event>
<event>
 7    1  0.5467297E-010  0.4778727E+02  0.7816164E-02  0.1312668E+00
        -11   -1    0    0    0    0  0.00000000000E+00  0.00000000000E+00  0.45593999997E+02  0.45594000000E+02  0.51100000000E-03 0. -1.
         11   -1    0    0    0    0 -0.00000000000E+00 -0.00000000000E+00 -0.45593999997E+02  0.45594000000E+02  0.51100000000E-03 0.  1.
    9900012    2    1    2    0    0 -0.44179389903E+01  0.37707451879E+02 -0.21029812985E+02  0.47787272514E+02  0.20000006702E+02 0.  0.
         12    1    1    2    0    0  0.44179389903E+01 -0.37707451879E+02  0.21029812985E+02  0.43400727486E+02  0.00000000000E+00 0. -1.
         11    1    3    3    0    0 -0.20541824290E+01  0.33235511003E+02 -0.13179370423E+02  0.35812213868E+02  0.51100000000E-03 0. -1.
        -11    1    3    3    0    0 -0.32941171032E+00  0.51524458232E+01 -0.83080853346E+01  0.97816405691E+01  0.51100000000E-03 0.  1.
         12    1    3    3    0    0 -0.20343448509E+01 -0.68050494726E+00  0.45764277328E+00  0.21934180777E+01  0.00000000000E+00 0. -1.
</event>
<event>
 7    1  0.5467297E-010  0.4778725E+02  0.7816164E-02  0.1312668E+00
        -11   -1    0    0    0    0  0.00000000000E+00  0.00000000000E+00  0.45593999997E+02  0.45594000000E+02  0.51100000000E-03 0. -1.
         11   -1    0    0    0    0 -0.00000000000E+00 -0.00000000000E+00 -0.45593999997E+02  0.45594000000E+02  0.51100000000E-03 0.  1.
    9900012    2    1    2    0    0  0.10950024305E+02  0.29338780781E+02 -0.30049262749E+02  0.47787247913E+02  0.19999894535E+02 0.  0.
         12    1    1    2    0    0 -0.10950024305E+02 -0.29338780781E+02  0.30049262749E+02  0.43400752087E+02  0.00000000000E+00 0. -1.
         11    1    3    3    0    0 -0.16899364567E+01 -0.11319561606E+00 -0.17733804975E+01  0.24522595958E+01  0.51100000000E-03 0. -1.
        -11    1    3    3    0    0  0.11720686440E+02  0.26095488042E+02 -0.29998497747E+02  0.41451886014E+02  0.51100000000E-03 0.  1.
        -12    1    3    3    0    0  0.91927432225E+00  0.33564883548E+01  0.17226154957E+01  0.38831023037E+01  0.00000000000E+00 0.  1.
</event>
<event>
 7    1  0.5467297E-010  0.4778727E+02  0.7816164E-02  0.1312668E+00
        -11   -1    0    0    0    0  0.00000000000E+00  0.00000000000E+00  0.45593999997E+02  0.45594000000E+02  0.51100000000E-03 0.  1.
         11   -1    0    0    0    0 -0.00000000000E+00 -0.00000000000E+00 -0.45593999997E+02  0.45594000000E+02  0.51100000000E-03 0. -1.
    9900012    2    1    2    0    0  0.42631355846E+02 -0.64877982673E+01  0.49090854222E+01  0.47787272503E+02  0.20000006648E+02 0.  0.
         12    1    1    2    0    0 -0.42631355846E+02  0.64877982673E+01 -0.49090854222E+01  0.43400727497E+02  0.00000000000E+00 0. -1.
         11    1    3    3    0    0  0.92119542517E+01 -0.63295129335E+01 -0.36800254618E+01  0.11767133159E+02  0.51100000000E-03 0. -1.
        -11    1    3    3    0    0  0.13358084107E+02 -0.19878378898E+01  0.83424106231E+01  0.15874058263E+02  0.51100000000E-03 0.  1.
        -12    1    3    3    0    0  0.20061317487E+02  0.18295525560E+01  0.24670026093E+00  0.20146081081E+02  0.00000000000E+00 0.  1.
</event>
<event>
 7    1  0.5467297E-010  0.4778728E+02  0.7816164E-02  0.1312668E+00
        -11   -1    0    0    0    0  0.00000000000E+00  0.00000000000E+00  0.45593999997E+02  0.45594000000E+02  0.51100000000E-03 0. -1.
         11   -1    0    0    0    0 -0.00000000000E+00 -0.00000000000E+00 -0.45593999997E+02  0.45594000000E+02  0.51100000000E-03 0.  1.
    9900012    2    1    2    0    0  0.34166703696E+02 -0.27213927033E+01 -0.26624299223E+02  0.47787275019E+02  0.20000018123E+02 0.  0.
         12    1    1    2    0    0 -0.34166703696E+02  0.27213927033E+01  0.26624299223E+02  0.43400724981E+02  0.00000000000E+00 0. -1.
         11    1    3    3    0    0  0.14444956723E+02 -0.82637020990E+01 -0.20502430775E+02  0.26406348007E+02  0.51100000000E-03 0. -1.
        -11    1    3    3    0    0  0.14138354712E+02  0.39901394983E+01 -0.44046677919E+01  0.15336733218E+02  0.51100000000E-03 0.  1.
         12    1    3    3    0    0  0.55833922612E+01  0.15521698975E+01 -0.17172006568E+01  0.60441937948E+01  0.00000000000E+00 0. -1.
</event>
<event>
 7    1  0.5467297E-010  0.4778728E+02  0.7816164E-02  0.1312668E+00
        -11   -1    0    0    0    0  0.00000000000E+00  0.00000000000E+00  0.45593999997E+02  0.45594000000E+02  0.51100000000E-03 0.  1.
         11   -1    0    0    0    0 -0.00000000000E+00 -0.00000000000E+00 -0.45593999997E+02  0.45594000000E+02  0.51100000000E-03 0. -1.
    9900012    2    1    2    0    0 -0.82003795351E+01 -0.17610907764E+02  0.38810204236E+02  0.47787282844E+02  0.20000053797E+02 0.  0.
         12    1    1    2    0    0  0.82003795351E+01  0.17610907764E+02 -0.38810204236E+02  0.43400717156E+02  0.00000000000E+00 0. -1.
         11    1    3    3    0    0 -0.65306869328E+01  0.60065564147E+00  0.50563063707E+01  0.82811166752E+01  0.51100000000E-03 0. -1.
        -11    1    3    3    0    0  0.25650636561E+00 -0.15388618915E+02  0.19466466965E+02  0.24815695113E+02  0.51100000000E-03 0.  1.
        -12    1    3    3    0    0 -0.19261989679E+01 -0.28229444914E+01  0.14287430901E+02  0.14690471055E+02  0.00000000000E+00 0.  1.
</event>
<event>
 7    1  0.5467297E-010  0.4778731E+02  0.7816164E-02  0.1312668E+00
        -11   -1    0    0    0    0  0.00000000000E+00  0.00000000000E+00  0.45593999997E+02  0.45594000000E+02  0.51100000000E-03 0.  1.
         11   -1    0    0    0    0 -0.00000000000E+00 -0.00000000000E+00 -0.45593999997E+02  0.45594000000E+02  0.51100000000E-03 0. -1.
    9900012    2    1    2    0    0  0.24477380148E+02 -0.18354358277E+02  0.30783032444E+02  0.47787312297E+02  0.20000188086E+02 0.  0.
         12    1    1    2    0    0 -0.24477380148E+02  0.18354358277E+02 -0.30783032444E+02  0.43400687703E+02  0.00000000000E+00 0. -1.
         11    1    3    3    0    0  0.21277511272E+02 -0.11144417784E+02  0.23537250733E+02  0.33629342931E+02  0.51100000000E-03 0. -1.
        -11    1    3    3    0    0  0.22132039095E+01 -0.22890113650E+01  0.84214330076E+01  0.90032426790E+01  0.51100000000E-03 0.  1.
         12    1    3    3    0    0  0.98666496662E+00 -0.49209291283E+01 -0.11756512969E+01  0.51547266866E+01  0.00000000000E+00 0. -1.
</event>
<event>
 7    1  0.5467297E-010  0.4778727E+02  0.7816164E-02  0.1312668E+00
        -11   -1    0    0    0    0  0.00000000000E+00  0.00000000000E+00  0.45593999997E+02  0.45594000000E+02  0.51100000000E-03 0.  1.
         11   -1    0    0    0    0 -0.00000000000E+00 -0.00000000000E+00 -0.45593999997E+02  0.45594000000E+02  0.51100000000E-03 0. -1.
    9900012    2    1    2    0    0  0.12453663016E+02 -0.24115349519E+02  0.33867083476E+02  0.47787272494E+02  0.20000006608E+02 0.  0.
         12    1    1    2    0    0 -0.12453663016E+02  0.24115349519E+02 -0.33867083476E+02  0.43400727506E+02  0.00000000000E+00 0. -1.
         11    1    3    3    0    0  0.64565984578E+01 -0.27985031889E+01  0.20930537836E+02  0.22081818270E+02  0.51100000000E-03 0. -1.
        -11    1    3    3    0    0  0.23291818609E+01 -0.10631209932E+02  0.70371884337E+01  0.12960313811E+02  0.51100000000E-03 0.  1.
         12    1    3    3    0    0  0.36678826970E+01 -0.10685636398E+02  0.58993572063E+01  0.12745140413E+02  0.00000000000E+00 0. -1.
</event>
<event>
 7    1  0.5467297E-010  0.4778728E+02  0.7816164E-02  0.1312668E+00
        -11   -1    0    0    0    0  0.00000000000E+00  0.00000000000E+00  0.45593999997E+02  0.45594000000E+02  0.51100000000E-03 0.  1.
         11   -1    0    0    0    0 -0.00000000000E+00 -0.00000000000E+00 -0.45593999997E+02  0.45594000000E+02  0.51100000000E-03 0. -1.
    9900012    2    1    2    0    0  0.32030630227E+02  0.12077005703E+01  0.29260939342E+02  0.47787281290E+02  0.20000046714E+02 0.  0.
         12    1    1    2    0    0 -0.32030630227E+02 -0.12077005703E+01 -0.29260939342E+02  0.43400718710E+02  0.00000000000E+00 0. -1.
         11    1    3    3    0    0  0.21744650849E+02  0.62891028318E+01  0.14834113144E+02  0.27063509898E+02  0.51100000000E-03 0.  1.
        -11    1    3    3    0    0  0.88615351782E+01 -0.75901804928E+01  0.96408099667E+01  0.15135483564E+02  0.51100000000E-03 0. -1.
        -12    1    3    3    0    0  0.14244441995E+01  0.25087782313E+01  0.47860162305E+01  0.55882878281E+01  0.00000000000E+00 0.  1.
</event>
<event>
 7    1  0.5467297E-010  0.4778728E+02  0.7816164E-02  0.1312668E+00
        -11   -1    0    0    0    0  0.00000000000E+00  0.00000000000E+00  0.45593999997E+02  0.45594000000E+02  0.51100000000E-03 0.  1.
         11   -1    0    0    0    0 -0.00000000000E+00 -0.00000000000E+00 -0.45593999997E+02  0.45594000000E+02  0.51100000000E-03 0. -1.
    9900012    2    1    2    0    0  0.69795397214E+00 -0.22283612592E+02  0.37236760212E+02  0.47787276031E+02  0.20000022737E+02 0.  0.
         12    1    1    2    0    0 -0.69795397214E+00  0.22283612592E+02 -0.37236760212E+02  0.43400723969E+02  0.00000000000E+00 0. -1.
         11    1    3    3    0    0  0.25226112229E+00 -0.19488626558E+02  0.32276638433E+02  0.37704795312E+02  0.51100000000E-03 0.  1.
        -11    1    3    3    0    0 -0.26573294375E+01 -0.20296083131E+01 -0.85109931977E+00  0.34503738866E+01  0.51100000000E-03 0. -1.
        -12    1    3    3    0    0  0.31030222873E+01 -0.76537772153E+00  0.58112210993E+01  0.66321068324E+01  0.00000000000E+00 0.  1.
</event>
<event>
 7    1  0.5467297E-010  0.4778727E+02  0.7816164E-02  0.1312668E+00
        -11   -1    0    0    0    0  0.00000000000E+00  0.00000000000E+00  0.45593999997E+02  0.45594000000E+02  0.51100000000E-03 0. -1.
         11   -1    0    0    0    0 -0.00000000000E+00 -0.00000000000E+00 -0.45593999997E+02  0.45594000000E+02  0.51100000000E-03 0.  1.
    9900012    2    1    2    0    0 -0.13958791431E+02 -0.33486959529E+02 -0.23820137474E+02  0.47787271135E+02  0.20000000413E+02 0.  0.
         12    1    1    2    0    0  0.13958791431E+02  0.33486959529E+02  0.23820137474E+02  0.43400728865E+02  0.00000000000E+00 0. -1.
         11    1    3    3    0    0 -0.11694846402E+02 -0.14654318408E+02 -0.27039480102E+01  0.18942803792E+02  0.51100000000E-03 0. -1.
        -11    1    3    3    0    0 -0.35072513097E+01 -0.11869602501E+02 -0.15353188698E+02  0.19720767702E+02  0.51100000000E-03 0.  1.
         12    1    3    3    0    0  0.12433062804E+01 -0.69630386204E+01 -0.57630007651E+01  0.91236996419E+01  0.00000000000E+00 0. -1.
</event>
<event>
 7    1  0.5467297E-010  0.4778727E+02  0.7816164E-02  0.1312668E+00
        -11   -1    0    0    0    0  0.00000000000E+00  0.00000000000E+00  0.45593999997E+02  0.45594000000E+02  0.51100000000E-03 0. -1.
         11   -1    0    0    0    0 -0.00000000000E+00 -0.00000000000E+00 -0.45593999997E+02  0.45594000000E+02  0.51100000000E-03 0.  1.
    9900012    2    1    2    0    0 -0.40000415790E+02 -0.15223156235E+02 -0.72003806535E+01  0.47787271542E+02  0.20000002268E+02 0.  0.
         12    1    1    2    0    0  0.40000415790E+02  0.15223156235E+02  0.72003806535E+01  0.43400728458E+02  0.00000000000E+00 0. -1.
         11    1    3    3    0    0 -0.96205821473E+00 -0.25814677257E+01  0.11928414626E+01  0.30020663956E+01  0.51100000000E-03 0. -1.
        -11    1    3    3    0    0 -0.12443159244E+02 -0.60936419866E+01 -0.10397384104E+02  0.17322536798E+02  0.51100000000E-03 0.  1.
        -12    1    3    3    0    0 -0.26595198332E+02 -0.65480465223E+01  0.20041619883E+01  0.27462668349E+02  0.00000000000E+00 0.  1.
</event>
<event>
 7    1  0.5467297E-010  0.4778727E+02  0.7816164E-02  0.1312668E+00
        -11   -1    0    0    0    0  0.00000000000E+00  0.00000000000E+00  0.45593999997E+02  0.45594000000E+02  0.51100000000E-03 0. -1.
         11   -1    0    0    0    0 -0.00000000000E+00 -0.00000000000E+00 -0.45593999997E+02  0.45594000000E+02  0.51100000000E-03 0.  1.
    9900012    2    1    2    0    0 -0.22241771386E+02 -0.36818155121E+02 -0.57749517654E+01  0.47787274098E+02  0.20000013924E+02 0.  0.
         12    1    1    2    0    0  0.22241771386E+02  0.36818155121E+02  0.57749517654E+01  0.43400725902E+02  0.00000000000E+00 0. -1.
         11    1    3    3    0    0 -0.18254361677E+02 -0.16431903986E+02  0.14718237577E+00  0.24561165521E+02  0.51100000000E-03 0.  1.
        -11    1    3    3    0    0  0.11323933343E+01 -0.13466026408E+02 -0.16433753193E+01  0.13613113699E+02  0.51100000000E-03 0. -1.
        -12    1    3    3    0    0 -0.51198030433E+01 -0.69202247271E+01 -0.42787588219E+01  0.96129948784E+01  0.00000000000E+00 0.  1.
</event>
<event>
 7    1  0.5467297E-010  0.4778727E+02  0.7816164E-02  0.1312668E+00
        -11   -1    0    0    0    0  0.00000000000E+00  0.00000000000E+00  0.45593999997E+02  0.45594000000E+02  0.51100000000E-03 0. -1.
         11   -1    0    0    0    0 -0.00000000000E+00 -0.00000000000E+00 -0.45593999997E+02  0.45594000000E+02  0.51100000000E-03 0.  1.
    9900012    2    1    2    0    0 -0.83868714937E+01 -0.42571442180E+02 -0.97766252017E+00  0.47787272740E+02  0.20000007729E+02 0.  0.
         12    1    1    2    0    0  0.83868714937E+01  0.42571442180E+02  0.97766252017E+00  0.43400727260E+02  0.00000000000E+00 0. -1.
         11    1    3    3    0    0  0.17291723833E+00  0.17371583277E+01 -0.17851064247E+00  0.17548463572E+01  0.51100000000E-03 0. -1.
        -11    1    3    3    0    0 -0.41479811166E+01 -0.33690373352E+02 -0.37784818262E+01  0.34154413025E+02  0.51100000000E-03 0.  1.
        -12    1    3    3    0    0 -0.44118076154E+01 -0.10618227156E+02  0.29793299485E+01  0.11878013357E+02  0.00000000000E+00 0.  1.
</event>
<event>
 7    1  0.5467297E-010  0.4778726E+02  0.7816164E-02  0.1312668E+00
        -11   -1    0    0    0    0  0.00000000000E+00  0.00000000000E+00  0.45593999997E+02  0.45594000000E+02  0.51100000000E-03 0.  1.
         11   -1    0    0    0    0 -0.00000000000E+00 -0.00000000000E+00 -0.45593999997E+02  0.45594000000E+02  0.51100000000E-03 0. -1.
    9900012    2    1    2    0    0 -0.23642567563E+02  0.29290251860E+02  0.21604037551E+02  0.47787259298E+02  0.19999946442E+02 0.  0.
         12    1    1    2    0    0  0.23642567563E+02 -0.29290251860E+02 -0.21604037551E+02  0.43400740702E+02  0.00000000000E+00 0. -1.
         11    1    3    3    0    0 -0.59941785037E+01  0.10867636317E+02 -0.19158886830E+01  0.12558117882E+02  0.51100000000E-03 0. -1.
        -11    1    3    3    0    0 -0.88453142065E+01  0.10736186705E+02  0.89071267302E+01  0.16517935562E+02  0.51100000000E-03 0.  1.
         12    1    3    3    0    0 -0.88030748530E+01  0.76864288383E+01  0.14612799504E+02  0.18711205853E+02  0.00000000000E+00 0. -1.
</event>
<event>
 7    1  0.5467297E-010  0.4778722E+02  0.7816164E-02  0.1312668E+00
        -11   -1    0    0    0    0  0.00000000000E+00  0.00000000000E+00  0.45593999997E+02  0.45594000000E+02  0.51100000000E-03 0.  1.
         11   -1    0    0    0    0 -0.00000000000E+00 -0.00000000000E+00 -0.45593999997E+02  0.45594000000E+02  0.51100000000E-03 0. -1.
    9900012    2    1    2    0    0 -0.27075115676E+02  0.33295500898E+02  0.64788380448E+01  0.47787221074E+02  0.19999772165E+02 0.  0.
         12    1    1    2    0    0  0.27075115676E+02 -0.33295500898E+02 -0.64788380448E+01  0.43400778926E+02  0.00000000000E+00 0. -1.
         11    1    3    3    0    0 -0.13843029551E+02  0.97994041710E+01 -0.24331725222E+01  0.17134121455E+02  0.51100000000E-03 0. -1.
        -11    1    3    3    0    0 -0.24643627285E+01  0.15205103211E+02  0.24209172997E+01  0.15592597222E+02  0.51100000000E-03 0.  1.
        -12    1    3    3    0    0 -0.10767723396E+02  0.82909935167E+01  0.64910932673E+01  0.15060502397E+02  0.00000000000E+00 0.  1.
</event>
<event>
 7    1  0.5467297E-010  0.4778727E+02  0.7816164E-02  0.1312668E+00
        -11   -1    0    0    0    0  0.00000000000E+00  0.00000000000E+00  0.45593999997E+02  0.45594000000E+02  0.51100000000E-03 0.  1.
         11   -1    0    0    0    0 -0.00000000000E+00 -0.00000000000E+00 -0.45593999997E+02  0.45594000000E+02  0.51100000000E-03 0. -1.
    9900012    2    1    2    0    0  0.42467482591E+02 -0.76224540627E+01  0.46940893209E+01  0.47787270074E+02  0.19999995576E+02 0.  0.
         12    1    1    2    0    0 -0.42467482591E+02  0.76224540627E+01 -0.46940893209E+01  0.43400729926E+02  0.00000000000E+00 0. -1.
         11    1    3    3    0    0  0.13811747728E+02  0.25601404040E+00 -0.16992214988E+01  0.13918235249E+02  0.51100000000E-03 0. -1.
        -11    1    3    3    0    0  0.56441913248E+00 -0.24020816657E+00 -0.31687622064E+01  0.32275878148E+01  0.51100000000E-03 0.  1.
        -12    1    3    3    0    0  0.28091315731E+02 -0.76382599366E+01  0.95620730261E+01  0.30641447010E+02  0.00000000000E+00 0.  1.
</event>
<event>
 7    1  0.5467297E-010  0.4778728E+02  0.7816164E-02  0.1312668E+00
        -11   -1    0    0    0    0  0.00000000000E+00  0.00000000000E+00  0.45593999997E+02  0.45594000000E+02  0.51100000000E-03 0.  1.
         11   -1    0    0    0    0 -0.00000000000E+00 -0.00000000000E+00 -0.45593999997E+02  0.45594000000E+02  0.51100000000E-03 0. -1.
    9900012    2    1    2    0    0 -0.16382548575E+02 -0.36484339372E+02  0.16856087598E+02  0.47787278735E+02  0.20000035064E+02 0.  0.
         12    1    1    2    0    0  0.16382548575E+02  0.36484339372E+02 -0.16856087598E+02  0.43400721265E+02  0.00000000000E+00 0. -1.
         11    1    3    3    0    0 -0.65977648539E+00 -0.15135466563E+02  0.91529648404E+01  0.17700124822E+02  0.51100000000E-03 0. -1.
        -11    1    3    3    0    0 -0.15464512551E+02 -0.16478439047E+02  0.99806428920E+01  0.24704318138E+02  0.51100000000E-03 0.  1.
        -12    1    3    3    0    0 -0.25825953929E+00 -0.48704337614E+01 -0.22775201347E+01  0.53828357748E+01  0.00000000000E+00 0.  1.
</event>
<event>
 7    1  0.5467297E-010  0.4778727E+02  0.7816164E-02  0.1312668E+00
        -11   -1    0    0    0    0  0.00000000000E+00  0.00000000000E+00  0.45593999997E+02  0.45594000000E+02  0.51100000000E-03 0.  1.
         11   -1    0    0    0    0 -0.00000000000E+00 -0.00000000000E+00 -0.45593999997E+02  0.45594000000E+02  0.51100000000E-03 0. -1.
    9900012    2    1    2    0    0 -0.40795324615E+02 -0.19528061919E+01  0.14681675001E+02  0.47787267941E+02  0.19999985849E+02 0.  0.
         12    1    1    2    0    0  0.40795324615E+02  0.19528061919E+01 -0.14681675001E+02  0.43400732059E+02  0.00000000000E+00 0. -1.
         11    1    3    3    0    0 -0.96680211814E+00  0.11951856191E+01 -0.38083208709E+00  0.15837324078E+01  0.51100000000E-03 0.  1.
        -11    1    3    3    0    0  0.67358465932E+00  0.16269079851E+01 -0.13738491222E+01  0.22333847758E+01  0.51100000000E-03 0. -1.
        -12    1    3    3    0    0 -0.40502107156E+02 -0.47748997960E+01  0.16436356211E+02  0.43970150757E+02  0.00000000000E+00 0.  1.
</event>
<event>
 7    1  0.5467297E-010  0.4778727E+02  0.7816164E-02  0.1312668E+00
        -11   -1    0    0    0    0  0.00000000000E+00  0.00000000000E+00  0.45593999997E+02  0.45594000000E+02  0.51100000000E-03 0. -1.
         11   -1    0    0    0    0 -0.00000000000E+00 -0.00000000000E+00 -0.45593999997E+02  0.45594000000E+02  0.51100000000E-03 0.  1.
    9900012    2    1    2    0    0  0.32450806326E+02 -0.17108741748E+02 -0.23191801679E+02  0.47787267972E+02  0.19999985994E+02 0.  0.
         12    1    1    2    0    0 -0.32450806326E+02  0.17108741748E+02  0.23191801679E+02  0.43400732028E+02  0.00000000000E+00 0. -1.
         11    1    3    3    0    0  0.96751072776E+00  0.38577067948E+00  0.15844330155E+01  0.18961340319E+01  0.51100000000E-03 0. -1.
        -11    1    3    3    0    0  0.19707203093E+02 -0.18206785797E+02 -0.17123325562E+02  0.31828747719E+02  0.51100000000E-03 0.  1.
         12    1    3    3    0    0  0.11776092505E+02  0.71227336990E+00 -0.76529091325E+01  0.14062386221E+02  0.00000000000E+00 0. -1.
</event>
<event>
 7    1  0.5467297E-010  0.4778727E+02  0.7816164E-02  0.1312668E+00
        -11   -1    0    0    0    0  0.00000000000E+00  0.00000000000E+00  0.45593999997E+02  0.45594000000E+02  0.51100000000E-03 0.  1.
         11   -1    0    0    0    0 -0.00000000000E+00 -0.00000000000E+00 -0.45593999997E+02  0.45594000000E+02  0.51100000000E-03 0. -1.
    9900012    2    1    2    0    0 -0.17729772031E+02  0.38388659287E+02  0.97769849223E+01  0.47787269450E+02  0.19999992730E+02 0.  0.
         12    1    1    2    0    0  0.17729772031E+02 -0.38388659287E+02 -0.97769849223E+01  0.43400730550E+02  0.00000000000E+00 0. -1.
         11    1    3    3    0    0 -0.17050339912E+01  0.12914383390E+00  0.11242662212E+01  0.20464099879E+01  0.51100000000E-03 0.  1.
        -11    1    3    3    0    0 -0.27087406883E+01  0.11952625464E+01 -0.34435993282E+01  0.45413990428E+01  0.51100000000E-03 0. -1.
        -12    1    3    3    0    0 -0.13315997352E+02  0.37064252906E+02  0.12096318029E+02  0.41199460419E+02  0.00000000000E+00 0.  1.
</event>
<event>
 7    1  0.5467297E-010  0.4778727E+02  0.7816164E-02  0.1312668E+00
        -11   -1    0    0    0    0  0.00000000000E+00  0.00000000000E+00  0.45593999997E+02  0.45594000000E+02  0.51100000000E-03 0.  1.
         11   -1    0    0    0    0 -0.00000000000E+00 -0.00000000000E+00 -0.45593999997E+02  0.45594000000E+02  0.51100000000E-03 0. -1.
    9900012    2    1    2    0    0 -0.23524780872E+02 -0.92111861764E+01  0.35289690298E+02  0.47787268357E+02  0.19999987745E+02 0.  0.
         12    1    1    2    0    0  0.23524780872E+02  0.92111861764E+01 -0.35289690298E+02  0.43400731643E+02  0.00000000000E+00 0. -1.
         11    1    3    3    0    0 -0.63606575768E+01 -0.92436145914E+01  0.14985548836E+02  0.18720818617E+02  0.51100000000E-03 0. -1.
        -11    1    3    3    0    0 -0.10850449367E+02  0.36629401959E+01  0.58013391258E+01  0.12837636786E+02  0.51100000000E-03 0.  1.
        -12    1    3    3    0    0 -0.63136739281E+01 -0.36305117809E+01  0.14502802336E+02  0.16228812953E+02  0.00000000000E+00 0.  1.
</event>
<event>
 7    1  0.5467297E-010  0.4778727E+02  0.7816164E-02  0.1312668E+00
        -11   -1    0    0    0    0  0.00000000000E+00  0.00000000000E+00  0.45593999997E+02  0.45594000000E+02  0.51100000000E-03 0.  1.
         11   -1    0    0    0    0 -0.00000000000E+00 -0.00000000000E+00 -0.45593999997E+02  0.45594000000E+02  0.51100000000E-03 0. -1.
    9900012    2    1    2    0    0  0.10850251422E+02 -0.15094376906E+01  0.41995438825E+02  0.47787271433E+02  0.20000001770E+02 0.  0.
         12    1    1    2    0    0 -0.10850251422E+02  0.15094376906E+01 -0.41995438825E+02  0.43400728567E+02  0.00000000000E+00 0. -1.
         11    1    3    3    0    0  0.25397596879E+01 -0.70287486070E+01  0.12033528419E+02  0.14165433023E+02  0.51100000000E-03 0. -1.
        -11    1    3    3    0    0  0.72032800172E+01 -0.20527439867E+01  0.12786929224E+02  0.14819128184E+02  0.51100000000E-03 0.  1.
         12    1    3    3    0    0  0.11072117166E+01  0.75720549031E+01  0.17174981181E+02  0.18802710225E+02  0.00000000000E+00 0. -1.
</event>
<event>
 7    1  0.5467297E-010  0.4778727E+02  0.7816164E-02  0.1312668E+00
        -11   -1    0    0    0    0  0.00000000000E+00  0.00000000000E+00  0.45593999997E+02  0.45594000000E+02  0.51100000000E-03 0. -1.
         11   -1    0    0    0    0 -0.00000000000E+00 -0.00000000000E+00 -0.45593999997E+02  0.45594000000E+02  0.51100000000E-03 0.  1.
    9900012    2    1    2    0    0 -0.79829909116E+01  0.42658958831E+02 -0.32898429309E+00  0.47787272551E+02  0.20000006868E+02 0.  0.
         12    1    1    2    0    0  0.79829909116E+01 -0.42658958831E+02  0.32898429309E+00  0.43400727449E+02  0.00000000000E+00 0. -1.
         11    1    3    3    0    0 -0.81129104734E+01  0.17362164526E+02  0.84109598295E+01  0.20928648282E+02  0.51100000000E-03 0. -1.
        -11    1    3    3    0    0  0.11725994596E+00  0.16170682016E+02 -0.67190042818E+01  0.17511417006E+02  0.51100000000E-03 0.  1.
         12    1    3    3    0    0  0.12659615802E-01  0.91261122887E+01 -0.20209398408E+01  0.93472072627E+01  0.00000000000E+00 0. -1.
</event>
<event>
 7    1  0.5467297E-010  0.4778727E+02  0.7816164E-02  0.1312668E+00
        -11   -1    0    0    0    0  0.00000000000E+00  0.00000000000E+00  0.45593999997E+02  0.45594000000E+02  0.51100000000E-03 0.  1.
         11   -1    0    0    0    0 -0.00000000000E+00 -0.00000000000E+00 -0.45593999997E+02  0.45594000000E+02  0.51100000000E-03 0. -1.
    9900012    2    1    2    0    0  0.36875389570E+02  0.53940525726E+01  0.22242598066E+02  0.47787270423E+02  0.19999997167E+02 0.  0.
         12    1    1    2    0    0 -0.36875389570E+02 -0.53940525726E+01 -0.22242598066E+02  0.43400729577E+02  0.00000000000E+00 0. -1.
         11    1    3    3    0    0 -0.13341403706E+01 -0.12350104850E+01  0.90889023128E+00  0.20325508949E+01  0.51100000000E-03 0. -1.
        -11    1    3    3    0    0  0.37351453656E+02  0.43872994488E+01  0.18126282149E+02  0.41748551968E+02  0.51100000000E-03 0.  1.
        -12    1    3    3    0    0  0.85807628496E+00  0.22417636089E+01  0.32074256858E+01  0.40061675600E+01  0.00000000000E+00 0.  1.
</event>
<event>
 7    1  0.5467297E-010  0.4778727E+02  0.7816164E-02  0.1312668E+00
        -11   -1    0    0    0    0  0.00000000000E+00  0.00000000000E+00  0.45593999997E+02  0.45594000000E+02  0.51100000000E-03 0. -1.
         11   -1    0    0    0    0 -0.00000000000E+00 -0.00000000000E+00 -0.45593999997E+02  0.45594000000E+02  0.51100000000E-03 0.  1.
    9900012    2    1    2    0    0 -0.36211845111E+02 -0.18726800198E+02  0.14887325905E+02  0.47787271382E+02  0.20000001538E+02 0.  0.
         12    1    1    2    0    0  0.36211845111E+02  0.18726800198E+02 -0.14887325905E+02  0.43400728618E+02  0.00000000000E+00 0. -1.
         11    1    3    3    0    0 -0.14821818236E+02 -0.10139167543E+02  0.13514094175E+02  0.22474869431E+02  0.51100000000E-03 0. -1.
        -11    1    3    3    0    0 -0.17157584783E+02 -0.34607560776E+01 -0.24018604653E+01  0.17667158294E+02  0.51100000000E-03 0.  1.
        -12    1    3    3    0    0 -0.42324420912E+01 -0.51268765768E+01  0.37750921953E+01  0.76452436568E+01  0.00000000000E+00 0.  1.
</event>
<event>
 7    1  0.5467297E-010  0.4778728E+02  0.7816164E-02  0.1312668E+00
        -11   -1    0    0    0    0  0.00000000000E+00  0.00000000000E+00  0.45593999997E+02  0.45594000000E+02  0.51100000000E-03 0.  1.
         11   -1    0    0    0    0 -0.00000000000E+00 -0.00000000000E+00 -0.45593999997E+02  0.45594000000E+02  0.51100000000E-03 0. -1.
    9900012    2    1    2    0    0  0.27543707761E+02 -0.23259034195E+02  0.24165764065E+02  0.47787278096E+02  0.20000032152E+02 0.  0.
         12    1    1    2    0    0 -0.27543707761E+02  0.23259034195E+02 -0.24165764065E+02  0.43400721904E+02  0.00000000000E+00 0. -1.
         11    1    3    3    0    0  0.19663402753E+02 -0.11520991774E+02  0.20243952260E+02  0.30482786334E+02  0.51100000000E-03 0.  1.
        -11    1    3    3    0    0  0.71254394369E+01 -0.12765437364E+02  0.16669583840E+01  0.14714177815E+02  0.51100000000E-03 0. -1.
         12    1    3    3    0    0  0.75486557153E+00  0.10273949426E+01  0.22548534204E+01  0.25903139475E+01  0.00000000000E+00 0. -1.
</event>
<event>
 7    1  0.5467297E-010  0.4778727E+02  0.7816164E-02  0.1312668E+00
        -11   -1    0    0    0    0  0.00000000000E+00  0.00000000000E+00  0.45593999997E+02  0.45594000000E+02  0.51100000000E-03 0.  1.
         11   -1    0    0    0    0 -0.00000000000E+00 -0.00000000000E+00 -0.45593999997E+02  0.45594000000E+02  0.51100000000E-03 0. -1.
    9900012    2    1    2    0    0 -0.64135209068E+01  0.97452141322E+01  0.41803356601E+02  0.47787273370E+02  0.20000010605E+02 0.  0.
         12    1    1    2    0    0  0.64135209068E+01 -0.97452141322E+01 -0.41803356601E+02  0.43400726630E+02  0.00000000000E+00 0. -1.
         11    1    3    3    0    0  0.17191325541E+01  0.10853160782E+01  0.71342135598E+01  0.74182431280E+01  0.51100000000E-03 0. -1.
        -11    1    3    3    0    0 -0.29744506975E+01  0.39816717636E+01  0.32778651482E+02  0.33153296371E+02  0.51100000000E-03 0.  1.
        -12    1    3    3    0    0 -0.51582027635E+01  0.46782262904E+01  0.18904915584E+01  0.72157338716E+01  0.00000000000E+00 0.  1.
</event>
<event>
 7    1  0.5467297E-010  0.4778727E+02  0.7816164E-02  0.1312668E+00
        -11   -1    0    0    0    0  0.00000000000E+00  0.00000000000E+00  0.45593999997E+02  0.45594000000E+02  0.51100000000E-03 0.  1.
         11   -1    0    0    0    0 -0.00000000000E+00 -0.00000000000E+00 -0.45593999997E+02  0.45594000000E+02  0.51100000000E-03 0. -1.
    9900012    2    1    2    0    0  0.27915618002E+01 -0.35686724646E+02  0.24541557982E+02  0.47787271879E+02  0.20000003805E+02 0.  0.
         12    1    1    2    0    0 -0.27915618002E+01  0.35686724646E+02 -0.24541557982E+02  0.43400728121E+02  0.00000000000E+00 0. -1.
         11    1    3    3    0    0  0.17814319020E+01 -0.17639860429E+02  0.42789754593E+01  0.18238635004E+02  0.51100000000E-03 0. -1.
        -11    1    3    3    0    0 -0.22764845193E+01 -0.47886222328E+01  0.13084318617E+02  0.14117814228E+02  0.51100000000E-03 0.  1.
        -12    1    3    3    0    0  0.32866144175E+01 -0.13258241984E+02  0.71782639054E+01  0.15430822646E+02  0.00000000000E+00 0.  1.
</event>
<event>
 7    1  0.5467297E-010  0.4778727E+02  0.7816164E-02  0.1312668E+00
        -11   -1    0    0    0    0  0.00000000000E+00  0.00000000000E+00  0.45593999997E+02  0.45594000000E+02  0.51100000000E-03 0.  1.
         11   -1    0    0    0    0 -0.00000000000E+00 -0.00000000000E+00 -0.45593999997E+02  0.45594000000E+02  0.51100000000E-03 0. -1.
    9900012    2    1    2    0    0 -0.73810423626E+01  0.42646498724E+02  0.32279915114E+01  0.47787267645E+02  0.19999984500E+02 0.  0.
         12    1    1    2    0    0  0.73810423626E+01 -0.42646498724E+02 -0.32279915114E+01  0.43400732355E+02  0.00000000000E+00 0. -1.
         11    1    3    3    0    0  0.15685351766E+01 -0.48593857089E+00  0.15005757939E+01  0.22244475424E+01  0.51100000000E-03 0.  1.
        -11    1    3    3    0    0 -0.45595075480E+01  0.36868756830E+02 -0.16836450288E+01  0.37187753362E+02  0.51100000000E-03 0. -1.
         12    1    3    3    0    0 -0.43900699912E+01  0.62636804648E+01  0.34110607463E+01  0.83750667405E+01  0.00000000000E+00 0. -1.
</event>
<event>
 7    1  0.5467297E-010  0.4778727E+02  0.7816164E-02  0.1312668E+00
        -11   -1    0    0    0    0  0.00000000000E+00  0.00000000000E+00  0.45593999997E+02  0.45594000000E+02  0.51100000000E-03 0.  1.
         11   -1    0    0    0    0 -0.00000000000E+00 -0.00000000000E+00 -0.45593999997E+02  0.45594000000E+02  0.51100000000E-03 0. -1.
    9900012    2    1    2    0    0 -0.36407547540E+02 -0.15227056319E+01  0.23575312547E+02  0.47787268301E+02  0.19999987492E+02 0.  0.
         12    1    1    2    0    0  0.36407547540E+02  0.15227056319E+01 -0.23575312547E+02  0.43400731699E+02  0.00000000000E+00 0. -1.
         11    1    3    3    0    0 -0.10110309976E+02  0.19457501877E+01  0.12317427081E+02  0.16053763477E+02  0.51100000000E-03 0.  1.
        -11    1    3    3    0    0 -0.80930074340E+00 -0.16149038354E+01 -0.22037793293E+01  0.28494781424E+01  0.51100000000E-03 0. -1.
        -12    1    3    3    0    0 -0.25487936820E+02 -0.18535519842E+01  0.13461664795E+02  0.28884026682E+02  0.00000000000E+00 0.  1.
</event>
<event>
 7    1  0.5467297E-010  0.4778727E+02  0.7816164E-02  0.1312668E+00
        -11   -1    0    0    0    0  0.00000000000E+00  0.00000000000E+00  0.45593999997E+02  0.45594000000E+02  0.51100000000E-03 0.  1.
         11   -1    0    0    0    0 -0.00000000000E+00 -0.00000000000E+00 -0.45593999997E+02  0.45594000000E+02  0.51100000000E-03 0. -1.
    9900012    2    1    2    0    0 -0.18764413805E+02 -0.39108411890E+02  0.14325568257E+01  0.47787270454E+02  0.19999997310E+02 0.  0.
         12    1    1    2    0    0  0.18764413805E+02  0.39108411890E+02 -0.14325568257E+01  0.43400729546E+02  0.00000000000E+00 0. -1.
         11    1    3    3    0    0  0.27240998633E+01 -0.61007825052E+01  0.31355939429E+01  0.73805295797E+01  0.51100000000E-03 0. -1.
        -11    1    3    3    0    0 -0.14569948658E+02 -0.24758730389E+02 -0.49730126159E+01  0.29154913636E+02  0.51100000000E-03 0.  1.
         12    1    3    3    0    0 -0.69185650099E+01 -0.82488989958E+01  0.32699754987E+01  0.11251827238E+02  0.00000000000E+00 0. -1.
</event>
<event>
 7    1  0.5467297E-010  0.4778725E+02  0.7816164E-02  0.1312668E+00
        -11   -1    0    0    0    0  0.00000000000E+00  0.00000000000E+00  0.45593999997E+02  0.45594000000E+02  0.51100000000E-03 0.  1.
         11   -1    0    0    0    0 -0.00000000000E+00 -0.00000000000E+00 -0.45593999997E+02  0.45594000000E+02  0.51100000000E-03 0. -1.
    9900012    2    1    2    0    0  0.35169940573E+02 -0.23750731239E+02  0.90886202077E+01  0.47787251486E+02  0.19999910824E+02 0.  0.
         12    1    1    2    0    0 -0.35169940573E+02  0.23750731239E+02 -0.90886202077E+01  0.43400748514E+02  0.00000000000E+00 0. -1.
         11    1    3    3    0    0  0.62624744169E+01  0.36198392236E+00  0.21623358462E+01  0.66351574778E+01  0.51100000000E-03 0. -1.
        -11    1    3    3    0    0  0.21225471253E+02 -0.24375233903E+02  0.28373479231E+01  0.32445696189E+02  0.51100000000E-03 0.  1.
        -12    1    3    3    0    0  0.76819949034E+01  0.26251874065E+00  0.40889364384E+01  0.87063978190E+01  0.00000000000E+00 0.  1.
</event>
<event>
 7    1  0.5467297E-010  0.4778728E+02  0.7816164E-02  0.1312668E+00
        -11   -1    0    0    0    0  0.00000000000E+00  0.00000000000E+00  0.45593999997E+02  0.45594000000E+02  0.51100000000E-03 0.  1.
         11   -1    0    0    0    0 -0.00000000000E+00 -0.00000000000E+00 -0.45593999997E+02  0.45594000000E+02  0.51100000000E-03 0. -1.
    9900012    2    1    2    0    0 -0.23368227473E+02  0.51663546823E+01  0.36205767854E+02  0.47787275330E+02  0.20000019542E+02 0.  0.
         12    1    1    2    0    0  0.23368227473E+02 -0.51663546823E+01 -0.36205767854E+02  0.43400724670E+02  0.00000000000E+00 0. -1.
         11    1    3    3    0    0  0.32854524488E+00 -0.40527701237E+01  0.41308023096E+01  0.57962415095E+01  0.51100000000E-03 0. -1.
        -11    1    3    3    0    0 -0.16021052342E+02  0.10343174989E+02  0.25366868730E+02  0.31735365390E+02  0.51100000000E-03 0.  1.
        -12    1    3    3    0    0 -0.76757203759E+01 -0.11240501825E+01  0.67080968145E+01  0.10255668431E+02  0.00000000000E+00 0.  1.
</event>
<event>
 7    1  0.5467297E-010  0.4778726E+02  0.7816164E-02  0.1312668E+00
        -11   -1    0    0    0    0  0.00000000000E+00  0.00000000000E+00  0.45593999997E+02  0.45594000000E+02  0.51100000000E-03 0.  1.
         11   -1    0    0    0    0 -0.00000000000E+00 -0.00000000000E+00 -0.45593999997E+02  0.45594000000E+02  0.51100000000E-03 0. -1.
    9900012    2    1    2    0    0 -0.11299971914E+02  0.37470937802E+02  0.18758032043E+02  0.47787259094E+02  0.19999945513E+02 0.  0.
         12    1    1    2    0    0  0.11299971914E+02 -0.37470937802E+02 -0.18758032043E+02  0.43400740906E+02  0.00000000000E+00 0. -1.
         11    1    3    3    0    0 -0.72328263395E+01  0.28604616095E+01  0.59664564679E+01  0.98027863652E+01  0.51100000000E-03 0. -1.
        -11    1    3    3    0    0 -0.34317348819E+01  0.34343373726E+02  0.11259604300E+02  0.36304583903E+02  0.51100000000E-03 0.  1.
        -12    1    3    3    0    0 -0.63541069282E+00  0.26710246746E+00  0.15319712756E+01  0.16798888254E+01  0.00000000000E+00 0.  1.
</event>
<event>
 7    1  0.8979357E-010  0.4778727E+02  0.7816164E-02  0.1312668E+00
        -11   -1    0    0    0    0  0.00000000000E+00  0.00000000000E+00  0.45593999997E+02  0.45594000000E+02  0.51100000000E-03 0.  1.
         11   -1    0    0    0    0 -0.00000000000E+00 -0.00000000000E+00 -0.45593999997E+02  0.45594000000E+02  0.51100000000E-03 0. -1.
    9900012    2    1    2    0    0 -0.18805517059E+02 -0.46398813136E+01 -0.38838733745E+02  0.47787271787E+02  0.20000003387E+02 0.  0.
         12    1    1    2    0    0  0.18805517059E+02  0.46398813136E+01  0.38838733745E+02  0.43400728213E+02  0.00000000000E+00 0. -1.
         11    1    3    3    0    0 -0.12333465862E+01 -0.17341798706E+01  0.58873585404E-01  0.21288471025E+01  0.51100000000E-03 0. -1.
        -11    1    3    3    0    0 -0.10626706504E+02 -0.91097797599E+01 -0.18180820546E+02  0.22944655464E+02  0.51100000000E-03 0.  1.
        -12    1    3    3    0    0 -0.69454639687E+01  0.62040783170E+01 -0.20716786785E+02  0.22713769221E+02  0.00000000000E+00 0.  1.
</event>
<event>
 7    1  0.5467297E-010  0.4778733E+02  0.7816164E-02  0.1312667E+00
        -11   -1    0    0    0    0  0.00000000000E+00  0.00000000000E+00  0.45593999997E+02  0.45594000000E+02  0.51100000000E-03 0. -1.
         11   -1    0    0    0    0 -0.00000000000E+00 -0.00000000000E+00 -0.45593999997E+02  0.45594000000E+02  0.51100000000E-03 0.  1.
    9900012    2    1    2    0    0  0.31954619224E+02 -0.10941164594E+02  0.27254563362E+02  0.47787331843E+02  0.20000277201E+02 0.  0.
         12    1    1    2    0    0 -0.31954619224E+02  0.10941164594E+02 -0.27254563362E+02  0.43400668157E+02  0.00000000000E+00 0. -1.
         11    1    3    3    0    0  0.94581619369E+01 -0.65365852599E+01 -0.51141346578E+00  0.11508488957E+02  0.51100000000E-03 0. -1.
        -11    1    3    3    0    0  0.13975164953E+02 -0.63743479019E+00  0.17735216884E+02  0.22588702414E+02  0.51100000000E-03 0.  1.
        -12    1    3    3    0    0  0.85212923342E+01 -0.37671445443E+01  0.10030759944E+02  0.13690140471E+02  0.00000000000E+00 0.  1.
</event>
<event>
 7    1  0.5467297E-010  0.4778727E+02  0.7816164E-02  0.1312668E+00
        -11   -1    0    0    0    0  0.00000000000E+00  0.00000000000E+00  0.45593999997E+02  0.45594000000E+02  0.51100000000E-03 0.  1.
         11   -1    0    0    0    0 -0.00000000000E+00 -0.00000000000E+00 -0.45593999997E+02  0.45594000000E+02  0.51100000000E-03 0. -1.
    9900012    2    1    2    0    0 -0.22381892397E+02  0.37175405712E+02  0.81450615601E+00  0.47787270543E+02  0.19999997713E+02 0.  0.
         12    1    1    2    0    0  0.22381892397E+02 -0.37175405712E+02 -0.81450615601E+00  0.43400729457E+02  0.00000000000E+00 0. -1.
         11    1    3    3    0    0 -0.79269540861E+01  0.36901742244E+01  0.24829503861E+01  0.90895010738E+01  0.51100000000E-03 0. -1.
        -11    1    3    3    0    0 -0.35361274486E+01  0.20625645267E+02  0.31287483652E+01  0.21159170744E+02  0.51100000000E-03 0.  1.
        -12    1    3    3    0    0 -0.10918810863E+02  0.12859586221E+02 -0.47971925952E+01  0.17538598725E+02  0.00000000000E+00 0.  1.
</event>
<event>
 7    1  0.5467297E-010  0.4778727E+02  0.7816164E-02  0.1312668E+00
        -11   -1    0    0    0    0  0.00000000000E+00  0.00000000000E+00  0.45593999997E+02  0.45594000000E+02  0.51100000000E-03 0.  1.
         11   -1    0    0    0    0 -0.00000000000E+00 -0.00000000000E+00 -0.45593999997E+02  0.45594000000E+02  0.51100000000E-03 0. -1.
    9900012    2    1    2    0    0  0.18711236218E+02 -0.14460368443E+02  0.36392452640E+02  0.47787271602E+02  0.20000002542E+02 0.  0.
         12    1    1    2    0    0 -0.18711236218E+02  0.14460368443E+02 -0.36392452640E+02  0.43400728398E+02  0.00000000000E+00 0. -1.
         11    1    3    3    0    0  0.16272159545E+02 -0.10377237133E+02  0.19278228858E+02  0.27278569151E+02  0.51100000000E-03 0. -1.
        -11    1    3    3    0    0  0.15254823769E+00 -0.72103587084E+01  0.12938207702E+02  0.14812486708E+02  0.51100000000E-03 0.  1.
         12    1    3    3    0    0  0.22865284359E+01  0.31272273986E+01  0.41760160796E+01  0.56962157427E+01  0.00000000000E+00 0. -1.
</event>
<event>
 7    1  0.5467297E-010  0.4778727E+02  0.7816164E-02  0.1312668E+00
        -11   -1    0    0    0    0  0.00000000000E+00  0.00000000000E+00  0.45593999997E+02  0.45594000000E+02  0.51100000000E-03 0.  1.
         11   -1    0    0    0    0 -0.00000000000E+00 -0.00000000000E+00 -0.45593999997E+02  0.45594000000E+02  0.51100000000E-03 0. -1.
    9900012    2    1    2    0    0  0.40792684349E+02  0.14742947978E+02 -0.14918217352E+01  0.47787272545E+02  0.20000006843E+02 0.  0.
         12    1    1    2    0    0 -0.40792684349E+02 -0.14742947978E+02  0.14918217352E+01  0.43400727455E+02  0.00000000000E+00 0. -1.
         11    1    3    3    0    0  0.27519813499E+01 -0.39152118826E+01  0.17685788130E+01  0.51019757658E+01  0.51100000000E-03 0. -1.
        -11    1    3    3    0    0  0.21771809257E+02  0.10178787718E+02 -0.37949643941E+01  0.24331484803E+02  0.51100000000E-03 0.  1.
         12    1    3    3    0    0  0.16268893743E+02  0.84793721424E+01  0.53456384586E+00  0.18353811976E+02  0.00000000000E+00 0. -1.
</event>
<event>
 7    1  0.5467297E-010  0.4778727E+02  0.7816164E-02  0.1312668E+00
        -11   -1    0    0    0    0  0.00000000000E+00  0.00000000000E+00  0.45593999997E+02  0.45594000000E+02  0.51100000000E-03 0.  1.
         11   -1    0    0    0    0 -0.00000000000E+00 -0.00000000000E+00 -0.45593999997E+02  0.45594000000E+02  0.51100000000E-03 0. -1.
    9900012    2    1    2    0    0 -0.40917821835E+01 -0.31438493547E+02  0.29639533934E+02  0.47787268097E+02  0.19999986560E+02 0.  0.
         12    1    1    2    0    0  0.40917821835E+01  0.31438493547E+02 -0.29639533934E+02  0.43400731903E+02  0.00000000000E+00 0. -1.
         11    1    3    3    0    0 -0.96965520535E+00  0.21135096889E+00  0.20710539636E+01  0.22965550789E+01  0.51100000000E-03 0. -1.
        -11    1    3    3    0    0  0.26556164984E+01  0.50785191276E+00  0.53037904839E+01  0.59531845520E+01  0.51100000000E-03 0.  1.
        -12    1    3    3    0    0 -0.57777434766E+01 -0.32157696428E+02  0.22264689486E+02  0.39537528466E+02  0.00000000000E+00 0.  1.
</event>
<event>
 7    1  0.5467297E-010  0.4778728E+02  0.7816164E-02  0.1312668E+00
        -11   -1    0    0    0    0  0.00000000000E+00  0.00000000000E+00  0.45593999997E+02  0.45594000000E+02  0.51100000000E-03 0.  1.
         11   -1    0    0    0    0 -0.00000000000E+00 -0.00000000000E+00 -0.45593999997E+02  0.45594000000E+02  0.51100000000E-03 0. -1.
    9900012    2    1    2    0    0 -0.38934929532E+02  0.13614594021E+02  0.13503209253E+02  0.47787279175E+02  0.20000037069E+02 0.  0.
         12    1    1    2    0    0  0.38934929532E+02 -0.13614594021E+02 -0.13503209253E+02  0.43400720825E+02  0.00000000000E+00 0. -1.
         11    1    3    3    0    0 -0.22651513632E+02  0.88018534598E+01  0.10422295391E+01  0.24323855303E+02  0.51100000000E-03 0. -1.
        -11    1    3    3    0    0 -0.79251736580E+01 -0.19370024959E+01  0.90660197361E+01  0.12196436787E+02  0.51100000000E-03 0.  1.
        -12    1    3    3    0    0 -0.83582422424E+01  0.67497430570E+01  0.33949599780E+01  0.11266987085E+02  0.00000000000E+00 0.  1.
</event>
<event>
 7    1  0.5467297E-010  0.4778727E+02  0.7816164E-02  0.1312668E+00
        -11   -1    0    0    0    0  0.00000000000E+00  0.00000000000E+00  0.45593999997E+02  0.45594000000E+02  0.51100000000E-03 0.  1.
         11   -1    0    0    0    0 -0.00000000000E+00 -0.00000000000E+00 -0.45593999997E+02  0.45594000000E+02  0.51100000000E-03 0. -1.
    9900012    2    1    2    0    0  0.38356140059E+02  0.76379994167E+01  0.18817304387E+02  0.47787268904E+02  0.19999990239E+02 0.  0.
         12    1    1    2    0    0 -0.38356140059E+02 -0.76379994167E+01 -0.18817304387E+02  0.43400731096E+02  0.00000000000E+00 0. -1.
         11    1    3    3    0    0  0.72660328989E+01  0.37682790948E+01  0.45657085550E+01  0.93723452932E+01  0.51100000000E-03 0.  1.
        -11    1    3    3    0    0  0.25374574182E+02  0.70692065417E+01  0.45831881037E+01  0.26736647312E+02  0.51100000000E-03 0. -1.
        -12    1    3    3    0    0  0.57155329783E+01 -0.31994862198E+01  0.96684077283E+01  0.11678276298E+02  0.00000000000E+00 0.  1.
</event>
<event>
 7    1  0.5467297E-010  0.4778726E+02  0.7816164E-02  0.1312668E+00
        -11   -1    0    0    0    0  0.00000000000E+00  0.00000000000E+00  0.45593999997E+02  0.45594000000E+02  0.51100000000E-03 0.  1.
         11   -1    0    0    0    0 -0.00000000000E+00 -0.00000000000E+00 -0.45593999997E+02  0.45594000000E+02  0.51100000000E-03 0. -1.
    9900012    2    1    2    0    0 -0.40180114049E+02 -0.66897483805E+01  0.14980986084E+02  0.47787259886E+02  0.19999949126E+02 0.  0.
         12    1    1    2    0    0  0.40180114049E+02  0.66897483805E+01 -0.14980986084E+02  0.43400740114E+02  0.00000000000E+00 0. -1.
         11    1    3    3    0    0 -0.98192338720E+01 -0.10125541782E+02  0.68593856871E+01  0.15684231651E+02  0.51100000000E-03 0. -1.
        -11    1    3    3    0    0 -0.16607944275E+02  0.16940649112E+01  0.72867828116E+01  0.18215127586E+02  0.51100000000E-03 0.  1.
         12    1    3    3    0    0 -0.13752935902E+02  0.17417284903E+01  0.83481758523E+00  0.13887900649E+02  0.00000000000E+00 0. -1.
</event>
<event>
 7    1  0.5467297E-010  0.4778728E+02  0.7816164E-02  0.1312668E+00
        -11   -1    0    0    0    0  0.00000000000E+00  0.00000000000E+00  0.45593999997E+02  0.45594000000E+02  0.51100000000E-03 0.  1.
         11   -1    0    0    0    0 -0.00000000000E+00 -0.00000000000E+00 -0.45593999997E+02  0.45594000000E+02  0.51100000000E-03 0. -1.
    9900012    2    1    2    0    0 -0.92038605445E+01 -0.28230650420E+02  0.31653471151E+02  0.47787275260E+02  0.20000019222E+02 0.  0.
         12    1    1    2    0    0  0.92038605445E+01  0.28230650420E+02 -0.31653471151E+02  0.43400724740E+02  0.00000000000E+00 0. -1.
         11    1    3    3    0    0  0.28111279172E+01 -0.12449185572E+02  0.18741130097E+02  0.22674095774E+02  0.51100000000E-03 0. -1.
        -11    1    3    3    0    0 -0.72988849613E+01 -0.14761639166E+02  0.83115750201E+01  0.18446191806E+02  0.51100000000E-03 0.  1.
        -12    1    3    3    0    0 -0.47161035004E+01 -0.10198256816E+01  0.46007660334E+01  0.66669876812E+01  0.00000000000E+00 0.  1.
</event>
<event>
 7    1  0.5467297E-010  0.4778728E+02  0.7816164E-02  0.1312668E+00
        -11   -1    0    0    0    0  0.00000000000E+00  0.00000000000E+00  0.45593999997E+02  0.45594000000E+02  0.51100000000E-03 0.  1.
         11   -1    0    0    0    0 -0.00000000000E+00 -0.00000000000E+00 -0.45593999997E+02  0.45594000000E+02  0.51100000000E-03 0. -1.
    9900012    2    1    2    0    0 -0.29261846187E+02  0.21895036512E+02  0.23408848635E+02  0.47787280414E+02  0.20000042718E+02 0.  0.
         12    1    1    2    0    0  0.29261846187E+02 -0.21895036512E+02 -0.23408848635E+02  0.43400719586E+02  0.00000000000E+00 0. -1.
         11    1    3    3    0    0 -0.13146607600E+02  0.18029392932E+02  0.12618910322E+02  0.25634531376E+02  0.51100000000E-03 0.  1.
        -11    1    3    3    0    0 -0.16798606955E+02  0.17829171258E+01  0.82566262584E+01  0.18802762205E+02  0.51100000000E-03 0. -1.
         12    1    3    3    0    0  0.68336836777E+00  0.20827264548E+01  0.25333120553E+01  0.33499868330E+01  0.00000000000E+00 0. -1.
</event>
<event>
 7    1  0.5467297E-010  0.4778727E+02  0.7816164E-02  0.1312668E+00
        -11   -1    0    0    0    0  0.00000000000E+00  0.00000000000E+00  0.45593999997E+02  0.45594000000E+02  0.51100000000E-03 0.  1.
         11   -1    0    0    0    0 -0.00000000000E+00 -0.00000000000E+00 -0.45593999997E+02  0.45594000000E+02  0.51100000000E-03 0. -1.
    9900012    2    1    2    0    0 -0.39469397126E+02  0.15692770925E+02  0.89177969891E+01  0.47787268762E+02  0.19999989595E+02 0.  0.
         12    1    1    2    0    0  0.39469397126E+02 -0.15692770925E+02 -0.89177969891E+01  0.43400731238E+02  0.00000000000E+00 0. -1.
         11    1    3    3    0    0 -0.28007471892E+02  0.48917762614E+01  0.85748811451E+01  0.29696406242E+02  0.51100000000E-03 0. -1.
        -11    1    3    3    0    0 -0.64311593704E+01  0.39840837729E+00  0.98260905972E+00  0.65179798180E+01  0.51100000000E-03 0.  1.
         12    1    3    3    0    0 -0.50307658633E+01  0.10402586287E+02 -0.63969321578E+00  0.11572882702E+02  0.00000000000E+00 0. -1.
</event>
<event>
 7    1  0.5467297E-010  0.4778729E+02  0.7816164E-02  0.1312668E+00
        -11   -1    0    0    0    0  0.00000000000E+00  0.00000000000E+00  0.45593999997E+02  0.45594000000E+02  0.51100000000E-03 0.  1.
         11   -1    0    0    0    0 -0.00000000000E+00 -0.00000000000E+00 -0.45593999997E+02  0.45594000000E+02  0.51100000000E-03 0. -1.
    9900012    2    1    2    0    0  0.52041028380E+01 -0.12458543342E+02  0.41247100023E+02  0.47787294374E+02  0.20000106370E+02 0.  0.
         12    1    1    2    0    0 -0.52041028380E+01  0.12458543342E+02 -0.41247100023E+02  0.43400705626E+02  0.00000000000E+00 0. -1.
         11    1    3    3    0    0  0.74969978481E-01  0.27961005350E+01  0.27710807724E+01  0.39373452487E+01  0.51100000000E-03 0. -1.
        -11    1    3    3    0    0  0.12960608418E+01 -0.16582515873E+02  0.33718096406E+02  0.37597468424E+02  0.51100000000E-03 0.  1.
        -12    1    3    3    0    0  0.38330720178E+01  0.13278719965E+01  0.47579228445E+01  0.62524807018E+01  0.00000000000E+00 0.  1.
</event>
<event>
 7    1  0.5467297E-010  0.4778728E+02  0.7816164E-02  0.1312668E+00
        -11   -1    0    0    0    0  0.00000000000E+00  0.00000000000E+00  0.45593999997E+02  0.45594000000E+02  0.51100000000E-03 0.  1.
         11   -1    0    0    0    0 -0.00000000000E+00 -0.00000000000E+00 -0.45593999997E+02  0.45594000000E+02  0.51100000000E-03 0. -1.
    9900012    2    1    2    0    0  0.57649349593E+01  0.56183470968E+01  0.42647654010E+02  0.47787277751E+02  0.20000030577E+02 0.  0.
         12    1    1    2    0    0 -0.57649349593E+01 -0.56183470968E+01 -0.42647654010E+02  0.43400722249E+02  0.00000000000E+00 0. -1.
         11    1    3    3    0    0  0.69132666470E+01 -0.29865497516E+01  0.26513480953E+02  0.27562246056E+02  0.51100000000E-03 0. -1.
        -11    1    3    3    0    0 -0.43449450650E+01  0.52280448442E+01  0.59678579591E+01  0.90457907002E+01  0.51100000000E-03 0.  1.
         12    1    3    3    0    0  0.31966133774E+01  0.33768520041E+01  0.10166315098E+02  0.11179240995E+02  0.00000000000E+00 0. -1.
</event>
<event>
 7    1  0.5467297E-010  0.4778727E+02  0.7816164E-02  0.1312668E+00
        -11   -1    0    0    0    0  0.00000000000E+00  0.00000000000E+00  0.45593999997E+02  0.45594000000E+02  0.51100000000E-03 0.  1.
         11   -1    0    0    0    0 -0.00000000000E+00 -0.00000000000E+00 -0.45593999997E+02  0.45594000000E+02  0.51100000000E-03 0. -1.
    9900012    2    1    2    0    0  0.69688025677E+01  0.41069348170E+02  0.12180626147E+02  0.47787271646E+02  0.20000002742E+02 0.  0.
         12    1    1    2    0    0 -0.69688025677E+01 -0.41069348170E+02 -0.12180626147E+02  0.43400728354E+02  0.00000000000E+00 0. -1.
         11    1    3    3    0    0 -0.29252264841E+01  0.18806531998E+01  0.49460501568E+01  0.60462565986E+01  0.51100000000E-03 0. -1.
        -11    1    3    3    0    0  0.97475607768E+01  0.26009212555E+02  0.32139092506E+01  0.27961103193E+02  0.51100000000E-03 0.  1.
        -12    1    3    3    0    0  0.14646827492E+00  0.13179482415E+02  0.40206667392E+01  0.13779911854E+02  0.00000000000E+00 0.  1.
</event>
<event>
 7    1  0.5467297E-010  0.4778726E+02  0.7816164E-02  0.1312668E+00
        -11   -1    0    0    0    0  0.00000000000E+00  0.00000000000E+00  0.45593999997E+02  0.45594000000E+02  0.51100000000E-03 0.  1.
         11   -1    0    0    0    0 -0.00000000000E+00 -0.00000000000E+00 -0.45593999997E+02  0.45594000000E+02  0.51100000000E-03 0. -1.
    9900012    2    1    2    0    0  0.26287874384E+02  0.33912946420E+02  0.65179455287E+01  0.47787263965E+02  0.19999967722E+02 0.  0.
         12    1    1    2    0    0 -0.26287874384E+02 -0.33912946420E+02 -0.65179455287E+01  0.43400736035E+02  0.00000000000E+00 0. -1.
         11    1    3    3    0    0  0.59877933624E+01  0.18542376707E+02  0.91188505429E+01  0.21513410673E+02  0.51100000000E-03 0. -1.
        -11    1    3    3    0    0  0.13305314432E+02  0.94001436518E+01  0.11733956257E+01  0.16333124329E+02  0.51100000000E-03 0.  1.
         12    1    3    3    0    0  0.69947665897E+01  0.59704260607E+01 -0.37743006399E+01  0.99407289628E+01  0.00000000000E+00 0. -1.
</event>
<event>
 7    1  0.5467297E-010  0.4778727E+02  0.7816164E-02  0.1312668E+00
        -11   -1    0    0    0    0  0.00000000000E+00  0.00000000000E+00  0.45593999997E+02  0.45594000000E+02  0.51100000000E-03 0.  1.
         11   -1    0    0    0    0 -0.00000000000E+00 -0.00000000000E+00 -0.45593999997E+02  0.45594000000E+02  0.51100000000E-03 0. -1.
    9900012    2    1    2    0    0  0.10649704722E+02  0.77761168147E+01  0.41348993764E+02  0.47787268570E+02  0.19999988717E+02 0.  0.
         12    1    1    2    0    0 -0.10649704722E+02 -0.77761168147E+01 -0.41348993764E+02  0.43400731430E+02  0.00000000000E+00 0. -1.
         11    1    3    3    0    0  0.87619273201E-01  0.96923898209E+01  0.15059895886E+02  0.17909510377E+02  0.51100000000E-03 0. -1.
        -11    1    3    3    0    0 -0.11306560506E+01  0.16251533900E+01  0.37292484215E+01  0.42221796144E+01  0.51100000000E-03 0.  1.
         12    1    3    3    0    0  0.11692741500E+02 -0.35414263961E+01  0.22559849456E+02  0.25655578578E+02  0.00000000000E+00 0. -1.
</event>
<event>
 7    1  0.5467297E-010  0.4778727E+02  0.7816164E-02  0.1312668E+00
        -11   -1    0    0    0    0  0.00000000000E+00  0.00000000000E+00  0.45593999997E+02  0.45594000000E+02  0.51100000000E-03 0. -1.
         11   -1    0    0    0    0 -0.00000000000E+00 -0.00000000000E+00 -0.45593999997E+02  0.45594000000E+02  0.51100000000E-03 0.  1.
    9900012    2    1    2    0    0  0.24935458643E+02 -0.32133171081E+02  0.15142840498E+02  0.47787269593E+02  0.19999993384E+02 0.  0.
         12    1    1    2    0    0 -0.24935458643E+02  0.32133171081E+02 -0.15142840498E+02  0.43400730407E+02  0.00000000000E+00 0. -1.
         11    1    3    3    0    0  0.25482155039E+01  0.89474280481E+00  0.33436580838E+01  0.42981410614E+01  0.51100000000E-03 0. -1.
        -11    1    3    3    0    0  0.69030274707E+01 -0.21000070359E+02  0.80586231395E+01  0.23528624068E+02  0.51100000000E-03 0.  1.
        -12    1    3    3    0    0  0.15484215669E+02 -0.12027843527E+02  0.37405592748E+01  0.19960504464E+02  0.00000000000E+00 0.  1.
</event>
<event>
 7    1  0.5467297E-010  0.4778727E+02  0.7816164E-02  0.1312668E+00
        -11   -1    0    0    0    0  0.00000000000E+00  0.00000000000E+00  0.45593999997E+02  0.45594000000E+02  0.51100000000E-03 0.  1.
         11   -1    0    0    0    0 -0.00000000000E+00 -0.00000000000E+00 -0.45593999997E+02  0.45594000000E+02  0.51100000000E-03 0. -1.
    9900012    2    1    2    0    0  0.10614788142E+02  0.30578727957E+01  0.41971405419E+02  0.47787272055E+02  0.20000004608E+02 0.  0.
         12    1    1    2    0    0 -0.10614788142E+02 -0.30578727957E+01 -0.41971405419E+02  0.43400727945E+02  0.00000000000E+00 0. -1.
         11    1    3    3    0    0  0.81756709615E+01  0.60431932982E+01  0.99694634081E+01  0.14239100457E+02  0.51100000000E-03 0. -1.
        -11    1    3    3    0    0  0.37296046444E+01 -0.50755938287E+01  0.13656663265E+02  0.15039150751E+02  0.51100000000E-03 0.  1.
         12    1    3    3    0    0 -0.12904874635E+01  0.20902733262E+01  0.18345278746E+02  0.18509020848E+02  0.00000000000E+00 0. -1.
</event>
<event>
 7    1  0.5467297E-010  0.4778727E+02  0.7816164E-02  0.1312668E+00
        -11   -1    0    0    0    0  0.00000000000E+00  0.00000000000E+00  0.45593999997E+02  0.45594000000E+02  0.51100000000E-03 0. -1.
         11   -1    0    0    0    0 -0.00000000000E+00 -0.00000000000E+00 -0.45593999997E+02  0.45594000000E+02  0.51100000000E-03 0.  1.
    9900012    2    1    2    0    0  0.35008378854E+02 -0.25624124445E+02  0.12004076713E+01  0.47787270488E+02  0.19999997465E+02 0.  0.
         12    1    1    2    0    0 -0.35008378854E+02  0.25624124445E+02 -0.12004076713E+01  0.43400729512E+02  0.00000000000E+00 0. -1.
         11    1    3    3    0    0  0.21554993885E+02 -0.77739646557E+01 -0.52119528661E+01  0.23499292347E+02  0.51100000000E-03 0. -1.
        -11    1    3    3    0    0  0.77639059616E+00 -0.95133207448E+00 -0.13099785578E+01  0.17955108345E+01  0.51100000000E-03 0.  1.
         12    1    3    3    0    0  0.12676994373E+02 -0.16898827715E+02  0.77223390952E+01  0.22492467307E+02  0.00000000000E+00 0. -1.
</event>
<event>
 7    1  0.5467297E-010  0.4778727E+02  0.7816164E-02  0.1312668E+00
        -11   -1    0    0    0    0  0.00000000000E+00  0.00000000000E+00  0.45593999997E+02  0.45594000000E+02  0.51100000000E-03 0. -1.
         11   -1    0    0    0    0 -0.00000000000E+00 -0.00000000000E+00 -0.45593999997E+02  0.45594000000E+02  0.51100000000E-03 0.  1.
    9900012    2    1    2    0    0 -0.33222764379E+02 -0.27920533024E+02 -0.56114923615E+00  0.47787272751E+02  0.20000007781E+02 0.  0.
         12    1    1    2    0    0  0.33222764379E+02  0.27920533024E+02  0.56114923615E+00  0.43400727249E+02  0.00000000000E+00 0. -1.
         11    1    3    3    0    0 -0.94889849143E+01 -0.79988127847E+01  0.18217381885E+01  0.12543546985E+02  0.51100000000E-03 0. -1.
        -11    1    3    3    0    0 -0.24128342328E+02 -0.12343328114E+02  0.55039575218E+00  0.27107887933E+02  0.51100000000E-03 0.  1.
        -12    1    3    3    0    0  0.39456286399E+00 -0.75783921251E+01 -0.29332831768E+01  0.81358378334E+01  0.00000000000E+00 0.  1.
</event>
<event>
 7    1  0.5467297E-010  0.4778722E+02  0.7816164E-02  0.1312668E+00
        -11   -1    0    0    0    0  0.00000000000E+00  0.00000000000E+00  0.45593999997E+02  0.45594000000E+02  0.51100000000E-03 0.  1.
         11   -1    0    0    0    0 -0.00000000000E+00 -0.00000000000E+00 -0.45593999997E+02  0.45594000000E+02  0.51100000000E-03 0. -1.
    9900012    2    1    2    0    0 -0.13916685629E+02 -0.51302436377E+00  0.41105843261E+02  0.47787220248E+02  0.19999768396E+02 0.  0.
         12    1    1    2    0    0  0.13916685629E+02  0.51302436377E+00 -0.41105843261E+02  0.43400779752E+02  0.00000000000E+00 0. -1.
         11    1    3    3    0    0 -0.10351861595E+02  0.37098179177E+01  0.76871069060E+01  0.13416981788E+02  0.51100000000E-03 0. -1.
        -11    1    3    3    0    0 -0.83752867424E-01 -0.43791310776E+01  0.15071371058E+02  0.15694904567E+02  0.51100000000E-03 0.  1.
         12    1    3    3    0    0 -0.34810711668E+01  0.15628879617E+00  0.18347365297E+02  0.18675333893E+02  0.00000000000E+00 0. -1.
</event>
<event>
 7    1  0.5467297E-010  0.4778727E+02  0.7816164E-02  0.1312668E+00
        -11   -1    0    0    0    0  0.00000000000E+00  0.00000000000E+00  0.45593999997E+02  0.45594000000E+02  0.51100000000E-03 0.  1.
         11   -1    0    0    0    0 -0.00000000000E+00 -0.00000000000E+00 -0.45593999997E+02  0.45594000000E+02  0.51100000000E-03 0. -1.
    9900012    2    1    2    0    0  0.24138043804E+01  0.37756464116E+02 -0.21266087816E+02  0.47787268150E+02  0.19999986805E+02 0.  0.
         12    1    1    2    0    0 -0.24138043804E+01 -0.37756464116E+02  0.21266087816E+02  0.43400731850E+02  0.00000000000E+00 0. -1.
         11    1    3    3    0    0  0.16741821488E+01  0.31568317449E+01 -0.14157010466E+01  0.38435247166E+01  0.51100000000E-03 0. -1.
        -11    1    3    3    0    0  0.37461462710E+01  0.11635753298E+01 -0.69477850510E+01  0.79786738752E+01  0.51100000000E-03 0.  1.
        -12    1    3    3    0    0 -0.30065240394E+01  0.33436057041E+02 -0.12902601718E+02  0.35965069558E+02  0.00000000000E+00 0.  1.
</event>
<event>
 7    1  0.5467297E-010  0.4778726E+02  0.7816164E-02  0.1312668E+00
        -11   -1    0    0    0    0  0.00000000000E+00  0.00000000000E+00  0.45593999997E+02  0.45594000000E+02  0.51100000000E-03 0.  1.
         11   -1    0    0    0    0 -0.00000000000E+00 -0.00000000000E+00 -0.45593999997E+02  0.45594000000E+02  0.51100000000E-03 0. -1.
    9900012    2    1    2    0    0  0.14660317506E+02  0.38996446927E+02  0.12164541706E+02  0.47787264324E+02  0.19999969359E+02 0.  0.
         12    1    1    2    0    0 -0.14660317506E+02 -0.38996446927E+02 -0.12164541706E+02  0.43400735676E+02  0.00000000000E+00 0. -1.
         11    1    3    3    0    0  0.32842970886E+01  0.20530097866E+02 -0.64564975837E+00  0.20801163179E+02  0.51100000000E-03 0. -1.
        -11    1    3    3    0    0  0.19645070722E+01  0.62199674504E+01  0.89344309201E+01  0.11062157983E+02  0.51100000000E-03 0.  1.
        -12    1    3    3    0    0  0.94115133454E+01  0.12246381611E+02  0.38757605440E+01  0.15923943161E+02  0.00000000000E+00 0.  1.
</event>
<event>
 7    1  0.5467297E-010  0.4778727E+02  0.7816164E-02  0.1312668E+00
        -11   -1    0    0    0    0  0.00000000000E+00  0.00000000000E+00  0.45593999997E+02  0.45594000000E+02  0.51100000000E-03 0.  1.
         11   -1    0    0    0    0 -0.00000000000E+00 -0.00000000000E+00 -0.45593999997E+02  0.45594000000E+02  0.51100000000E-03 0. -1.
    9900012    2    1    2    0    0 -0.96512171842E+01 -0.29122217598E+02  0.30698105180E+02  0.47787271751E+02  0.20000003220E+02 0.  0.
         12    1    1    2    0    0  0.96512171842E+01  0.29122217598E+02 -0.30698105180E+02  0.43400728249E+02  0.00000000000E+00 0. -1.
         11    1    3    3    0    0  0.72195616307E-01 -0.58250612289E+01  0.23616164094E+00  0.58302935697E+01  0.51100000000E-03 0. -1.
        -11    1    3    3    0    0 -0.89166721623E+01 -0.17183215855E+02  0.30089052265E+02  0.35778778851E+02  0.51100000000E-03 0.  1.
        -12    1    3    3    0    0 -0.80674063813E+00 -0.61139405137E+01  0.37289127391E+00  0.61781993302E+01  0.00000000000E+00 0.  1.
</event>
<event>
 7    1  0.5467297E-010  0.4778727E+02  0.7816164E-02  0.1312668E+00
        -11   -1    0    0    0    0  0.00000000000E+00  0.00000000000E+00  0.45593999997E+02  0.45594000000E+02  0.51100000000E-03 0. -1.
         11   -1    0    0    0    0 -0.00000000000E+00 -0.00000000000E+00 -0.45593999997E+02  0.45594000000E+02  0.51100000000E-03 0.  1.
    9900012    2    1    2    0    0 -0.32476227253E+02 -0.16885368868E+02 -0.23319568910E+02  0.47787270599E+02  0.19999997968E+02 0.  0.
         12    1    1    2    0    0  0.32476227253E+02  0.16885368868E+02  0.23319568910E+02  0.43400729401E+02  0.00000000000E+00 0. -1.
         11    1    3    3    0    0 -0.14442116275E+02  0.29685248807E+00 -0.58313045447E+01  0.15577771242E+02  0.51100000000E-03 0. -1.
        -11    1    3    3    0    0 -0.36089093761E+01 -0.85649805676E+01 -0.23355012719E+01  0.95831980810E+01  0.51100000000E-03 0.  1.
        -12    1    3    3    0    0 -0.14425201601E+02 -0.86172407888E+01 -0.15152763094E+02  0.22626301276E+02  0.00000000000E+00 0.  1.
</event>
<event>
 7    1  0.5467297E-010  0.4778727E+02  0.7816164E-02  0.1312668E+00
        -11   -1    0    0    0    0  0.00000000000E+00  0.00000000000E+00  0.45593999997E+02  0.45594000000E+02  0.51100000000E-03 0.  1.
         11   -1    0    0    0    0 -0.00000000000E+00 -0.00000000000E+00 -0.45593999997E+02  0.45594000000E+02  0.51100000000E-03 0. -1.
    9900012    2    1    2    0    0  0.17174129704E+02 -0.28929926091E+02  0.27417731657E+02  0.47787270007E+02  0.19999995270E+02 0.  0.
         12    1    1    2    0    0 -0.17174129704E+02  0.28929926091E+02 -0.27417731657E+02  0.43400729993E+02  0.00000000000E+00 0. -1.
         11    1    3    3    0    0 -0.10644470948E+01 -0.52115812290E+01  0.38296966670E+01  0.65544033555E+01  0.51100000000E-03 0. -1.
        -11    1    3    3    0    0  0.69518618785E+01 -0.88273054974E+01  0.12245110681E+00  0.11236756670E+02  0.51100000000E-03 0.  1.
        -12    1    3    3    0    0  0.11286714920E+02 -0.14891039364E+02  0.23465583884E+02  0.29996109982E+02  0.00000000000E+00 0.  1.
</event>
<event>
 7    1  0.5467297E-010  0.4778727E+02  0.7816164E-02  0.1312668E+00
        -11   -1    0    0    0    0  0.00000000000E+00  0.00000000000E+00  0.45593999997E+02  0.45594000000E+02  0.51100000000E-03 0.  1.
         11   -1    0    0    0    0 -0.00000000000E+00 -0.00000000000E+00 -0.45593999997E+02  0.45594000000E+02  0.51100000000E-03 0. -1.
    9900012    2    1    2    0    0 -0.16980015249E+01  0.29327238239E+02 -0.31947657659E+02  0.47787274870E+02  0.20000017443E+02 0.  0.
         12    1    1    2    0    0  0.16980015249E+01 -0.29327238239E+02  0.31947657659E+02  0.43400725130E+02  0.00000000000E+00 0. -1.
         11    1    3    3    0    0 -0.51641863950E+01  0.44488021246E+01 -0.14186708856E+01  0.69622761226E+01  0.51100000000E-03 0. -1.
        -11    1    3    3    0    0  0.22927565034E+01  0.23456331477E+02 -0.30981092849E+02  0.38926653249E+02  0.51100000000E-03 0.  1.
         12    1    3    3    0    0  0.11734283667E+01  0.14221046368E+01  0.45210607544E+00  0.18983454989E+01  0.00000000000E+00 0. -1.
</event>
<event>
 7    1  0.5467297E-010  0.4778727E+02  0.7816164E-02  0.1312668E+00
        -11   -1    0    0    0    0  0.00000000000E+00  0.00000000000E+00  0.45593999997E+02  0.45594000000E+02  0.51100000000E-03 0.  1.
         11   -1    0    0    0    0 -0.00000000000E+00 -0.00000000000E+00 -0.45593999997E+02  0.45594000000E+02  0.51100000000E-03 0. -1.
    9900012    2    1    2    0    0 -0.43185851135E+02  0.40154548731E+01  0.15753859616E+01  0.47787268934E+02  0.19999990378E+02 0.  0.
         12    1    1    2    0    0  0.43185851135E+02 -0.40154548731E+01 -0.15753859616E+01  0.43400731066E+02  0.00000000000E+00 0. -1.
         11    1    3    3    0    0 -0.87519903762E+01 -0.42508997126E+01 -0.81671939843E-01  0.97300644642E+01  0.51100000000E-03 0. -1.
        -11    1    3    3    0    0 -0.77653988497E+01  0.73384054434E+01  0.36694364902E+01  0.11296830448E+02  0.51100000000E-03 0.  1.
        -12    1    3    3    0    0 -0.26668461910E+02  0.92794914230E+00 -0.20123785887E+01  0.26760374022E+02  0.00000000000E+00 0.  1.
</event>
<event>
 7    1  0.5467297E-010  0.4778727E+02  0.7816164E-02  0.1312668E+00
        -11   -1    0    0    0    0  0.00000000000E+00  0.00000000000E+00  0.45593999997E+02  0.45594000000E+02  0.51100000000E-03 0. -1.
         11   -1    0    0    0    0 -0.00000000000E+00 -0.00000000000E+00 -0.45593999997E+02  0.45594000000E+02  0.51100000000E-03 0.  1.
    9900012    2    1    2    0    0  0.42054318127E+02  0.10325568164E+02 -0.29052990315E+01  0.47787265058E+02  0.19999972705E+02 0.  0.
         12    1    1    2    0    0 -0.42054318127E+02 -0.10325568164E+02  0.29052990315E+01  0.43400734942E+02  0.00000000000E+00 0. -1.
         11    1    3    3    0    0  0.63389391374E+01 -0.10981019055E+01  0.55364565084E+01  0.84876573984E+01  0.51100000000E-03 0. -1.
        -11    1    3    3    0    0  0.26869947038E+02  0.51484305969E+01 -0.77357657650E+01  0.28431364084E+02  0.51100000000E-03 0.  1.
         12    1    3    3    0    0  0.88454319512E+01  0.62752394730E+01 -0.70598977496E+00  0.10868243575E+02  0.00000000000E+00 0. -1.
</event>
<event>
 7    1  0.5467297E-010  0.4778727E+02  0.7816164E-02  0.1312668E+00
        -11   -1    0    0    0    0  0.00000000000E+00  0.00000000000E+00  0.45593999997E+02  0.45594000000E+02  0.51100000000E-03 0. -1.
         11   -1    0    0    0    0 -0.00000000000E+00 -0.00000000000E+00 -0.45593999997E+02  0.45594000000E+02  0.51100000000E-03 0.  1.
    9900012    2    1    2    0    0  0.16928981427E+01  0.29934567921E+02 -0.31379601103E+02  0.47787266986E+02  0.19999981497E+02 0.  0.
         12    1    1    2    0    0 -0.16928981427E+01 -0.29934567921E+02  0.31379601103E+02  0.43400733014E+02  0.00000000000E+00 0. -1.
         11    1    3    3    0    0  0.58448052263E+01  0.17164145241E+02 -0.63957448712E+01  0.19226938984E+02  0.51100000000E-03 0. -1.
        -11    1    3    3    0    0 -0.29489879185E+01  0.61874660403E+01 -0.15553614592E+02  0.16996946575E+02  0.51100000000E-03 0.  1.
         12    1    3    3    0    0 -0.12029191651E+01  0.65829566403E+01 -0.94302416398E+01  0.11563381427E+02  0.00000000000E+00 0. -1.
</event>
<event>
 7    1  0.5467297E-010  0.4778727E+02  0.7816164E-02  0.1312668E+00
        -11   -1    0    0    0    0  0.00000000000E+00  0.00000000000E+00  0.45593999997E+02  0.45594000000E+02  0.51100000000E-03 0.  1.
         11   -1    0    0    0    0 -0.00000000000E+00 -0.00000000000E+00 -0.45593999997E+02  0.45594000000E+02  0.51100000000E-03 0. -1.
    9900012    2    1    2    0    0 -0.10850882525E+02  0.37482935772E+02  0.18997658307E+02  0.47787272508E+02  0.20000006673E+02 0.  0.
         12    1    1    2    0    0  0.10850882525E+02 -0.37482935772E+02 -0.18997658307E+02  0.43400727492E+02  0.00000000000E+00 0. -1.
         11    1    3    3    0    0  0.35108149242E+00  0.19060684184E+02  0.68622943214E+01  0.20261392435E+02  0.51100000000E-03 0. -1.
        -11    1    3    3    0    0 -0.11504375943E+02  0.75789987433E+01  0.56690995029E+01  0.14897334568E+02  0.51100000000E-03 0.  1.
        -12    1    3    3    0    0  0.30241192496E+00  0.10843252845E+02  0.64662644824E+01  0.12628545506E+02  0.00000000000E+00 0.  1.
</event>
<event>
 7    1  0.5467297E-010  0.4778728E+02  0.7816164E-02  0.1312668E+00
        -11   -1    0    0    0    0  0.00000000000E+00  0.00000000000E+00  0.45593999997E+02  0.45594000000E+02  0.51100000000E-03 0.  1.
         11   -1    0    0    0    0 -0.00000000000E+00 -0.00000000000E+00 -0.45593999997E+02  0.45594000000E+02  0.51100000000E-03 0. -1.
    9900012    2    1    2    0    0  0.37490280342E+02 -0.79051511174E+01  0.20386517659E+02  0.47787278386E+02  0.20000033474E+02 0.  0.
         12    1    1    2    0    0 -0.37490280342E+02  0.79051511174E+01 -0.20386517659E+02  0.43400721614E+02  0.00000000000E+00 0. -1.
         11    1    3    3    0    0  0.23560869746E+01 -0.27729243835E+01  0.10175746023E+02  0.10806760053E+02  0.51100000000E-03 0. -1.
        -11    1    3    3    0    0  0.26833139626E+02 -0.38897099438E+01  0.84967900385E+01  0.28413776004E+02  0.51100000000E-03 0.  1.
         12    1    3    3    0    0  0.83010537421E+01 -0.12425167901E+01  0.17139815978E+01  0.85667423283E+01  0.00000000000E+00 0. -1.
</event>
<event>
 7    1  0.5467297E-010  0.4778727E+02  0.7816164E-02  0.1312668E+00
        -11   -1    0    0    0    0  0.00000000000E+00  0.00000000000E+00  0.45593999997E+02  0.45594000000E+02  0.51100000000E-03 0.  1.
         11   -1    0    0    0    0 -0.00000000000E+00 -0.00000000000E+00 -0.45593999997E+02  0.45594000000E+02  0.51100000000E-03 0. -1.
    9900012    2    1    2    0    0  0.28821499837E+02 -0.24022725211E+02  0.21814053795E+02  0.47787272790E+02  0.20000007958E+02 0.  0.
         12    1    1    2    0    0 -0.28821499837E+02  0.24022725211E+02 -0.21814053795E+02  0.43400727210E+02  0.00000000000E+00 0. -1.
         11    1    3    3    0    0  0.48497141660E+01 -0.63785108901E+01  0.20492236360E-01  0.80128365053E+01  0.51100000000E-03 0. -1.
        -11    1    3    3    0    0  0.71426971008E+01  0.15647688868E+01  0.23620161046E+01  0.76841228440E+01  0.51100000000E-03 0.  1.
        -12    1    3    3    0    0  0.16829088570E+02 -0.19208983207E+02  0.19431545455E+02  0.32090313440E+02  0.00000000000E+00 0.  1.
</event>
<event>
 7    1  0.5467297E-010  0.4778727E+02  0.7816164E-02  0.1312668E+00
        -11   -1    0    0    0    0  0.00000000000E+00  0.00000000000E+00  0.45593999997E+02  0.45594000000E+02  0.51100000000E-03 0. -1.
         11   -1    0    0    0    0 -0.00000000000E+00 -0.00000000000E+00 -0.45593999997E+02  0.45594000000E+02  0.51100000000E-03 0.  1.
    9900012    2    1    2    0    0 -0.30729413931E+02  0.23621403223E+02 -0.19528337335E+02  0.47787268096E+02  0.19999986556E+02 0.  0.
         12    1    1    2    0    0  0.30729413931E+02 -0.23621403223E+02  0.19528337335E+02  0.43400731904E+02  0.00000000000E+00 0. -1.
         11    1    3    3    0    0 -0.38646763692E-01  0.33908686461E+01 -0.64318811967E+01  0.72710783063E+01  0.51100000000E-03 0. -1.
        -11    1    3    3    0    0 -0.26936047312E+02  0.19734386476E+02 -0.14596640895E+02  0.36442538057E+02  0.51100000000E-03 0.  1.
         12    1    3    3    0    0 -0.37547198552E+01  0.49614810055E+00  0.15001847566E+01  0.40736517319E+01  0.00000000000E+00 0. -1.
</event>
<event>
 7    1  0.5467297E-010  0.4778728E+02  0.7816164E-02  0.1312668E+00
        -11   -1    0    0    0    0  0.00000000000E+00  0.00000000000E+00  0.45593999997E+02  0.45594000000E+02  0.51100000000E-03 0.  1.
         11   -1    0    0    0    0 -0.00000000000E+00 -0.00000000000E+00 -0.45593999997E+02  0.45594000000E+02  0.51100000000E-03 0. -1.
    9900012    2    1    2    0    0 -0.45748766361E+01  0.31723932437E+02  0.29262356960E+02  0.47787275117E+02  0.20000018569E+02 0.  0.
         12    1    1    2    0    0  0.45748766361E+01 -0.31723932437E+02 -0.29262356960E+02  0.43400724883E+02  0.00000000000E+00 0. -1.
         11    1    3    3    0    0  0.15098546369E+01  0.10255447454E+01  0.31564530638E+01  0.36461759769E+01  0.51100000000E-03 0. -1.
        -11    1    3    3    0    0  0.49836487401E+01  0.15267432887E+02  0.15823956660E+02  0.22546149702E+02  0.51100000000E-03 0.  1.
        -12    1    3    3    0    0 -0.11068380013E+02  0.15430954805E+02  0.10281947236E+02  0.21594949439E+02  0.00000000000E+00 0.  1.
</event>
<event>
 7    1  0.5467297E-010  0.4778727E+02  0.7816164E-02  0.1312668E+00
        -11   -1    0    0    0    0  0.00000000000E+00  0.00000000000E+00  0.45593999997E+02  0.45594000000E+02  0.51100000000E-03 0. -1.
         11   -1    0    0    0    0 -0.00000000000E+00 -0.00000000000E+00 -0.45593999997E+02  0.45594000000E+02  0.51100000000E-03 0.  1.
    9900012    2    1    2    0    0  0.27576234286E+02  0.33107102366E+02  0.52052013351E+01  0.47787273676E+02  0.20000012000E+02 0.  0.
         12    1    1    2    0    0 -0.27576234286E+02 -0.33107102366E+02 -0.52052013351E+01  0.43400726324E+02  0.00000000000E+00 0. -1.
         11    1    3    3    0    0  0.10600154273E+02  0.88418383430E+01 -0.63533358113E+00  0.13818285890E+02  0.51100000000E-03 0. -1.
        -11    1    3    3    0    0  0.19756112109E+02  0.21983763776E+02  0.66206472267E+01  0.30288988187E+02  0.51100000000E-03 0.  1.
        -12    1    3    3    0    0 -0.27800320970E+01  0.22815002476E+01 -0.78011231047E+00  0.36799996002E+01  0.00000000000E+00 0.  1.
</event>
<event>
 7    1  0.5467297E-010  0.4778727E+02  0.7816164E-02  0.1312668E+00
        -11   -1    0    0    0    0  0.00000000000E+00  0.00000000000E+00  0.45593999997E+02  0.45594000000E+02  0.51100000000E-03 0.  1.
         11   -1    0    0    0    0 -0.00000000000E+00 -0.00000000000E+00 -0.45593999997E+02  0.45594000000E+02  0.51100000000E-03 0. -1.
    9900012    2    1    2    0    0  0.20123948257E+02 -0.43452638368E+01  0.38206922814E+02  0.47787267723E+02  0.19999984858E+02 0.  0.
         12    1    1    2    0    0 -0.20123948257E+02  0.43452638368E+01 -0.38206922814E+02  0.43400732277E+02  0.00000000000E+00 0. -1.
         11    1    3    3    0    0 -0.37006254898E+00  0.28638847349E+01 -0.26987999693E+00  0.29002788726E+01  0.51100000000E-03 0. -1.
        -11    1    3    3    0    0  0.13735035587E+02 -0.47720788754E+01  0.17721490973E+02  0.22923245449E+02  0.51100000000E-03 0.  1.
         12    1    3    3    0    0  0.67589752188E+01 -0.24370696963E+01  0.20755311838E+02  0.21963743401E+02  0.00000000000E+00 0. -1.
</event>
<event>
 7    1  0.5467297E-010  0.4778725E+02  0.7816164E-02  0.1312668E+00
        -11   -1    0    0    0    0  0.00000000000E+00  0.00000000000E+00  0.45593999997E+02  0.45594000000E+02  0.51100000000E-03 0.  1.
         11   -1    0    0    0    0 -0.00000000000E+00 -0.00000000000E+00 -0.45593999997E+02  0.45594000000E+02  0.51100000000E-03 0. -1.
    9900012    2    1    2    0    0 -0.51568602189E+01  0.41913440692E+02  0.10014739772E+02  0.47787254261E+02  0.19999923478E+02 0.  0.
         12    1    1    2    0    0  0.51568602189E+01 -0.41913440692E+02 -0.10014739772E+02  0.43400745739E+02  0.00000000000E+00 0. -1.
         11    1    3    3    0    0 -0.16879758924E+01  0.29887393169E+02  0.13928804803E+02  0.33016921973E+02  0.51100000000E-03 0.  1.
        -11    1    3    3    0    0 -0.85295372972E-01  0.62356055790E+01 -0.49786750356E+01  0.79798031059E+01  0.51100000000E-03 0. -1.
        -12    1    3    3    0    0 -0.33835889535E+01  0.57904419438E+01  0.10646100047E+01  0.67905291821E+01  0.00000000000E+00 0.  1.
</event>
<event>
 7    1  0.6007608E-010  0.4778727E+02  0.7816164E-02  0.1312668E+00
        -11   -1    0    0    0    0  0.00000000000E+00  0.00000000000E+00  0.45593999997E+02  0.45594000000E+02  0.51100000000E-03 0. -1.
         11   -1    0    0    0    0 -0.00000000000E+00 -0.00000000000E+00 -0.45593999997E+02  0.45594000000E+02  0.51100000000E-03 0.  1.
    9900012    2    1    2    0    0 -0.17082288966E+02 -0.17832289496E+02 -0.35690735766E+02  0.47787265392E+02  0.19999974229E+02 0.  0.
         12    1    1    2    0    0  0.17082288966E+02  0.17832289496E+02  0.35690735766E+02  0.43400734608E+02  0.00000000000E+00 0. -1.
         11    1    3    3    0    0  0.14068916241E+01 -0.47373948343E+01 -0.27923595179E+01  0.56762246077E+01  0.51100000000E-03 0. -1.
        -11    1    3    3    0    0 -0.88971404525E+01 -0.53238587599E+00 -0.19307518296E+02  0.21265530936E+02  0.51100000000E-03 0.  1.
        -12    1    3    3    0    0 -0.95920401378E+01 -0.12562508786E+02 -0.13590857952E+02  0.20845509849E+02  0.00000000000E+00 0.  1.
</event>
<event>
 7    1  0.5467297E-010  0.4778726E+02  0.7816164E-02  0.1312668E+00
        -11   -1    0    0    0    0  0.00000000000E+00  0.00000000000E+00  0.45593999997E+02  0.45594000000E+02  0.51100000000E-03 0.  1.
         11   -1    0    0    0    0 -0.00000000000E+00 -0.00000000000E+00 -0.45593999997E+02  0.45594000000E+02  0.51100000000E-03 0. -1.
    9900012    2    1    2    0    0  0.42532513274E+02 -0.48086973632E+01  0.71753630955E+01  0.47787261628E+02  0.19999957066E+02 0.  0.
         12    1    1    2    0    0 -0.42532513274E+02  0.48086973632E+01 -0.71753630955E+01  0.43400738372E+02  0.00000000000E+00 0. -1.
         11    1    3    3    0    0  0.14076598030E+02 -0.15822085652E+01  0.11972236860E+02  0.18546925668E+02  0.51100000000E-03 0.  1.
        -11    1    3    3    0    0  0.20844507772E+02 -0.81728449023E+00 -0.34980432491E+01  0.21151779240E+02  0.51100000000E-03 0. -1.
        -12    1    3    3    0    0  0.76114074719E+01 -0.24092043078E+01 -0.12988305156E+01  0.80885567197E+01  0.00000000000E+00 0.  1.
</event>
<event>
 7    1  0.5467297E-010  0.4778727E+02  0.7816164E-02  0.1312668E+00
        -11   -1    0    0    0    0  0.00000000000E+00  0.00000000000E+00  0.45593999997E+02  0.45594000000E+02  0.51100000000E-03 0. -1.
         11   -1    0    0    0    0 -0.00000000000E+00 -0.00000000000E+00 -0.45593999997E+02  0.45594000000E+02  0.51100000000E-03 0.  1.
    9900012    2    1    2    0    0 -0.37168129458E+01  0.33272519663E+02 -0.27617891470E+02  0.47787271983E+02  0.20000004278E+02 0.  0.
         12    1    1    2    0    0  0.37168129458E+01 -0.33272519663E+02  0.27617891470E+02  0.43400728017E+02  0.00000000000E+00 0. -1.
         11    1    3    3    0    0  0.37111947582E-01  0.27846720550E+01 -0.12614806459E+01  0.30573042753E+01  0.51100000000E-03 0. -1.
        -11    1    3    3    0    0 -0.83866954211E+01  0.12175307841E+02 -0.37155189533E+01  0.15244010708E+02  0.51100000000E-03 0.  1.
        -12    1    3    3    0    0  0.46327705277E+01  0.18312539766E+02 -0.22640891871E+02  0.29485956999E+02  0.00000000000E+00 0.  1.
</event>
<event>
 7    1  0.5467297E-010  0.4778728E+02  0.7816164E-02  0.1312668E+00
        -11   -1    0    0    0    0  0.00000000000E+00  0.00000000000E+00  0.45593999997E+02  0.45594000000E+02  0.51100000000E-03 0.  1.
         11   -1    0    0    0    0 -0.00000000000E+00 -0.00000000000E+00 -0.45593999997E+02  0.45594000000E+02  0.51100000000E-03 0. -1.
    9900012    2    1    2    0    0  0.33598538573E+02  0.20712201799E+02  0.18048979278E+02  0.47787277073E+02  0.20000027488E+02 0.  0.
         12    1    1    2    0    0 -0.33598538573E+02 -0.20712201799E+02 -0.18048979278E+02  0.43400722927E+02  0.00000000000E+00 0. -1.
         11    1    3    3    0    0  0.39749875884E+01 -0.19780780015E+00  0.76053145840E+01  0.85837325469E+01  0.51100000000E-03 0. -1.
        -11    1    3    3    0    0  0.21286970796E+02  0.15490382999E+02  0.24404113038E+01  0.26439415627E+02  0.51100000000E-03 0.  1.
         12    1    3    3    0    0  0.83365801888E+01  0.54196266003E+01  0.80032533900E+01  0.12764128899E+02  0.00000000000E+00 0. -1.
</event>
<event>
 7    1  0.5467297E-010  0.4778727E+02  0.7816164E-02  0.1312668E+00
        -11   -1    0    0    0    0  0.00000000000E+00  0.00000000000E+00  0.45593999997E+02  0.45594000000E+02  0.51100000000E-03 0.  1.
         11   -1    0    0    0    0 -0.00000000000E+00 -0.00000000000E+00 -0.45593999997E+02  0.45594000000E+02  0.51100000000E-03 0. -1.
    9900012    2    1    2    0    0  0.21032855622E+02  0.13772808311E+02  0.35377282119E+02  0.47787270116E+02  0.19999995766E+02 0.  0.
         12    1    1    2    0    0 -0.21032855622E+02 -0.13772808311E+02 -0.35377282119E+02  0.43400729884E+02  0.00000000000E+00 0. -1.
         11    1    3    3    0    0  0.14339693631E+02  0.85674030177E+01  0.32835023690E+02  0.36839733833E+02  0.51100000000E-03 0. -1.
        -11    1    3    3    0    0  0.76328033829E+01  0.50299754704E+01  0.33095428540E+01  0.97218010100E+01  0.51100000000E-03 0.  1.
         12    1    3    3    0    0 -0.93964139214E+00  0.17542982312E+00 -0.76728442556E+00  0.12257352725E+01  0.00000000000E+00 0. -1.
</event>
<event>
 7    1  0.5467297E-010  0.4778727E+02  0.7816164E-02  0.1312668E+00
        -11   -1    0    0    0    0  0.00000000000E+00  0.00000000000E+00  0.45593999997E+02  0.45594000000E+02  0.51100000000E-03 0. -1.
         11   -1    0    0    0    0 -0.00000000000E+00 -0.00000000000E+00 -0.45593999997E+02  0.45594000000E+02  0.51100000000E-03 0.  1.
    9900012    2    1    2    0    0 -0.34868123591E+02 -0.25271887195E+02 -0.54008477822E+01  0.47787268648E+02  0.19999989072E+02 0.  0.
         12    1    1    2    0    0  0.34868123591E+02  0.25271887195E+02  0.54008477822E+01  0.43400731352E+02  0.00000000000E+00 0. -1.
         11    1    3    3    0    0 -0.92934784212E+01 -0.77468171518E+01  0.59544503892E+01  0.13484709743E+02  0.51100000000E-03 0. -1.
        -11    1    3    3    0    0 -0.20528113963E+02 -0.95463769013E+01 -0.58856572481E+01  0.23391830547E+02  0.51100000000E-03 0.  1.
         12    1    3    3    0    0 -0.50465312066E+01 -0.79786931416E+01 -0.54696409234E+01  0.10910728358E+02  0.00000000000E+00 0. -1.
</event>
<event>
 7    1  0.5467297E-010  0.4778727E+02  0.7816164E-02  0.1312668E+00
        -11   -1    0    0    0    0  0.00000000000E+00  0.00000000000E+00  0.45593999997E+02  0.45594000000E+02  0.51100000000E-03 0.  1.
         11   -1    0    0    0    0 -0.00000000000E+00 -0.00000000000E+00 -0.45593999997E+02  0.45594000000E+02  0.51100000000E-03 0. -1.
    9900012    2    1    2    0    0 -0.17469539315E+02 -0.92889059798E+01  0.38628417343E+02  0.47787271842E+02  0.20000003638E+02 0.  0.
         12    1    1    2    0    0  0.17469539315E+02  0.92889059798E+01 -0.38628417343E+02  0.43400728158E+02  0.00000000000E+00 0. -1.
         11    1    3    3    0    0 -0.18918372028E+02 -0.88541468579E+01  0.33274723845E+02  0.39287503917E+02  0.51100000000E-03 0.  1.
        -11    1    3    3    0    0  0.34546966943E+01 -0.20106256372E+01  0.27303349738E+01  0.48406894171E+01  0.51100000000E-03 0. -1.
         12    1    3    3    0    0 -0.20058639806E+01  0.15758665153E+01  0.26233585241E+01  0.36590785081E+01  0.00000000000E+00 0. -1.
</event>
<event>
 7    1  0.5467297E-010  0.4778733E+02  0.7816164E-02  0.1312667E+00
        -11   -1    0    0    0    0  0.00000000000E+00  0.00000000000E+00  0.45593999997E+02  0.45594000000E+02  0.51100000000E-03 0. -1.
         11   -1    0    0    0    0 -0.00000000000E+00 -0.00000000000E+00 -0.45593999997E+02  0.45594000000E+02  0.51100000000E-03 0.  1.
    9900012    2    1    2    0    0 -0.26818349828E+02  0.32072113762E+02  0.11652199127E+02  0.47787330498E+02  0.20000271072E+02 0.  0.
         12    1    1    2    0    0  0.26818349828E+02 -0.32072113762E+02 -0.11652199127E+02  0.43400669502E+02  0.00000000000E+00 0. -1.
         11    1    3    3    0    0 -0.11577447917E+01 -0.85799799273E+00  0.18197029277E+01  0.23211748241E+01  0.51100000000E-03 0. -1.
        -11    1    3    3    0    0 -0.25905222661E+02  0.27251556461E+02  0.48564813798E+01  0.37911915044E+02  0.51100000000E-03 0.  1.
        -12    1    3    3    0    0  0.24461762427E+00  0.56785552938E+01  0.49760148196E+01  0.75542406297E+01  0.00000000000E+00 0.  1.
</event>
<event>
 7    1  0.5467297E-010  0.4778727E+02  0.7816164E-02  0.1312668E+00
        -11   -1    0    0    0    0  0.00000000000E+00  0.00000000000E+00  0.45593999997E+02  0.45594000000E+02  0.51100000000E-03 0.  1.
         11   -1    0    0    0    0 -0.00000000000E+00 -0.00000000000E+00 -0.45593999997E+02  0.45594000000E+02  0.51100000000E-03 0. -1.
    9900012    2    1    2    0    0 -0.35278516200E+02 -0.24902113966E+02  0.43513245086E+01  0.47787274081E+02  0.20000013846E+02 0.  0.
         12    1    1    2    0    0  0.35278516200E+02  0.24902113966E+02 -0.43513245086E+01  0.43400725919E+02  0.00000000000E+00 0. -1.
         11    1    3    3    0    0 -0.16318236397E+02 -0.14328103468E+02 -0.58421225710E+01  0.22487992006E+02  0.51100000000E-03 0. -1.
        -11    1    3    3    0    0 -0.54715222777E+01 -0.24149435297E+01 -0.86494795512E+00  0.60429829979E+01  0.51100000000E-03 0.  1.
         12    1    3    3    0    0 -0.13488757526E+02 -0.81590669689E+01  0.11058395035E+02  0.19256299077E+02  0.00000000000E+00 0. -1.
</event>
<event>
 7    1  0.5467297E-010  0.4778727E+02  0.7816164E-02  0.1312668E+00
        -11   -1    0    0    0    0  0.00000000000E+00  0.00000000000E+00  0.45593999997E+02  0.45594000000E+02  0.51100000000E-03 0.  1.
         11   -1    0    0    0    0 -0.00000000000E+00 -0.00000000000E+00 -0.45593999997E+02  0.45594000000E+02  0.51100000000E-03 0. -1.
    9900012    2    1    2    0    0 -0.27704156093E+02  0.14285115479E+01  0.33377576011E+02  0.47787268549E+02  0.19999988624E+02 0.  0.
         12    1    1    2    0    0  0.27704156093E+02 -0.14285115479E+01 -0.33377576011E+02  0.43400731451E+02  0.00000000000E+00 0. -1.
         11    1    3    3    0    0 -0.13439596685E+02  0.30892948321E+01  0.39370368211E+01  0.14341086458E+02  0.51100000000E-03 0. -1.
        -11    1    3    3    0    0 -0.14625270116E+02 -0.78854803871E+00  0.25623115691E+02  0.29513800026E+02  0.51100000000E-03 0.  1.
        -12    1    3    3    0    0  0.36071070797E+00 -0.87223524549E+00  0.38174234995E+01  0.39323820659E+01  0.00000000000E+00 0.  1.
</event>
<event>
 7    1  0.5467297E-010  0.4778727E+02  0.7816164E-02  0.1312668E+00
        -11   -1    0    0    0    0  0.00000000000E+00  0.00000000000E+00  0.45593999997E+02  0.45594000000E+02  0.51100000000E-03 0.  1.
         11   -1    0    0    0    0 -0.00000000000E+00 -0.00000000000E+00 -0.45593999997E+02  0.45594000000E+02  0.51100000000E-03 0. -1.
    9900012    2    1    2    0    0 -0.13143918133E+02  0.28862724153E+02  0.29627749174E+02  0.47787274770E+02  0.20000016984E+02 0.  0.
         12    1    1    2    0    0  0.13143918133E+02 -0.28862724153E+02 -0.29627749174E+02  0.43400725230E+02  0.00000000000E+00 0. -1.
         11    1    3    3    0    0 -0.19585454551E+01  0.57526648449E+01  0.10938160280E+02  0.12512889502E+02  0.51100000000E-03 0. -1.
        -11    1    3    3    0    0 -0.51304328021E+01  0.10803070729E+01  0.90883520717E+01  0.10492213672E+02  0.51100000000E-03 0.  1.
        -12    1    3    3    0    0 -0.60549398755E+01  0.22029752235E+02  0.96012368220E+01  0.24782171595E+02  0.00000000000E+00 0.  1.
</event>
<event>
 7    1  0.5467297E-010  0.4778727E+02  0.7816164E-02  0.1312668E+00
        -11   -1    0    0    0    0  0.00000000000E+00  0.00000000000E+00  0.45593999997E+02  0.45594000000E+02  0.51100000000E-03 0.  1.
         11   -1    0    0    0    0 -0.00000000000E+00 -0.00000000000E+00 -0.45593999997E+02  0.45594000000E+02  0.51100000000E-03 0. -1.
    9900012    2    1    2    0    0  0.30325973142E+02 -0.29298201738E+02  0.10274924439E+02  0.47787270233E+02  0.19999996299E+02 0.  0.
         12    1    1    2    0    0 -0.30325973142E+02  0.29298201738E+02 -0.10274924439E+02  0.43400729767E+02  0.00000000000E+00 0. -1.
         11    1    3    3    0    0  0.97724025749E+01 -0.14171767600E+02  0.12154171277E+02  0.21072795939E+02  0.51100000000E-03 0. -1.
        -11    1    3    3    0    0  0.15177486343E+02 -0.12470565819E+02  0.17235044018E+01  0.19719066186E+02  0.51100000000E-03 0.  1.
         12    1    3    3    0    0  0.53760842237E+01 -0.26558683195E+01 -0.36027512393E+01  0.69954081084E+01  0.00000000000E+00 0. -1.
</event>
<event>
 7    1  0.5467297E-010  0.4778727E+02  0.7816164E-02  0.1312668E+00
        -11   -1    0    0    0    0  0.00000000000E+00  0.00000000000E+00  0.45593999997E+02  0.45594000000E+02  0.51100000000E-03 0.  1.
         11   -1    0    0    0    0 -0.00000000000E+00 -0.00000000000E+00 -0.45593999997E+02  0.45594000000E+02  0.51100000000E-03 0. -1.
    9900012    2    1    2    0    0  0.30858968449E+02  0.27768772396E+02  0.12658703779E+02  0.47787269182E+02  0.19999991509E+02 0.  0.
         12    1    1    2    0    0 -0.30858968449E+02 -0.27768772396E+02 -0.12658703779E+02  0.43400730818E+02  0.00000000000E+00 0. -1.
         11    1    3    3    0    0  0.36772765566E+01  0.10814201640E+02  0.78236295379E+01  0.13844800446E+02  0.51100000000E-03 0. -1.
        -11    1    3    3    0    0  0.25465333976E+02  0.18319687014E+02  0.48879055182E+01  0.31748791905E+02  0.51100000000E-03 0.  1.
         12    1    3    3    0    0  0.17163579169E+01 -0.13651162579E+01 -0.52831277029E-01  0.21936768313E+01  0.00000000000E+00 0. -1.
</event>
<event>
 7    1  0.5467297E-010  0.4778727E+02  0.7816164E-02  0.1312668E+00
        -11   -1    0    0    0    0  0.00000000000E+00  0.00000000000E+00  0.45593999997E+02  0.45594000000E+02  0.51100000000E-03 0. -1.
         11   -1    0    0    0    0 -0.00000000000E+00 -0.00000000000E+00 -0.45593999997E+02  0.45594000000E+02  0.51100000000E-03 0.  1.
    9900012    2    1    2    0    0 -0.11962675047E+02  0.40654248907E+02  0.93674834885E+01  0.47787270797E+02  0.19999998871E+02 0.  0.
         12    1    1    2    0    0  0.11962675047E+02 -0.40654248907E+02 -0.93674834885E+01  0.43400729203E+02  0.00000000000E+00 0. -1.
         11    1    3    3    0    0 -0.11110823119E+02  0.78799899143E+01  0.35855890389E+01  0.14085491843E+02  0.51100000000E-03 0. -1.
        -11    1    3    3    0    0  0.11196491381E+01  0.23302426559E+02  0.23979825267E+01  0.23452228427E+02  0.51100000000E-03 0.  1.
        -12    1    3    3    0    0 -0.19715010655E+01  0.94718324336E+01  0.33839119229E+01  0.10249550527E+02  0.00000000000E+00 0.  1.
</event>
<event>
 7    1  0.5467297E-010  0.4778727E+02  0.7816164E-02  0.1312668E+00
        -11   -1    0    0    0    0  0.00000000000E+00  0.00000000000E+00  0.45593999997E+02  0.45594000000E+02  0.51100000000E-03 0.  1.
         11   -1    0    0    0    0 -0.00000000000E+00 -0.00000000000E+00 -0.45593999997E+02  0.45594000000E+02  0.51100000000E-03 0. -1.
    9900012    2    1    2    0    0  0.61254323603E+01 -0.86033405424E+01  0.42096137808E+02  0.47787271799E+02  0.20000003439E+02 0.  0.
         12    1    1    2    0    0 -0.61254323603E+01  0.86033405424E+01 -0.42096137808E+02  0.43400728201E+02  0.00000000000E+00 0. -1.
         11    1    3    3    0    0  0.33861671915E+01 -0.13228652919E+01  0.23073336771E+01  0.43057972303E+01  0.51100000000E-03 0. -1.
        -11    1    3    3    0    0  0.91246936418E+01 -0.22522352261E+01  0.22041832097E+02  0.23961948168E+02  0.51100000000E-03 0.  1.
        -12    1    3    3    0    0 -0.63854284730E+01 -0.50282400244E+01  0.17746972034E+02  0.19519526400E+02  0.00000000000E+00 0.  1.
</event>
<event>
 7    1  0.5467297E-010  0.4778727E+02  0.7816164E-02  0.1312668E+00
        -11   -1    0    0    0    0  0.00000000000E+00  0.00000000000E+00  0.45593999997E+02  0.45594000000E+02  0.51100000000E-03 0.  1.
         11   -1    0    0    0    0 -0.00000000000E+00 -0.00000000000E+00 -0.45593999997E+02  0.45594000000E+02  0.51100000000E-03 0. -1.
    9900012    2    1    2    0    0 -0.42134495534E+02  0.24693490148E+01  0.10109888071E+02  0.47787271490E+02  0.20000002030E+02 0.  0.
         12    1    1    2    0    0  0.42134495534E+02 -0.24693490148E+01 -0.10109888071E+02  0.43400728510E+02  0.00000000000E+00 0. -1.
         11    1    3    3    0    0 -0.14913980101E+02  0.39152796961E+01 -0.25644152099E+01  0.15631136977E+02  0.51100000000E-03 0. -1.
        -11    1    3    3    0    0 -0.20429443539E+02 -0.60925665251E+01  0.94294169106E+01  0.23310843693E+02  0.51100000000E-03 0.  1.
        -12    1    3    3    0    0 -0.67910718936E+01  0.46466358438E+01  0.32448863699E+01  0.88452908196E+01  0.00000000000E+00 0.  1.
</event>
<event>
 7    1  0.5467297E-010  0.4778727E+02  0.7816164E-02  0.1312668E+00
        -11   -1    0    0    0    0  0.00000000000E+00  0.00000000000E+00  0.45593999997E+02  0.45594000000E+02  0.51100000000E-03 0.  1.
         11   -1    0    0    0    0 -0.00000000000E+00 -0.00000000000E+00 -0.45593999997E+02  0.45594000000E+02  0.51100000000E-03 0. -1.
    9900012    2    1    2    0    0 -0.12231837760E+02 -0.49020857536E+01  0.41351845563E+02  0.47787269232E+02  0.19999991735E+02 0.  0.
         12    1    1    2    0    0  0.12231837760E+02  0.49020857536E+01 -0.41351845563E+02  0.43400730768E+02  0.00000000000E+00 0. -1.
         11    1    3    3    0    0 -0.28765224349E+01  0.30700399935E+00  0.56934732079E+01  0.63862563529E+01  0.51100000000E-03 0. -1.
        -11    1    3    3    0    0 -0.26913491771E+01  0.54348722982E+01  0.37999597579E+01  0.71568772320E+01  0.51100000000E-03 0.  1.
        -12    1    3    3    0    0 -0.66639661485E+01 -0.10643962051E+02  0.31858412597E+02  0.34244135647E+02  0.00000000000E+00 0.  1.
</event>
<event>
 7    1  0.6114761E-010  0.4778726E+02  0.7816164E-02  0.1312668E+00
        -11   -1    0    0    0    0  0.00000000000E+00  0.00000000000E+00  0.45593999997E+02  0.45594000000E+02  0.51100000000E-03 0. -1.
         11   -1    0    0    0    0 -0.00000000000E+00 -0.00000000000E+00 -0.45593999997E+02  0.45594000000E+02  0.51100000000E-03 0.  1.
    9900012    2    1    2    0    0 -0.36305395190E+02  0.21545218530E+02 -0.10067058361E+02  0.47787264690E+02  0.19999971028E+02 0.  0.
         12    1    1    2    0    0  0.36305395190E+02 -0.21545218530E+02  0.10067058361E+02  0.43400735310E+02  0.00000000000E+00 0. -1.
         11    1    3    3    0    0 -0.47731910957E-01 -0.96540880898E+00  0.20829711771E+01  0.22963148063E+01  0.51100000000E-03 0. -1.
        -11    1    3    3    0    0 -0.17932912042E+02  0.99723059962E+01 -0.10942118021E+02  0.23254379549E+02  0.51100000000E-03 0.  1.
        -12    1    3    3    0    0 -0.18324751238E+02  0.12538321342E+02 -0.12079115167E+01  0.22236570334E+02  0.00000000000E+00 0.  1.
</event>
<event>
 7    1  0.5467297E-010  0.4778727E+02  0.7816164E-02  0.1312668E+00
        -11   -1    0    0    0    0  0.00000000000E+00  0.00000000000E+00  0.45593999997E+02  0.45594000000E+02  0.51100000000E-03 0. -1.
         11   -1    0    0    0    0 -0.00000000000E+00 -0.00000000000E+00 -0.45593999997E+02  0.45594000000E+02  0.51100000000E-03 0.  1.
    9900012    2    1    2    0    0 -0.18607536796E+02  0.39168988100E+02  0.17813758329E+01  0.47787270119E+02  0.19999995779E+02 0.  0.
         12    1    1    2    0    0  0.18607536796E+02 -0.39168988100E+02 -0.17813758329E+01  0.43400729881E+02  0.00000000000E+00 0. -1.
         11    1    3    3    0    0 -0.14492717891E+02  0.13515832489E+02 -0.43307943448E+01  0.20284781972E+02  0.51100000000E-03 0. -1.
        -11    1    3    3    0    0 -0.33206393475E+01  0.42435519733E+01  0.13637862029E+01  0.55582634064E+01  0.51100000000E-03 0.  1.
         12    1    3    3    0    0 -0.79417955786E+00  0.21409603637E+02  0.47483839749E+01  0.21944224740E+02  0.00000000000E+00 0. -1.
</event>
<event>
 7    1  0.5467297E-010  0.4778727E+02  0.7816164E-02  0.1312668E+00
        -11   -1    0    0    0    0  0.00000000000E+00  0.00000000000E+00  0.45593999997E+02  0.45594000000E+02  0.51100000000E-03 0. -1.
         11   -1    0    0    0    0 -0.00000000000E+00 -0.00000000000E+00 -0.45593999997E+02  0.45594000000E+02  0.51100000000E-03 0.  1.
    9900012    2    1    2    0    0 -0.24423238699E+02 -0.86345034402E+01 -0.34822032434E+02  0.47787272114E+02  0.20000004876E+02 0.  0.
         12    1    1    2    0    0  0.24423238699E+02  0.86345034402E+01  0.34822032434E+02  0.43400727886E+02  0.00000000000E+00 0. -1.
         11    1    3    3    0    0 -0.29772530709E+01  0.56763239513E+01 -0.79457177380E+01  0.10208776620E+02  0.51100000000E-03 0. -1.
        -11    1    3    3    0    0 -0.11645012837E+02 -0.92997864639E+01 -0.18443503184E+02  0.23711920256E+02  0.51100000000E-03 0.  1.
         12    1    3    3    0    0 -0.98009727913E+01 -0.50110409276E+01 -0.84328115120E+01  0.13866575238E+02  0.00000000000E+00 0. -1.
</event>
<event>
 7    1  0.5467297E-010  0.4778730E+02  0.7816164E-02  0.1312668E+00
        -11   -1    0    0    0    0  0.00000000000E+00  0.00000000000E+00  0.45593999997E+02  0.45594000000E+02  0.51100000000E-03 0.  1.
         11   -1    0    0    0    0 -0.00000000000E+00 -0.00000000000E+00 -0.45593999997E+02  0.45594000000E+02  0.51100000000E-03 0. -1.
    9900012    2    1    2    0    0  0.57927977989E+00 -0.25783175618E+02  0.34907201364E+02  0.47787303956E+02  0.20000150058E+02 0.  0.
         12    1    1    2    0    0 -0.57927977989E+00  0.25783175618E+02 -0.34907201364E+02  0.43400696044E+02  0.00000000000E+00 0. -1.
         11    1    3    3    0    0 -0.56937873573E+01 -0.27902188886E+01  0.71205525767E+01  0.95345060268E+01  0.51100000000E-03 0. -1.
        -11    1    3    3    0    0  0.36033320259E+01 -0.22555134131E+02  0.27137558503E+02  0.35470623890E+02  0.51100000000E-03 0.  1.
        -12    1    3    3    0    0  0.26697351113E+01 -0.43782259907E+00  0.64909028368E+00  0.27821740401E+01  0.00000000000E+00 0.  1.
</event>
<event>
 7    1  0.5467297E-010  0.4778726E+02  0.7816164E-02  0.1312668E+00
        -11   -1    0    0    0    0  0.00000000000E+00  0.00000000000E+00  0.45593999997E+02  0.45594000000E+02  0.51100000000E-03 0.  1.
         11   -1    0    0    0    0 -0.00000000000E+00 -0.00000000000E+00 -0.45593999997E+02  0.45594000000E+02  0.51100000000E-03 0. -1.
    9900012    2    1    2    0    0 -0.32311345080E+02  0.23732553417E+02  0.16624285176E+02  0.47787263023E+02  0.19999963425E+02 0.  0.
         12    1    1    2    0    0  0.32311345080E+02 -0.23732553417E+02 -0.16624285176E+02  0.43400736977E+02  0.00000000000E+00 0. -1.
         11    1    3    3    0    0 -0.88715585147E+01  0.12276996016E+02 -0.58081294121E+00  0.15158051510E+02  0.51100000000E-03 0. -1.
        -11    1    3    3    0    0 -0.10322406303E+02  0.94071508276E+01  0.57839500348E+01  0.15116237523E+02  0.51100000000E-03 0.  1.
         12    1    3    3    0    0 -0.13117380262E+02  0.20484065734E+01  0.11421148083E+02  0.17512973989E+02  0.00000000000E+00 0. -1.
</event>
<event>
 7    1  0.5467297E-010  0.4778727E+02  0.7816164E-02  0.1312668E+00
        -11   -1    0    0    0    0  0.00000000000E+00  0.00000000000E+00  0.45593999997E+02  0.45594000000E+02  0.51100000000E-03 0. -1.
         11   -1    0    0    0    0 -0.00000000000E+00 -0.00000000000E+00 -0.45593999997E+02  0.45594000000E+02  0.51100000000E-03 0.  1.
    9900012    2    1    2    0    0 -0.40721826275E+02  0.14677252308E+02  0.31519310205E+01  0.47787267982E+02  0.19999986039E+02 0.  0.
         12    1    1    2    0    0  0.40721826275E+02 -0.14677252308E+02 -0.31519310205E+01  0.43400732018E+02  0.00000000000E+00 0. -1.
         11    1    3    3    0    0 -0.12665458975E+02  0.11117270043E+02 -0.14143863429E+01  0.16911772031E+02  0.51100000000E-03 0. -1.
        -11    1    3    3    0    0 -0.17091823324E+02 -0.33563289355E+01  0.41467077936E+01  0.17905042704E+02  0.51100000000E-03 0.  1.
        -12    1    3    3    0    0 -0.10964543977E+02  0.69163112002E+01  0.41960956973E+00  0.12970453247E+02  0.00000000000E+00 0.  1.
</event>
<event>
 7    1  0.5467297E-010  0.4778730E+02  0.7816164E-02  0.1312668E+00
        -11   -1    0    0    0    0  0.00000000000E+00  0.00000000000E+00  0.45593999997E+02  0.45594000000E+02  0.51100000000E-03 0. -1.
         11   -1    0    0    0    0 -0.00000000000E+00 -0.00000000000E+00 -0.45593999997E+02  0.45594000000E+02  0.51100000000E-03 0.  1.
    9900012    2    1    2    0    0  0.21180730170E+01 -0.10173496802E+02 -0.42138276337E+02  0.47787301813E+02  0.20000140284E+02 0.  0.
         12    1    1    2    0    0 -0.21180730170E+01  0.10173496802E+02  0.42138276337E+02  0.43400698187E+02  0.00000000000E+00 0. -1.
         11    1    3    3    0    0  0.21046450021E-01 -0.31581792880E+01 -0.25609420254E+02  0.25803428946E+02  0.51100000000E-03 0.  1.
        -11    1    3    3    0    0 -0.24742795372E+01 -0.21733784270E+01  0.82608306677E+00  0.33952977055E+01  0.51100000000E-03 0. -1.
         12    1    3    3    0    0  0.45713061042E+01 -0.48419390867E+01 -0.17354939150E+02  0.18588575161E+02  0.00000000000E+00 0. -1.
</event>
<event>
 7    1  0.5467297E-010  0.4778728E+02  0.7816164E-02  0.1312668E+00
        -11   -1    0    0    0    0  0.00000000000E+00  0.00000000000E+00  0.45593999997E+02  0.45594000000E+02  0.51100000000E-03 0. -1.
         11   -1    0    0    0    0 -0.00000000000E+00 -0.00000000000E+00 -0.45593999997E+02  0.45594000000E+02  0.51100000000E-03 0.  1.
    9900012    2    1    2    0    0  0.42650946510E+02  0.71422614031E+01  0.36752926583E+01  0.47787275210E+02  0.20000018994E+02 0.  0.
         12    1    1    2    0    0 -0.42650946510E+02 -0.71422614031E+01 -0.36752926583E+01  0.43400724790E+02  0.00000000000E+00 0. -1.
         11    1    3    3    0    0  0.74577244021E+01  0.33651969338E+01 -0.37089832768E+01  0.89832489039E+01  0.51100000000E-03 0. -1.
        -11    1    3    3    0    0  0.29092869042E+02 -0.11947026354E+01  0.18362182504E+01  0.29175229926E+02  0.51100000000E-03 0.  1.
        -12    1    3    3    0    0  0.61003530654E+01  0.49717671047E+01  0.55480576847E+01  0.96287963806E+01  0.00000000000E+00 0.  1.
</event>
<event>
 7    1  0.5467297E-010  0.4778727E+02  0.7816164E-02  0.1312668E+00
        -11   -1    0    0    0    0  0.00000000000E+00  0.00000000000E+00  0.45593999997E+02  0.45594000000E+02  0.51100000000E-03 0.  1.
         11   -1    0    0    0    0 -0.00000000000E+00 -0.00000000000E+00 -0.45593999997E+02  0.45594000000E+02  0.51100000000E-03 0. -1.
    9900012    2    1    2    0    0  0.16414229648E+02  0.14221075134E+02  0.37576023268E+02  0.47787269159E+02  0.19999991405E+02 0.  0.
         12    1    1    2    0    0 -0.16414229648E+02 -0.14221075134E+02 -0.37576023268E+02  0.43400730841E+02  0.00000000000E+00 0. -1.
         11    1    3    3    0    0  0.12794634263E+02  0.11764217451E+02  0.37795481877E+02  0.41600455872E+02  0.51100000000E-03 0. -1.
        -11    1    3    3    0    0  0.46138398766E+01  0.20392112113E+01 -0.50958324790E+00  0.50700666779E+01  0.51100000000E-03 0.  1.
         12    1    3    3    0    0 -0.99424449150E+00  0.41764647157E+00  0.29012463823E+00  0.11167466095E+01  0.00000000000E+00 0. -1.
</event>
<event>
 7    1  0.5467297E-010  0.4778727E+02  0.7816164E-02  0.1312668E+00
        -11   -1    0    0    0    0  0.00000000000E+00  0.00000000000E+00  0.45593999997E+02  0.45594000000E+02  0.51100000000E-03 0.  1.
         11   -1    0    0    0    0 -0.00000000000E+00 -0.00000000000E+00 -0.45593999997E+02  0.45594000000E+02  0.51100000000E-03 0. -1.
    9900012    2    1    2    0    0  0.63319343865E+01 -0.35710206252E+02  0.23839275276E+02  0.47787271097E+02  0.20000000242E+02 0.  0.
         12    1    1    2    0    0 -0.63319343865E+01  0.35710206252E+02 -0.23839275276E+02  0.43400728903E+02  0.00000000000E+00 0. -1.
         11    1    3    3    0    0  0.56717684501E+01 -0.29737929376E+02  0.24156567269E+02  0.38730519535E+02  0.51100000000E-03 0.  1.
        -11    1    3    3    0    0 -0.30703495869E+01 -0.27319357238E+01 -0.12597325087E+00  0.41117379423E+01  0.51100000000E-03 0. -1.
         12    1    3    3    0    0  0.37305155233E+01 -0.32403411513E+01 -0.19131874214E+00  0.49450136206E+01  0.00000000000E+00 0. -1.
</event>
<event>
 7    1  0.5467297E-010  0.4778727E+02  0.7816164E-02  0.1312668E+00
        -11   -1    0    0    0    0  0.00000000000E+00  0.00000000000E+00  0.45593999997E+02  0.45594000000E+02  0.51100000000E-03 0.  1.
         11   -1    0    0    0    0 -0.00000000000E+00 -0.00000000000E+00 -0.45593999997E+02  0.45594000000E+02  0.51100000000E-03 0. -1.
    9900012    2    1    2    0    0 -0.38984314966E+02 -0.51879033697E+01  0.18355708371E+02  0.47787272074E+02  0.20000004692E+02 0.  0.
         12    1    1    2    0    0  0.38984314966E+02  0.51879033697E+01 -0.18355708371E+02  0.43400727926E+02  0.00000000000E+00 0. -1.
         11    1    3    3    0    0 -0.16206458340E+02  0.16465718153E+01 -0.14663138159E+01  0.16355750277E+02  0.51100000000E-03 0. -1.
        -11    1    3    3    0    0 -0.19368418747E+02 -0.44121002613E+01  0.14171340802E+02  0.24401417457E+02  0.51100000000E-03 0.  1.
         12    1    3    3    0    0 -0.34094378788E+01 -0.24223749237E+01  0.56506813846E+01  0.70301043400E+01  0.00000000000E+00 0. -1.
</event>
<event>
 7    1  0.5467297E-010  0.4778724E+02  0.7816164E-02  0.1312668E+00
        -11   -1    0    0    0    0  0.00000000000E+00  0.00000000000E+00  0.45593999997E+02  0.45594000000E+02  0.51100000000E-03 0.  1.
         11   -1    0    0    0    0 -0.00000000000E+00 -0.00000000000E+00 -0.45593999997E+02  0.45594000000E+02  0.51100000000E-03 0. -1.
    9900012    2    1    2    0    0  0.20244444253E+02 -0.14322948229E+02  0.35617992346E+02  0.47787242543E+02  0.19999870050E+02 0.  0.
         12    1    1    2    0    0 -0.20244444253E+02  0.14322948229E+02 -0.35617992346E+02  0.43400757457E+02  0.00000000000E+00 0. -1.
         11    1    3    3    0    0 -0.11682434543E+01 -0.13017382235E+01  0.15160803627E+01  0.23146954656E+01  0.51100000000E-03 0.  1.
        -11    1    3    3    0    0  0.14634906436E+02 -0.10445425164E+02  0.10587938158E+02  0.20866044856E+02  0.51100000000E-03 0. -1.
        -12    1    3    3    0    0  0.67777812713E+01 -0.25757848417E+01  0.23513973825E+02  0.24606502221E+02  0.00000000000E+00 0.  1.
</event>
<event>
 7    1  0.5467297E-010  0.4778727E+02  0.7816164E-02  0.1312668E+00
        -11   -1    0    0    0    0  0.00000000000E+00  0.00000000000E+00  0.45593999997E+02  0.45594000000E+02  0.51100000000E-03 0. -1.
         11   -1    0    0    0    0 -0.00000000000E+00 -0.00000000000E+00 -0.45593999997E+02  0.45594000000E+02  0.51100000000E-03 0.  1.
    9900012    2    1    2    0    0 -0.43281582910E+02  0.30903574166E+01  0.88166614874E+00  0.47787273470E+02  0.20000011058E+02 0.  0.
         12    1    1    2    0    0  0.43281582910E+02 -0.30903574166E+01 -0.88166614874E+00  0.43400726530E+02  0.00000000000E+00 0. -1.
         11    1    3    3    0    0 -0.32890909433E+02  0.87483161701E+01  0.19813072470E+01  0.34092089079E+02  0.51100000000E-03 0. -1.
        -11    1    3    3    0    0 -0.25084115153E+01 -0.30403403709E+01  0.24737865800E+01  0.46535382458E+01  0.51100000000E-03 0.  1.
        -12    1    3    3    0    0 -0.78822619619E+01 -0.26176183827E+01 -0.35734276783E+01  0.90416461447E+01  0.00000000000E+00 0.  1.
</event>
<event>
 7    1  0.5467297E-010  0.4778727E+02  0.7816164E-02  0.1312668E+00
        -11   -1    0    0    0    0  0.00000000000E+00  0.00000000000E+00  0.45593999997E+02  0.45594000000E+02  0.51100000000E-03 0.  1.
         11   -1    0    0    0    0 -0.00000000000E+00 -0.00000000000E+00 -0.45593999997E+02  0.45594000000E+02  0.51100000000E-03 0. -1.
    9900012    2    1    2    0    0 -0.23925920544E+02 -0.51490392010E+01  0.35842165178E+02  0.47787273241E+02  0.20000010016E+02 0.  0.
         12    1    1    2    0    0  0.23925920544E+02  0.51490392010E+01 -0.35842165178E+02  0.43400726759E+02  0.00000000000E+00 0. -1.
         11    1    3    3    0    0 -0.19540157054E+00  0.79917021070E+00  0.37964352017E+00  0.90608181914E+00  0.51100000000E-03 0. -1.
        -11    1    3    3    0    0 -0.61167402443E+01  0.32159011679E+01  0.21565834587E+02  0.22646009653E+02  0.51100000000E-03 0.  1.
        -12    1    3    3    0    0 -0.17613778729E+02 -0.91641105795E+01  0.13896687071E+02  0.24235181769E+02  0.00000000000E+00 0.  1.
</event>
<event>
 7    1  0.5467297E-010  0.4778727E+02  0.7816164E-02  0.1312668E+00
        -11   -1    0    0    0    0  0.00000000000E+00  0.00000000000E+00  0.45593999997E+02  0.45594000000E+02  0.51100000000E-03 0.  1.
         11   -1    0    0    0    0 -0.00000000000E+00 -0.00000000000E+00 -0.45593999997E+02  0.45594000000E+02  0.51100000000E-03 0. -1.
    9900012    2    1    2    0    0  0.40635284999E+02  0.11289217659E+02 -0.10244545064E+02  0.47787268142E+02  0.19999986765E+02 0.  0.
         12    1    1    2    0    0 -0.40635284999E+02 -0.11289217659E+02  0.10244545064E+02  0.43400731858E+02  0.00000000000E+00 0. -1.
         11    1    3    3    0    0  0.57131918554E+01 -0.22755620159E+01  0.79638128987E+00  0.62010456445E+01  0.51100000000E-03 0. -1.
        -11    1    3    3    0    0  0.23757487663E+02  0.13674925796E+02 -0.24940556229E+01  0.27525299804E+02  0.51100000000E-03 0.  1.
        -12    1    3    3    0    0  0.11164605480E+02 -0.11014612163E+00 -0.85468707305E+01  0.14060922693E+02  0.00000000000E+00 0.  1.
</event>
<event>
 7    1  0.5467297E-010  0.4778730E+02  0.7816164E-02  0.1312668E+00
        -11   -1    0    0    0    0  0.00000000000E+00  0.00000000000E+00  0.45593999997E+02  0.45594000000E+02  0.51100000000E-03 0. -1.
         11   -1    0    0    0    0 -0.00000000000E+00 -0.00000000000E+00 -0.45593999997E+02  0.45594000000E+02  0.51100000000E-03 0.  1.
    9900012    2    1    2    0    0 -0.45379807428E+01  0.33873754075E+02 -0.26750626843E+02  0.47787302761E+02  0.20000144607E+02 0.  0.
         12    1    1    2    0    0  0.45379807428E+01 -0.33873754075E+02  0.26750626843E+02  0.43400697239E+02  0.00000000000E+00 0. -1.
         11    1    3    3    0    0 -0.11391848660E+01 -0.18408001467E+01 -0.37826373976E+01  0.43582832953E+01  0.51100000000E-03 0. -1.
        -11    1    3    3    0    0 -0.56056705012E+01  0.17772326311E+02 -0.13585532535E+02  0.23061782646E+02  0.51100000000E-03 0.  1.
         12    1    3    3    0    0  0.22068746244E+01  0.17942227910E+02 -0.93824569101E+01  0.20367236820E+02  0.00000000000E+00 0. -1.
</event>
<event>
 7    1  0.5467297E-010  0.4778727E+02  0.7816164E-02  0.1312668E+00
        -11   -1    0    0    0    0  0.00000000000E+00  0.00000000000E+00  0.45593999997E+02  0.45594000000E+02  0.51100000000E-03 0.  1.
         11   -1    0    0    0    0 -0.00000000000E+00 -0.00000000000E+00 -0.45593999997E+02  0.45594000000E+02  0.51100000000E-03 0. -1.
    9900012    2    1    2    0    0  0.12958901565E+02 -0.41248708215E+02  0.37728543376E+01  0.47787268565E+02  0.19999988697E+02 0.  0.
         12    1    1    2    0    0 -0.12958901565E+02  0.41248708215E+02 -0.37728543376E+01  0.43400731435E+02  0.00000000000E+00 0. -1.
         11    1    3    3    0    0  0.23986052561E+01 -0.19555061445E+02 -0.67439393824E+01  0.20823891421E+02  0.51100000000E-03 0.  1.
        -11    1    3    3    0    0  0.74158948275E+01 -0.94146351712E+01  0.66781470375E+01  0.13719639194E+02  0.51100000000E-03 0. -1.
        -12    1    3    3    0    0  0.31444014814E+01 -0.12279011600E+02  0.38386466825E+01  0.13243737950E+02  0.00000000000E+00 0.  1.
</event>
<event>
 7    1  0.5467297E-010  0.4778727E+02  0.7816164E-02  0.1312668E+00
        -11   -1    0    0    0    0  0.00000000000E+00  0.00000000000E+00  0.45593999997E+02  0.45594000000E+02  0.51100000000E-03 0.  1.
         11   -1    0    0    0    0 -0.00000000000E+00 -0.00000000000E+00 -0.45593999997E+02  0.45594000000E+02  0.51100000000E-03 0. -1.
    9900012    2    1    2    0    0  0.10227626241E+02  0.41255121647E+02  0.87768995219E+01  0.47787269985E+02  0.19999995169E+02 0.  0.
         12    1    1    2    0    0 -0.10227626241E+02 -0.41255121647E+02 -0.87768995219E+01  0.43400730015E+02  0.00000000000E+00 0. -1.
         11    1    3    3    0    0  0.69615568272E-01  0.70354291546E+01 -0.58326653988E+01  0.91390423805E+01  0.51100000000E-03 0. -1.
        -11    1    3    3    0    0  0.75098035532E+01  0.21700864909E+02  0.10015761340E+02  0.25052747608E+02  0.51100000000E-03 0.  1.
         12    1    3    3    0    0  0.26482071192E+01  0.12518827583E+02  0.45938035811E+01  0.13595479997E+02  0.00000000000E+00 0. -1.
</event>
<event>
 7    1  0.5467297E-010  0.4778726E+02  0.7816164E-02  0.1312668E+00
        -11   -1    0    0    0    0  0.00000000000E+00  0.00000000000E+00  0.45593999997E+02  0.45594000000E+02  0.51100000000E-03 0.  1.
         11   -1    0    0    0    0 -0.00000000000E+00 -0.00000000000E+00 -0.45593999997E+02  0.45594000000E+02  0.51100000000E-03 0. -1.
    9900012    2    1    2    0    0 -0.28990829446E+00 -0.41298715558E+02  0.13340015805E+02  0.47787262964E+02  0.19999963159E+02 0.  0.
         12    1    1    2    0    0  0.28990829446E+00  0.41298715558E+02 -0.13340015805E+02  0.43400737036E+02  0.00000000000E+00 0. -1.
         11    1    3    3    0    0  0.30224868183E+01 -0.28794159584E+01  0.72361822893E+00  0.42367542330E+01  0.51100000000E-03 0. -1.
        -11    1    3    3    0    0  0.16471652590E+01 -0.10720083730E+02  0.10871836271E+02  0.15356763094E+02  0.51100000000E-03 0.  1.
        -12    1    3    3    0    0 -0.49595603718E+01 -0.27699215870E+02  0.17445613044E+01  0.28193745637E+02  0.00000000000E+00 0.  1.
</event>
<event>
 7    1  0.5467297E-010  0.4778727E+02  0.7816164E-02  0.1312668E+00
        -11   -1    0    0    0    0  0.00000000000E+00  0.00000000000E+00  0.45593999997E+02  0.45594000000E+02  0.51100000000E-03 0. -1.
         11   -1    0    0    0    0 -0.00000000000E+00 -0.00000000000E+00 -0.45593999997E+02  0.45594000000E+02  0.51100000000E-03 0.  1.
    9900012    2    1    2    0    0 -0.39121272951E+02  0.17564042777E+02 -0.66823513720E+01  0.47787269409E+02  0.19999992544E+02 0.  0.
         12    1    1    2    0    0  0.39121272951E+02 -0.17564042777E+02  0.66823513720E+01  0.43400730591E+02  0.00000000000E+00 0. -1.
         11    1    3    3    0    0 -0.24633323009E+01  0.15080655295E+01  0.10469724759E+01  0.30722010501E+01  0.51100000000E-03 0. -1.
        -11    1    3    3    0    0 -0.30670062100E+02  0.20042997011E+02 -0.48154812689E+01  0.36953528905E+02  0.51100000000E-03 0.  1.
        -12    1    3    3    0    0 -0.59878785502E+01 -0.39870197637E+01 -0.29138425790E+01  0.77615394545E+01  0.00000000000E+00 0.  1.
</event>
<event>
 7    1  0.5467297E-010  0.4778728E+02  0.7816164E-02  0.1312668E+00
        -11   -1    0    0    0    0  0.00000000000E+00  0.00000000000E+00  0.45593999997E+02  0.45594000000E+02  0.51100000000E-03 0. -1.
         11   -1    0    0    0    0 -0.00000000000E+00 -0.00000000000E+00 -0.45593999997E+02  0.45594000000E+02  0.51100000000E-03 0.  1.
    9900012    2    1    2    0    0 -0.15072999681E+02  0.32669001541E+02 -0.24272696903E+02  0.47787276550E+02  0.20000025101E+02 0.  0.
         12    1    1    2    0    0  0.15072999681E+02 -0.32669001541E+02  0.24272696903E+02  0.43400723450E+02  0.00000000000E+00 0. -1.
         11    1    3    3    0    0 -0.11343555688E+02  0.12236937349E+02 -0.15916467048E+02  0.23059766150E+02  0.51100000000E-03 0. -1.
        -11    1    3    3    0    0  0.12291748305E+01  0.16463635360E+02 -0.80539794014E+01  0.18369233639E+02  0.51100000000E-03 0.  1.
        -12    1    3    3    0    0 -0.49586188237E+01  0.39684288313E+01 -0.30225045360E+00  0.63582767606E+01  0.00000000000E+00 0.  1.
</event>
<event>
 7    1  0.5467297E-010  0.4778727E+02  0.7816164E-02  0.1312668E+00
        -11   -1    0    0    0    0  0.00000000000E+00  0.00000000000E+00  0.45593999997E+02  0.45594000000E+02  0.51100000000E-03 0.  1.
         11   -1    0    0    0    0 -0.00000000000E+00 -0.00000000000E+00 -0.45593999997E+02  0.45594000000E+02  0.51100000000E-03 0. -1.
    9900012    2    1    2    0    0 -0.32350468162E+02  0.81574347017E+01  0.27758364207E+02  0.47787270575E+02  0.19999997860E+02 0.  0.
         12    1    1    2    0    0  0.32350468162E+02 -0.81574347017E+01 -0.27758364207E+02  0.43400729425E+02  0.00000000000E+00 0. -1.
         11    1    3    3    0    0 -0.17990708278E+02  0.77470475581E+01  0.21337901116E+02  0.28965295692E+02  0.51100000000E-03 0.  1.
        -11    1    3    3    0    0 -0.10720032908E+01 -0.36449403804E+01  0.12993860329E+01  0.40153686949E+01  0.51100000000E-03 0. -1.
         12    1    3    3    0    0 -0.13287756593E+02  0.40553275239E+01  0.51210770581E+01  0.14806606189E+02  0.00000000000E+00 0. -1.
</event>
<event>
 7    1  0.5467297E-010  0.4778727E+02  0.7816164E-02  0.1312668E+00
        -11   -1    0    0    0    0  0.00000000000E+00  0.00000000000E+00  0.45593999997E+02  0.45594000000E+02  0.51100000000E-03 0. -1.
         11   -1    0    0    0    0 -0.00000000000E+00 -0.00000000000E+00 -0.45593999997E+02  0.45594000000E+02  0.51100000000E-03 0.  1.
    9900012    2    1    2    0    0  0.45784486197E+01  0.42510018584E+02 -0.74538178141E+01  0.47787271069E+02  0.20000000112E+02 0.  0.
         12    1    1    2    0    0 -0.45784486197E+01 -0.42510018584E+02  0.74538178141E+01  0.43400728931E+02  0.00000000000E+00 0. -1.
         11    1    3    3    0    0  0.12460492943E+01  0.13006315222E+01 -0.51279510871E+00  0.18727627413E+01  0.51100000000E-03 0. -1.
        -11    1    3    3    0    0  0.10780413147E+02  0.26697387366E+02 -0.19563496760E+01  0.28858189550E+02  0.51100000000E-03 0.  1.
        -12    1    3    3    0    0 -0.74480138214E+01  0.14511999696E+02 -0.49846730293E+01  0.17056318778E+02  0.00000000000E+00 0.  1.
</event>
<event>
 7    1  0.5467297E-010  0.4778727E+02  0.7816164E-02  0.1312668E+00
        -11   -1    0    0    0    0  0.00000000000E+00  0.00000000000E+00  0.45593999997E+02  0.45594000000E+02  0.51100000000E-03 0.  1.
         11   -1    0    0    0    0 -0.00000000000E+00 -0.00000000000E+00 -0.45593999997E+02  0.45594000000E+02  0.51100000000E-03 0. -1.
    9900012    2    1    2    0    0 -0.41072331208E+01  0.40538390844E+02 -0.14946342207E+02  0.47787266809E+02  0.19999980687E+02 0.  0.
         12    1    1    2    0    0  0.41072331208E+01 -0.40538390844E+02  0.14946342207E+02  0.43400733191E+02  0.00000000000E+00 0. -1.
         11    1    3    3    0    0 -0.46990921364E+01  0.50368157757E+01  0.26103072742E+01  0.73664567053E+01  0.51100000000E-03 0. -1.
        -11    1    3    3    0    0  0.10476359652E+01  0.10343567385E+02 -0.13323249732E+01  0.10481508358E+02  0.51100000000E-03 0.  1.
         12    1    3    3    0    0 -0.45577694972E+00  0.25158007684E+02 -0.16224324508E+02  0.29939301745E+02  0.00000000000E+00 0. -1.
</event>
<event>
 7    1  0.5467297E-010  0.4778727E+02  0.7816164E-02  0.1312668E+00
        -11   -1    0    0    0    0  0.00000000000E+00  0.00000000000E+00  0.45593999997E+02  0.45594000000E+02  0.51100000000E-03 0.  1.
         11   -1    0    0    0    0 -0.00000000000E+00 -0.00000000000E+00 -0.45593999997E+02  0.45594000000E+02  0.51100000000E-03 0. -1.
    9900012    2    1    2    0    0  0.30589025811E+01 -0.34902988530E+02  0.25613427910E+02  0.47787272096E+02  0.20000004793E+02 0.  0.
         12    1    1    2    0    0 -0.30589025811E+01  0.34902988530E+02 -0.25613427910E+02  0.43400727904E+02  0.00000000000E+00 0. -1.
         11    1    3    3    0    0  0.51206098237E+01 -0.93775661844E+01  0.17601188702E+02  0.20590319000E+02  0.51100000000E-03 0.  1.
        -11    1    3    3    0    0 -0.50295076040E+00 -0.21653733030E+02  0.55820632277E+01  0.22367309711E+02  0.51100000000E-03 0. -1.
         12    1    3    3    0    0 -0.15587564822E+01 -0.38716893158E+01  0.24301759798E+01  0.48296433845E+01  0.00000000000E+00 0. -1.
</event>
<event>
 7    1  0.5467297E-010  0.4778727E+02  0.7816164E-02  0.1312668E+00
        -11   -1    0    0    0    0  0.00000000000E+00  0.00000000000E+00  0.45593999997E+02  0.45594000000E+02  0.51100000000E-03 0.  1.
         11   -1    0    0    0    0 -0.00000000000E+00 -0.00000000000E+00 -0.45593999997E+02  0.45594000000E+02  0.51100000000E-03 0. -1.
    9900012    2    1    2    0    0 -0.24176226046E+02  0.12903481894E+02  0.33654628131E+02  0.47787265612E+02  0.19999975230E+02 0.  0.
         12    1    1    2    0    0  0.24176226046E+02 -0.12903481894E+02 -0.33654628131E+02  0.43400734388E+02  0.00000000000E+00 0. -1.
         11    1    3    3    0    0  0.23692703527E+01  0.55201405535E+01  0.78944656563E+01  0.99200797373E+01  0.51100000000E-03 0. -1.
        -11    1    3    3    0    0 -0.14231261329E+02  0.50437664557E+01  0.12300320458E+02  0.19474759631E+02  0.51100000000E-03 0.  1.
         12    1    3    3    0    0 -0.12314235070E+02  0.23395748851E+01  0.13459842016E+02  0.18392426243E+02  0.00000000000E+00 0. -1.
</event>
<event>
 7    1  0.5467297E-010  0.4778727E+02  0.7816164E-02  0.1312668E+00
        -11   -1    0    0    0    0  0.00000000000E+00  0.00000000000E+00  0.45593999997E+02  0.45594000000E+02  0.51100000000E-03 0.  1.
         11   -1    0    0    0    0 -0.00000000000E+00 -0.00000000000E+00 -0.45593999997E+02  0.45594000000E+02  0.51100000000E-03 0. -1.
    9900012    2    1    2    0    0 -0.30501274320E+02 -0.52279345223E+01  0.30429657691E+02  0.47787273027E+02  0.20000009041E+02 0.  0.
         12    1    1    2    0    0  0.30501274320E+02  0.52279345223E+01 -0.30429657691E+02  0.43400726973E+02  0.00000000000E+00 0. -1.
         11    1    3    3    0    0 -0.92457160795E+01 -0.13240524757E+01  0.16322762140E+02  0.18806087975E+02  0.51100000000E-03 0. -1.
        -11    1    3    3    0    0 -0.20602821719E+02 -0.14937331917E+01  0.75982723430E+01  0.22010026000E+02  0.51100000000E-03 0.  1.
         12    1    3    3    0    0 -0.65273652146E+00 -0.24101488550E+01  0.65086232080E+01  0.69711590523E+01  0.00000000000E+00 0. -1.
</event>
<event>
 7    1  0.5467297E-010  0.4778727E+02  0.7816164E-02  0.1312668E+00
        -11   -1    0    0    0    0  0.00000000000E+00  0.00000000000E+00  0.45593999997E+02  0.45594000000E+02  0.51100000000E-03 0. -1.
         11   -1    0    0    0    0 -0.00000000000E+00 -0.00000000000E+00 -0.45593999997E+02  0.45594000000E+02  0.51100000000E-03 0.  1.
    9900012    2    1    2    0    0 -0.35231609509E+02  0.23200714893E+02  0.10202144054E+02  0.47787271625E+02  0.20000002648E+02 0.  0.
         12    1    1    2    0    0  0.35231609509E+02 -0.23200714893E+02 -0.10202144054E+02  0.43400728375E+02  0.00000000000E+00 0. -1.
         11    1    3    3    0    0 -0.20623956682E+02  0.20394226525E+02  0.79793818321E+01  0.30082263869E+02  0.51100000000E-03 0. -1.
        -11    1    3    3    0    0 -0.50968384408E+01  0.33440530743E+01 -0.30507766547E+01  0.68167214637E+01  0.51100000000E-03 0.  1.
         12    1    3    3    0    0 -0.95108143868E+01 -0.53756470684E+00  0.52735388768E+01  0.10888286293E+02  0.00000000000E+00 0. -1.
</event>
<event>
 7    1  0.5467297E-010  0.4778727E+02  0.7816164E-02  0.1312668E+00
        -11   -1    0    0    0    0  0.00000000000E+00  0.00000000000E+00  0.45593999997E+02  0.45594000000E+02  0.51100000000E-03 0. -1.
         11   -1    0    0    0    0 -0.00000000000E+00 -0.00000000000E+00 -0.45593999997E+02  0.45594000000E+02  0.51100000000E-03 0.  1.
    9900012    2    1    2    0    0 -0.42484756476E+02  0.86142607607E+01  0.21126508307E+01  0.47787270573E+02  0.19999997850E+02 0.  0.
         12    1    1    2    0    0  0.42484756476E+02 -0.86142607607E+01 -0.21126508307E+01  0.43400729427E+02  0.00000000000E+00 0. -1.
         11    1    3    3    0    0 -0.17464227942E+02  0.27795168684E+01 -0.77862582759E+01  0.19322287386E+02  0.51100000000E-03 0. -1.
        -11    1    3    3    0    0 -0.18989890367E+02  0.60530067208E+01  0.46487521240E+01  0.20466209299E+02  0.51100000000E-03 0.  1.
         12    1    3    3    0    0 -0.60306381676E+01 -0.21826282843E+00  0.52501569825E+01  0.79987738881E+01  0.00000000000E+00 0. -1.
</event>
<event>
 7    1  0.5467297E-010  0.4778727E+02  0.7816164E-02  0.1312668E+00
        -11   -1    0    0    0    0  0.00000000000E+00  0.00000000000E+00  0.45593999997E+02  0.45594000000E+02  0.51100000000E-03 0.  1.
         11   -1    0    0    0    0 -0.00000000000E+00 -0.00000000000E+00 -0.45593999997E+02  0.45594000000E+02  0.51100000000E-03 0. -1.
    9900012    2    1    2    0    0 -0.29192840414E+02  0.30915797924E+02  0.86956729888E+01  0.47787271649E+02  0.20000002754E+02 0.  0.
         12    1    1    2    0    0  0.29192840414E+02 -0.30915797924E+02 -0.86956729888E+01  0.43400728351E+02  0.00000000000E+00 0. -1.
         11    1    3    3    0    0 -0.30696254104E+01 -0.49394925902E+00 -0.36067047941E+01  0.47618174853E+01  0.51100000000E-03 0. -1.
        -11    1    3    3    0    0 -0.22423519042E+02  0.25954968676E+02  0.12287705110E+02  0.36434356071E+02  0.51100000000E-03 0.  1.
         12    1    3    3    0    0 -0.36996959621E+01  0.54547785068E+01  0.14672672379E-01  0.65910980920E+01  0.00000000000E+00 0. -1.
</event>
<event>
 7    1  0.5467297E-010  0.4778727E+02  0.7816164E-02  0.1312668E+00
        -11   -1    0    0    0    0  0.00000000000E+00  0.00000000000E+00  0.45593999997E+02  0.45594000000E+02  0.51100000000E-03 0.  1.
         11   -1    0    0    0    0 -0.00000000000E+00 -0.00000000000E+00 -0.45593999997E+02  0.45594000000E+02  0.51100000000E-03 0. -1.
    9900012    2    1    2    0    0 -0.42082012734E+02  0.74458689403E+01 -0.75687835475E+01  0.47787271384E+02  0.20000001546E+02 0.  0.
         12    1    1    2    0    0  0.42082012734E+02 -0.74458689403E+01  0.75687835475E+01  0.43400728616E+02  0.00000000000E+00 0. -1.
         11    1    3    3    0    0 -0.11200180008E+02 -0.25352020025E+01  0.53622740311E+01  0.12673802288E+02  0.51100000000E-03 0. -1.
        -11    1    3    3    0    0 -0.21620861597E+02  0.83164316147E+01 -0.10234762530E+02  0.25325383616E+02  0.51100000000E-03 0.  1.
         12    1    3    3    0    0 -0.92609711302E+01  0.16646393281E+01 -0.26962950489E+01  0.97880854797E+01  0.00000000000E+00 0. -1.
</event>
<event>
 7    1  0.5467297E-010  0.4778728E+02  0.7816164E-02  0.1312668E+00
        -11   -1    0    0    0    0  0.00000000000E+00  0.00000000000E+00  0.45593999997E+02  0.45594000000E+02  0.51100000000E-03 0.  1.
         11   -1    0    0    0    0 -0.00000000000E+00 -0.00000000000E+00 -0.45593999997E+02  0.45594000000E+02  0.51100000000E-03 0. -1.
    9900012    2    1    2    0    0  0.12299250711E+02  0.41493483274E+02 -0.32622211872E+01  0.47787276397E+02  0.20000024403E+02 0.  0.
         12    1    1    2    0    0 -0.12299250711E+02 -0.41493483274E+02  0.32622211872E+01  0.43400723603E+02  0.00000000000E+00 0. -1.
         11    1    3    3    0    0 -0.23612919549E+01  0.88483763701E+01 -0.50266607591E+01  0.10446855160E+02  0.51100000000E-03 0. -1.
        -11    1    3    3    0    0  0.16207407741E+02  0.29577253323E+02  0.66598912589E+00  0.33733329536E+02  0.51100000000E-03 0.  1.
         12    1    3    3    0    0 -0.15468650758E+01  0.30678535807E+01  0.10984504459E+01  0.36070917007E+01  0.00000000000E+00 0. -1.
</event>
<event>
 7    1  0.5467297E-010  0.4778727E+02  0.7816164E-02  0.1312668E+00
        -11   -1    0    0    0    0  0.00000000000E+00  0.00000000000E+00  0.45593999997E+02  0.45594000000E+02  0.51100000000E-03 0.  1.
         11   -1    0    0    0    0 -0.00000000000E+00 -0.00000000000E+00 -0.45593999997E+02  0.45594000000E+02  0.51100000000E-03 0. -1.
    9900012    2    1    2    0    0 -0.42809071998E+02  0.38062479378E+01  0.60430987275E+01  0.47787271769E+02  0.20000003305E+02 0.  0.
         12    1    1    2    0    0  0.42809071998E+02 -0.38062479378E+01 -0.60430987275E+01  0.43400728231E+02  0.00000000000E+00 0. -1.
         11    1    3    3    0    0 -0.34382091935E+01 -0.33157909641E+01 -0.20147123129E+01  0.51840927982E+01  0.51100000000E-03 0. -1.
        -11    1    3    3    0    0 -0.11694528598E+02 -0.15278395106E+00 -0.27487902604E+01  0.12014207848E+02  0.51100000000E-03 0.  1.
         12    1    3    3    0    0 -0.27676334207E+02  0.72748228529E+01  0.10806601301E+02  0.30588971123E+02  0.00000000000E+00 0. -1.
</event>
<event>
 7    1  0.5467297E-010  0.4778727E+02  0.7816164E-02  0.1312668E+00
        -11   -1    0    0    0    0  0.00000000000E+00  0.00000000000E+00  0.45593999997E+02  0.45594000000E+02  0.51100000000E-03 0. -1.
         11   -1    0    0    0    0 -0.00000000000E+00 -0.00000000000E+00 -0.45593999997E+02  0.45594000000E+02  0.51100000000E-03 0.  1.
    9900012    2    1    2    0    0  0.12064566986E+01 -0.70857251117E+01 -0.42801401349E+02  0.47787274251E+02  0.20000014620E+02 0.  0.
         12    1    1    2    0    0 -0.12064566986E+01  0.70857251117E+01  0.42801401349E+02  0.43400725749E+02  0.00000000000E+00 0. -1.
         11    1    3    3    0    0 -0.33928723530E+01 -0.35296993083E+00 -0.14665070313E+02  0.15056575245E+02  0.51100000000E-03 0.  1.
        -11    1    3    3    0    0  0.55041250234E+01 -0.40769972577E+01 -0.30671021980E+01  0.75049593647E+01  0.51100000000E-03 0. -1.
         12    1    3    3    0    0 -0.90479597178E+00 -0.26557579232E+01 -0.25069228838E+02  0.25225739641E+02  0.00000000000E+00 0. -1.
</event>
<event>
 7    1  0.5467297E-010  0.4778728E+02  0.7816164E-02  0.1312668E+00
        -11   -1    0    0    0    0  0.00000000000E+00  0.00000000000E+00  0.45593999997E+02  0.45594000000E+02  0.51100000000E-03 0.  1.
         11   -1    0    0    0    0 -0.00000000000E+00 -0.00000000000E+00 -0.45593999997E+02  0.45594000000E+02  0.51100000000E-03 0. -1.
    9900012    2    1    2    0    0  0.29882334002E+02 -0.20280934989E+02  0.24069734129E+02  0.47787282143E+02  0.20000050605E+02 0.  0.
         12    1    1    2    0    0 -0.29882334002E+02  0.20280934989E+02 -0.24069734129E+02  0.43400717857E+02  0.00000000000E+00 0. -1.
         11    1    3    3    0    0  0.11670584375E+02 -0.21153393363E+00  0.16658351124E+01  0.11790771525E+02  0.51100000000E-03 0. -1.
        -11    1    3    3    0    0  0.16853284604E+02 -0.20459836079E+02  0.19992847003E+02  0.33201687093E+02  0.51100000000E-03 0.  1.
         12    1    3    3    0    0  0.13584650224E+01  0.39043502316E+00  0.24110520138E+01  0.27948235253E+01  0.00000000000E+00 0. -1.
</event>
<event>
 7    1  0.5467297E-010  0.4778727E+02  0.7816164E-02  0.1312668E+00
        -11   -1    0    0    0    0  0.00000000000E+00  0.00000000000E+00  0.45593999997E+02  0.45594000000E+02  0.51100000000E-03 0.  1.
         11   -1    0    0    0    0 -0.00000000000E+00 -0.00000000000E+00 -0.45593999997E+02  0.45594000000E+02  0.51100000000E-03 0. -1.
    9900012    2    1    2    0    0  0.37765503682E+02 -0.21236437091E+02  0.25305790890E+01  0.47787270061E+02  0.19999995517E+02 0.  0.
         12    1    1    2    0    0 -0.37765503682E+02  0.21236437091E+02 -0.25305790890E+01  0.43400729939E+02  0.00000000000E+00 0. -1.
         11    1    3    3    0    0 -0.19711563235E+01 -0.33012319877E+01  0.50075503018E+00  0.38774148282E+01  0.51100000000E-03 0. -1.
        -11    1    3    3    0    0  0.30795618186E+02 -0.14419283463E+02  0.35261338382E+01  0.34186539093E+02  0.51100000000E-03 0.  1.
         12    1    3    3    0    0  0.89410418194E+01 -0.35159216408E+01 -0.14963097794E+01  0.97233161399E+01  0.00000000000E+00 0. -1.
</event>
<event>
 7    1  0.5467297E-010  0.4778727E+02  0.7816164E-02  0.1312668E+00
        -11   -1    0    0    0    0  0.00000000000E+00  0.00000000000E+00  0.45593999997E+02  0.45594000000E+02  0.51100000000E-03 0.  1.
         11   -1    0    0    0    0 -0.00000000000E+00 -0.00000000000E+00 -0.45593999997E+02  0.45594000000E+02  0.51100000000E-03 0. -1.
    9900012    2    1    2    0    0 -0.32155268312E+02 -0.62286892269E+01  0.28475700583E+02  0.47787269898E+02  0.19999994772E+02 0.  0.
         12    1    1    2    0    0  0.32155268312E+02  0.62286892269E+01 -0.28475700583E+02  0.43400730102E+02  0.00000000000E+00 0. -1.
         11    1    3    3    0    0 -0.18911327108E+02 -0.22725397879E+01  0.25411343445E+02  0.31757504720E+02  0.51100000000E-03 0.  1.
        -11    1    3    3    0    0 -0.83212016476E+01  0.19988884882E+00  0.44521193465E+01  0.94394766459E+01  0.51100000000E-03 0. -1.
         12    1    3    3    0    0 -0.49227395560E+01 -0.41560382879E+01 -0.13877622087E+01  0.65902885320E+01  0.00000000000E+00 0. -1.
</event>
<event>
 7    1  0.5467297E-010  0.4778727E+02  0.7816164E-02  0.1312668E+00
        -11   -1    0    0    0    0  0.00000000000E+00  0.00000000000E+00  0.45593999997E+02  0.45594000000E+02  0.51100000000E-03 0.  1.
         11   -1    0    0    0    0 -0.00000000000E+00 -0.00000000000E+00 -0.45593999997E+02  0.45594000000E+02  0.51100000000E-03 0. -1.
    9900012    2    1    2    0    0 -0.86983448801E+01 -0.98000809437E+00  0.42508842380E+02  0.47787270744E+02  0.19999998628E+02 0.  0.
         12    1    1    2    0    0  0.86983448801E+01  0.98000809437E+00 -0.42508842380E+02  0.43400729256E+02  0.00000000000E+00 0. -1.
         11    1    3    3    0    0 -0.33387217917E+01 -0.16431683473E+01  0.16747509527E+01  0.40806686259E+01  0.51100000000E-03 0. -1.
        -11    1    3    3    0    0 -0.30327245062E+01 -0.60514930951E+01  0.29968702159E+02  0.30723624395E+02  0.51100000000E-03 0.  1.
        -12    1    3    3    0    0 -0.23268985823E+01  0.67146533481E+01  0.10865389268E+02  0.12982977722E+02  0.00000000000E+00 0.  1.
</event>
<event>
 7    1  0.5467297E-010  0.4778727E+02  0.7816164E-02  0.1312668E+00
        -11   -1    0    0    0    0  0.00000000000E+00  0.00000000000E+00  0.45593999997E+02  0.45594000000E+02  0.51100000000E-03 0.  1.
         11   -1    0    0    0    0 -0.00000000000E+00 -0.00000000000E+00 -0.45593999997E+02  0.45594000000E+02  0.51100000000E-03 0. -1.
    9900012    2    1    2    0    0 -0.10438989082E+02  0.24754697998E+02  0.34086003732E+02  0.47787271706E+02  0.20000003017E+02 0.  0.
         12    1    1    2    0    0  0.10438989082E+02 -0.24754697998E+02 -0.34086003732E+02  0.43400728294E+02  0.00000000000E+00 0. -1.
         11    1    3    3    0    0 -0.88104918388E-01 -0.20918309050E+01  0.46850542897E+01  0.51315936092E+01  0.51100000000E-03 0. -1.
        -11    1    3    3    0    0 -0.34750520717E+01  0.42432903247E+01  0.12369359221E+02  0.13530799957E+02  0.51100000000E-03 0.  1.
         12    1    3    3    0    0 -0.68758320920E+01  0.22603238578E+02  0.17031590221E+02  0.29124878140E+02  0.00000000000E+00 0. -1.
</event>
<event>
 7    1  0.5467297E-010  0.4778727E+02  0.7816164E-02  0.1312668E+00
        -11   -1    0    0    0    0  0.00000000000E+00  0.00000000000E+00  0.45593999997E+02  0.45594000000E+02  0.51100000000E-03 0. -1.
         11   -1    0    0    0    0 -0.00000000000E+00 -0.00000000000E+00 -0.45593999997E+02  0.45594000000E+02  0.51100000000E-03 0.  1.
    9900012    2    1    2    0    0  0.34544999971E+02 -0.17077630282E+02 -0.19965494194E+02  0.47787269160E+02  0.19999991406E+02 0.  0.
         12    1    1    2    0    0 -0.34544999971E+02  0.17077630282E+02  0.19965494194E+02  0.43400730840E+02  0.00000000000E+00 0. -1.
         11    1    3    3    0    0 -0.11237220650E+01  0.13200618564E+01 -0.21674767280E+01  0.27754765737E+01  0.51100000000E-03 0. -1.
        -11    1    3    3    0    0  0.27600905515E+02 -0.17567926709E+02 -0.16976874814E+02  0.36859955409E+02  0.51100000000E-03 0.  1.
        -12    1    3    3    0    0  0.80678165216E+01 -0.82976542991E+00 -0.82114265212E+00  0.81518371764E+01  0.00000000000E+00 0.  1.
</event>
<event>
 7    1  0.5467297E-010  0.4778726E+02  0.7816164E-02  0.1312668E+00
        -11   -1    0    0    0    0  0.00000000000E+00  0.00000000000E+00  0.45593999997E+02  0.45594000000E+02  0.51100000000E-03 0.  1.
         11   -1    0    0    0    0 -0.00000000000E+00 -0.00000000000E+00 -0.45593999997E+02  0.45594000000E+02  0.51100000000E-03 0. -1.
    9900012    2    1    2    0    0 -0.41494605244E+02 -0.11278792822E+02  0.58830626584E+01  0.47787264313E+02  0.19999969310E+02 0.  0.
         12    1    1    2    0    0  0.41494605244E+02  0.11278792822E+02 -0.58830626584E+01  0.43400735687E+02  0.00000000000E+00 0. -1.
         11    1    3    3    0    0 -0.27279696815E+02 -0.27559547303E+01  0.11277568461E+01  0.27441737929E+02  0.51100000000E-03 0.  1.
        -11    1    3    3    0    0 -0.14911299727E+01 -0.43852636543E+01 -0.23525999884E+01  0.51950681304E+01  0.51100000000E-03 0. -1.
        -12    1    3    3    0    0 -0.12723778456E+02 -0.41375744371E+01  0.71079058007E+01  0.15150458254E+02  0.00000000000E+00 0.  1.
</event>
<event>
 7    1  0.5467297E-010  0.4778727E+02  0.7816164E-02  0.1312668E+00
        -11   -1    0    0    0    0  0.00000000000E+00  0.00000000000E+00  0.45593999997E+02  0.45594000000E+02  0.51100000000E-03 0.  1.
         11   -1    0    0    0    0 -0.00000000000E+00 -0.00000000000E+00 -0.45593999997E+02  0.45594000000E+02  0.51100000000E-03 0. -1.
    9900012    2    1    2    0    0 -0.35262991861E+02 -0.12603218780E+02  0.21938642769E+02  0.47787265384E+02  0.19999974194E+02 0.  0.
         12    1    1    2    0    0  0.35262991861E+02  0.12603218780E+02 -0.21938642769E+02  0.43400734616E+02  0.00000000000E+00 0. -1.
         11    1    3    3    0    0 -0.56484179125E+01 -0.15675682420E+01 -0.36673482460E+01  0.69145743561E+01  0.51100000000E-03 0. -1.
        -11    1    3    3    0    0 -0.14893061637E+02 -0.60975501183E+01  0.15516499236E+02  0.22354980455E+02  0.51100000000E-03 0.  1.
         12    1    3    3    0    0 -0.14721512312E+02 -0.49381004193E+01  0.10089491780E+02  0.18517710573E+02  0.00000000000E+00 0. -1.
</event>
<event>
 7    1  0.5467297E-010  0.4778727E+02  0.7816164E-02  0.1312668E+00
        -11   -1    0    0    0    0  0.00000000000E+00  0.00000000000E+00  0.45593999997E+02  0.45594000000E+02  0.51100000000E-03 0. -1.
         11   -1    0    0    0    0 -0.00000000000E+00 -0.00000000000E+00 -0.45593999997E+02  0.45594000000E+02  0.51100000000E-03 0.  1.
    9900012    2    1    2    0    0 -0.16199100521E+02 -0.12334556229E+02 -0.38328464923E+02  0.47787270070E+02  0.19999995559E+02 0.  0.
         12    1    1    2    0    0  0.16199100521E+02  0.12334556229E+02  0.38328464923E+02  0.43400729930E+02  0.00000000000E+00 0. -1.
         11    1    3    3    0    0 -0.52752920114E+01 -0.11442665857E+02 -0.76941014311E+01  0.14763553258E+02  0.51100000000E-03 0. -1.
        -11    1    3    3    0    0 -0.49799068029E+01 -0.24696018500E+01 -0.19802340662E+02  0.20567719879E+02  0.51100000000E-03 0.  1.
         12    1    3    3    0    0 -0.59439017070E+01  0.15777114780E+01 -0.10832022829E+02  0.12455996933E+02  0.00000000000E+00 0. -1.
</event>
<event>
 7    1  0.5467297E-010  0.4778727E+02  0.7816164E-02  0.1312668E+00
        -11   -1    0    0    0    0  0.00000000000E+00  0.00000000000E+00  0.45593999997E+02  0.45594000000E+02  0.51100000000E-03 0. -1.
         11   -1    0    0    0    0 -0.00000000000E+00 -0.00000000000E+00 -0.45593999997E+02  0.45594000000E+02  0.51100000000E-03 0.  1.
    9900012    2    1    2    0    0 -0.34397834643E+02  0.11324473334E+02 -0.23920038342E+02  0.47787274675E+02  0.20000016553E+02 0.  0.
         12    1    1    2    0    0  0.34397834643E+02 -0.11324473334E+02  0.23920038342E+02  0.43400725325E+02  0.00000000000E+00 0. -1.
         11    1    3    3    0    0 -0.13698947567E+02  0.59154269250E+01 -0.17862406671E+02  0.23274857948E+02  0.51100000000E-03 0. -1.
        -11    1    3    3    0    0 -0.15885887076E+02  0.55343424030E+01 -0.61362651778E-01  0.16822429065E+02  0.51100000000E-03 0.  1.
        -12    1    3    3    0    0 -0.48130000001E+01 -0.12529599378E+00 -0.59962690194E+01  0.76899876619E+01  0.00000000000E+00 0.  1.
</event>
<event>
 7    1  0.5467297E-010  0.4778727E+02  0.7816164E-02  0.1312668E+00
        -11   -1    0    0    0    0  0.00000000000E+00  0.00000000000E+00  0.45593999997E+02  0.45594000000E+02  0.51100000000E-03 0.  1.
         11   -1    0    0    0    0 -0.00000000000E+00 -0.00000000000E+00 -0.45593999997E+02  0.45594000000E+02  0.51100000000E-03 0. -1.
    9900012    2    1    2    0    0 -0.34667315617E+02  0.20801301328E+02  0.15783103576E+02  0.47787271118E+02  0.20000000334E+02 0.  0.
         12    1    1    2    0    0  0.34667315617E+02 -0.20801301328E+02 -0.15783103576E+02  0.43400728882E+02  0.00000000000E+00 0. -1.
         11    1    3    3    0    0  0.92672991048E+00  0.48649369795E+01  0.25555973963E+01  0.55729272788E+01  0.51100000000E-03 0. -1.
        -11    1    3    3    0    0 -0.11540186376E+01 -0.11599117805E+01  0.63024226645E+00  0.17533852771E+01  0.51100000000E-03 0.  1.
         12    1    3    3    0    0 -0.34440026889E+02  0.17096276129E+02  0.12597263914E+02  0.40460958562E+02  0.00000000000E+00 0. -1.
</event>
<event>
 7    1  0.5467297E-010  0.4778727E+02  0.7816164E-02  0.1312668E+00
        -11   -1    0    0    0    0  0.00000000000E+00  0.00000000000E+00  0.45593999997E+02  0.45594000000E+02  0.51100000000E-03 0.  1.
         11   -1    0    0    0    0 -0.00000000000E+00 -0.00000000000E+00 -0.45593999997E+02  0.45594000000E+02  0.51100000000E-03 0. -1.
    9900012    2    1    2    0    0 -0.14019751778E+02  0.38422984189E+02  0.14517021580E+02  0.47787273399E+02  0.20000010738E+02 0.  0.
         12    1    1    2    0    0  0.14019751778E+02 -0.38422984189E+02 -0.14517021580E+02  0.43400726601E+02  0.00000000000E+00 0. -1.
         11    1    3    3    0    0 -0.12781368534E+02  0.32014030786E+02  0.11403212884E+02  0.36308329804E+02  0.51100000000E-03 0.  1.
        -11    1    3    3    0    0  0.34744255214E+01  0.37898140159E+01  0.32553887005E+01  0.60853823899E+01  0.51100000000E-03 0. -1.
         12    1    3    3    0    0 -0.47128087653E+01  0.26191393869E+01 -0.14158000463E+00  0.53935612061E+01  0.00000000000E+00 0. -1.
</event>
<event>
 7    1  0.5467297E-010  0.4778728E+02  0.7816164E-02  0.1312668E+00
        -11   -1    0    0    0    0  0.00000000000E+00  0.00000000000E+00  0.45593999997E+02  0.45594000000E+02  0.51100000000E-03 0. -1.
         11   -1    0    0    0    0 -0.00000000000E+00 -0.00000000000E+00 -0.45593999997E+02  0.45594000000E+02  0.51100000000E-03 0.  1.
    9900012    2    1    2    0    0  0.21161019542E+01  0.21996334780E+02 -0.37353789712E+02  0.47787282989E+02  0.20000054459E+02 0.  0.
         12    1    1    2    0    0 -0.21161019542E+01 -0.21996334780E+02  0.37353789712E+02  0.43400717011E+02  0.00000000000E+00 0. -1.
         11    1    3    3    0    0 -0.35501021234E+01  0.11809379477E+02 -0.49719452222E+01  0.13296048596E+02  0.51100000000E-03 0. -1.
        -11    1    3    3    0    0  0.32100936225E+01  0.57714155778E+01 -0.21543550663E+02  0.22533053816E+02  0.51100000000E-03 0.  1.
         12    1    3    3    0    0  0.24561104551E+01  0.44155397253E+01 -0.10838293827E+02  0.11958180577E+02  0.00000000000E+00 0. -1.
</event>
<event>
 7    1  0.5467297E-010  0.4778727E+02  0.7816164E-02  0.1312668E+00
        -11   -1    0    0    0    0  0.00000000000E+00  0.00000000000E+00  0.45593999997E+02  0.45594000000E+02  0.51100000000E-03 0.  1.
         11   -1    0    0    0    0 -0.00000000000E+00 -0.00000000000E+00 -0.45593999997E+02  0.45594000000E+02  0.51100000000E-03 0. -1.
    9900012    2    1    2    0    0  0.42311296735E+02  0.13568357662E+01  0.95674582255E+01  0.47787273144E+02  0.20000009573E+02 0.  0.
         12    1    1    2    0    0 -0.42311296735E+02 -0.13568357662E+01 -0.95674582255E+01  0.43400726856E+02  0.00000000000E+00 0. -1.
         11    1    3    3    0    0  0.24853273680E+02 -0.22672289914E+01 -0.41175342999E+01  0.25293865439E+02  0.51100000000E-03 0. -1.
        -11    1    3    3    0    0  0.12411745121E+02  0.27764023007E+01  0.93229146277E+01  0.15769482050E+02  0.51100000000E-03 0.  1.
         12    1    3    3    0    0  0.50462779343E+01  0.84766245692E+00  0.43620778977E+01  0.67239256552E+01  0.00000000000E+00 0. -1.
</event>
<event>
 7    1  0.6452897E-010  0.4778728E+02  0.7816164E-02  0.1312668E+00
        -11   -1    0    0    0    0  0.00000000000E+00  0.00000000000E+00  0.45593999997E+02  0.45594000000E+02  0.51100000000E-03 0. -1.
         11   -1    0    0    0    0 -0.00000000000E+00 -0.00000000000E+00 -0.45593999997E+02  0.45594000000E+02  0.51100000000E-03 0.  1.
    9900012    2    1    2    0    0  0.31916231012E+02 -0.19440588786E+01 -0.29346164458E+02  0.47787279553E+02  0.20000038794E+02 0.  0.
         12    1    1    2    0    0 -0.31916231012E+02  0.19440588786E+01  0.29346164458E+02  0.43400720447E+02  0.00000000000E+00 0. -1.
         11    1    3    3    0    0  0.96333859877E+01 -0.23419521770E+01 -0.19536053632E+02  0.21907630117E+02  0.51100000000E-03 0. -1.
        -11    1    3    3    0    0  0.12856750823E+02  0.11022913448E+01 -0.10155630359E+02  0.16420959661E+02  0.51100000000E-03 0.  1.
         12    1    3    3    0    0  0.94260942011E+01 -0.70439804635E+00  0.34551953363E+00  0.94586897742E+01  0.00000000000E+00 0. -1.
</event>
<event>
 7    1  0.5467297E-010  0.4778727E+02  0.7816164E-02  0.1312668E+00
        -11   -1    0    0    0    0  0.00000000000E+00  0.00000000000E+00  0.45593999997E+02  0.45594000000E+02  0.51100000000E-03 0.  1.
         11   -1    0    0    0    0 -0.00000000000E+00 -0.00000000000E+00 -0.45593999997E+02  0.45594000000E+02  0.51100000000E-03 0. -1.
    9900012    2    1    2    0    0 -0.22271411569E+02 -0.30632618857E+02  0.21195519428E+02  0.47787272412E+02  0.20000006237E+02 0.  0.
         12    1    1    2    0    0  0.22271411569E+02  0.30632618857E+02 -0.21195519428E+02  0.43400727588E+02  0.00000000000E+00 0. -1.
         11    1    3    3    0    0 -0.71014803271E+01 -0.98452862008E+01  0.10319504046E+01  0.12183004765E+02  0.51100000000E-03 0.  1.
        -11    1    3    3    0    0 -0.11092418175E+02 -0.20237177594E+02  0.21225974172E+02  0.31354857323E+02  0.51100000000E-03 0. -1.
        -12    1    3    3    0    0 -0.40775130669E+01 -0.55015506169E+00 -0.10624051484E+01  0.42494103241E+01  0.00000000000E+00 0.  1.
</event>
<event>
 7    1  0.5467297E-010  0.4778727E+02  0.7816164E-02  0.1312668E+00
        -11   -1    0    0    0    0  0.00000000000E+00  0.00000000000E+00  0.45593999997E+02  0.45594000000E+02  0.51100000000E-03 0. -1.
         11   -1    0    0    0    0 -0.00000000000E+00 -0.00000000000E+00 -0.45593999997E+02  0.45594000000E+02  0.51100000000E-03 0.  1.
    9900012    2    1    2    0    0 -0.15341112275E+02  0.24440117355E+02 -0.32418421770E+02  0.47787272676E+02  0.20000007440E+02 0.  0.
         12    1    1    2    0    0  0.15341112275E+02 -0.24440117355E+02  0.32418421770E+02  0.43400727324E+02  0.00000000000E+00 0. -1.
         11    1    3    3    0    0 -0.11497531841E+02  0.96534745593E+01 -0.44034771634E+01  0.15645236364E+02  0.51100000000E-03 0. -1.
        -11    1    3    3    0    0 -0.44357355706E+01  0.10237345685E+02 -0.19272994922E+02  0.22269425908E+02  0.51100000000E-03 0.  1.
         12    1    3    3    0    0  0.59215513702E+00  0.45492971105E+01 -0.87419496849E+01  0.98726104045E+01  0.00000000000E+00 0. -1.
</event>
<event>
 7    1  0.5467297E-010  0.4778730E+02  0.7816164E-02  0.1312668E+00
        -11   -1    0    0    0    0  0.00000000000E+00  0.00000000000E+00  0.45593999997E+02  0.45594000000E+02  0.51100000000E-03 0. -1.
         11   -1    0    0    0    0 -0.00000000000E+00 -0.00000000000E+00 -0.45593999997E+02  0.45594000000E+02  0.51100000000E-03 0.  1.
    9900012    2    1    2    0    0 -0.24117912633E+02  0.12061750300E+02 -0.34006786878E+02  0.47787296274E+02  0.20000115032E+02 0.  0.
         12    1    1    2    0    0  0.24117912633E+02 -0.12061750300E+02  0.34006786878E+02  0.43400703726E+02  0.00000000000E+00 0. -1.
         11    1    3    3    0    0  0.24641449058E+01  0.92286315635E+00  0.53739439767E+00  0.26856059879E+01  0.51100000000E-03 0. -1.
        -11    1    3    3    0    0 -0.13689173756E+02  0.50025297689E+01 -0.19694460220E+02  0.24500827451E+02  0.51100000000E-03 0.  1.
         12    1    3    3    0    0 -0.12892883784E+02  0.61363573748E+01 -0.14849721056E+02  0.20600862835E+02  0.00000000000E+00 0. -1.
</event>
<event>
 7    1  0.5467297E-010  0.4778728E+02  0.7816164E-02  0.1312668E+00
        -11   -1    0    0    0    0  0.00000000000E+00  0.00000000000E+00  0.45593999997E+02  0.45594000000E+02  0.51100000000E-03 0.  1.
         11   -1    0    0    0    0 -0.00000000000E+00 -0.00000000000E+00 -0.45593999997E+02  0.45594000000E+02  0.51100000000E-03 0. -1.
    9900012    2    1    2    0    0  0.34809896570E+02 -0.24280376300E+01  0.25806937755E+02  0.47787282238E+02  0.20000051036E+02 0.  0.
         12    1    1    2    0    0 -0.34809896570E+02  0.24280376300E+01 -0.25806937755E+02  0.43400717762E+02  0.00000000000E+00 0. -1.
         11    1    3    3    0    0  0.67144358551E+01  0.61412492851E+00  0.28514238251E+01  0.73206158465E+01  0.51100000000E-03 0. -1.
        -11    1    3    3    0    0  0.17357484808E+01 -0.39634990014E+01 -0.14182222765E+01  0.45534055178E+01  0.51100000000E-03 0.  1.
        -12    1    3    3    0    0  0.26359712235E+02  0.92133644287E+00  0.24373736206E+02  0.35913260874E+02  0.00000000000E+00 0.  1.
</event>
<event>
 7    1  0.5467297E-010  0.4778728E+02  0.7816164E-02  0.1312668E+00
        -11   -1    0    0    0    0  0.00000000000E+00  0.00000000000E+00  0.45593999997E+02  0.45594000000E+02  0.51100000000E-03 0.  1.
         11   -1    0    0    0    0 -0.00000000000E+00 -0.00000000000E+00 -0.45593999997E+02  0.45594000000E+02  0.51100000000E-03 0. -1.
    9900012    2    1    2    0    0  0.27980937890E+02  0.73450083983E+00  0.33168514550E+02  0.47787277263E+02  0.20000028353E+02 0.  0.
         12    1    1    2    0    0 -0.27980937890E+02 -0.73450083983E+00 -0.33168514550E+02  0.43400722737E+02  0.00000000000E+00 0. -1.
         11    1    3    3    0    0  0.46337608911E+01  0.56968896878E+01  0.80179308589E+01  0.10872603535E+02  0.51100000000E-03 0. -1.
        -11    1    3    3    0    0  0.14333544341E+02 -0.61015069129E+01  0.80139941850E+01  0.17518646724E+02  0.51100000000E-03 0.  1.
        -12    1    3    3    0    0  0.90136326578E+01  0.11391180650E+01  0.17136589506E+02  0.19396027004E+02  0.00000000000E+00 0.  1.
</event>
<event>
 7    1  0.5467297E-010  0.4778727E+02  0.7816164E-02  0.1312668E+00
        -11   -1    0    0    0    0  0.00000000000E+00  0.00000000000E+00  0.45593999997E+02  0.45594000000E+02  0.51100000000E-03 0.  1.
         11   -1    0    0    0    0 -0.00000000000E+00 -0.00000000000E+00 -0.45593999997E+02  0.45594000000E+02  0.51100000000E-03 0. -1.
    9900012    2    1    2    0    0 -0.19807202300E+02  0.23462921155E+01  0.38545990433E+02  0.47787265811E+02  0.19999976139E+02 0.  0.
         12    1    1    2    0    0  0.19807202300E+02 -0.23462921155E+01 -0.38545990433E+02  0.43400734189E+02  0.00000000000E+00 0. -1.
         11    1    3    3    0    0 -0.87782019818E-02 -0.36124920739E+01  0.11870539187E+02  0.12408056935E+02  0.51100000000E-03 0. -1.
        -11    1    3    3    0    0 -0.45761483152E+01  0.15053323888E+01  0.14803854597E+02  0.15567956519E+02  0.51100000000E-03 0.  1.
         12    1    3    3    0    0 -0.15222275783E+02  0.44534518006E+01  0.11871596649E+02  0.19811252357E+02  0.00000000000E+00 0. -1.
</event>
<event>
 7    1  0.5467297E-010  0.4778727E+02  0.7816164E-02  0.1312668E+00
        -11   -1    0    0    0    0  0.00000000000E+00  0.00000000000E+00  0.45593999997E+02  0.45594000000E+02  0.51100000000E-03 0. -1.
         11   -1    0    0    0    0 -0.00000000000E+00 -0.00000000000E+00 -0.45593999997E+02  0.45594000000E+02  0.51100000000E-03 0.  1.
    9900012    2    1    2    0    0  0.15476225756E+02 -0.39874871217E+02 -0.73555678969E+01  0.47787270775E+02  0.19999998770E+02 0.  0.
         12    1    1    2    0    0 -0.15476225756E+02  0.39874871217E+02  0.73555678969E+01  0.43400729225E+02  0.00000000000E+00 0. -1.
         11    1    3    3    0    0  0.15232571053E+02 -0.22290932729E+02 -0.99569112918E+01  0.28775979315E+02  0.51100000000E-03 0. -1.
        -11    1    3    3    0    0  0.12605546452E+01 -0.11448495797E+02  0.47112474979E+01  0.12443990810E+02  0.51100000000E-03 0.  1.
         12    1    3    3    0    0 -0.10168999415E+01 -0.61354426910E+01 -0.21099041030E+01  0.65673006501E+01  0.00000000000E+00 0. -1.
</event>
<event>
 7    1  0.5467297E-010  0.4778728E+02  0.7816164E-02  0.1312668E+00
        -11   -1    0    0    0    0  0.00000000000E+00  0.00000000000E+00  0.45593999997E+02  0.45594000000E+02  0.51100000000E-03 0.  1.
         11   -1    0    0    0    0 -0.00000000000E+00 -0.00000000000E+00 -0.45593999997E+02  0.45594000000E+02  0.51100000000E-03 0. -1.
    9900012    2    1    2    0    0 -0.13435074790E+02  0.23105900578E+02  0.34194136137E+02  0.47787276247E+02  0.20000023722E+02 0.  0.
         12    1    1    2    0    0  0.13435074790E+02 -0.23105900578E+02 -0.34194136137E+02  0.43400723753E+02  0.00000000000E+00 0. -1.
         11    1    3    3    0    0 -0.74600032576E+01  0.91788281061E+01  0.22154552467E+01  0.12033734924E+02  0.51100000000E-03 0. -1.
        -11    1    3    3    0    0 -0.49696064108E+01  0.91417915968E+01  0.26157970847E+02  0.28151532473E+02  0.51100000000E-03 0.  1.
         12    1    3    3    0    0 -0.10054651214E+01  0.47852808748E+01  0.58207100429E+01  0.76020088506E+01  0.00000000000E+00 0. -1.
</event>
<event>
 7    1  0.5467297E-010  0.4778727E+02  0.7816164E-02  0.1312668E+00
        -11   -1    0    0    0    0  0.00000000000E+00  0.00000000000E+00  0.45593999997E+02  0.45594000000E+02  0.51100000000E-03 0.  1.
         11   -1    0    0    0    0 -0.00000000000E+00 -0.00000000000E+00 -0.45593999997E+02  0.45594000000E+02  0.51100000000E-03 0. -1.
    9900012    2    1    2    0    0 -0.24143874561E+01 -0.43292888763E+02 -0.18761498481E+01  0.47787269332E+02  0.19999992194E+02 0.  0.
         12    1    1    2    0    0  0.24143874561E+01  0.43292888763E+02  0.18761498481E+01  0.43400730668E+02  0.00000000000E+00 0. -1.
         11    1    3    3    0    0  0.56036609847E+00 -0.10356079863E+02 -0.90703353797E+01  0.13778003646E+02  0.51100000000E-03 0. -1.
        -11    1    3    3    0    0 -0.70401655057E-01 -0.16673759223E+02  0.45019572155E+01  0.17270982081E+02  0.51100000000E-03 0.  1.
         12    1    3    3    0    0 -0.29043518996E+01 -0.16263049677E+02  0.26922283161E+01  0.16738283605E+02  0.00000000000E+00 0. -1.
</event>
<event>
 7    1  0.5467297E-010  0.4778727E+02  0.7816164E-02  0.1312668E+00
        -11   -1    0    0    0    0  0.00000000000E+00  0.00000000000E+00  0.45593999997E+02  0.45594000000E+02  0.51100000000E-03 0. -1.
         11   -1    0    0    0    0 -0.00000000000E+00 -0.00000000000E+00 -0.45593999997E+02  0.45594000000E+02  0.51100000000E-03 0.  1.
    9900012    2    1    2    0    0  0.32823397247E+02  0.25066995929E+02 -0.13337677558E+02  0.47787270348E+02  0.19999996823E+02 0.  0.
         12    1    1    2    0    0 -0.32823397247E+02 -0.25066995929E+02  0.13337677558E+02  0.43400729652E+02  0.00000000000E+00 0. -1.
         11    1    3    3    0    0  0.14897724123E+01 -0.19147585208E+01 -0.13974231619E+01  0.27997345924E+01  0.51100000000E-03 0. -1.
        -11    1    3    3    0    0  0.31136103171E+02  0.23052361397E+02 -0.82845572642E+01  0.39616943042E+02  0.51100000000E-03 0.  1.
        -12    1    3    3    0    0  0.19752166340E+00  0.39293930528E+01 -0.36556971319E+01  0.53705927132E+01  0.00000000000E+00 0.  1.
</event>
<event>
 7    1  0.5467297E-010  0.4778727E+02  0.7816164E-02  0.1312668E+00
        -11   -1    0    0    0    0  0.00000000000E+00  0.00000000000E+00  0.45593999997E+02  0.45594000000E+02  0.51100000000E-03 0.  1.
         11   -1    0    0    0    0 -0.00000000000E+00 -0.00000000000E+00 -0.45593999997E+02  0.45594000000E+02  0.51100000000E-03 0. -1.
    9900012    2    1    2    0    0  0.83521981437E+01  0.42564186192E+02  0.14677234207E+01  0.47787269913E+02  0.19999994841E+02 0.  0.
         12    1    1    2    0    0 -0.83521981437E+01 -0.42564186192E+02 -0.14677234207E+01  0.43400730087E+02  0.00000000000E+00 0. -1.
         11    1    3    3    0    0  0.12314508572E+01  0.19277059924E+02 -0.10656370305E+01  0.19345725446E+02  0.51100000000E-03 0. -1.
        -11    1    3    3    0    0  0.76127979520E+01  0.68817680552E+01 -0.36654876609E+01  0.10897211766E+02  0.51100000000E-03 0.  1.
        -12    1    3    3    0    0 -0.49205066551E+00  0.16405358214E+02  0.61988481120E+01  0.17544332700E+02  0.00000000000E+00 0.  1.
</event>
<event>
 7    1  0.5467297E-010  0.4778727E+02  0.7816164E-02  0.1312668E+00
        -11   -1    0    0    0    0  0.00000000000E+00  0.00000000000E+00  0.45593999997E+02  0.45594000000E+02  0.51100000000E-03 0. -1.
         11   -1    0    0    0    0 -0.00000000000E+00 -0.00000000000E+00 -0.45593999997E+02  0.45594000000E+02  0.51100000000E-03 0.  1.
    9900012    2    1    2    0    0  0.26559038711E+00 -0.43153725292E+02  0.46161177113E+01  0.47787273191E+02  0.20000009787E+02 0.  0.
         12    1    1    2    0    0 -0.26559038711E+00  0.43153725292E+02 -0.46161177113E+01  0.43400726809E+02  0.00000000000E+00 0. -1.
         11    1    3    3    0    0 -0.39958479671E+01 -0.71696457975E+01 -0.47409662968E+00  0.82216415461E+01  0.51100000000E-03 0. -1.
        -11    1    3    3    0    0  0.31441496928E+00 -0.21676062415E-01 -0.25666220526E+01  0.25858993884E+01  0.51100000000E-03 0.  1.
        -12    1    3    3    0    0  0.39470233849E+01 -0.35962403432E+02  0.76568363936E+01  0.36979732257E+02  0.00000000000E+00 0.  1.
</event>
<event>
 7    1  0.5467297E-010  0.4778727E+02  0.7816164E-02  0.1312668E+00
        -11   -1    0    0    0    0  0.00000000000E+00  0.00000000000E+00  0.45593999997E+02  0.45594000000E+02  0.51100000000E-03 0. -1.
         11   -1    0    0    0    0 -0.00000000000E+00 -0.00000000000E+00 -0.45593999997E+02  0.45594000000E+02  0.51100000000E-03 0.  1.
    9900012    2    1    2    0    0 -0.20802908830E+02 -0.36982221549E+02 -0.91201667205E+01  0.47787272270E+02  0.20000005588E+02 0.  0.
         12    1    1    2    0    0  0.20802908830E+02  0.36982221549E+02  0.91201667205E+01  0.43400727730E+02  0.00000000000E+00 0. -1.
         11    1    3    3    0    0 -0.13383382143E+02 -0.11516899371E+02  0.23340554394E+01  0.17810157320E+02  0.51100000000E-03 0. -1.
        -11    1    3    3    0    0  0.15559049204E+01 -0.66722847776E+01 -0.22924459855E+01  0.72246476130E+01  0.51100000000E-03 0.  1.
         12    1    3    3    0    0 -0.89754316075E+01 -0.18793037400E+02 -0.91617761744E+01  0.22752467337E+02  0.00000000000E+00 0. -1.
</event>
<event>
 7    1  0.5467297E-010  0.4778727E+02  0.7816164E-02  0.1312668E+00
        -11   -1    0    0    0    0  0.00000000000E+00  0.00000000000E+00  0.45593999997E+02  0.45594000000E+02  0.51100000000E-03 0. -1.
         11   -1    0    0    0    0 -0.00000000000E+00 -0.00000000000E+00 -0.45593999997E+02  0.45594000000E+02  0.51100000000E-03 0.  1.
    9900012    2    1    2    0    0  0.36705519790E+02 -0.18900161420E+02 -0.13383269272E+02  0.47787272113E+02  0.20000004871E+02 0.  0.
         12    1    1    2    0    0 -0.36705519790E+02  0.18900161420E+02  0.13383269272E+02  0.43400727887E+02  0.00000000000E+00 0. -1.
         11    1    3    3    0    0  0.21169575844E+01 -0.53866772707E+01  0.17742870924E+01  0.60535854153E+01  0.51100000000E-03 0. -1.
        -11    1    3    3    0    0  0.18772348092E+02 -0.15946199496E+01 -0.97036673602E+01  0.21192098201E+02  0.51100000000E-03 0.  1.
         12    1    3    3    0    0  0.15816214113E+02 -0.11918864199E+02 -0.54538890042E+01  0.20541588496E+02  0.00000000000E+00 0. -1.
</event>
<event>
 7    1  0.5467297E-010  0.4778727E+02  0.7816164E-02  0.1312668E+00
        -11   -1    0    0    0    0  0.00000000000E+00  0.00000000000E+00  0.45593999997E+02  0.45594000000E+02  0.51100000000E-03 0.  1.
         11   -1    0    0    0    0 -0.00000000000E+00 -0.00000000000E+00 -0.45593999997E+02  0.45594000000E+02  0.51100000000E-03 0. -1.
    9900012    2    1    2    0    0 -0.26710034295E+02  0.18292247283E+02  0.28906588463E+02  0.47787273056E+02  0.20000009172E+02 0.  0.
         12    1    1    2    0    0  0.26710034295E+02 -0.18292247283E+02 -0.28906588463E+02  0.43400726944E+02  0.00000000000E+00 0. -1.
         11    1    3    3    0    0 -0.78692740981E+01  0.65611095427E+01  0.21783757834E+02  0.24072925433E+02  0.51100000000E-03 0. -1.
        -11    1    3    3    0    0 -0.15236135617E+02  0.96146242311E+01  0.38932092291E+01  0.18431980523E+02  0.51100000000E-03 0.  1.
        -12    1    3    3    0    0 -0.36046245798E+01  0.21165135092E+01  0.32296214002E+01  0.52823671005E+01  0.00000000000E+00 0.  1.
</event>
<event>
 7    1  0.5467297E-010  0.4778727E+02  0.7816164E-02  0.1312668E+00
        -11   -1    0    0    0    0  0.00000000000E+00  0.00000000000E+00  0.45593999997E+02  0.45594000000E+02  0.51100000000E-03 0.  1.
         11   -1    0    0    0    0 -0.00000000000E+00 -0.00000000000E+00 -0.45593999997E+02  0.45594000000E+02  0.51100000000E-03 0. -1.
    9900012    2    1    2    0    0  0.16748568809E+02 -0.27328909360E+02  0.29261567221E+02  0.47787272354E+02  0.20000005972E+02 0.  0.
         12    1    1    2    0    0 -0.16748568809E+02  0.27328909360E+02 -0.29261567221E+02  0.43400727646E+02  0.00000000000E+00 0. -1.
         11    1    3    3    0    0  0.10839048031E+01  0.63344802938E-01  0.60420209621E+01  0.61388011659E+01  0.51100000000E-03 0. -1.
        -11    1    3    3    0    0  0.17091810575E+02 -0.26129763735E+02  0.17882838338E+02  0.35981807193E+02  0.51100000000E-03 0.  1.
        -12    1    3    3    0    0 -0.14271465688E+01 -0.12624904279E+01  0.53367079200E+01  0.56666639951E+01  0.00000000000E+00 0.  1.
</event>
<event>
 7    1  0.6610645E-010  0.4778733E+02  0.7816164E-02  0.1312668E+00
        -11   -1    0    0    0    0  0.00000000000E+00  0.00000000000E+00  0.45593999997E+02  0.45594000000E+02  0.51100000000E-03 0. -1.
         11   -1    0    0    0    0 -0.00000000000E+00 -0.00000000000E+00 -0.45593999997E+02  0.45594000000E+02  0.51100000000E-03 0.  1.
    9900012    2    1    2    0    0  0.29488703636E+01 -0.30014799087E+02 -0.31209523128E+02  0.47787327948E+02  0.20000259446E+02 0.  0.
         12    1    1    2    0    0 -0.29488703636E+01  0.30014799087E+02  0.31209523128E+02  0.43400672052E+02  0.00000000000E+00 0. -1.
         11    1    3    3    0    0  0.44637348052E+00  0.34993532556E+00  0.53477008146E+00  0.77954045266E+00  0.51100000000E-03 0. -1.
        -11    1    3    3    0    0  0.33252968011E-01 -0.48479425963E+01  0.14558663281E+01  0.50619364085E+01  0.51100000000E-03 0.  1.
        -12    1    3    3    0    0  0.24692439151E+01 -0.25516791816E+02 -0.33200159538E+02  0.41945851087E+02  0.00000000000E+00 0.  1.
</event>
<event>
 7    1  0.5467297E-010  0.4778726E+02  0.7816164E-02  0.1312668E+00
        -11   -1    0    0    0    0  0.00000000000E+00  0.00000000000E+00  0.45593999997E+02  0.45594000000E+02  0.51100000000E-03 0. -1.
         11   -1    0    0    0    0 -0.00000000000E+00 -0.00000000000E+00 -0.45593999997E+02  0.45594000000E+02  0.51100000000E-03 0.  1.
    9900012    2    1    2    0    0  0.37811754014E+02 -0.25329500377E+01 -0.21153713071E+02  0.47787260903E+02  0.19999953759E+02 0.  0.
         12    1    1    2    0    0 -0.37811754014E+02  0.25329500377E+01  0.21153713071E+02  0.43400739097E+02  0.00000000000E+00 0. -1.
         11    1    3    3    0    0  0.24889449016E+02  0.43925404643E+01 -0.91844295118E+01  0.26891129202E+02  0.51100000000E-03 0. -1.
        -11    1    3    3    0    0  0.73765448765E+01 -0.80867633001E+01 -0.10196576036E+02  0.14959255266E+02  0.51100000000E-03 0.  1.
        -12    1    3    3    0    0  0.55457601217E+01  0.11612727981E+01 -0.17727075231E+01  0.59368764348E+01  0.00000000000E+00 0.  1.
</event>
<event>
 7    1  0.5467297E-010  0.4778727E+02  0.7816164E-02  0.1312668E+00
        -11   -1    0    0    0    0  0.00000000000E+00  0.00000000000E+00  0.45593999997E+02  0.45594000000E+02  0.51100000000E-03 0. -1.
         11   -1    0    0    0    0 -0.00000000000E+00 -0.00000000000E+00 -0.45593999997E+02  0.45594000000E+02  0.51100000000E-03 0.  1.
    9900012    2    1    2    0    0 -0.24156660230E+02  0.35930175505E+02 -0.30168439765E+01  0.47787273130E+02  0.20000009510E+02 0.  0.
         12    1    1    2    0    0  0.24156660230E+02 -0.35930175505E+02  0.30168439765E+01  0.43400726870E+02  0.00000000000E+00 0. -1.
         11    1    3    3    0    0 -0.12441901897E+02  0.21627285628E+02  0.67306593573E+01  0.25842642708E+02  0.51100000000E-03 0. -1.
        -11    1    3    3    0    0 -0.11868901118E+02  0.11147537345E+02 -0.93062215903E+01  0.18754843725E+02  0.51100000000E-03 0.  1.
        -12    1    3    3    0    0  0.15414278586E+00  0.31553525317E+01 -0.44128174354E+00  0.31897866974E+01  0.00000000000E+00 0.  1.
</event>
<event>
 7    1  0.5467297E-010  0.4778727E+02  0.7816164E-02  0.1312668E+00
        -11   -1    0    0    0    0  0.00000000000E+00  0.00000000000E+00  0.45593999997E+02  0.45594000000E+02  0.51100000000E-03 0.  1.
         11   -1    0    0    0    0 -0.00000000000E+00 -0.00000000000E+00 -0.45593999997E+02  0.45594000000E+02  0.51100000000E-03 0. -1.
    9900012    2    1    2    0    0 -0.81519166736E+01 -0.22819192803E+02  0.36006306643E+02  0.47787269318E+02  0.19999992130E+02 0.  0.
         12    1    1    2    0    0  0.81519166736E+01  0.22819192803E+02 -0.36006306643E+02  0.43400730682E+02  0.00000000000E+00 0. -1.
         11    1    3    3    0    0 -0.22901916304E+01  0.12197785554E+00  0.13349764138E+01  0.26536801969E+01  0.51100000000E-03 0. -1.
        -11    1    3    3    0    0  0.58014027407E+01 -0.66110741289E+01  0.95981934179E+01  0.13018751555E+02  0.51100000000E-03 0.  1.
        -12    1    3    3    0    0 -0.11663127784E+02 -0.16330096529E+02  0.25073136811E+02  0.32114837567E+02  0.00000000000E+00 0.  1.
</event>
<event>
 7    1  0.5467297E-010  0.4778727E+02  0.7816164E-02  0.1312668E+00
        -11   -1    0    0    0    0  0.00000000000E+00  0.00000000000E+00  0.45593999997E+02  0.45594000000E+02  0.51100000000E-03 0.  1.
         11   -1    0    0    0    0 -0.00000000000E+00 -0.00000000000E+00 -0.45593999997E+02  0.45594000000E+02  0.51100000000E-03 0. -1.
    9900012    2    1    2    0    0 -0.28138467816E+02  0.10322385714E+02  0.31389467020E+02  0.47787266623E+02  0.19999979843E+02 0.  0.
         12    1    1    2    0    0  0.28138467816E+02 -0.10322385714E+02 -0.31389467020E+02  0.43400733377E+02  0.00000000000E+00 0. -1.
         11    1    3    3    0    0 -0.11708511179E+02 -0.23467471261E+01  0.68179678970E+01  0.13750677896E+02  0.51100000000E-03 0. -1.
        -11    1    3    3    0    0 -0.10088412215E+02  0.87946347239E+01  0.22734517901E+02  0.26381432209E+02  0.51100000000E-03 0.  1.
        -12    1    3    3    0    0 -0.63415444223E+01  0.38744981161E+01  0.18369812216E+01  0.76551565183E+01  0.00000000000E+00 0.  1.
</event>
<event>
 7    1  0.5467297E-010  0.4778727E+02  0.7816164E-02  0.1312668E+00
        -11   -1    0    0    0    0  0.00000000000E+00  0.00000000000E+00  0.45593999997E+02  0.45594000000E+02  0.51100000000E-03 0.  1.
         11   -1    0    0    0    0 -0.00000000000E+00 -0.00000000000E+00 -0.45593999997E+02  0.45594000000E+02  0.51100000000E-03 0. -1.
    9900012    2    1    2    0    0 -0.10155713883E+02  0.20396892812E+02  0.36938480778E+02  0.47787272782E+02  0.20000007923E+02 0.  0.
         12    1    1    2    0    0  0.10155713883E+02 -0.20396892812E+02 -0.36938480778E+02  0.43400727218E+02  0.00000000000E+00 0. -1.
         11    1    3    3    0    0 -0.19647789106E+01  0.61099711954E+00  0.12570264235E+02  0.12737551446E+02  0.51100000000E-03 0. -1.
        -11    1    3    3    0    0 -0.92885861366E+01  0.91523168065E+01  0.73959784238E+01  0.14991438638E+02  0.51100000000E-03 0.  1.
        -12    1    3    3    0    0  0.10976511642E+01  0.10633578886E+02  0.16972238119E+02  0.20058282697E+02  0.00000000000E+00 0.  1.
</event>
<event>
 7    1  0.5467297E-010  0.4778727E+02  0.7816164E-02  0.1312668E+00
        -11   -1    0    0    0    0  0.00000000000E+00  0.00000000000E+00  0.45593999997E+02  0.45594000000E+02  0.51100000000E-03 0. -1.
         11   -1    0    0    0    0 -0.00000000000E+00 -0.00000000000E+00 -0.45593999997E+02  0.45594000000E+02  0.51100000000E-03 0.  1.
    9900012    2    1    2    0    0  0.25017959446E+02 -0.28425703364E+02  0.21206235087E+02  0.47787270592E+02  0.19999997937E+02 0.  0.
         12    1    1    2    0    0 -0.25017959446E+02  0.28425703364E+02 -0.21206235087E+02  0.43400729408E+02  0.00000000000E+00 0. -1.
         11    1    3    3    0    0  0.10153552279E+02 -0.12902147256E+02  0.16610198559E+02  0.23355057785E+02  0.51100000000E-03 0. -1.
        -11    1    3    3    0    0  0.16500670697E+02 -0.13337089618E+02  0.45590093044E+01  0.21701028985E+02  0.51100000000E-03 0.  1.
         12    1    3    3    0    0 -0.16362635304E+01 -0.21864664898E+01  0.37027223979E-01  0.27311838216E+01  0.00000000000E+00 0. -1.
</event>
<event>
 7    1  0.5467297E-010  0.4778727E+02  0.7816164E-02  0.1312668E+00
        -11   -1    0    0    0    0  0.00000000000E+00  0.00000000000E+00  0.45593999997E+02  0.45594000000E+02  0.51100000000E-03 0.  1.
         11   -1    0    0    0    0 -0.00000000000E+00 -0.00000000000E+00 -0.45593999997E+02  0.45594000000E+02  0.51100000000E-03 0. -1.
    9900012    2    1    2    0    0 -0.38847161711E+02  0.18346555364E+02  0.61583678381E+01  0.47787267735E+02  0.19999984909E+02 0.  0.
         12    1    1    2    0    0  0.38847161711E+02 -0.18346555364E+02 -0.61583678381E+01  0.43400732265E+02  0.00000000000E+00 0. -1.
         11    1    3    3    0    0 -0.12645758238E+02  0.55992870119E+01 -0.35985573115E+01  0.14290445460E+02  0.51100000000E-03 0. -1.
        -11    1    3    3    0    0 -0.19529635296E+02  0.14540655727E+02  0.10564076966E+02  0.26541232944E+02  0.51100000000E-03 0.  1.
        -12    1    3    3    0    0 -0.66717681768E+01 -0.17933873752E+01 -0.80715181611E+00  0.69555893307E+01  0.00000000000E+00 0.  1.
</event>
<event>
 7    1  0.5467297E-010  0.4778727E+02  0.7816164E-02  0.1312668E+00
        -11   -1    0    0    0    0  0.00000000000E+00  0.00000000000E+00  0.45593999997E+02  0.45594000000E+02  0.51100000000E-03 0. -1.
         11   -1    0    0    0    0 -0.00000000000E+00 -0.00000000000E+00 -0.45593999997E+02  0.45594000000E+02  0.51100000000E-03 0.  1.
    9900012    2    1    2    0    0 -0.19044312788E+02  0.36195791650E+02 -0.14519024729E+02  0.47787271183E+02  0.20000000633E+02 0.  0.
         12    1    1    2    0    0  0.19044312788E+02 -0.36195791650E+02  0.14519024729E+02  0.43400728817E+02  0.00000000000E+00 0. -1.
         11    1    3    3    0    0 -0.41215199865E+01  0.56520771555E+01  0.17270829980E+01  0.72052563531E+01  0.51100000000E-03 0. -1.
        -11    1    3    3    0    0 -0.14162831026E+02  0.30000890331E+02 -0.18610880072E+02  0.38039506577E+02  0.51100000000E-03 0.  1.
        -12    1    3    3    0    0 -0.75996177529E+00  0.54282416385E+00  0.23647723451E+01  0.25425082530E+01  0.00000000000E+00 0.  1.
</event>
<event>
 7    1  0.5467297E-010  0.4778727E+02  0.7816164E-02  0.1312668E+00
        -11   -1    0    0    0    0  0.00000000000E+00  0.00000000000E+00  0.45593999997E+02  0.45594000000E+02  0.51100000000E-03 0.  1.
         11   -1    0    0    0    0 -0.00000000000E+00 -0.00000000000E+00 -0.45593999997E+02  0.45594000000E+02  0.51100000000E-03 0. -1.
    9900012    2    1    2    0    0  0.15665025261E+02  0.38673101273E+02  0.11942421959E+02  0.47787271656E+02  0.20000002790E+02 0.  0.
         12    1    1    2    0    0 -0.15665025261E+02 -0.38673101273E+02 -0.11942421959E+02  0.43400728344E+02  0.00000000000E+00 0. -1.
         11    1    3    3    0    0 -0.22616559363E+01  0.62162183514E+01  0.77728036504E+01  0.10206514342E+02  0.51100000000E-03 0. -1.
        -11    1    3    3    0    0  0.14725580698E+02  0.24191965518E+02  0.46689011870E+01  0.28703528722E+02  0.51100000000E-03 0.  1.
         12    1    3    3    0    0  0.32011004994E+01  0.82649174035E+01 -0.49928287848E+00  0.88772285926E+01  0.00000000000E+00 0. -1.
</event>
<event>
 7    1  0.5467297E-010  0.4778727E+02  0.7816164E-02  0.1312668E+00
        -11   -1    0    0    0    0  0.00000000000E+00  0.00000000000E+00  0.45593999997E+02  0.45594000000E+02  0.51100000000E-03 0.  1.
         11   -1    0    0    0    0 -0.00000000000E+00 -0.00000000000E+00 -0.45593999997E+02  0.45594000000E+02  0.51100000000E-03 0. -1.
    9900012    2    1    2    0    0  0.31582409144E+02 -0.54872742792E+01  0.29258580265E+02  0.47787271141E+02  0.20000000440E+02 0.  0.
         12    1    1    2    0    0 -0.31582409144E+02  0.54872742792E+01 -0.29258580265E+02  0.43400728859E+02  0.00000000000E+00 0. -1.
         11    1    3    3    0    0  0.86525348864E+01  0.38890288708E+01  0.20306244234E+01  0.97012546265E+01  0.51100000000E-03 0. -1.
        -11    1    3    3    0    0  0.49840266052E+01  0.20038458695E+01  0.58913070110E+01  0.79726669333E+01  0.51100000000E-03 0.  1.
         12    1    3    3    0    0  0.17945847653E+02 -0.11380149020E+02  0.21336648831E+02  0.30113349581E+02  0.00000000000E+00 0. -1.
</event>
<event>
 7    1  0.5467297E-010  0.4778727E+02  0.7816164E-02  0.1312668E+00
        -11   -1    0    0    0    0  0.00000000000E+00  0.00000000000E+00  0.45593999997E+02  0.45594000000E+02  0.51100000000E-03 0.  1.
         11   -1    0    0    0    0 -0.00000000000E+00 -0.00000000000E+00 -0.45593999997E+02  0.45594000000E+02  0.51100000000E-03 0. -1.
    9900012    2    1    2    0    0 -0.29075115202E+02  0.12955007749E+02  0.29503029992E+02  0.47787270415E+02  0.19999997130E+02 0.  0.
         12    1    1    2    0    0  0.29075115202E+02 -0.12955007749E+02 -0.29503029992E+02  0.43400729585E+02  0.00000000000E+00 0. -1.
         11    1    3    3    0    0 -0.24226047508E+02  0.89259132834E+01  0.16556084694E+02  0.30670462116E+02  0.51100000000E-03 0. -1.
        -11    1    3    3    0    0 -0.55941182140E+01 -0.13576277989E+01  0.68193039218E+01  0.89241368250E+01  0.51100000000E-03 0.  1.
         12    1    3    3    0    0  0.74505051948E+00  0.53867222648E+01  0.61276413765E+01  0.81926714735E+01  0.00000000000E+00 0. -1.
</event>
<event>
 7    1  0.5467297E-010  0.4778727E+02  0.7816164E-02  0.1312668E+00
        -11   -1    0    0    0    0  0.00000000000E+00  0.00000000000E+00  0.45593999997E+02  0.45594000000E+02  0.51100000000E-03 0. -1.
         11   -1    0    0    0    0 -0.00000000000E+00 -0.00000000000E+00 -0.45593999997E+02  0.45594000000E+02  0.51100000000E-03 0.  1.
    9900012    2    1    2    0    0  0.46955151604E+01 -0.43126288488E+02 -0.13034847660E+01  0.47787266205E+02  0.19999977936E+02 0.  0.
         12    1    1    2    0    0 -0.46955151604E+01  0.43126288488E+02  0.13034847660E+01  0.43400733795E+02  0.00000000000E+00 0. -1.
         11    1    3    3    0    0 -0.30959436295E+01 -0.13271897364E+02  0.57087227106E+01  0.14775575855E+02  0.51100000000E-03 0. -1.
        -11    1    3    3    0    0  0.34426566484E+01 -0.26573897120E+02 -0.54478608808E+01  0.27344159914E+02  0.51100000000E-03 0.  1.
         12    1    3    3    0    0  0.43488021415E+01 -0.32804940045E+01 -0.15643465958E+01  0.56675304367E+01  0.00000000000E+00 0. -1.
</event>
<event>
 7    1  0.5467297E-010  0.4778727E+02  0.7816164E-02  0.1312668E+00
        -11   -1    0    0    0    0  0.00000000000E+00  0.00000000000E+00  0.45593999997E+02  0.45594000000E+02  0.51100000000E-03 0.  1.
         11   -1    0    0    0    0 -0.00000000000E+00 -0.00000000000E+00 -0.45593999997E+02  0.45594000000E+02  0.51100000000E-03 0. -1.
    9900012    2    1    2    0    0 -0.40299951771E+02  0.12400104423E+02  0.10284683143E+02  0.47787269478E+02  0.19999992860E+02 0.  0.
         12    1    1    2    0    0  0.40299951771E+02 -0.12400104423E+02 -0.10284683143E+02  0.43400730522E+02  0.00000000000E+00 0. -1.
         11    1    3    3    0    0 -0.14494127935E+02 -0.16538967958E+01  0.45132525560E+01  0.15270382055E+02  0.51100000000E-03 0. -1.
        -11    1    3    3    0    0 -0.26225497074E+02  0.14182563941E+02  0.32886610159E+01  0.29995618151E+02  0.51100000000E-03 0.  1.
        -12    1    3    3    0    0  0.41967323798E+00 -0.12856272243E+00  0.24827695715E+01  0.25212692727E+01  0.00000000000E+00 0.  1.
</event>
<event>
 7    1  0.5467297E-010  0.4778727E+02  0.7816164E-02  0.1312668E+00
        -11   -1    0    0    0    0  0.00000000000E+00  0.00000000000E+00  0.45593999997E+02  0.45594000000E+02  0.51100000000E-03 0. -1.
         11   -1    0    0    0    0 -0.00000000000E+00 -0.00000000000E+00 -0.45593999997E+02  0.45594000000E+02  0.51100000000E-03 0.  1.
    9900012    2    1    2    0    0 -0.20956852385E+02  0.53757000692E+01 -0.37623603020E+02  0.47787270544E+02  0.19999997719E+02 0.  0.
         12    1    1    2    0    0  0.20956852385E+02 -0.53757000692E+01  0.37623603020E+02  0.43400729456E+02  0.00000000000E+00 0. -1.
         11    1    3    3    0    0 -0.20877688261E+02  0.20426477693E+01 -0.26390915464E+02  0.33712470932E+02  0.51100000000E-03 0. -1.
        -11    1    3    3    0    0  0.13747698111E+01 -0.22851945243E+01 -0.32123514672E+01  0.41750818265E+01  0.51100000000E-03 0.  1.
         12    1    3    3    0    0 -0.14539339350E+01  0.56182468243E+01 -0.80203360888E+01  0.98997177860E+01  0.00000000000E+00 0. -1.
</event>
<event>
 7    1  0.5467297E-010  0.4778727E+02  0.7816164E-02  0.1312668E+00
        -11   -1    0    0    0    0  0.00000000000E+00  0.00000000000E+00  0.45593999997E+02  0.45594000000E+02  0.51100000000E-03 0.  1.
         11   -1    0    0    0    0 -0.00000000000E+00 -0.00000000000E+00 -0.45593999997E+02  0.45594000000E+02  0.51100000000E-03 0. -1.
    9900012    2    1    2    0    0 -0.29070591553E+02  0.32217984508E+02  0.72466896712E+00  0.47787274613E+02  0.20000016272E+02 0.  0.
         12    1    1    2    0    0  0.29070591553E+02 -0.32217984508E+02 -0.72466896712E+00  0.43400725387E+02  0.00000000000E+00 0. -1.
         11    1    3    3    0    0  0.18407050898E+01  0.45575161532E+01 -0.14576835682E+01  0.51267914294E+01  0.51100000000E-03 0. -1.
        -11    1    3    3    0    0 -0.26600631457E+02  0.27316614771E+02  0.30483180773E+01  0.38250271630E+02  0.51100000000E-03 0.  1.
        -12    1    3    3    0    0 -0.43106651853E+01  0.34385358424E+00 -0.86596554193E+00  0.44102115535E+01  0.00000000000E+00 0.  1.
</event>
<event>
 7    1  0.5467297E-010  0.4778727E+02  0.7816164E-02  0.1312668E+00
        -11   -1    0    0    0    0  0.00000000000E+00  0.00000000000E+00  0.45593999997E+02  0.45594000000E+02  0.51100000000E-03 0. -1.
         11   -1    0    0    0    0 -0.00000000000E+00 -0.00000000000E+00 -0.45593999997E+02  0.45594000000E+02  0.51100000000E-03 0.  1.
    9900012    2    1    2    0    0 -0.34736708653E+01 -0.29040608918E+02 -0.32065555287E+02  0.47787271993E+02  0.20000004327E+02 0.  0.
         12    1    1    2    0    0  0.34736708653E+01  0.29040608918E+02  0.32065555287E+02  0.43400728007E+02  0.00000000000E+00 0. -1.
         11    1    3    3    0    0  0.82432802814E+00  0.24983144949E+01 -0.10653285639E+01  0.28383123901E+01  0.51100000000E-03 0. -1.
        -11    1    3    3    0    0 -0.11254741290E+01 -0.19942130062E+02 -0.23217462781E+02  0.30626880705E+02  0.51100000000E-03 0.  1.
         12    1    3    3    0    0 -0.31725247644E+01 -0.11596793351E+02 -0.77827639421E+01  0.14322078899E+02  0.00000000000E+00 0. -1.
</event>
<event>
 7    1  0.5467297E-010  0.4778727E+02  0.7816164E-02  0.1312668E+00
        -11   -1    0    0    0    0  0.00000000000E+00  0.00000000000E+00  0.45593999997E+02  0.45594000000E+02  0.51100000000E-03 0.  1.
         11   -1    0    0    0    0 -0.00000000000E+00 -0.00000000000E+00 -0.45593999997E+02  0.45594000000E+02  0.51100000000E-03 0. -1.
    9900012    2    1    2    0    0 -0.16960924472E+02  0.39745978770E+02 -0.40258581424E+01  0.47787270500E+02  0.19999997520E+02 0.  0.
         12    1    1    2    0    0  0.16960924472E+02 -0.39745978770E+02  0.40258581424E+01  0.43400729500E+02  0.00000000000E+00 0. -1.
         11    1    3    3    0    0 -0.12964949578E+02  0.29540905959E+02 -0.10093053635E+02  0.33802733238E+02  0.51100000000E-03 0. -1.
        -11    1    3    3    0    0  0.15008804732E+01  0.39855448100E+01  0.15324105693E+01  0.45260901495E+01  0.51100000000E-03 0.  1.
         12    1    3    3    0    0 -0.54968553667E+01  0.62195280010E+01  0.45347849238E+01  0.94584471126E+01  0.00000000000E+00 0. -1.
</event>
<event>
 7    1  0.5467297E-010  0.4778727E+02  0.7816164E-02  0.1312668E+00
        -11   -1    0    0    0    0  0.00000000000E+00  0.00000000000E+00  0.45593999997E+02  0.45594000000E+02  0.51100000000E-03 0. -1.
         11   -1    0    0    0    0 -0.00000000000E+00 -0.00000000000E+00 -0.45593999997E+02  0.45594000000E+02  0.51100000000E-03 0.  1.
    9900012    2    1    2    0    0 -0.30547871039E+02 -0.14099271113E+02 -0.27416440327E+02  0.47787273381E+02  0.20000010651E+02 0.  0.
         12    1    1    2    0    0  0.30547871039E+02  0.14099271113E+02  0.27416440327E+02  0.43400726619E+02  0.00000000000E+00 0. -1.
         11    1    3    3    0    0 -0.11571329644E+02 -0.36404486793E+01 -0.12683234935E+01  0.12196605309E+02  0.51100000000E-03 0. -1.
        -11    1    3    3    0    0 -0.16601210655E+02 -0.37541876821E+01 -0.18935614884E+02  0.25460786155E+02  0.51100000000E-03 0.  1.
        -12    1    3    3    0    0 -0.23753307403E+01 -0.67046347513E+01 -0.72125019493E+01  0.10129881917E+02  0.00000000000E+00 0.  1.
</event>
<event>
 7    1  0.5467297E-010  0.4778727E+02  0.7816164E-02  0.1312668E+00
        -11   -1    0    0    0    0  0.00000000000E+00  0.00000000000E+00  0.45593999997E+02  0.45594000000E+02  0.51100000000E-03 0.  1.
         11   -1    0    0    0    0 -0.00000000000E+00 -0.00000000000E+00 -0.45593999997E+02  0.45594000000E+02  0.51100000000E-03 0. -1.
    9900012    2    1    2    0    0 -0.21390800214E+02 -0.17158972101E+02  0.33639660560E+02  0.47787269362E+02  0.19999992328E+02 0.  0.
         12    1    1    2    0    0  0.21390800214E+02  0.17158972101E+02 -0.33639660560E+02  0.43400730638E+02  0.00000000000E+00 0. -1.
         11    1    3    3    0    0  0.15634437324E+01 -0.45549805270E+00 -0.55738383002E+00  0.17211948685E+01  0.51100000000E-03 0. -1.
        -11    1    3    3    0    0 -0.96498953015E+01 -0.86389758691E+01  0.24558581923E+02  0.27764659726E+02  0.51100000000E-03 0.  1.
        -12    1    3    3    0    0 -0.13304348645E+02 -0.80644981790E+01  0.96384624674E+01  0.18301414767E+02  0.00000000000E+00 0.  1.
</event>
<event>
 7    1  0.5467297E-010  0.4778727E+02  0.7816164E-02  0.1312668E+00
        -11   -1    0    0    0    0  0.00000000000E+00  0.00000000000E+00  0.45593999997E+02  0.45594000000E+02  0.51100000000E-03 0. -1.
         11   -1    0    0    0    0 -0.00000000000E+00 -0.00000000000E+00 -0.45593999997E+02  0.45594000000E+02  0.51100000000E-03 0.  1.
    9900012    2    1    2    0    0 -0.26766049023E+02 -0.33354391968E+02 -0.73950310656E+01  0.47787270417E+02  0.19999997138E+02 0.  0.
         12    1    1    2    0    0  0.26766049023E+02  0.33354391968E+02  0.73950310656E+01  0.43400729583E+02  0.00000000000E+00 0. -1.
         11    1    3    3    0    0 -0.26366561027E+01  0.77123385671E+00  0.41721276617E+00  0.27786370434E+01  0.51100000000E-03 0. -1.
        -11    1    3    3    0    0 -0.18445130625E+02 -0.33462852930E+02 -0.47095878050E+01  0.38498903719E+02  0.51100000000E-03 0.  1.
        -12    1    3    3    0    0 -0.56842622959E+01 -0.66277289514E+00 -0.31026560267E+01  0.65097296548E+01  0.00000000000E+00 0.  1.
</event>
<event>
 7    1  0.5467297E-010  0.4778727E+02  0.7816164E-02  0.1312668E+00
        -11   -1    0    0    0    0  0.00000000000E+00  0.00000000000E+00  0.45593999997E+02  0.45594000000E+02  0.51100000000E-03 0.  1.
         11   -1    0    0    0    0 -0.00000000000E+00 -0.00000000000E+00 -0.45593999997E+02  0.45594000000E+02  0.51100000000E-03 0. -1.
    9900012    2    1    2    0    0  0.20335991468E+02  0.37320574720E+02  0.87889529867E+01  0.47787267967E+02  0.19999985968E+02 0.  0.
         12    1    1    2    0    0 -0.20335991468E+02 -0.37320574720E+02 -0.87889529867E+01  0.43400732033E+02  0.00000000000E+00 0. -1.
         11    1    3    3    0    0  0.12662136425E+02  0.18110597664E+02  0.99350416896E+01  0.24228671037E+02  0.51100000000E-03 0. -1.
        -11    1    3    3    0    0 -0.16088616918E+01  0.95994204523E+01 -0.27159138172E+01  0.10105122319E+02  0.51100000000E-03 0.  1.
        -12    1    3    3    0    0  0.92827167346E+01  0.96105566037E+01  0.15698251143E+01  0.13453474611E+02  0.00000000000E+00 0.  1.
</event>
<event>
 7    1  0.5467297E-010  0.4778727E+02  0.7816164E-02  0.1312668E+00
        -11   -1    0    0    0    0  0.00000000000E+00  0.00000000000E+00  0.45593999997E+02  0.45594000000E+02  0.51100000000E-03 0.  1.
         11   -1    0    0    0    0 -0.00000000000E+00 -0.00000000000E+00 -0.45593999997E+02  0.45594000000E+02  0.51100000000E-03 0. -1.
    9900012    2    1    2    0    0  0.19255980032E+01 -0.34447289903E+02  0.26330580285E+02  0.47787272271E+02  0.20000005590E+02 0.  0.
         12    1    1    2    0    0 -0.19255980032E+01  0.34447289903E+02 -0.26330580285E+02  0.43400727729E+02  0.00000000000E+00 0. -1.
         11    1    3    3    0    0 -0.12620895169E+01 -0.14101286749E+02  0.19403765177E+02  0.24019684870E+02  0.51100000000E-03 0. -1.
        -11    1    3    3    0    0  0.46508049873E+01 -0.20625928769E+02  0.70102339547E+01  0.22275598869E+02  0.51100000000E-03 0.  1.
         12    1    3    3    0    0 -0.14631174672E+01  0.27992561578E+00 -0.83418847372E-01  0.14919885312E+01  0.00000000000E+00 0. -1.
</event>
<event>
 7    1  0.5467297E-010  0.4778727E+02  0.7816164E-02  0.1312668E+00
        -11   -1    0    0    0    0  0.00000000000E+00  0.00000000000E+00  0.45593999997E+02  0.45594000000E+02  0.51100000000E-03 0.  1.
         11   -1    0    0    0    0 -0.00000000000E+00 -0.00000000000E+00 -0.45593999997E+02  0.45594000000E+02  0.51100000000E-03 0. -1.
    9900012    2    1    2    0    0 -0.10005279060E+02  0.60585862025E+01  0.41794873558E+02  0.47787268075E+02  0.19999986462E+02 0.  0.
         12    1    1    2    0    0  0.10005279060E+02 -0.60585862025E+01 -0.41794873558E+02  0.43400731925E+02  0.00000000000E+00 0. -1.
         11    1    3    3    0    0  0.14431200987E+01  0.10765803568E+01  0.37307503028E+01  0.41424773949E+01  0.51100000000E-03 0. -1.
        -11    1    3    3    0    0  0.19402733645E+01 -0.44225212064E+00 -0.82883490552E+00  0.21557400652E+01  0.51100000000E-03 0.  1.
        -12    1    3    3    0    0 -0.13388672523E+02  0.54242579663E+01  0.38892958161E+02  0.41489050615E+02  0.00000000000E+00 0.  1.
</event>
<event>
 7    1  0.5467297E-010  0.4778727E+02  0.7816164E-02  0.1312668E+00
        -11   -1    0    0    0    0  0.00000000000E+00  0.00000000000E+00  0.45593999997E+02  0.45594000000E+02  0.51100000000E-03 0.  1.
         11   -1    0    0    0    0 -0.00000000000E+00 -0.00000000000E+00 -0.45593999997E+02  0.45594000000E+02  0.51100000000E-03 0. -1.
    9900012    2    1    2    0    0 -0.39133621186E+02 -0.17504986096E+02 -0.67644941158E+01  0.47787271597E+02  0.20000002518E+02 0.  0.
         12    1    1    2    0    0  0.39133621186E+02  0.17504986096E+02  0.67644941158E+01  0.43400728403E+02  0.00000000000E+00 0. -1.
         11    1    3    3    0    0 -0.87177210886E+01  0.32384843673E+01  0.54198517912E-01  0.92999666514E+01  0.51100000000E-03 0. -1.
        -11    1    3    3    0    0 -0.22460981590E+02 -0.11404593511E+02 -0.72469202165E+01  0.26212178468E+02  0.51100000000E-03 0.  1.
         12    1    3    3    0    0 -0.79549185065E+01 -0.93388769520E+01  0.42822758282E+00  0.12275126477E+02  0.00000000000E+00 0. -1.
</event>
<event>
 7    1  0.5467297E-010  0.4778727E+02  0.7816164E-02  0.1312668E+00
        -11   -1    0    0    0    0  0.00000000000E+00  0.00000000000E+00  0.45593999997E+02  0.45594000000E+02  0.51100000000E-03 0.  1.
         11   -1    0    0    0    0 -0.00000000000E+00 -0.00000000000E+00 -0.45593999997E+02  0.45594000000E+02  0.51100000000E-03 0. -1.
    9900012    2    1    2    0    0  0.20592648286E+01 -0.32492756039E+02  0.28698493188E+02  0.47787270998E+02  0.19999999789E+02 0.  0.
         12    1    1    2    0    0 -0.20592648286E+01  0.32492756039E+02 -0.28698493188E+02  0.43400729002E+02  0.00000000000E+00 0. -1.
         11    1    3    3    0    0  0.53672866260E+00  0.34304283122E+00  0.34494630524E+01  0.35077844364E+01  0.51100000000E-03 0. -1.
        -11    1    3    3    0    0  0.14608918455E+01 -0.30075635164E+02  0.27452597849E+02  0.40747063262E+02  0.51100000000E-03 0.  1.
        -12    1    3    3    0    0  0.61644320474E-01 -0.27601637056E+01 -0.22035677134E+01  0.35324233001E+01  0.00000000000E+00 0.  1.
</event>
<event>
 7    1  0.5467297E-010  0.4778725E+02  0.7816164E-02  0.1312668E+00
        -11   -1    0    0    0    0  0.00000000000E+00  0.00000000000E+00  0.45593999997E+02  0.45594000000E+02  0.51100000000E-03 0. -1.
         11   -1    0    0    0    0 -0.00000000000E+00 -0.00000000000E+00 -0.45593999997E+02  0.45594000000E+02  0.51100000000E-03 0.  1.
    9900012    2    1    2    0    0  0.27869729213E+02  0.18527292729E+02 -0.27634083392E+02  0.47787251767E+02  0.19999912106E+02 0.  0.
         12    1    1    2    0    0 -0.27869729213E+02 -0.18527292729E+02  0.27634083392E+02  0.43400748233E+02  0.00000000000E+00 0. -1.
         11    1    3    3    0    0  0.20433775145E+02  0.16210493250E+02 -0.10632705369E+02  0.28166889815E+02  0.51100000000E-03 0.  1.
        -11    1    3    3    0    0  0.35785272168E+01  0.41649336287E+01 -0.10246944481E+02  0.11625506468E+02  0.51100000000E-03 0. -1.
         12    1    3    3    0    0  0.38574268512E+01 -0.18481341497E+01 -0.67544335417E+01  0.79948554845E+01  0.00000000000E+00 0. -1.
</event>
<event>
 7    1  0.5467297E-010  0.4778731E+02  0.7816164E-02  0.1312668E+00
        -11   -1    0    0    0    0  0.00000000000E+00  0.00000000000E+00  0.45593999997E+02  0.45594000000E+02  0.51100000000E-03 0.  1.
         11   -1    0    0    0    0 -0.00000000000E+00 -0.00000000000E+00 -0.45593999997E+02  0.45594000000E+02  0.51100000000E-03 0. -1.
    9900012    2    1    2    0    0 -0.76688646248E+00  0.19741307630E+02  0.38643404693E+02  0.47787307977E+02  0.20000168391E+02 0.  0.
         12    1    1    2    0    0  0.76688646248E+00 -0.19741307630E+02 -0.38643404693E+02  0.43400692023E+02  0.00000000000E+00 0. -1.
         11    1    3    3    0    0 -0.11982153734E+01  0.80168918350E+00  0.98359243656E+00  0.17452449600E+01  0.51100000000E-03 0. -1.
        -11    1    3    3    0    0 -0.32717721781E+01  0.21314705050E+02  0.27319716025E+02  0.34805000050E+02  0.51100000000E-03 0.  1.
        -12    1    3    3    0    0  0.37031010891E+01 -0.23750866034E+01  0.10340096231E+02  0.11237062967E+02  0.00000000000E+00 0.  1.
</event>
<event>
 7    1  0.5467297E-010  0.4778727E+02  0.7816164E-02  0.1312668E+00
        -11   -1    0    0    0    0  0.00000000000E+00  0.00000000000E+00  0.45593999997E+02  0.45594000000E+02  0.51100000000E-03 0. -1.
         11   -1    0    0    0    0 -0.00000000000E+00 -0.00000000000E+00 -0.45593999997E+02  0.45594000000E+02  0.51100000000E-03 0.  1.
    9900012    2    1    2    0    0 -0.18162009488E+02  0.66066522894E+01 -0.38860222381E+02  0.47787270437E+02  0.19999997230E+02 0.  0.
         12    1    1    2    0    0  0.18162009488E+02 -0.66066522894E+01  0.38860222381E+02  0.43400729563E+02  0.00000000000E+00 0. -1.
         11    1    3    3    0    0 -0.16305570816E+01 -0.16032244459E+00 -0.16794345657E+02  0.16874076745E+02  0.51100000000E-03 0. -1.
        -11    1    3    3    0    0 -0.68446067713E+01  0.82245307661E+01 -0.64944685521E+01  0.12516775552E+02  0.51100000000E-03 0.  1.
        -12    1    3    3    0    0 -0.96868456349E+01 -0.14575560322E+01 -0.15571408172E+02  0.18396418140E+02  0.00000000000E+00 0.  1.
</event>
<event>
 7    1  0.5467297E-010  0.4778727E+02  0.7816164E-02  0.1312668E+00
        -11   -1    0    0    0    0  0.00000000000E+00  0.00000000000E+00  0.45593999997E+02  0.45594000000E+02  0.51100000000E-03 0.  1.
         11   -1    0    0    0    0 -0.00000000000E+00 -0.00000000000E+00 -0.45593999997E+02  0.45594000000E+02  0.51100000000E-03 0. -1.
    9900012    2    1    2    0    0  0.39479660081E+02  0.89875624229E+01  0.15627006369E+02  0.47787272282E+02  0.20000005641E+02 0.  0.
         12    1    1    2    0    0 -0.39479660081E+02 -0.89875624229E+01 -0.15627006369E+02  0.43400727718E+02  0.00000000000E+00 0. -1.
         11    1    3    3    0    0  0.63466013089E+00 -0.23096592853E+01 -0.62114612759E+00  0.24744983874E+01  0.51100000000E-03 0. -1.
        -11    1    3    3    0    0  0.38330509893E+02  0.86216199378E+01  0.13774867930E+02  0.41633007407E+02  0.51100000000E-03 0.  1.
        -12    1    3    3    0    0  0.51449005705E+00  0.26756017705E+01  0.24732845662E+01  0.36797664869E+01  0.00000000000E+00 0.  1.
</event>
<event>
 7    1  0.5467297E-010  0.4778727E+02  0.7816164E-02  0.1312668E+00
        -11   -1    0    0    0    0  0.00000000000E+00  0.00000000000E+00  0.45593999997E+02  0.45594000000E+02  0.51100000000E-03 0.  1.
         11   -1    0    0    0    0 -0.00000000000E+00 -0.00000000000E+00 -0.45593999997E+02  0.45594000000E+02  0.51100000000E-03 0. -1.
    9900012    2    1    2    0    0 -0.47650874327E+01  0.25646345363E+02  0.34686916720E+02  0.47787270971E+02  0.19999999666E+02 0.  0.
         12    1    1    2    0    0  0.47650874327E+01 -0.25646345363E+02 -0.34686916720E+02  0.43400729029E+02  0.00000000000E+00 0. -1.
         11    1    3    3    0    0  0.16460467451E+01 -0.10115936394E+01  0.25750772434E+00  0.19491285406E+01  0.51100000000E-03 0. -1.
        -11    1    3    3    0    0 -0.68085372814E+01  0.19887742574E+02  0.16671922378E+02  0.26829675374E+02  0.51100000000E-03 0.  1.
        -12    1    3    3    0    0  0.39740310360E+00  0.67701964282E+01  0.17757486617E+02  0.19008467057E+02  0.00000000000E+00 0.  1.
</event>
<event>
 7    1  0.5467297E-010  0.4778728E+02  0.7816164E-02  0.1312668E+00
        -11   -1    0    0    0    0  0.00000000000E+00  0.00000000000E+00  0.45593999997E+02  0.45594000000E+02  0.51100000000E-03 0.  1.
         11   -1    0    0    0    0 -0.00000000000E+00 -0.00000000000E+00 -0.45593999997E+02  0.45594000000E+02  0.51100000000E-03 0. -1.
    9900012    2    1    2    0    0  0.98794652255E+00 -0.38478630441E+02  0.20050978643E+02  0.47787276694E+02  0.20000025758E+02 0.  0.
         12    1    1    2    0    0 -0.98794652255E+00  0.38478630441E+02 -0.20050978643E+02  0.43400723306E+02  0.00000000000E+00 0. -1.
         11    1    3    3    0    0  0.87300142225E+00 -0.10840671101E+02 -0.23513642618E+01  0.11127047927E+02  0.51100000000E-03 0. -1.
        -11    1    3    3    0    0  0.39445845713E+01 -0.10022415945E+02  0.10609496651E+02  0.15118531286E+02  0.51100000000E-03 0.  1.
         12    1    3    3    0    0 -0.38296394710E+01 -0.17615543395E+02  0.11792846254E+02  0.21541697481E+02  0.00000000000E+00 0. -1.
</event>
<event>
 7    1  0.5467297E-010  0.4778727E+02  0.7816164E-02  0.1312668E+00
        -11   -1    0    0    0    0  0.00000000000E+00  0.00000000000E+00  0.45593999997E+02  0.45594000000E+02  0.51100000000E-03 0.  1.
         11   -1    0    0    0    0 -0.00000000000E+00 -0.00000000000E+00 -0.45593999997E+02  0.45594000000E+02  0.51100000000E-03 0. -1.
    9900012    2    1    2    0    0 -0.80266987817E+01  0.35170409789E+02  0.24129603956E+02  0.47787269532E+02  0.19999993104E+02 0.  0.
         12    1    1    2    0    0  0.80266987817E+01 -0.35170409789E+02 -0.24129603956E+02  0.43400730468E+02  0.00000000000E+00 0. -1.
         11    1    3    3    0    0 -0.56213921353E+01  0.10507827873E+02  0.14318151426E+02  0.18628579030E+02  0.51100000000E-03 0. -1.
        -11    1    3    3    0    0 -0.14925679008E+01  0.62437060190E+01 -0.26036938141E+01  0.69275425317E+01  0.51100000000E-03 0.  1.
        -12    1    3    3    0    0 -0.91273874560E+00  0.18418875897E+02  0.12415146344E+02  0.22231147970E+02  0.00000000000E+00 0.  1.
</event>
<event>
 7    1  0.5467297E-010  0.4778727E+02  0.7816164E-02  0.1312668E+00
        -11   -1    0    0    0    0  0.00000000000E+00  0.00000000000E+00  0.45593999997E+02  0.45594000000E+02  0.51100000000E-03 0.  1.
         11   -1    0    0    0    0 -0.00000000000E+00 -0.00000000000E+00 -0.45593999997E+02  0.45594000000E+02  0.51100000000E-03 0. -1.
    9900012    2    1    2    0    0 -0.16503905997E+02  0.18871353539E+02  0.35427622631E+02  0.47787270250E+02  0.19999996379E+02 0.  0.
         12    1    1    2    0    0  0.16503905997E+02 -0.18871353539E+02 -0.35427622631E+02  0.43400729750E+02  0.00000000000E+00 0. -1.
         11    1    3    3    0    0  0.14781711073E+01  0.47267084310E+01  0.62013412554E+01  0.79362079132E+01  0.51100000000E-03 0. -1.
        -11    1    3    3    0    0 -0.11611583655E+02  0.18076730699E+00  0.14537405951E+02  0.18606389328E+02  0.51100000000E-03 0.  1.
        -12    1    3    3    0    0 -0.63704934498E+01  0.13963877801E+02  0.14688875424E+02  0.21244673009E+02  0.00000000000E+00 0.  1.
</event>
<event>
 7    1  0.5467297E-010  0.4778727E+02  0.7816164E-02  0.1312668E+00
        -11   -1    0    0    0    0  0.00000000000E+00  0.00000000000E+00  0.45593999997E+02  0.45594000000E+02  0.51100000000E-03 0.  1.
         11   -1    0    0    0    0 -0.00000000000E+00 -0.00000000000E+00 -0.45593999997E+02  0.45594000000E+02  0.51100000000E-03 0. -1.
    9900012    2    1    2    0    0  0.32327923066E+02 -0.22993497679E+02  0.17601930257E+02  0.47787268508E+02  0.19999988436E+02 0.  0.
         12    1    1    2    0    0 -0.32327923066E+02  0.22993497679E+02 -0.17601930257E+02  0.43400731492E+02  0.00000000000E+00 0. -1.
         11    1    3    3    0    0  0.58805271713E+01  0.10009868887E+01  0.63512450005E+01  0.87132593145E+01  0.51100000000E-03 0. -1.
        -11    1    3    3    0    0  0.25160028046E+02 -0.25084991406E+02  0.11553332612E+02  0.37359915682E+02  0.51100000000E-03 0.  1.
        -12    1    3    3    0    0  0.12873678489E+01  0.10905068388E+01 -0.30264735506E+00  0.17140935112E+01  0.00000000000E+00 0.  1.
</event>
<event>
 7    1  0.5467297E-010  0.4778725E+02  0.7816164E-02  0.1312668E+00
        -11   -1    0    0    0    0  0.00000000000E+00  0.00000000000E+00  0.45593999997E+02  0.45594000000E+02  0.51100000000E-03 0. -1.
         11   -1    0    0    0    0 -0.00000000000E+00 -0.00000000000E+00 -0.45593999997E+02  0.45594000000E+02  0.51100000000E-03 0.  1.
    9900012    2    1    2    0    0 -0.31910046632E+02  0.41089388679E+01 -0.29128858716E+02  0.47787252716E+02  0.19999916434E+02 0.  0.
         12    1    1    2    0    0  0.31910046632E+02 -0.41089388679E+01  0.29128858716E+02  0.43400747284E+02  0.00000000000E+00 0. -1.
         11    1    3    3    0    0 -0.17532241427E+02  0.96384456398E+01 -0.92971949394E+01  0.22061662625E+02  0.51100000000E-03 0. -1.
        -11    1    3    3    0    0 -0.75041822953E+01 -0.40488452704E+01 -0.14795864456E+02  0.17076987591E+02  0.51100000000E-03 0.  1.
         12    1    3    3    0    0 -0.68736229098E+01 -0.14806615015E+01 -0.50357993213E+01  0.86486024994E+01  0.00000000000E+00 0. -1.
</event>
<event>
 7    1  0.5467297E-010  0.4778727E+02  0.7816164E-02  0.1312668E+00
        -11   -1    0    0    0    0  0.00000000000E+00  0.00000000000E+00  0.45593999997E+02  0.45594000000E+02  0.51100000000E-03 0. -1.
         11   -1    0    0    0    0 -0.00000000000E+00 -0.00000000000E+00 -0.45593999997E+02  0.45594000000E+02  0.51100000000E-03 0.  1.
    9900012    2    1    2    0    0 -0.11265438224E+02 -0.39776446831E+02 -0.13211636770E+02  0.47787272276E+02  0.20000005614E+02 0.  0.
         12    1    1    2    0    0  0.11265438224E+02  0.39776446831E+02  0.13211636770E+02  0.43400727724E+02  0.00000000000E+00 0. -1.
         11    1    3    3    0    0 -0.60409913915E+00 -0.30906877748E+01 -0.81076878831E+01  0.86978094806E+01  0.51100000000E-03 0. -1.
        -11    1    3    3    0    0 -0.10693237784E+02 -0.29208428879E+02 -0.55635433565E+01  0.31597953522E+02  0.51100000000E-03 0.  1.
        -12    1    3    3    0    0  0.31898698903E-01 -0.74773301772E+01  0.45959446967E+00  0.74915092727E+01  0.00000000000E+00 0.  1.
</event>
<event>
 7    1  0.5467297E-010  0.4778727E+02  0.7816164E-02  0.1312668E+00
        -11   -1    0    0    0    0  0.00000000000E+00  0.00000000000E+00  0.45593999997E+02  0.45594000000E+02  0.51100000000E-03 0.  1.
         11   -1    0    0    0    0 -0.00000000000E+00 -0.00000000000E+00 -0.45593999997E+02  0.45594000000E+02  0.51100000000E-03 0. -1.
    9900012    2    1    2    0    0 -0.20934990677E+02  0.34361728971E+02 -0.16267172174E+02  0.47787272551E+02  0.20000006871E+02 0.  0.
         12    1    1    2    0    0  0.20934990677E+02 -0.34361728971E+02  0.16267172174E+02  0.43400727449E+02  0.00000000000E+00 0. -1.
         11    1    3    3    0    0 -0.42418769874E+01  0.10959154363E+02  0.19286452721E+01  0.11908663131E+02  0.51100000000E-03 0. -1.
        -11    1    3    3    0    0 -0.19295559491E+01  0.65595371062E+00  0.13555743954E+01  0.24476608494E+01  0.51100000000E-03 0.  1.
         12    1    3    3    0    0 -0.14763557741E+02  0.22746620897E+02 -0.19551391841E+02  0.33430948571E+02  0.00000000000E+00 0. -1.
</event>
<event>
 7    1  0.5467297E-010  0.4778727E+02  0.7816164E-02  0.1312668E+00
        -11   -1    0    0    0    0  0.00000000000E+00  0.00000000000E+00  0.45593999997E+02  0.45594000000E+02  0.51100000000E-03 0. -1.
         11   -1    0    0    0    0 -0.00000000000E+00 -0.00000000000E+00 -0.45593999997E+02  0.45594000000E+02  0.51100000000E-03 0.  1.
    9900012    2    1    2    0    0  0.44467794128E+01  0.35039210332E+02  0.25221086949E+02  0.47787270343E+02  0.19999996803E+02 0.  0.
         12    1    1    2    0    0 -0.44467794128E+01 -0.35039210332E+02 -0.25221086949E+02  0.43400729657E+02  0.00000000000E+00 0. -1.
         11    1    3    3    0    0  0.10250921213E+02  0.17087742107E+02  0.12053082405E+02  0.23288390064E+02  0.51100000000E-03 0. -1.
        -11    1    3    3    0    0  0.21157756308E+01  0.55797150687E+01  0.39623136929E+01  0.71630759335E+01  0.51100000000E-03 0.  1.
         12    1    3    3    0    0 -0.79199174311E+01  0.12371753157E+02  0.92056908508E+01  0.17335804346E+02  0.00000000000E+00 0. -1.
</event>
<event>
 7    1  0.5467297E-010  0.4778727E+02  0.7816164E-02  0.1312668E+00
        -11   -1    0    0    0    0  0.00000000000E+00  0.00000000000E+00  0.45593999997E+02  0.45594000000E+02  0.51100000000E-03 0. -1.
         11   -1    0    0    0    0 -0.00000000000E+00 -0.00000000000E+00 -0.45593999997E+02  0.45594000000E+02  0.51100000000E-03 0.  1.
    9900012    2    1    2    0    0 -0.11867825897E+02  0.26633682414E+02  0.32146925693E+02  0.47787272334E+02  0.20000005880E+02 0.  0.
         12    1    1    2    0    0  0.11867825897E+02 -0.26633682414E+02 -0.32146925693E+02  0.43400727666E+02  0.00000000000E+00 0. -1.
         11    1    3    3    0    0 -0.11877436241E+02  0.12355784003E+02  0.99129990096E+01  0.19799152498E+02  0.51100000000E-03 0. -1.
        -11    1    3    3    0    0  0.27014192619E+01  0.28566801271E+01  0.11242383286E+02  0.11910057498E+02  0.51100000000E-03 0.  1.
        -12    1    3    3    0    0 -0.26918089174E+01  0.11421218284E+02  0.10991543397E+02  0.16078062339E+02  0.00000000000E+00 0.  1.
</event>
<event>
 7    1  0.5467297E-010  0.4778727E+02  0.7816164E-02  0.1312668E+00
        -11   -1    0    0    0    0  0.00000000000E+00  0.00000000000E+00  0.45593999997E+02  0.45594000000E+02  0.51100000000E-03 0.  1.
         11   -1    0    0    0    0 -0.00000000000E+00 -0.00000000000E+00 -0.45593999997E+02  0.45594000000E+02  0.51100000000E-03 0. -1.
    9900012    2    1    2    0    0 -0.21688798892E+02 -0.37157822182E+02  0.57022335330E+01  0.47787271735E+02  0.20000003147E+02 0.  0.
         12    1    1    2    0    0  0.21688798892E+02  0.37157822182E+02 -0.57022335330E+01  0.43400728265E+02  0.00000000000E+00 0. -1.
         11    1    3    3    0    0 -0.36108977213E+01 -0.12634624771E+02  0.87627688667E+01  0.15794253510E+02  0.51100000000E-03 0.  1.
        -11    1    3    3    0    0 -0.17560044751E+01 -0.36817518880E+01  0.27126964743E+01  0.48987315811E+01  0.51100000000E-03 0. -1.
         12    1    3    3    0    0 -0.16321896695E+02 -0.20841445523E+02 -0.57732318080E+01  0.27094286644E+02  0.00000000000E+00 0. -1.
</event>
<event>
 7    1  0.5467297E-010  0.4778727E+02  0.7816164E-02  0.1312668E+00
        -11   -1    0    0    0    0  0.00000000000E+00  0.00000000000E+00  0.45593999997E+02  0.45594000000E+02  0.51100000000E-03 0.  1.
         11   -1    0    0    0    0 -0.00000000000E+00 -0.00000000000E+00 -0.45593999997E+02  0.45594000000E+02  0.51100000000E-03 0. -1.
    9900012    2    1    2    0    0 -0.41134542337E+02  0.13110554261E+02  0.44369238995E+01  0.47787268439E+02  0.19999988121E+02 0.  0.
         12    1    1    2    0    0  0.41134542337E+02 -0.13110554261E+02 -0.44369238995E+01  0.43400731561E+02  0.00000000000E+00 0. -1.
         11    1    3    3    0    0 -0.30430104859E+02  0.79508339759E+01 -0.42606079319E+01  0.31738932289E+02  0.51100000000E-03 0. -1.
        -11    1    3    3    0    0 -0.52519578769E+01 -0.87243138581E+00  0.39859024917E+01  0.66506854533E+01  0.51100000000E-03 0.  1.
         12    1    3    3    0    0 -0.54524796018E+01  0.60321516708E+01  0.47116293397E+01  0.93976506970E+01  0.00000000000E+00 0. -1.
</event>
<event>
 7    1  0.5467297E-010  0.4778727E+02  0.7816164E-02  0.1312668E+00
        -11   -1    0    0    0    0  0.00000000000E+00  0.00000000000E+00  0.45593999997E+02  0.45594000000E+02  0.51100000000E-03 0.  1.
         11   -1    0    0    0    0 -0.00000000000E+00 -0.00000000000E+00 -0.45593999997E+02  0.45594000000E+02  0.51100000000E-03 0. -1.
    9900012    2    1    2    0    0 -0.36043568990E+02  0.12625447438E+02  0.20617527059E+02  0.47787271774E+02  0.20000003325E+02 0.  0.
         12    1    1    2    0    0  0.36043568990E+02 -0.12625447438E+02 -0.20617527059E+02  0.43400728226E+02  0.00000000000E+00 0. -1.
         11    1    3    3    0    0 -0.19437097766E+02  0.11013357910E+02  0.29291243917E+01  0.22531635360E+02  0.51100000000E-03 0. -1.
        -11    1    3    3    0    0 -0.16585478225E+02  0.10225425281E+01  0.14625985497E+02  0.22136917879E+02  0.51100000000E-03 0.  1.
        -12    1    3    3    0    0 -0.20992998520E-01  0.58954700014E+00  0.30624171710E+01  0.31187185350E+01  0.00000000000E+00 0.  1.
</event>
<event>
 7    1  0.5467297E-010  0.4778727E+02  0.7816164E-02  0.1312668E+00
        -11   -1    0    0    0    0  0.00000000000E+00  0.00000000000E+00  0.45593999997E+02  0.45594000000E+02  0.51100000000E-03 0.  1.
         11   -1    0    0    0    0 -0.00000000000E+00 -0.00000000000E+00 -0.45593999997E+02  0.45594000000E+02  0.51100000000E-03 0. -1.
    9900012    2    1    2    0    0 -0.22786508208E+02  0.89675246547E+00  0.36926875243E+02  0.47787271475E+02  0.20000001965E+02 0.  0.
         12    1    1    2    0    0  0.22786508208E+02 -0.89675246547E+00 -0.36926875243E+02  0.43400728525E+02  0.00000000000E+00 0. -1.
         11    1    3    3    0    0 -0.53550578849E-01 -0.11170301362E+01 -0.19608719984E+01  0.22573531502E+01  0.51100000000E-03 0. -1.
        -11    1    3    3    0    0 -0.14146632339E+02  0.43140227466E+01  0.24440837962E+02  0.28567333781E+02  0.51100000000E-03 0.  1.
         12    1    3    3    0    0 -0.85863252895E+01 -0.23002401450E+01  0.14446909280E+02  0.16962584545E+02  0.00000000000E+00 0. -1.
</event>
<event>
 7    1  0.5467297E-010  0.4778728E+02  0.7816164E-02  0.1312668E+00
        -11   -1    0    0    0    0  0.00000000000E+00  0.00000000000E+00  0.45593999997E+02  0.45594000000E+02  0.51100000000E-03 0.  1.
         11   -1    0    0    0    0 -0.00000000000E+00 -0.00000000000E+00 -0.45593999997E+02  0.45594000000E+02  0.51100000000E-03 0. -1.
    9900012    2    1    2    0    0 -0.25231220224E+02  0.23546172268E+02  0.26317026031E+02  0.47787279251E+02  0.20000037415E+02 0.  0.
         12    1    1    2    0    0  0.25231220224E+02 -0.23546172268E+02 -0.26317026031E+02  0.43400720749E+02  0.00000000000E+00 0. -1.
         11    1    3    3    0    0 -0.11045413166E+02  0.37296949395E+01 -0.22152208201E+00  0.11660225068E+02  0.51100000000E-03 0. -1.
        -11    1    3    3    0    0 -0.13015459106E+02  0.19152492556E+02  0.24828118676E+02  0.33950782378E+02  0.51100000000E-03 0.  1.
         12    1    3    3    0    0 -0.11703479517E+01  0.66398477242E+00  0.17104294368E+01  0.21762718039E+01  0.00000000000E+00 0. -1.
</event>
<event>
 7    1  0.5467297E-010  0.4778727E+02  0.7816164E-02  0.1312668E+00
        -11   -1    0    0    0    0  0.00000000000E+00  0.00000000000E+00  0.45593999997E+02  0.45594000000E+02  0.51100000000E-03 0.  1.
         11   -1    0    0    0    0 -0.00000000000E+00 -0.00000000000E+00 -0.45593999997E+02  0.45594000000E+02  0.51100000000E-03 0. -1.
    9900012    2    1    2    0    0 -0.61330494787E+01  0.26856941299E+02  0.33536751736E+02  0.47787270642E+02  0.19999998163E+02 0.  0.
         12    1    1    2    0    0  0.61330494787E+01 -0.26856941299E+02 -0.33536751736E+02  0.43400729358E+02  0.00000000000E+00 0. -1.
         11    1    3    3    0    0 -0.23601404795E+01  0.50648108521E+01  0.24266368066E+01  0.60918912090E+01  0.51100000000E-03 0. -1.
        -11    1    3    3    0    0 -0.10244018558E+02  0.11803780138E+02  0.20282493702E+02  0.25605637910E+02  0.51100000000E-03 0.  1.
        -12    1    3    3    0    0  0.64711095584E+01  0.99883503092E+01  0.10827621228E+02  0.16089741523E+02  0.00000000000E+00 0.  1.
</event>
<event>
 7    1  0.5467297E-010  0.4778727E+02  0.7816164E-02  0.1312668E+00
        -11   -1    0    0    0    0  0.00000000000E+00  0.00000000000E+00  0.45593999997E+02  0.45594000000E+02  0.51100000000E-03 0.  1.
         11   -1    0    0    0    0 -0.00000000000E+00 -0.00000000000E+00 -0.45593999997E+02  0.45594000000E+02  0.51100000000E-03 0. -1.
    9900012    2    1    2    0    0  0.11941936859E+02  0.40870278242E+02 -0.84043934963E+01  0.47787270403E+02  0.19999997073E+02 0.  0.
         12    1    1    2    0    0 -0.11941936859E+02 -0.40870278242E+02  0.84043934963E+01  0.43400729597E+02  0.00000000000E+00 0. -1.
         11    1    3    3    0    0  0.20828084293E+01  0.11653423485E+02 -0.59198874274E+01  0.13235763571E+02  0.51100000000E-03 0. -1.
        -11    1    3    3    0    0 -0.26889352708E+01  0.55596230717E+00 -0.17488945305E+01  0.32554722111E+01  0.51100000000E-03 0.  1.
        -12    1    3    3    0    0  0.12548063700E+02  0.28660892450E+02 -0.73561153831E+00  0.31296034621E+02  0.00000000000E+00 0.  1.
</event>
<event>
 7    1  0.5467297E-010  0.4778727E+02  0.7816164E-02  0.1312668E+00
        -11   -1    0    0    0    0  0.00000000000E+00  0.00000000000E+00  0.45593999997E+02  0.45594000000E+02  0.51100000000E-03 0.  1.
         11   -1    0    0    0    0 -0.00000000000E+00 -0.00000000000E+00 -0.45593999997E+02  0.45594000000E+02  0.51100000000E-03 0. -1.
    9900012    2    1    2    0    0 -0.34220326751E+02  0.18896379374E+02  0.18855220861E+02  0.47787271088E+02  0.20000000198E+02 0.  0.
         12    1    1    2    0    0  0.34220326751E+02 -0.18896379374E+02 -0.18855220861E+02  0.43400728912E+02  0.00000000000E+00 0. -1.
         11    1    3    3    0    0 -0.13384191151E+02 -0.99878487959E+00  0.79859654770E+01  0.15617611497E+02  0.51100000000E-03 0. -1.
        -11    1    3    3    0    0 -0.21536304342E+02  0.18543687574E+02  0.11306171860E+02  0.30586112468E+02  0.51100000000E-03 0.  1.
        -12    1    3    3    0    0  0.70016874202E+00  0.13514766795E+01 -0.43691647552E+00  0.15835471225E+01  0.00000000000E+00 0.  1.
</event>
<event>
 7    1  0.5467297E-010  0.4778727E+02  0.7816164E-02  0.1312668E+00
        -11   -1    0    0    0    0  0.00000000000E+00  0.00000000000E+00  0.45593999997E+02  0.45594000000E+02  0.51100000000E-03 0.  1.
         11   -1    0    0    0    0 -0.00000000000E+00 -0.00000000000E+00 -0.45593999997E+02  0.45594000000E+02  0.51100000000E-03 0. -1.
    9900012    2    1    2    0    0 -0.34388107473E+02  0.25249943237E+02  0.79700580653E+01  0.47787269654E+02  0.19999993659E+02 0.  0.
         12    1    1    2    0    0  0.34388107473E+02 -0.25249943237E+02 -0.79700580653E+01  0.43400730346E+02  0.00000000000E+00 0. -1.
         11    1    3    3    0    0 -0.12538316214E+02  0.21225183016E+01 -0.23485392346E+01  0.12931747531E+02  0.51100000000E-03 0. -1.
        -11    1    3    3    0    0 -0.89912614776E+01  0.83950763234E+01  0.90275065865E+01  0.15258308060E+02  0.51100000000E-03 0.  1.
         12    1    3    3    0    0 -0.12858529782E+02  0.14732348612E+02  0.12910907133E+01  0.19597214062E+02  0.00000000000E+00 0. -1.
</event>
<event>
 7    1  0.5467297E-010  0.4778727E+02  0.7816164E-02  0.1312668E+00
        -11   -1    0    0    0    0  0.00000000000E+00  0.00000000000E+00  0.45593999997E+02  0.45594000000E+02  0.51100000000E-03 0.  1.
         11   -1    0    0    0    0 -0.00000000000E+00 -0.00000000000E+00 -0.45593999997E+02  0.45594000000E+02  0.51100000000E-03 0. -1.
    9900012    2    1    2    0    0  0.16082026301E+02  0.34715529009E+02  0.20489601474E+02  0.47787270825E+02  0.19999999001E+02 0.  0.
         12    1    1    2    0    0 -0.16082026301E+02 -0.34715529009E+02 -0.20489601474E+02  0.43400729175E+02  0.00000000000E+00 0. -1.
         11    1    3    3    0    0  0.13937500619E+02  0.12246520732E+02  0.41017087541E+01  0.19001452800E+02  0.51100000000E-03 0. -1.
        -11    1    3    3    0    0  0.23680802218E+01  0.16164379966E+02  0.77301936022E+01  0.18073485469E+02  0.51100000000E-03 0.  1.
         12    1    3    3    0    0 -0.22355453997E+00  0.63046283112E+01  0.86576991177E+01  0.10712332556E+02  0.00000000000E+00 0. -1.
</event>
<event>
 7    1  0.5467297E-010  0.4778728E+02  0.7816164E-02  0.1312668E+00
        -11   -1    0    0    0    0  0.00000000000E+00  0.00000000000E+00  0.45593999997E+02  0.45594000000E+02  0.51100000000E-03 0.  1.
         11   -1    0    0    0    0 -0.00000000000E+00 -0.00000000000E+00 -0.45593999997E+02  0.45594000000E+02  0.51100000000E-03 0. -1.
    9900012    2    1    2    0    0 -0.99263648616E+01 -0.14904615588E+02  0.39534065423E+02  0.47787278646E+02  0.20000034656E+02 0.  0.
         12    1    1    2    0    0  0.99263648616E+01  0.14904615588E+02 -0.39534065423E+02  0.43400721354E+02  0.00000000000E+00 0. -1.
         11    1    3    3    0    0  0.16372350754E+01 -0.49948076467E-01  0.10110553936E+01  0.19249069516E+01  0.51100000000E-03 0. -1.
        -11    1    3    3    0    0  0.81902088497E+00 -0.65186850395E+01  0.24556650744E+02  0.25420329381E+02  0.51100000000E-03 0.  1.
        -12    1    3    3    0    0 -0.12382620822E+02 -0.83359824724E+01  0.13966359286E+02  0.20442042312E+02  0.00000000000E+00 0.  1.
</event>
<event>
 7    1  0.5467297E-010  0.4778727E+02  0.7816164E-02  0.1312668E+00
        -11   -1    0    0    0    0  0.00000000000E+00  0.00000000000E+00  0.45593999997E+02  0.45594000000E+02  0.51100000000E-03 0. -1.
         11   -1    0    0    0    0 -0.00000000000E+00 -0.00000000000E+00 -0.45593999997E+02  0.45594000000E+02  0.51100000000E-03 0.  1.
    9900012    2    1    2    0    0  0.10355115727E+02  0.20131195250E+02 -0.37028770877E+02  0.47787270553E+02  0.19999997760E+02 0.  0.
         12    1    1    2    0    0 -0.10355115727E+02 -0.20131195250E+02  0.37028770877E+02  0.43400729447E+02  0.00000000000E+00 0. -1.
         11    1    3    3    0    0  0.32495203831E+01 -0.15172105944E+01 -0.46304134771E+01  0.58567943397E+01  0.51100000000E-03 0. -1.
        -11    1    3    3    0    0  0.78860132626E+01  0.22541684579E+02 -0.32890674988E+02  0.40646196012E+02  0.51100000000E-03 0.  1.
        -12    1    3    3    0    0 -0.78041791886E+00 -0.89327873502E+00  0.49231758875E+00  0.12842802010E+01  0.00000000000E+00 0.  1.
</event>
<event>
 7    1  0.5467297E-010  0.4778727E+02  0.7816164E-02  0.1312668E+00
        -11   -1    0    0    0    0  0.00000000000E+00  0.00000000000E+00  0.45593999997E+02  0.45594000000E+02  0.51100000000E-03 0. -1.
         11   -1    0    0    0    0 -0.00000000000E+00 -0.00000000000E+00 -0.45593999997E+02  0.45594000000E+02  0.51100000000E-03 0.  1.
    9900012    2    1    2    0    0  0.37506043636E+02 -0.15512714414E+02 -0.15371270724E+02  0.47787267501E+02  0.19999983846E+02 0.  0.
         12    1    1    2    0    0 -0.37506043636E+02  0.15512714414E+02  0.15371270724E+02  0.43400732499E+02  0.00000000000E+00 0. -1.
         11    1    3    3    0    0  0.89127092713E+01 -0.31393693797E+00 -0.71399465522E+01  0.11424262776E+02  0.51100000000E-03 0. -1.
        -11    1    3    3    0    0  0.95399841367E+01 -0.12315862899E+02 -0.69255148877E+01  0.17048593285E+02  0.51100000000E-03 0.  1.
        -12    1    3    3    0    0  0.19053350228E+02 -0.28829145766E+01 -0.13058092845E+01  0.19314411440E+02  0.00000000000E+00 0.  1.
</event>
<event>
 7    1  0.5467297E-010  0.4778727E+02  0.7816164E-02  0.1312668E+00
        -11   -1    0    0    0    0  0.00000000000E+00  0.00000000000E+00  0.45593999997E+02  0.45594000000E+02  0.51100000000E-03 0.  1.
         11   -1    0    0    0    0 -0.00000000000E+00 -0.00000000000E+00 -0.45593999997E+02  0.45594000000E+02  0.51100000000E-03 0. -1.
    9900012    2    1    2    0    0 -0.19231695834E+02  0.13498394032E+02  0.36490527873E+02  0.47787269700E+02  0.19999993872E+02 0.  0.
         12    1    1    2    0    0  0.19231695834E+02 -0.13498394032E+02 -0.36490527873E+02  0.43400730300E+02  0.00000000000E+00 0. -1.
         11    1    3    3    0    0 -0.85717714613E+01  0.65979243704E+01  0.38198881902E+01  0.11471678954E+02  0.51100000000E-03 0. -1.
        -11    1    3    3    0    0 -0.27643532872E+01  0.63481363494E+01  0.21769980832E+02  0.22844529977E+02  0.51100000000E-03 0.  1.
         12    1    3    3    0    0 -0.78955710852E+01  0.55233331198E+00  0.10900658851E+02  0.13471060769E+02  0.00000000000E+00 0. -1.
</event>
<event>
 7    1  0.5467297E-010  0.4778725E+02  0.7816164E-02  0.1312668E+00
        -11   -1    0    0    0    0  0.00000000000E+00  0.00000000000E+00  0.45593999997E+02  0.45594000000E+02  0.51100000000E-03 0.  1.
         11   -1    0    0    0    0 -0.00000000000E+00 -0.00000000000E+00 -0.45593999997E+02  0.45594000000E+02  0.51100000000E-03 0. -1.
    9900012    2    1    2    0    0  0.14597228763E+02 -0.40807534915E+02 -0.23001763547E+01  0.47787253409E+02  0.19999919593E+02 0.  0.
         12    1    1    2    0    0 -0.14597228763E+02  0.40807534915E+02  0.23001763547E+01  0.43400746591E+02  0.00000000000E+00 0. -1.
         11    1    3    3    0    0  0.38667305216E+00 -0.69659487700E+00  0.41328358323E+01  0.42089301194E+01  0.51100000000E-03 0. -1.
        -11    1    3    3    0    0  0.11776305100E+02 -0.37627714210E+02 -0.47420481199E+01  0.39711626246E+02  0.51100000000E-03 0.  1.
        -12    1    3    3    0    0  0.24342506106E+01 -0.24832258276E+01 -0.16909640671E+01  0.38666970430E+01  0.00000000000E+00 0.  1.
</event>
<event>
 7    1  0.5467297E-010  0.4778726E+02  0.7816164E-02  0.1312668E+00
        -11   -1    0    0    0    0  0.00000000000E+00  0.00000000000E+00  0.45593999997E+02  0.45594000000E+02  0.51100000000E-03 0.  1.
         11   -1    0    0    0    0 -0.00000000000E+00 -0.00000000000E+00 -0.45593999997E+02  0.45594000000E+02  0.51100000000E-03 0. -1.
    9900012    2    1    2    0    0  0.27030887959E+02  0.10461935920E+02  0.32303294668E+02  0.47787264367E+02  0.19999969555E+02 0.  0.
         12    1    1    2    0    0 -0.27030887959E+02 -0.10461935920E+02 -0.32303294668E+02  0.43400735633E+02  0.00000000000E+00 0. -1.
         11    1    3    3    0    0  0.76105012203E+01  0.87989598039E+01  0.58046943549E+01  0.13001380668E+02  0.51100000000E-03 0. -1.
        -11    1    3    3    0    0  0.17769942626E+02 -0.11716060102E+01  0.16553454079E+02  0.24313789581E+02  0.51100000000E-03 0.  1.
        -12    1    3    3    0    0  0.16504441129E+01  0.28345821267E+01  0.99451462340E+01  0.10472094118E+02  0.00000000000E+00 0.  1.
</event>
<event>
 7    1  0.5467297E-010  0.4778727E+02  0.7816164E-02  0.1312668E+00
        -11   -1    0    0    0    0  0.00000000000E+00  0.00000000000E+00  0.45593999997E+02  0.45594000000E+02  0.51100000000E-03 0.  1.
         11   -1    0    0    0    0 -0.00000000000E+00 -0.00000000000E+00 -0.45593999997E+02  0.45594000000E+02  0.51100000000E-03 0. -1.
    9900012    2    1    2    0    0  0.49328200976E+01  0.36229696020E+02  0.23381616065E+02  0.47787267775E+02  0.19999985095E+02 0.  0.
         12    1    1    2    0    0 -0.49328200976E+01 -0.36229696020E+02 -0.23381616065E+02  0.43400732225E+02  0.00000000000E+00 0. -1.
         11    1    3    3    0    0 -0.16609729592E+01  0.34240688988E+01  0.46673645042E+00  0.38341781610E+01  0.51100000000E-03 0. -1.
        -11    1    3    3    0    0  0.10765635856E+01  0.89620849980E+00  0.83132570780E+01  0.84304461528E+01  0.51100000000E-03 0.  1.
        -12    1    3    3    0    0  0.55172294711E+01  0.31909418621E+02  0.14601622537E+02  0.35522643462E+02  0.00000000000E+00 0.  1.
</event>
<event>
 7    1  0.5467297E-010  0.4778725E+02  0.7816164E-02  0.1312668E+00
        -11   -1    0    0    0    0  0.00000000000E+00  0.00000000000E+00  0.45593999997E+02  0.45594000000E+02  0.51100000000E-03 0. -1.
         11   -1    0    0    0    0 -0.00000000000E+00 -0.00000000000E+00 -0.45593999997E+02  0.45594000000E+02  0.51100000000E-03 0.  1.
    9900012    2    1    2    0    0 -0.39998850533E+01  0.18161481042E+02 -0.39214620614E+02  0.47787251804E+02  0.19999912277E+02 0.  0.
         12    1    1    2    0    0  0.39998850533E+01 -0.18161481042E+02  0.39214620614E+02  0.43400748196E+02  0.00000000000E+00 0. -1.
         11    1    3    3    0    0 -0.39092762007E+01  0.90224219790E+01 -0.40748470336E+01  0.10643820620E+02  0.51100000000E-03 0. -1.
        -11    1    3    3    0    0  0.27475202385E+01  0.59835937580E+01 -0.28593502635E+02  0.29341790247E+02  0.51100000000E-03 0.  1.
         12    1    3    3    0    0 -0.28381290911E+01  0.31554653046E+01 -0.65462709451E+01  0.78016409372E+01  0.00000000000E+00 0. -1.
</event>
<event>
 7    1  0.5467297E-010  0.4778727E+02  0.7816164E-02  0.1312668E+00
        -11   -1    0    0    0    0  0.00000000000E+00  0.00000000000E+00  0.45593999997E+02  0.45594000000E+02  0.51100000000E-03 0.  1.
         11   -1    0    0    0    0 -0.00000000000E+00 -0.00000000000E+00 -0.45593999997E+02  0.45594000000E+02  0.51100000000E-03 0. -1.
    9900012    2    1    2    0    0  0.17620114330E+02  0.29261910020E+02  0.26774905645E+02  0.47787269830E+02  0.19999994462E+02 0.  0.
         12    1    1    2    0    0 -0.17620114330E+02 -0.29261910020E+02 -0.26774905645E+02  0.43400730170E+02  0.00000000000E+00 0. -1.
         11    1    3    3    0    0  0.29947298012E+01  0.17834316735E+02  0.69602006564E+01  0.19377194158E+02  0.51100000000E-03 0. -1.
        -11    1    3    3    0    0  0.15273522433E+02  0.10176712178E+02  0.19804535536E+02  0.27001214535E+02  0.51100000000E-03 0.  1.
        -12    1    3    3    0    0 -0.64813790473E+00  0.12508811064E+01  0.10169452113E-01  0.14088611371E+01  0.00000000000E+00 0.  1.
</event>
<event>
 7    1  0.5467297E-010  0.4778727E+02  0.7816164E-02  0.1312668E+00
        -11   -1    0    0    0    0  0.00000000000E+00  0.00000000000E+00  0.45593999997E+02  0.45594000000E+02  0.51100000000E-03 0.  1.
         11   -1    0    0    0    0 -0.00000000000E+00 -0.00000000000E+00 -0.45593999997E+02  0.45594000000E+02  0.51100000000E-03 0. -1.
    9900012    2    1    2    0    0 -0.36804759590E+02 -0.34943782679E+01 -0.22733725336E+02  0.47787271024E+02  0.19999999909E+02 0.  0.
         12    1    1    2    0    0  0.36804759590E+02  0.34943782679E+01  0.22733725336E+02  0.43400728976E+02  0.00000000000E+00 0. -1.
         11    1    3    3    0    0  0.10692012264E+01 -0.32036077795E+01  0.28183101977E+00  0.33890593167E+01  0.51100000000E-03 0. -1.
        -11    1    3    3    0    0 -0.24416467625E+02 -0.12443393437E+01 -0.15635367859E+02  0.29020286009E+02  0.51100000000E-03 0.  1.
         12    1    3    3    0    0 -0.13457493192E+02  0.95356885522E+00 -0.73801884964E+01  0.15377925699E+02  0.00000000000E+00 0. -1.
</event>
<event>
 7    1  0.5467297E-010  0.4778725E+02  0.7816164E-02  0.1312668E+00
        -11   -1    0    0    0    0  0.00000000000E+00  0.00000000000E+00  0.45593999997E+02  0.45594000000E+02  0.51100000000E-03 0. -1.
         11   -1    0    0    0    0 -0.00000000000E+00 -0.00000000000E+00 -0.45593999997E+02  0.45594000000E+02  0.51100000000E-03 0.  1.
    9900012    2    1    2    0    0  0.31099916466E+02 -0.30046684846E+02  0.36900866854E+01  0.47787253299E+02  0.19999919093E+02 0.  0.
         12    1    1    2    0    0 -0.31099916466E+02  0.30046684846E+02 -0.36900866854E+01  0.43400746701E+02  0.00000000000E+00 0. -1.
         11    1    3    3    0    0  0.17414803199E+02 -0.21915995751E+02  0.25412700536E+01  0.28107726588E+02  0.51100000000E-03 0.  1.
        -11    1    3    3    0    0  0.98200786006E-01  0.17678513773E+01  0.22147405381E+01  0.28354925143E+01  0.51100000000E-03 0. -1.
        -12    1    3    3    0    0  0.13586912481E+02 -0.98985404721E+01 -0.10659239063E+01  0.16844034197E+02  0.00000000000E+00 0.  1.
</event>
<event>
 7    1  0.5467297E-010  0.4778730E+02  0.7816164E-02  0.1312668E+00
        -11   -1    0    0    0    0  0.00000000000E+00  0.00000000000E+00  0.45593999997E+02  0.45594000000E+02  0.51100000000E-03 0. -1.
         11   -1    0    0    0    0 -0.00000000000E+00 -0.00000000000E+00 -0.45593999997E+02  0.45594000000E+02  0.51100000000E-03 0.  1.
    9900012    2    1    2    0    0  0.15015301089E+02 -0.40693984483E+02  0.14701457175E+01  0.47787297605E+02  0.20000121101E+02 0.  0.
         12    1    1    2    0    0 -0.15015301089E+02  0.40693984483E+02 -0.14701457175E+01  0.43400702395E+02  0.00000000000E+00 0. -1.
         11    1    3    3    0    0  0.30879635076E+01 -0.24296678974E+02  0.59771801719E+01  0.25210926418E+02  0.51100000000E-03 0. -1.
        -11    1    3    3    0    0  0.72503093776E+01 -0.12834741404E+02  0.65064165397E+00  0.14755368779E+02  0.51100000000E-03 0.  1.
         12    1    3    3    0    0  0.46770282038E+01 -0.35625641048E+01 -0.51576761084E+01  0.78210024076E+01  0.00000000000E+00 0. -1.
</event>
<event>
 7    1  0.5467297E-010  0.4778727E+02  0.7816164E-02  0.1312668E+00
        -11   -1    0    0    0    0  0.00000000000E+00  0.00000000000E+00  0.45593999997E+02  0.45594000000E+02  0.51100000000E-03 0. -1.
         11   -1    0    0    0    0 -0.00000000000E+00 -0.00000000000E+00 -0.45593999997E+02  0.45594000000E+02  0.51100000000E-03 0.  1.
    9900012    2    1    2    0    0  0.40245836498E+01  0.15858617988E+01 -0.43184616977E+02  0.47787269884E+02  0.19999994708E+02 0.  0.
         12    1    1    2    0    0 -0.40245836498E+01 -0.15858617988E+01  0.43184616977E+02  0.43400730116E+02  0.00000000000E+00 0. -1.
         11    1    3    3    0    0  0.24116826319E+01 -0.40631438167E+01 -0.63632103889E+01  0.79256417725E+01  0.51100000000E-03 0. -1.
        -11    1    3    3    0    0  0.51083453275E+01 -0.30092146460E+01 -0.14669507181E+02  0.15822294586E+02  0.51100000000E-03 0.  1.
        -12    1    3    3    0    0 -0.34954443096E+01  0.86582202614E+01 -0.22151899407E+02  0.24039333526E+02  0.00000000000E+00 0.  1.
</event>
<event>
 7    1  0.5467297E-010  0.4778727E+02  0.7816164E-02  0.1312668E+00
        -11   -1    0    0    0    0  0.00000000000E+00  0.00000000000E+00  0.45593999997E+02  0.45594000000E+02  0.51100000000E-03 0.  1.
         11   -1    0    0    0    0 -0.00000000000E+00 -0.00000000000E+00 -0.45593999997E+02  0.45594000000E+02  0.51100000000E-03 0. -1.
    9900012    2    1    2    0    0 -0.18857575869E+02 -0.16042370389E+02  0.35646279751E+02  0.47787273331E+02  0.20000010425E+02 0.  0.
         12    1    1    2    0    0  0.18857575869E+02  0.16042370389E+02 -0.35646279751E+02  0.43400726669E+02  0.00000000000E+00 0. -1.
         11    1    3    3    0    0 -0.14903286048E+02 -0.14032508073E+02  0.31009196181E+02  0.37156284339E+02  0.51100000000E-03 0.  1.
        -11    1    3    3    0    0 -0.37129429707E+01 -0.16442701177E+01  0.70731111550E+01  0.81558856904E+01  0.51100000000E-03 0. -1.
         12    1    3    3    0    0 -0.24134684997E+00 -0.36559219845E+00 -0.24360275850E+01  0.24751033013E+01  0.00000000000E+00 0. -1.
</event>
<event>
 7    1  0.5557217E-010  0.4778728E+02  0.7816164E-02  0.1312668E+00
        -11   -1    0    0    0    0  0.00000000000E+00  0.00000000000E+00  0.45593999997E+02  0.45594000000E+02  0.51100000000E-03 0. -1.
         11   -1    0    0    0    0 -0.00000000000E+00 -0.00000000000E+00 -0.45593999997E+02  0.45594000000E+02  0.51100000000E-03 0.  1.
    9900012    2    1    2    0    0 -0.20261564702E+02  0.27093592316E+02 -0.27185089496E+02  0.47787276047E+02  0.20000022807E+02 0.  0.
         12    1    1    2    0    0  0.20261564702E+02 -0.27093592316E+02  0.27185089496E+02  0.43400723953E+02  0.00000000000E+00 0. -1.
         11    1    3    3    0    0 -0.31954237653E+01  0.21121935350E+01 -0.43781993499E+00  0.38553574575E+01  0.51100000000E-03 0. -1.
        -11    1    3    3    0    0 -0.16585130842E+02  0.90321437989E+01 -0.15007743561E+02  0.24122158977E+02  0.51100000000E-03 0.  1.
        -12    1    3    3    0    0 -0.48101009502E+00  0.15949254982E+02 -0.11739526001E+02  0.19809759612E+02  0.00000000000E+00 0.  1.
</event>
<event>
 7    1  0.5467297E-010  0.4778727E+02  0.7816164E-02  0.1312668E+00
        -11   -1    0    0    0    0  0.00000000000E+00  0.00000000000E+00  0.45593999997E+02  0.45594000000E+02  0.51100000000E-03 0.  1.
         11   -1    0    0    0    0 -0.00000000000E+00 -0.00000000000E+00 -0.45593999997E+02  0.45594000000E+02  0.51100000000E-03 0. -1.
    9900012    2    1    2    0    0  0.17905209119E+02 -0.30975313104E+02  0.24567397764E+02  0.47787267651E+02  0.19999984530E+02 0.  0.
         12    1    1    2    0    0 -0.17905209119E+02  0.30975313104E+02 -0.24567397764E+02  0.43400732349E+02  0.00000000000E+00 0. -1.
         11    1    3    3    0    0  0.49576543235E+01 -0.34531507067E+01  0.11287569168E+02  0.12802804543E+02  0.51100000000E-03 0. -1.
        -11    1    3    3    0    0  0.46674721064E+01 -0.23966658754E+01  0.50422412620E+01  0.72769155820E+01  0.51100000000E-03 0.  1.
         12    1    3    3    0    0  0.82800826893E+01 -0.25125496522E+02  0.82375873339E+01  0.27707547526E+02  0.00000000000E+00 0. -1.
</event>
<event>
 7    1  0.5467297E-010  0.4778728E+02  0.7816164E-02  0.1312668E+00
        -11   -1    0    0    0    0  0.00000000000E+00  0.00000000000E+00  0.45593999997E+02  0.45594000000E+02  0.51100000000E-03 0.  1.
         11   -1    0    0    0    0 -0.00000000000E+00 -0.00000000000E+00 -0.45593999997E+02  0.45594000000E+02  0.51100000000E-03 0. -1.
    9900012    2    1    2    0    0 -0.16352898836E+02 -0.19112304632E+00  0.40201602871E+02  0.47787277636E+02  0.20000030051E+02 0.  0.
         12    1    1    2    0    0  0.16352898836E+02  0.19112304632E+00 -0.40201602871E+02  0.43400722364E+02  0.00000000000E+00 0. -1.
         11    1    3    3    0    0 -0.11035499980E+02 -0.12869640638E+01  0.74346177654E+01  0.13368323675E+02  0.51100000000E-03 0. -1.
        -11    1    3    3    0    0 -0.71356337354E+01  0.30922927777E+01  0.22655329851E+02  0.23952943752E+02  0.51100000000E-03 0.  1.
        -12    1    3    3    0    0  0.18182348794E+01 -0.19964517602E+01  0.10111655254E+02  0.10466010209E+02  0.00000000000E+00 0.  1.
</event>
<event>
 7    1  0.5467297E-010  0.4778727E+02  0.7816164E-02  0.1312668E+00
        -11   -1    0    0    0    0  0.00000000000E+00  0.00000000000E+00  0.45593999997E+02  0.45594000000E+02  0.51100000000E-03 0. -1.
         11   -1    0    0    0    0 -0.00000000000E+00 -0.00000000000E+00 -0.45593999997E+02  0.45594000000E+02  0.51100000000E-03 0.  1.
    9900012    2    1    2    0    0  0.23070559005E+02 -0.36716232620E+02 -0.18140455338E+01  0.47787271989E+02  0.20000004308E+02 0.  0.
         12    1    1    2    0    0 -0.23070559005E+02  0.36716232620E+02  0.18140455338E+01  0.43400728011E+02  0.00000000000E+00 0. -1.
         11    1    3    3    0    0  0.16078509257E+02 -0.10977687230E+02  0.44137893245E+01  0.19962705561E+02  0.51100000000E-03 0. -1.
        -11    1    3    3    0    0 -0.37677418561E-01 -0.73929402280E+01 -0.26593144894E+01  0.78567766048E+01  0.51100000000E-03 0.  1.
         12    1    3    3    0    0  0.70297271668E+01 -0.18345605162E+02 -0.35685203689E+01  0.19967789823E+02  0.00000000000E+00 0. -1.
</event>
<event>
 7    1  0.5467297E-010  0.4778727E+02  0.7816164E-02  0.1312668E+00
        -11   -1    0    0    0    0  0.00000000000E+00  0.00000000000E+00  0.45593999997E+02  0.45594000000E+02  0.51100000000E-03 0. -1.
         11   -1    0    0    0    0 -0.00000000000E+00 -0.00000000000E+00 -0.45593999997E+02  0.45594000000E+02  0.51100000000E-03 0.  1.
    9900012    2    1    2    0    0 -0.11983150606E+02  0.35439099979E+02 -0.22002223806E+02  0.47787267769E+02  0.19999985067E+02 0.  0.
         12    1    1    2    0    0  0.11983150606E+02 -0.35439099979E+02  0.22002223806E+02  0.43400732231E+02  0.00000000000E+00 0. -1.
         11    1    3    3    0    0 -0.61687212111E+01  0.27984457645E+02 -0.22784950196E+02  0.36610612488E+02  0.51100000000E-03 0.  1.
        -11    1    3    3    0    0 -0.58981930873E+01  0.28651844936E+01  0.36411895258E+00  0.65673850771E+01  0.51100000000E-03 0. -1.
        -12    1    3    3    0    0  0.83763691933E-01  0.45894578408E+01  0.41860743766E+00  0.46092702042E+01  0.00000000000E+00 0.  1.
</event>
<event>
 7    1  0.5467297E-010  0.4778727E+02  0.7816164E-02  0.1312668E+00
        -11   -1    0    0    0    0  0.00000000000E+00  0.00000000000E+00  0.45593999997E+02  0.45594000000E+02  0.51100000000E-03 0.  1.
         11   -1    0    0    0    0 -0.00000000000E+00 -0.00000000000E+00 -0.45593999997E+02  0.45594000000E+02  0.51100000000E-03 0. -1.
    9900012    2    1    2    0    0  0.24232901037E+01 -0.18372293655E+01  0.43294061465E+02  0.47787268384E+02  0.19999987868E+02 0.  0.
         12    1    1    2    0    0 -0.24232901037E+01  0.18372293655E+01 -0.43294061465E+02  0.43400731616E+02  0.00000000000E+00 0. -1.
         11    1    3    3    0    0  0.30188592747E+00 -0.10369170192E+02  0.17370564886E+02  0.20232334277E+02  0.51100000000E-03 0. -1.
        -11    1    3    3    0    0  0.13538128451E+01  0.44057377394E+01  0.89113265673E+01  0.10032700319E+02  0.51100000000E-03 0.  1.
         12    1    3    3    0    0  0.76759133110E+00  0.41262030870E+01  0.17012170012E+02  0.17522233787E+02  0.00000000000E+00 0. -1.
</event>
<event>
 7    1  0.5467297E-010  0.4778727E+02  0.7816164E-02  0.1312668E+00
        -11   -1    0    0    0    0  0.00000000000E+00  0.00000000000E+00  0.45593999997E+02  0.45594000000E+02  0.51100000000E-03 0.  1.
         11   -1    0    0    0    0 -0.00000000000E+00 -0.00000000000E+00 -0.45593999997E+02  0.45594000000E+02  0.51100000000E-03 0. -1.
    9900012    2    1    2    0    0  0.36852837149E+02 -0.21171608652E+02  0.87894811887E+01  0.47787267305E+02  0.19999982951E+02 0.  0.
         12    1    1    2    0    0 -0.36852837149E+02  0.21171608652E+02 -0.87894811887E+01  0.43400732695E+02  0.00000000000E+00 0. -1.
         11    1    3    3    0    0  0.11702838922E+02 -0.82123319732E+01  0.79109350494E+01  0.16339575542E+02  0.51100000000E-03 0. -1.
        -11    1    3    3    0    0  0.13004531026E+02 -0.49508189909E+01 -0.62414546442E+01  0.15250711204E+02  0.51100000000E-03 0.  1.
        -12    1    3    3    0    0  0.12145467201E+02 -0.80084576884E+01  0.71200007835E+01  0.16196980559E+02  0.00000000000E+00 0.  1.
</event>
<event>
 7    1  0.5467297E-010  0.4778727E+02  0.7816164E-02  0.1312668E+00
        -11   -1    0    0    0    0  0.00000000000E+00  0.00000000000E+00  0.45593999997E+02  0.45594000000E+02  0.51100000000E-03 0.  1.
         11   -1    0    0    0    0 -0.00000000000E+00 -0.00000000000E+00 -0.45593999997E+02  0.45594000000E+02  0.51100000000E-03 0. -1.
    9900012    2    1    2    0    0  0.43167220651E+02 -0.35704598312E+01  0.27324456843E+01  0.47787269804E+02  0.19999994343E+02 0.  0.
         12    1    1    2    0    0 -0.43167220651E+02  0.35704598312E+01 -0.27324456843E+01  0.43400730196E+02  0.00000000000E+00 0. -1.
         11    1    3    3    0    0  0.10536495713E+02  0.52908636479E+01  0.14180803543E+01  0.11875265564E+02  0.51100000000E-03 0. -1.
        -11    1    3    3    0    0  0.30543421868E+02 -0.57340692049E+01  0.39404758201E+01  0.31325828305E+02  0.51100000000E-03 0.  1.
        -12    1    3    3    0    0  0.20873030701E+01 -0.31272542742E+01 -0.26261104901E+01  0.45861759352E+01  0.00000000000E+00 0.  1.
</event>
<event>
 7    1  0.5467297E-010  0.4778727E+02  0.7816164E-02  0.1312668E+00
        -11   -1    0    0    0    0  0.00000000000E+00  0.00000000000E+00  0.45593999997E+02  0.45594000000E+02  0.51100000000E-03 0.  1.
         11   -1    0    0    0    0 -0.00000000000E+00 -0.00000000000E+00 -0.45593999997E+02  0.45594000000E+02  0.51100000000E-03 0. -1.
    9900012    2    1    2    0    0  0.29499598238E+02 -0.27253997244E+02  0.16450433369E+02  0.47787269361E+02  0.19999992326E+02 0.  0.
         12    1    1    2    0    0 -0.29499598238E+02  0.27253997244E+02 -0.16450433369E+02  0.43400730639E+02  0.00000000000E+00 0. -1.
         11    1    3    3    0    0  0.43260271344E+01 -0.14993885702E+02  0.68325143600E+01  0.17035679380E+02  0.51100000000E-03 0. -1.
        -11    1    3    3    0    0  0.13686016854E+02 -0.68875071891E+01  0.87156669351E+00  0.15346153961E+02  0.51100000000E-03 0.  1.
         12    1    3    3    0    0  0.11487554249E+02 -0.53726043530E+01  0.87463523155E+01  0.15405436021E+02  0.00000000000E+00 0. -1.
</event>
<event>
 7    1  0.5467297E-010  0.4778727E+02  0.7816164E-02  0.1312668E+00
        -11   -1    0    0    0    0  0.00000000000E+00  0.00000000000E+00  0.45593999997E+02  0.45594000000E+02  0.51100000000E-03 0.  1.
         11   -1    0    0    0    0 -0.00000000000E+00 -0.00000000000E+00 -0.45593999997E+02  0.45594000000E+02  0.51100000000E-03 0. -1.
    9900012    2    1    2    0    0 -0.33129661405E+02 -0.27886178851E+02 -0.29000227064E+01  0.47787267663E+02  0.19999984581E+02 0.  0.
         12    1    1    2    0    0  0.33129661405E+02  0.27886178851E+02  0.29000227064E+01  0.43400732337E+02  0.00000000000E+00 0. -1.
         11    1    3    3    0    0 -0.10074335306E+02 -0.65425213859E+01 -0.53186768517E+01  0.13137166424E+02  0.51100000000E-03 0. -1.
        -11    1    3    3    0    0 -0.16204389070E+02 -0.18886028794E+02  0.72434028385E+01  0.25917777561E+02  0.51100000000E-03 0.  1.
        -12    1    3    3    0    0 -0.68509370294E+01 -0.24576286706E+01 -0.48247486932E+01  0.87323236780E+01  0.00000000000E+00 0.  1.
</event>
<event>
 7    1  0.5467297E-010  0.4778726E+02  0.7816164E-02  0.1312668E+00
        -11   -1    0    0    0    0  0.00000000000E+00  0.00000000000E+00  0.45593999997E+02  0.45594000000E+02  0.51100000000E-03 0.  1.
         11   -1    0    0    0    0 -0.00000000000E+00 -0.00000000000E+00 -0.45593999997E+02  0.45594000000E+02  0.51100000000E-03 0. -1.
    9900012    2    1    2    0    0  0.31886034303E+02 -0.76711513661E+01  0.28426362079E+02  0.47787264892E+02  0.19999971950E+02 0.  0.
         12    1    1    2    0    0 -0.31886034303E+02  0.76711513661E+01 -0.28426362079E+02  0.43400735108E+02  0.00000000000E+00 0. -1.
         11    1    3    3    0    0  0.19666505044E+01  0.65451939103E+00 -0.28278372399E+01  0.35061051833E+01  0.51100000000E-03 0. -1.
        -11    1    3    3    0    0  0.18011471106E+02 -0.41657150436E+01  0.21365772632E+02  0.28253539843E+02  0.51100000000E-03 0.  1.
         12    1    3    3    0    0  0.11907912693E+02 -0.41599557136E+01  0.98884266869E+01  0.16027619866E+02  0.00000000000E+00 0. -1.
</event>
<event>
 7    1  0.5467297E-010  0.4778727E+02  0.7816164E-02  0.1312668E+00
        -11   -1    0    0    0    0  0.00000000000E+00  0.00000000000E+00  0.45593999997E+02  0.45594000000E+02  0.51100000000E-03 0.  1.
         11   -1    0    0    0    0 -0.00000000000E+00 -0.00000000000E+00 -0.45593999997E+02  0.45594000000E+02  0.51100000000E-03 0. -1.
    9900012    2    1    2    0    0 -0.32347928193E+02 -0.21830781741E+02  0.18990828206E+02  0.47787273672E+02  0.20000011981E+02 0.  0.
         12    1    1    2    0    0  0.32347928193E+02  0.21830781741E+02 -0.18990828206E+02  0.43400726328E+02  0.00000000000E+00 0. -1.
         11    1    3    3    0    0 -0.40991696645E+01 -0.86269209105E+01  0.75526139363E+01  0.12176573158E+02  0.51100000000E-03 0. -1.
        -11    1    3    3    0    0 -0.70622183495E+01 -0.18667760568E+01 -0.26328909014E+01  0.77647856134E+01  0.51100000000E-03 0.  1.
        -12    1    3    3    0    0 -0.21186540179E+02 -0.11337084774E+02  0.14071105171E+02  0.27845914901E+02  0.00000000000E+00 0.  1.
</event>
<event>
 7    1  0.5467297E-010  0.4778727E+02  0.7816164E-02  0.1312668E+00
        -11   -1    0    0    0    0  0.00000000000E+00  0.00000000000E+00  0.45593999997E+02  0.45594000000E+02  0.51100000000E-03 0.  1.
         11   -1    0    0    0    0 -0.00000000000E+00 -0.00000000000E+00 -0.45593999997E+02  0.45594000000E+02  0.51100000000E-03 0. -1.
    9900012    2    1    2    0    0  0.42130025754E+02 -0.94985365712E+01 -0.42967618297E+01  0.47787269254E+02  0.19999991838E+02 0.  0.
         12    1    1    2    0    0 -0.42130025754E+02  0.94985365712E+01  0.42967618297E+01  0.43400730746E+02  0.00000000000E+00 0. -1.
         11    1    3    3    0    0  0.24743842478E+02 -0.49167617081E+01 -0.38630092249E+01  0.25521659954E+02  0.51100000000E-03 0. -1.
        -11    1    3    3    0    0  0.57283674719E+01 -0.77734594206E+01  0.21805596871E+01  0.98992780578E+01  0.51100000000E-03 0.  1.
        -12    1    3    3    0    0  0.11657815804E+02  0.31916845575E+01 -0.26143122918E+01  0.12366331242E+02  0.00000000000E+00 0.  1.
</event>
<event>
 7    1  0.5467297E-010  0.4778727E+02  0.7816164E-02  0.1312668E+00
        -11   -1    0    0    0    0  0.00000000000E+00  0.00000000000E+00  0.45593999997E+02  0.45594000000E+02  0.51100000000E-03 0.  1.
         11   -1    0    0    0    0 -0.00000000000E+00 -0.00000000000E+00 -0.45593999997E+02  0.45594000000E+02  0.51100000000E-03 0. -1.
    9900012    2    1    2    0    0  0.38111445683E+02 -0.20207894756E+02  0.47730432142E+01  0.47787271388E+02  0.20000001567E+02 0.  0.
         12    1    1    2    0    0 -0.38111445683E+02  0.20207894756E+02 -0.47730432142E+01  0.43400728612E+02  0.00000000000E+00 0. -1.
         11    1    3    3    0    0  0.15334602999E+02 -0.14868698892E+02  0.54569810126E+00  0.21366470054E+02  0.51100000000E-03 0. -1.
        -11    1    3    3    0    0  0.23514041179E+02 -0.57010203111E+01  0.55873990543E+01  0.24832051740E+02  0.51100000000E-03 0.  1.
         12    1    3    3    0    0 -0.73719849464E+00  0.36182444726E+00 -0.13600539413E+01  0.15887495946E+01  0.00000000000E+00 0. -1.
</event>
<event>
 7    1  0.5467297E-010  0.4778727E+02  0.7816164E-02  0.1312668E+00
        -11   -1    0    0    0    0  0.00000000000E+00  0.00000000000E+00  0.45593999997E+02  0.45594000000E+02  0.51100000000E-03 0.  1.
         11   -1    0    0    0    0 -0.00000000000E+00 -0.00000000000E+00 -0.45593999997E+02  0.45594000000E+02  0.51100000000E-03 0. -1.
    9900012    2    1    2    0    0 -0.29889172164E+02  0.30573759892E+02  0.74502284940E+01  0.47787270614E+02  0.19999998038E+02 0.  0.
         12    1    1    2    0    0  0.29889172164E+02 -0.30573759892E+02 -0.74502284940E+01  0.43400729386E+02  0.00000000000E+00 0. -1.
         11    1    3    3    0    0 -0.13118184663E+02  0.15826293182E+02 -0.43674916848E+01  0.21015073367E+02  0.51100000000E-03 0. -1.
        -11    1    3    3    0    0 -0.14041517290E+02  0.77247047423E+01  0.55130333607E+01  0.16947826063E+02  0.51100000000E-03 0.  1.
         12    1    3    3    0    0 -0.27294702108E+01  0.70227619682E+01  0.63046868182E+01  0.98243711844E+01  0.00000000000E+00 0. -1.
</event>
<event>
 7    1  0.5467297E-010  0.4778727E+02  0.7816164E-02  0.1312668E+00
        -11   -1    0    0    0    0  0.00000000000E+00  0.00000000000E+00  0.45593999997E+02  0.45594000000E+02  0.51100000000E-03 0.  1.
         11   -1    0    0    0    0 -0.00000000000E+00 -0.00000000000E+00 -0.45593999997E+02  0.45594000000E+02  0.51100000000E-03 0. -1.
    9900012    2    1    2    0    0 -0.15872654567E+02 -0.49822447119E+01  0.40085654320E+02  0.47787267200E+02  0.19999982471E+02 0.  0.
         12    1    1    2    0    0  0.15872654567E+02  0.49822447119E+01 -0.40085654320E+02  0.43400732800E+02  0.00000000000E+00 0. -1.
         11    1    3    3    0    0 -0.47708694371E+00  0.29304712780E+01  0.22964740198E+01  0.37535406016E+01  0.51100000000E-03 0. -1.
        -11    1    3    3    0    0  0.88367966046E+00 -0.54707362737E+01  0.14425696523E+02  0.15453496871E+02  0.51100000000E-03 0.  1.
        -12    1    3    3    0    0 -0.16279247283E+02 -0.24419797162E+01  0.23363483777E+02  0.28580229727E+02  0.00000000000E+00 0.  1.
</event>
<event>
 7    1  0.5467297E-010  0.4778727E+02  0.7816164E-02  0.1312668E+00
        -11   -1    0    0    0    0  0.00000000000E+00  0.00000000000E+00  0.45593999997E+02  0.45594000000E+02  0.51100000000E-03 0.  1.
         11   -1    0    0    0    0 -0.00000000000E+00 -0.00000000000E+00 -0.45593999997E+02  0.45594000000E+02  0.51100000000E-03 0. -1.
    9900012    2    1    2    0    0  0.26065957097E+02  0.18717223148E+02  0.29220792341E+02  0.47787271126E+02  0.20000000372E+02 0.  0.
         12    1    1    2    0    0 -0.26065957097E+02 -0.18717223148E+02 -0.29220792341E+02  0.43400728874E+02  0.00000000000E+00 0. -1.
         11    1    3    3    0    0  0.90440152327E+01  0.37581147584E+01  0.18203769210E+00  0.97954466998E+01  0.51100000000E-03 0. -1.
        -11    1    3    3    0    0  0.59094281259E+01  0.30881820120E+01  0.15353246129E+02  0.16738589423E+02  0.51100000000E-03 0.  1.
        -12    1    3    3    0    0  0.11112513739E+02  0.11870926377E+02  0.13685508520E+02  0.21253235003E+02  0.00000000000E+00 0.  1.
</event>
<event>
 7    1  0.5467297E-010  0.4778726E+02  0.7816164E-02  0.1312668E+00
        -11   -1    0    0    0    0  0.00000000000E+00  0.00000000000E+00  0.45593999997E+02  0.45594000000E+02  0.51100000000E-03 0. -1.
         11   -1    0    0    0    0 -0.00000000000E+00 -0.00000000000E+00 -0.45593999997E+02  0.45594000000E+02  0.51100000000E-03 0.  1.
    9900012    2    1    2    0    0  0.86282367680E+01  0.35317843260E+02 -0.23702902868E+02  0.47787261220E+02  0.19999955207E+02 0.  0.
         12    1    1    2    0    0 -0.86282367680E+01 -0.35317843260E+02  0.23702902868E+02  0.43400738780E+02  0.00000000000E+00 0. -1.
         11    1    3    3    0    0  0.83530877569E+01  0.21193690900E+02 -0.40511955267E+01  0.23137821732E+02  0.51100000000E-03 0. -1.
        -11    1    3    3    0    0  0.33672218950E+00  0.17688836330E+01 -0.58710918886E+01  0.61410138712E+01  0.51100000000E-03 0.  1.
         12    1    3    3    0    0 -0.61573178432E-01  0.12355268727E+02 -0.13780615453E+02  0.18508425617E+02  0.00000000000E+00 0. -1.
</event>
<event>
 7    1  0.5467297E-010  0.4778727E+02  0.7816164E-02  0.1312668E+00
        -11   -1    0    0    0    0  0.00000000000E+00  0.00000000000E+00  0.45593999997E+02  0.45594000000E+02  0.51100000000E-03 0.  1.
         11   -1    0    0    0    0 -0.00000000000E+00 -0.00000000000E+00 -0.45593999997E+02  0.45594000000E+02  0.51100000000E-03 0. -1.
    9900012    2    1    2    0    0 -0.12077733638E+02  0.33358969827E+02  0.24998613074E+02  0.47787272202E+02  0.20000005279E+02 0.  0.
         12    1    1    2    0    0  0.12077733638E+02 -0.33358969827E+02 -0.24998613074E+02  0.43400727798E+02  0.00000000000E+00 0. -1.
         11    1    3    3    0    0 -0.47968587267E+01  0.47926303933E+01  0.95283821069E+01  0.11694837561E+02  0.51100000000E-03 0. -1.
        -11    1    3    3    0    0  0.35602630075E+01  0.86816649904E+01  0.15553876960E+01  0.95113621966E+01  0.51100000000E-03 0.  1.
        -12    1    3    3    0    0 -0.10841137918E+02  0.19884674443E+02  0.13914843271E+02  0.26581072445E+02  0.00000000000E+00 0.  1.
</event>
<event>
 7    1  0.5467297E-010  0.4778727E+02  0.7816164E-02  0.1312668E+00
        -11   -1    0    0    0    0  0.00000000000E+00  0.00000000000E+00  0.45593999997E+02  0.45594000000E+02  0.51100000000E-03 0.  1.
         11   -1    0    0    0    0 -0.00000000000E+00 -0.00000000000E+00 -0.45593999997E+02  0.45594000000E+02  0.51100000000E-03 0. -1.
    9900012    2    1    2    0    0 -0.12447505310E+02  0.13772892322E+02  0.39229969257E+02  0.47787269139E+02  0.19999991311E+02 0.  0.
         12    1    1    2    0    0  0.12447505310E+02 -0.13772892322E+02 -0.39229969257E+02  0.43400730861E+02  0.00000000000E+00 0. -1.
         11    1    3    3    0    0  0.86065124858E+00  0.60735635482E+01  0.25408288254E+01  0.66396314752E+01  0.51100000000E-03 0. -1.
        -11    1    3    3    0    0 -0.14103661964E+02  0.37507914995E+01  0.29213435195E+02  0.32655880234E+02  0.51100000000E-03 0.  1.
        -12    1    3    3    0    0  0.79550540580E+00  0.39485372748E+01  0.74757052363E+01  0.84917574295E+01  0.00000000000E+00 0.  1.
</event>
<event>
 7    1  0.5467297E-010  0.4778727E+02  0.7816164E-02  0.1312668E+00
        -11   -1    0    0    0    0  0.00000000000E+00  0.00000000000E+00  0.45593999997E+02  0.45594000000E+02  0.51100000000E-03 0.  1.
         11   -1    0    0    0    0 -0.00000000000E+00 -0.00000000000E+00 -0.45593999997E+02  0.45594000000E+02  0.51100000000E-03 0. -1.
    9900012    2    1    2    0    0 -0.10347103254E+02  0.37608684889E+02  0.19030165875E+02  0.47787274913E+02  0.20000017638E+02 0.  0.
         12    1    1    2    0    0  0.10347103254E+02 -0.37608684889E+02 -0.19030165875E+02  0.43400725087E+02  0.00000000000E+00 0. -1.
         11    1    3    3    0    0  0.27238936835E+01  0.45697490747E-01  0.24712240485E+01  0.36781290922E+01  0.51100000000E-03 0. -1.
        -11    1    3    3    0    0 -0.74208104398E+01  0.31198380513E+02  0.10822912053E+02  0.33845868282E+02  0.51100000000E-03 0.  1.
        -12    1    3    3    0    0 -0.56501864977E+01  0.63646068851E+01  0.57360297739E+01  0.10263277538E+02  0.00000000000E+00 0.  1.
</event>
<event>
 7    1  0.5467297E-010  0.4778727E+02  0.7816164E-02  0.1312668E+00
        -11   -1    0    0    0    0  0.00000000000E+00  0.00000000000E+00  0.45593999997E+02  0.45594000000E+02  0.51100000000E-03 0.  1.
         11   -1    0    0    0    0 -0.00000000000E+00 -0.00000000000E+00 -0.45593999997E+02  0.45594000000E+02  0.51100000000E-03 0. -1.
    9900012    2    1    2    0    0  0.32128763377E+02 -0.36805574566E+01  0.28945107932E+02  0.47787271751E+02  0.20000003221E+02 0.  0.
         12    1    1    2    0    0 -0.32128763377E+02  0.36805574566E+01 -0.28945107932E+02  0.43400728249E+02  0.00000000000E+00 0. -1.
         11    1    3    3    0    0  0.24668383325E+02  0.34516626146E+01  0.27490469103E+02  0.37096751912E+02  0.51100000000E-03 0.  1.
        -11    1    3    3    0    0  0.51867184086E+01 -0.36981583074E+01  0.15575727913E+00  0.63720234862E+01  0.51100000000E-03 0. -1.
        -12    1    3    3    0    0  0.22736616438E+01 -0.34340617637E+01  0.12988815503E+01  0.43184963528E+01  0.00000000000E+00 0.  1.
</event>
<event>
 7    1  0.5467297E-010  0.4778727E+02  0.7816164E-02  0.1312668E+00
        -11   -1    0    0    0    0  0.00000000000E+00  0.00000000000E+00  0.45593999997E+02  0.45594000000E+02  0.51100000000E-03 0. -1.
         11   -1    0    0    0    0 -0.00000000000E+00 -0.00000000000E+00 -0.45593999997E+02  0.45594000000E+02  0.51100000000E-03 0.  1.
    9900012    2    1    2    0    0 -0.25816198054E+02  0.30845518676E+02 -0.16300334238E+02  0.47787274193E+02  0.20000014355E+02 0.  0.
         12    1    1    2    0    0  0.25816198054E+02 -0.30845518676E+02  0.16300334238E+02  0.43400725807E+02  0.00000000000E+00 0. -1.
         11    1    3    3    0    0 -0.11881016353E+02  0.32329556594E+01 -0.61675152293E+01  0.13771303360E+02  0.51100000000E-03 0. -1.
        -11    1    3    3    0    0 -0.82518194088E+01  0.65653305224E+01 -0.19146503428E+01  0.10717367896E+02  0.51100000000E-03 0.  1.
         12    1    3    3    0    0 -0.56833622927E+01  0.21047232494E+02 -0.82181686657E+01  0.23298602937E+02  0.00000000000E+00 0. -1.
</event>
<event>
 7    1  0.5467297E-010  0.4778727E+02  0.7816164E-02  0.1312668E+00
        -11   -1    0    0    0    0  0.00000000000E+00  0.00000000000E+00  0.45593999997E+02  0.45594000000E+02  0.51100000000E-03 0.  1.
         11   -1    0    0    0    0 -0.00000000000E+00 -0.00000000000E+00 -0.45593999997E+02  0.45594000000E+02  0.51100000000E-03 0. -1.
    9900012    2    1    2    0    0 -0.50027016552E+01 -0.54306418623E+01  0.42768029882E+02  0.47787271033E+02  0.19999999949E+02 0.  0.
         12    1    1    2    0    0  0.50027016552E+01  0.54306418623E+01 -0.42768029882E+02  0.43400728967E+02  0.00000000000E+00 0. -1.
         11    1    3    3    0    0 -0.37181482124E+01 -0.18574264701E+01  0.60328614567E+00  0.41998349558E+01  0.51100000000E-03 0. -1.
        -11    1    3    3    0    0  0.44284024170E+00 -0.80342753346E+00  0.39097290149E+02  0.39108051607E+02  0.51100000000E-03 0.  1.
        -12    1    3    3    0    0 -0.17273936846E+01 -0.27697878587E+01  0.30674535873E+01  0.44793844705E+01  0.00000000000E+00 0.  1.
</event>
<event>
 7    1  0.5467297E-010  0.4778727E+02  0.7816164E-02  0.1312668E+00
        -11   -1    0    0    0    0  0.00000000000E+00  0.00000000000E+00  0.45593999997E+02  0.45594000000E+02  0.51100000000E-03 0.  1.
         11   -1    0    0    0    0 -0.00000000000E+00 -0.00000000000E+00 -0.45593999997E+02  0.45594000000E+02  0.51100000000E-03 0. -1.
    9900012    2    1    2    0    0  0.29204005587E+02 -0.32068892048E+02  0.15282427857E+01  0.47787270680E+02  0.19999998339E+02 0.  0.
         12    1    1    2    0    0 -0.29204005587E+02  0.32068892048E+02 -0.15282427857E+01  0.43400729320E+02  0.00000000000E+00 0. -1.
         11    1    3    3    0    0  0.15738376711E+02 -0.96129496113E+01 -0.15037598614E+01  0.18503150967E+02  0.51100000000E-03 0. -1.
        -11    1    3    3    0    0  0.59155881627E+01 -0.16499740667E+02  0.70090531984E+01  0.18877564790E+02  0.51100000000E-03 0.  1.
        -12    1    3    3    0    0  0.75500407137E+01 -0.59562017695E+01 -0.39770505513E+01  0.10406554924E+02  0.00000000000E+00 0.  1.
</event>
<event>
 7    1  0.5467297E-010  0.4778726E+02  0.7816164E-02  0.1312668E+00
        -11   -1    0    0    0    0  0.00000000000E+00  0.00000000000E+00  0.45593999997E+02  0.45594000000E+02  0.51100000000E-03 0.  1.
         11   -1    0    0    0    0 -0.00000000000E+00 -0.00000000000E+00 -0.45593999997E+02  0.45594000000E+02  0.51100000000E-03 0. -1.
    9900012    2    1    2    0    0  0.21124444212E+02  0.32696675825E+02  0.19191384960E+02  0.47787262564E+02  0.19999961334E+02 0.  0.
         12    1    1    2    0    0 -0.21124444212E+02 -0.32696675825E+02 -0.19191384960E+02  0.43400737436E+02  0.00000000000E+00 0. -1.
         11    1    3    3    0    0  0.70141343346E+00  0.42282471506E+01  0.24187076757E+01  0.49214024274E+01  0.51100000000E-03 0. -1.
        -11    1    3    3    0    0  0.61197750721E+01  0.15789158715E+02 -0.72925625681E+00  0.16949365617E+02  0.51100000000E-03 0.  1.
        -12    1    3    3    0    0  0.14303255707E+02  0.12679269960E+02  0.17501933541E+02  0.25916494520E+02  0.00000000000E+00 0.  1.
</event>
<event>
 7    1  0.5467297E-010  0.4778727E+02  0.7816164E-02  0.1312668E+00
        -11   -1    0    0    0    0  0.00000000000E+00  0.00000000000E+00  0.45593999997E+02  0.45594000000E+02  0.51100000000E-03 0.  1.
         11   -1    0    0    0    0 -0.00000000000E+00 -0.00000000000E+00 -0.45593999997E+02  0.45594000000E+02  0.51100000000E-03 0. -1.
    9900012    2    1    2    0    0 -0.13522968417E+02 -0.21678961853E+02  0.35082402445E+02  0.47787273933E+02  0.20000013168E+02 0.  0.
         12    1    1    2    0    0  0.13522968417E+02  0.21678961853E+02 -0.35082402445E+02  0.43400726067E+02  0.00000000000E+00 0. -1.
         11    1    3    3    0    0 -0.19784897045E+01 -0.72715922614E+01  0.91173160145E+01  0.11828606304E+02  0.51100000000E-03 0. -1.
        -11    1    3    3    0    0 -0.88397450678E+01 -0.12833713034E+02  0.28126869006E+02  0.32155342378E+02  0.51100000000E-03 0.  1.
        -12    1    3    3    0    0 -0.27047336451E+01 -0.15736565583E+01 -0.21617825758E+01  0.38033252503E+01  0.00000000000E+00 0.  1.
</event>
<event>
 7    1  0.5467297E-010  0.4778727E+02  0.7816164E-02  0.1312668E+00
        -11   -1    0    0    0    0  0.00000000000E+00  0.00000000000E+00  0.45593999997E+02  0.45594000000E+02  0.51100000000E-03 0.  1.
         11   -1    0    0    0    0 -0.00000000000E+00 -0.00000000000E+00 -0.45593999997E+02  0.45594000000E+02  0.51100000000E-03 0. -1.
    9900012    2    1    2    0    0  0.38497048953E+02  0.17191193364E+02  0.10298709996E+02  0.47787270340E+02  0.19999996789E+02 0.  0.
         12    1    1    2    0    0 -0.38497048953E+02 -0.17191193364E+02 -0.10298709996E+02  0.43400729660E+02  0.00000000000E+00 0. -1.
         11    1    3    3    0    0  0.44187213656E+01 -0.48925007184E+00  0.65901742973E+01  0.79495195873E+01  0.51100000000E-03 0. -1.
        -11    1    3    3    0    0  0.25361701879E+02  0.85581844117E+01  0.47211938524E+01  0.27179921160E+02  0.51100000000E-03 0.  1.
         12    1    3    3    0    0  0.87166257086E+01  0.91222590246E+01 -0.10126581537E+01  0.12657829592E+02  0.00000000000E+00 0. -1.
</event>
<event>
 7    1  0.5467297E-010  0.4778727E+02  0.7816164E-02  0.1312668E+00
        -11   -1    0    0    0    0  0.00000000000E+00  0.00000000000E+00  0.45593999997E+02  0.45594000000E+02  0.51100000000E-03 0.  1.
         11   -1    0    0    0    0 -0.00000000000E+00 -0.00000000000E+00 -0.45593999997E+02  0.45594000000E+02  0.51100000000E-03 0. -1.
    9900012    2    1    2    0    0 -0.10013074339E+02 -0.30821911400E+02  0.28868171496E+02  0.47787271831E+02  0.20000003587E+02 0.  0.
         12    1    1    2    0    0  0.10013074339E+02  0.30821911400E+02 -0.28868171496E+02  0.43400728169E+02  0.00000000000E+00 0. -1.
         11    1    3    3    0    0 -0.39057180029E+00 -0.16470176792E+02  0.21862220398E+02  0.27374731979E+02  0.51100000000E-03 0.  1.
        -11    1    3    3    0    0  0.90369263170E+00 -0.49356099045E+01  0.23588342140E+01  0.55444571071E+01  0.51100000000E-03 0. -1.
         12    1    3    3    0    0 -0.10526195171E+02 -0.94161247031E+01  0.46471168841E+01  0.14868082746E+02  0.00000000000E+00 0. -1.
</event>
<event>
 7    1  0.5467297E-010  0.4778727E+02  0.7816164E-02  0.1312668E+00
        -11   -1    0    0    0    0  0.00000000000E+00  0.00000000000E+00  0.45593999997E+02  0.45594000000E+02  0.51100000000E-03 0.  1.
         11   -1    0    0    0    0 -0.00000000000E+00 -0.00000000000E+00 -0.45593999997E+02  0.45594000000E+02  0.51100000000E-03 0. -1.
    9900012    2    1    2    0    0  0.40966183170E+02  0.78851623393E+01  0.11967415965E+02  0.47787274274E+02  0.20000014726E+02 0.  0.
         12    1    1    2    0    0 -0.40966183170E+02 -0.78851623393E+01 -0.11967415965E+02  0.43400725726E+02  0.00000000000E+00 0. -1.
         11    1    3    3    0    0  0.27311711272E+02 -0.21816494098E+00  0.48937359656E+01  0.27747537197E+02  0.51100000000E-03 0. -1.
        -11    1    3    3    0    0  0.90231951093E+01  0.63318281589E+00  0.66745528570E+01  0.11241380100E+02  0.51100000000E-03 0.  1.
         12    1    3    3    0    0  0.46312767883E+01  0.74701444644E+01  0.39912714271E+00  0.87983569764E+01  0.00000000000E+00 0. -1.
</event>
<event>
 7    1  0.5467297E-010  0.4778726E+02  0.7816164E-02  0.1312668E+00
        -11   -1    0    0    0    0  0.00000000000E+00  0.00000000000E+00  0.45593999997E+02  0.45594000000E+02  0.51100000000E-03 0. -1.
         11   -1    0    0    0    0 -0.00000000000E+00 -0.00000000000E+00 -0.45593999997E+02  0.45594000000E+02  0.51100000000E-03 0.  1.
    9900012    2    1    2    0    0 -0.84573852914E+01 -0.15370759294E+02 -0.39696806281E+02  0.47787262263E+02  0.19999959961E+02 0.  0.
         12    1    1    2    0    0  0.84573852914E+01  0.15370759294E+02  0.39696806281E+02  0.43400737737E+02  0.00000000000E+00 0. -1.
         11    1    3    3    0    0 -0.17981091717E+01 -0.12353619630E+02 -0.14293196205E+02  0.18977370012E+02  0.51100000000E-03 0. -1.
        -11    1    3    3    0    0 -0.60377799126E+01  0.23345314008E+01 -0.65800423845E+01  0.92304810913E+01  0.51100000000E-03 0.  1.
         12    1    3    3    0    0 -0.62149620711E+00 -0.53516710649E+01 -0.18823567691E+02  0.19579411160E+02  0.00000000000E+00 0. -1.
</event>
<event>
 7    1  0.5467297E-010  0.4778726E+02  0.7816164E-02  0.1312668E+00
        -11   -1    0    0    0    0  0.00000000000E+00  0.00000000000E+00  0.45593999997E+02  0.45594000000E+02  0.51100000000E-03 0. -1.
         11   -1    0    0    0    0 -0.00000000000E+00 -0.00000000000E+00 -0.45593999997E+02  0.45594000000E+02  0.51100000000E-03 0.  1.
    9900012    2    1    2    0    0  0.77523842380E+01  0.55527265639E+01 -0.42340195657E+02  0.47787258048E+02  0.19999940746E+02 0.  0.
         12    1    1    2    0    0 -0.77523842380E+01 -0.55527265639E+01  0.42340195657E+02  0.43400741952E+02  0.00000000000E+00 0. -1.
         11    1    3    3    0    0 -0.11040683871E+01 -0.28414652326E+01 -0.47374875969E+00  0.30850169885E+01  0.51100000000E-03 0. -1.
        -11    1    3    3    0    0  0.63936247257E+00  0.54998888556E+01 -0.26178335352E+02  0.26757481269E+02  0.51100000000E-03 0.  1.
         12    1    3    3    0    0  0.82170901525E+01  0.28943029409E+01 -0.15688111545E+02  0.17944759791E+02  0.00000000000E+00 0. -1.
</event>
<event>
 7    1  0.5467297E-010  0.4778727E+02  0.7816164E-02  0.1312668E+00
        -11   -1    0    0    0    0  0.00000000000E+00  0.00000000000E+00  0.45593999997E+02  0.45594000000E+02  0.51100000000E-03 0.  1.
         11   -1    0    0    0    0 -0.00000000000E+00 -0.00000000000E+00 -0.45593999997E+02  0.45594000000E+02  0.51100000000E-03 0. -1.
    9900012    2    1    2    0    0 -0.51147948930E+01 -0.23252231714E+02  0.36287683293E+02  0.47787269992E+02  0.19999995201E+02 0.  0.
         12    1    1    2    0    0  0.51147948930E+01  0.23252231714E+02 -0.36287683293E+02  0.43400730008E+02  0.00000000000E+00 0. -1.
         11    1    3    3    0    0 -0.37056180961E+01 -0.56327795580E+01 -0.18394464936E+00  0.67448978434E+01  0.51100000000E-03 0. -1.
        -11    1    3    3    0    0  0.25301009415E+01 -0.85760077709E+01  0.18217792683E+02  0.20293774675E+02  0.51100000000E-03 0.  1.
         12    1    3    3    0    0 -0.39392777384E+01 -0.90434443853E+01  0.18253835259E+02  0.20748597473E+02  0.00000000000E+00 0. -1.
</event>
<event>
 7    1  0.5467297E-010  0.4778726E+02  0.7816164E-02  0.1312668E+00
        -11   -1    0    0    0    0  0.00000000000E+00  0.00000000000E+00  0.45593999997E+02  0.45594000000E+02  0.51100000000E-03 0.  1.
         11   -1    0    0    0    0 -0.00000000000E+00 -0.00000000000E+00 -0.45593999997E+02  0.45594000000E+02  0.51100000000E-03 0. -1.
    9900012    2    1    2    0    0 -0.18784066366E+02  0.22286269479E+02  0.32157502791E+02  0.47787263344E+02  0.19999964892E+02 0.  0.
         12    1    1    2    0    0  0.18784066366E+02 -0.22286269479E+02 -0.32157502791E+02  0.43400736656E+02  0.00000000000E+00 0. -1.
         11    1    3    3    0    0 -0.23249924694E+01 -0.10587471903E+00  0.49396121784E+00  0.23792430277E+01  0.51100000000E-03 0. -1.
        -11    1    3    3    0    0 -0.13795176272E+02  0.22039920372E+02  0.33310018182E+02  0.42256624214E+02  0.51100000000E-03 0.  1.
        -12    1    3    3    0    0 -0.26638976237E+01  0.35222382610E+00 -0.16464766090E+01  0.31513961029E+01  0.00000000000E+00 0.  1.
</event>
<event>
 7    1  0.5467297E-010  0.4778727E+02  0.7816164E-02  0.1312668E+00
        -11   -1    0    0    0    0  0.00000000000E+00  0.00000000000E+00  0.45593999997E+02  0.45594000000E+02  0.51100000000E-03 0.  1.
         11   -1    0    0    0    0 -0.00000000000E+00 -0.00000000000E+00 -0.45593999997E+02  0.45594000000E+02  0.51100000000E-03 0. -1.
    9900012    2    1    2    0    0  0.21113673197E+01  0.24901502331E+02  0.35483528368E+02  0.47787268718E+02  0.19999989395E+02 0.  0.
         12    1    1    2    0    0 -0.21113673197E+01 -0.24901502331E+02 -0.35483528368E+02  0.43400731282E+02  0.00000000000E+00 0. -1.
         11    1    3    3    0    0  0.34159218233E+01 -0.78624296434E+00  0.16828182988E+01  0.38882615125E+01  0.51100000000E-03 0. -1.
        -11    1    3    3    0    0 -0.39507453726E+01  0.20376746040E+02  0.31074368079E+02  0.37368924522E+02  0.51100000000E-03 0.  1.
        -12    1    3    3    0    0  0.26461908690E+01  0.53109992556E+01  0.27263419904E+01  0.65300826837E+01  0.00000000000E+00 0.  1.
</event>
<event>
 7    1  0.5467297E-010  0.4778730E+02  0.7816164E-02  0.1312668E+00
        -11   -1    0    0    0    0  0.00000000000E+00  0.00000000000E+00  0.45593999997E+02  0.45594000000E+02  0.51100000000E-03 0. -1.
         11   -1    0    0    0    0 -0.00000000000E+00 -0.00000000000E+00 -0.45593999997E+02  0.45594000000E+02  0.51100000000E-03 0.  1.
    9900012    2    1    2    0    0 -0.15305106537E+02 -0.27135363109E+02 -0.30216653713E+02  0.47787304397E+02  0.20000152069E+02 0.  0.
         12    1    1    2    0    0  0.15305106537E+02  0.27135363109E+02  0.30216653713E+02  0.43400695603E+02  0.00000000000E+00 0. -1.
         11    1    3    3    0    0 -0.12761514352E+02 -0.14358123725E+02 -0.21727906218E+02  0.29001963284E+02  0.51100000000E-03 0. -1.
        -11    1    3    3    0    0  0.11108602140E+01 -0.12939235781E+02 -0.74962344092E+01  0.14995044635E+02  0.51100000000E-03 0.  1.
         12    1    3    3    0    0 -0.36544523990E+01  0.16199639686E+00 -0.99251308565E+00  0.37902964785E+01  0.00000000000E+00 0. -1.
</event>
<event>
 7    1  0.5467297E-010  0.4778728E+02  0.7816164E-02  0.1312668E+00
        -11   -1    0    0    0    0  0.00000000000E+00  0.00000000000E+00  0.45593999997E+02  0.45594000000E+02  0.51100000000E-03 0.  1.
         11   -1    0    0    0    0 -0.00000000000E+00 -0.00000000000E+00 -0.45593999997E+02  0.45594000000E+02  0.51100000000E-03 0. -1.
    9900012    2    1    2    0    0  0.33344464272E+02  0.10911918249E+02  0.25547986471E+02  0.47787275695E+02  0.20000021205E+02 0.  0.
         12    1    1    2    0    0 -0.33344464272E+02 -0.10911918249E+02 -0.25547986471E+02  0.43400724305E+02  0.00000000000E+00 0. -1.
         11    1    3    3    0    0  0.19946807955E+02  0.10784116734E+02  0.12539797636E+02  0.25911751125E+02  0.51100000000E-03 0. -1.
        -11    1    3    3    0    0  0.59816978268E+00 -0.39983525347E+01  0.40128210326E+01  0.56962586828E+01  0.51100000000E-03 0.  1.
        -12    1    3    3    0    0  0.12799486534E+02  0.41261540496E+01  0.89953678026E+01  0.16179265888E+02  0.00000000000E+00 0.  1.
</event>
<event>
 7    1  0.5467297E-010  0.4778727E+02  0.7816164E-02  0.1312668E+00
        -11   -1    0    0    0    0  0.00000000000E+00  0.00000000000E+00  0.45593999997E+02  0.45594000000E+02  0.51100000000E-03 0. -1.
         11   -1    0    0    0    0 -0.00000000000E+00 -0.00000000000E+00 -0.45593999997E+02  0.45594000000E+02  0.51100000000E-03 0.  1.
    9900012    2    1    2    0    0 -0.25212060824E+02 -0.33367536063E+02 -0.11600991398E+02  0.47787268724E+02  0.19999989420E+02 0.  0.
         12    1    1    2    0    0  0.25212060824E+02  0.33367536063E+02  0.11600991398E+02  0.43400731276E+02  0.00000000000E+00 0. -1.
         11    1    3    3    0    0  0.30157596529E+01 -0.27411783070E+01 -0.25100035599E+01  0.47863329311E+01  0.51100000000E-03 0. -1.
        -11    1    3    3    0    0 -0.20218311270E+02 -0.21829976663E+02 -0.90637279929E+01  0.31104326984E+02  0.51100000000E-03 0.  1.
        -12    1    3    3    0    0 -0.80095092064E+01 -0.87963810929E+01 -0.27259845474E-01  0.11896608809E+02  0.00000000000E+00 0.  1.
</event>
<event>
 7    1  0.5467297E-010  0.4778727E+02  0.7816164E-02  0.1312668E+00
        -11   -1    0    0    0    0  0.00000000000E+00  0.00000000000E+00  0.45593999997E+02  0.45594000000E+02  0.51100000000E-03 0.  1.
         11   -1    0    0    0    0 -0.00000000000E+00 -0.00000000000E+00 -0.45593999997E+02  0.45594000000E+02  0.51100000000E-03 0. -1.
    9900012    2    1    2    0    0 -0.17355422915E+02 -0.15303273353E+02  0.36718149507E+02  0.47787269786E+02  0.19999994263E+02 0.  0.
         12    1    1    2    0    0  0.17355422915E+02  0.15303273353E+02 -0.36718149507E+02  0.43400730214E+02  0.00000000000E+00 0. -1.
         11    1    3    3    0    0 -0.15937277824E+01  0.53452196373E+00  0.10530440865E+02  0.10663764207E+02  0.51100000000E-03 0. -1.
        -11    1    3    3    0    0 -0.12510691974E+02 -0.16979191716E+02  0.16307670985E+02  0.26659904317E+02  0.51100000000E-03 0.  1.
        -12    1    3    3    0    0 -0.32510031589E+01  0.11413963992E+01  0.98800376568E+01  0.10463601262E+02  0.00000000000E+00 0.  1.
</event>
<event>
 7    1  0.5467297E-010  0.4778727E+02  0.7816164E-02  0.1312668E+00
        -11   -1    0    0    0    0  0.00000000000E+00  0.00000000000E+00  0.45593999997E+02  0.45594000000E+02  0.51100000000E-03 0.  1.
         11   -1    0    0    0    0 -0.00000000000E+00 -0.00000000000E+00 -0.45593999997E+02  0.45594000000E+02  0.51100000000E-03 0. -1.
    9900012    2    1    2    0    0  0.61193832906E+01  0.29582777868E+02  0.31161444572E+02  0.47787271595E+02  0.20000002510E+02 0.  0.
         12    1    1    2    0    0 -0.61193832906E+01 -0.29582777868E+02 -0.31161444572E+02  0.43400728405E+02  0.00000000000E+00 0. -1.
         11    1    3    3    0    0  0.13206260604E+01  0.73808548440E+01  0.15892370316E+02  0.17572379063E+02  0.51100000000E-03 0.  1.
        -11    1    3    3    0    0  0.62029891705E+00  0.17891658750E+02  0.54633380682E+01  0.18717486121E+02  0.51100000000E-03 0. -1.
         12    1    3    3    0    0  0.41784583132E+01  0.43102642740E+01  0.98057361878E+01  0.11497406411E+02  0.00000000000E+00 0. -1.
</event>
<event>
 7    1  0.5467297E-010  0.4778727E+02  0.7816164E-02  0.1312668E+00
        -11   -1    0    0    0    0  0.00000000000E+00  0.00000000000E+00  0.45593999997E+02  0.45594000000E+02  0.51100000000E-03 0. -1.
         11   -1    0    0    0    0 -0.00000000000E+00 -0.00000000000E+00 -0.45593999997E+02  0.45594000000E+02  0.51100000000E-03 0.  1.
    9900012    2    1    2    0    0  0.74938653342E+01  0.14225708529E+02 -0.40312459470E+02  0.47787272018E+02  0.20000004439E+02 0.  0.
         12    1    1    2    0    0 -0.74938653342E+01 -0.14225708529E+02  0.40312459470E+02  0.43400727982E+02  0.00000000000E+00 0. -1.
         11    1    3    3    0    0 -0.80538582080E+00  0.99381376816E+00 -0.18419808960E+02  0.18464172728E+02  0.51100000000E-03 0. -1.
        -11    1    3    3    0    0  0.11138346631E+02  0.12105521382E+02 -0.18659377993E+02  0.24875264842E+02  0.51100000000E-03 0.  1.
         12    1    3    3    0    0 -0.28390954759E+01  0.11263733793E+01 -0.32332725167E+01  0.44478344482E+01  0.00000000000E+00 0. -1.
</event>
<event>
 7    1  0.5467297E-010  0.4778726E+02  0.7816164E-02  0.1312668E+00
        -11   -1    0    0    0    0  0.00000000000E+00  0.00000000000E+00  0.45593999997E+02  0.45594000000E+02  0.51100000000E-03 0.  1.
         11   -1    0    0    0    0 -0.00000000000E+00 -0.00000000000E+00 -0.45593999997E+02  0.45594000000E+02  0.51100000000E-03 0. -1.
    9900012    2    1    2    0    0  0.19621152955E+02 -0.36115851953E+02  0.13938414363E+02  0.47787264977E+02  0.19999972337E+02 0.  0.
         12    1    1    2    0    0 -0.19621152955E+02  0.36115851953E+02 -0.13938414363E+02  0.43400735023E+02  0.00000000000E+00 0. -1.
         11    1    3    3    0    0  0.12640721903E+02 -0.16743409062E+02 -0.23318728107E+01  0.21108463428E+02  0.51100000000E-03 0. -1.
        -11    1    3    3    0    0  0.64764951791E+01 -0.13414481060E+02  0.13441897449E+02  0.20064343977E+02  0.51100000000E-03 0.  1.
         12    1    3    3    0    0  0.50393587313E+00 -0.59579618301E+01  0.28283897248E+01  0.66144575718E+01  0.00000000000E+00 0. -1.
</event>
<event>
 7    1  0.5467297E-010  0.4778727E+02  0.7816164E-02  0.1312668E+00
        -11   -1    0    0    0    0  0.00000000000E+00  0.00000000000E+00  0.45593999997E+02  0.45594000000E+02  0.51100000000E-03 0. -1.
         11   -1    0    0    0    0 -0.00000000000E+00 -0.00000000000E+00 -0.45593999997E+02  0.45594000000E+02  0.51100000000E-03 0.  1.
    9900012    2    1    2    0    0  0.18528243954E+02  0.29013027094E+02 -0.26430513880E+02  0.47787266951E+02  0.19999981338E+02 0.  0.
         12    1    1    2    0    0 -0.18528243954E+02 -0.29013027094E+02  0.26430513880E+02  0.43400733049E+02  0.00000000000E+00 0. -1.
         11    1    3    3    0    0  0.62687520437E+01 -0.87223535922E+00 -0.10522054912E+01  0.64160099255E+01  0.51100000000E-03 0. -1.
        -11    1    3    3    0    0  0.73133946876E+01  0.15986571142E+02 -0.16742914952E+02  0.24277178586E+02  0.51100000000E-03 0.  1.
         12    1    3    3    0    0  0.49460972228E+01  0.13898691311E+02 -0.86353934367E+01  0.17094078440E+02  0.00000000000E+00 0. -1.
</event>
<event>
 7    1  0.5467297E-010  0.4778727E+02  0.7816164E-02  0.1312668E+00
        -11   -1    0    0    0    0  0.00000000000E+00  0.00000000000E+00  0.45593999997E+02  0.45594000000E+02  0.51100000000E-03 0.  1.
         11   -1    0    0    0    0 -0.00000000000E+00 -0.00000000000E+00 -0.45593999997E+02  0.45594000000E+02  0.51100000000E-03 0. -1.
    9900012    2    1    2    0    0 -0.16422913958E+01  0.88339667102E+01  0.42460420181E+02  0.47787269928E+02  0.19999994909E+02 0.  0.
         12    1    1    2    0    0  0.16422913958E+01 -0.88339667102E+01 -0.42460420181E+02  0.43400730072E+02  0.00000000000E+00 0. -1.
         11    1    3    3    0    0  0.82583431768E+01  0.17100724351E+01  0.10602591681E+02  0.13547676198E+02  0.51100000000E-03 0. -1.
        -11    1    3    3    0    0 -0.63797098732E+01  0.35560639081E+01  0.15572182473E+02  0.17199975460E+02  0.51100000000E-03 0.  1.
         12    1    3    3    0    0 -0.35209246994E+01  0.35678303671E+01  0.16285646027E+02  0.17039618269E+02  0.00000000000E+00 0. -1.
</event>
<event>
 7    1  0.5467297E-010  0.4778726E+02  0.7816164E-02  0.1312668E+00
        -11   -1    0    0    0    0  0.00000000000E+00  0.00000000000E+00  0.45593999997E+02  0.45594000000E+02  0.51100000000E-03 0.  1.
         11   -1    0    0    0    0 -0.00000000000E+00 -0.00000000000E+00 -0.45593999997E+02  0.45594000000E+02  0.51100000000E-03 0. -1.
    9900012    2    1    2    0    0 -0.19243022311E+02 -0.30820128697E+02  0.23737108763E+02  0.47787256078E+02  0.19999931764E+02 0.  0.
         12    1    1    2    0    0  0.19243022311E+02  0.30820128697E+02 -0.23737108763E+02  0.43400743922E+02  0.00000000000E+00 0. -1.
         11    1    3    3    0    0 -0.65970385985E+01 -0.71218781788E-01  0.70134521361E+01  0.96288369760E+01  0.51100000000E-03 0. -1.
        -11    1    3    3    0    0 -0.12758575050E+02 -0.27172912880E+02  0.12230986274E+02  0.32415204105E+02  0.51100000000E-03 0.  1.
        -12    1    3    3    0    0  0.11259133786E+00 -0.35759970348E+01  0.44926703529E+01  0.57432149970E+01  0.00000000000E+00 0.  1.
</event>
<event>
 7    1  0.5467297E-010  0.4778726E+02  0.7816164E-02  0.1312668E+00
        -11   -1    0    0    0    0  0.00000000000E+00  0.00000000000E+00  0.45593999997E+02  0.45594000000E+02  0.51100000000E-03 0.  1.
         11   -1    0    0    0    0 -0.00000000000E+00 -0.00000000000E+00 -0.45593999997E+02  0.45594000000E+02  0.51100000000E-03 0. -1.
    9900012    2    1    2    0    0  0.20505924165E+02 -0.19474164783E+02  0.32922453422E+02  0.47787263149E+02  0.19999964002E+02 0.  0.
         12    1    1    2    0    0 -0.20505924165E+02  0.19474164783E+02 -0.32922453422E+02  0.43400736851E+02  0.00000000000E+00 0. -1.
         11    1    3    3    0    0 -0.40231719167E+00  0.82417201258E+00 -0.15998643045E+01  0.18440945429E+01  0.51100000000E-03 0. -1.
        -11    1    3    3    0    0  0.23763633715E+01 -0.39617846797E+01  0.18364008313E+01  0.49714393284E+01  0.51100000000E-03 0.  1.
         12    1    3    3    0    0  0.18531877985E+02 -0.16336552116E+02  0.32685916896E+02  0.40971729278E+02  0.00000000000E+00 0. -1.
</event>
<event>
 7    1  0.5467297E-010  0.4778727E+02  0.7816164E-02  0.1312668E+00
        -11   -1    0    0    0    0  0.00000000000E+00  0.00000000000E+00  0.45593999997E+02  0.45594000000E+02  0.51100000000E-03 0.  1.
         11   -1    0    0    0    0 -0.00000000000E+00 -0.00000000000E+00 -0.45593999997E+02  0.45594000000E+02  0.51100000000E-03 0. -1.
    9900012    2    1    2    0    0  0.11709518390E+02  0.40441345798E+02  0.10536034379E+02  0.47787270843E+02  0.19999999082E+02 0.  0.
         12    1    1    2    0    0 -0.11709518390E+02 -0.40441345798E+02 -0.10536034379E+02  0.43400729157E+02  0.00000000000E+00 0. -1.
         11    1    3    3    0    0  0.13310412823E+02  0.29335243692E+02  0.47585121189E+01  0.32563277627E+02  0.51100000000E-03 0. -1.
        -11    1    3    3    0    0 -0.42430898158E+01  0.80694223491E+01  0.64161768035E+01  0.11148395098E+02  0.51100000000E-03 0.  1.
         12    1    3    3    0    0  0.26421953830E+01  0.30366797571E+01 -0.63865454322E+00  0.40755981174E+01  0.00000000000E+00 0. -1.
</event>
<event>
 7    1  0.5467297E-010  0.4778727E+02  0.7816164E-02  0.1312668E+00
        -11   -1    0    0    0    0  0.00000000000E+00  0.00000000000E+00  0.45593999997E+02  0.45594000000E+02  0.51100000000E-03 0. -1.
         11   -1    0    0    0    0 -0.00000000000E+00 -0.00000000000E+00 -0.45593999997E+02  0.45594000000E+02  0.51100000000E-03 0.  1.
    9900012    2    1    2    0    0 -0.32177244848E+02 -0.23046399272E+02  0.17807635072E+02  0.47787268759E+02  0.19999989578E+02 0.  0.
         12    1    1    2    0    0  0.32177244848E+02  0.23046399272E+02 -0.17807635072E+02  0.43400731241E+02  0.00000000000E+00 0. -1.
         11    1    3    3    0    0 -0.20008475930E+02 -0.11850569240E+02  0.19799631768E+02  0.30541783163E+02  0.51100000000E-03 0. -1.
        -11    1    3    3    0    0 -0.59497572556E+01 -0.82225973039E+01 -0.20385829981E+01  0.10352127256E+02  0.51100000000E-03 0.  1.
         12    1    3    3    0    0 -0.62190116627E+01 -0.29732327281E+01  0.46586301424E-01  0.68933583397E+01  0.00000000000E+00 0. -1.
</event>
<event>
 7    1  0.5467297E-010  0.4778727E+02  0.7816164E-02  0.1312668E+00
        -11   -1    0    0    0    0  0.00000000000E+00  0.00000000000E+00  0.45593999997E+02  0.45594000000E+02  0.51100000000E-03 0.  1.
         11   -1    0    0    0    0 -0.00000000000E+00 -0.00000000000E+00 -0.45593999997E+02  0.45594000000E+02  0.51100000000E-03 0. -1.
    9900012    2    1    2    0    0 -0.11690986792E+02 -0.16485867469E+01  0.41763934802E+02  0.47787271198E+02  0.20000000699E+02 0.  0.
         12    1    1    2    0    0  0.11690986792E+02  0.16485867469E+01 -0.41763934802E+02  0.43400728802E+02  0.00000000000E+00 0. -1.
         11    1    3    3    0    0  0.47369726643E+01 -0.16986425797E+01  0.69755863185E+01  0.86013429988E+01  0.51100000000E-03 0. -1.
        -11    1    3    3    0    0 -0.74442963885E+01 -0.26456632590E+01  0.21623507807E+02  0.23021580592E+02  0.51100000000E-03 0.  1.
         12    1    3    3    0    0 -0.89836630674E+01  0.26957190918E+01  0.13164840676E+02  0.16164347607E+02  0.00000000000E+00 0. -1.
</event>
<event>
 7    1  0.5467297E-010  0.4778727E+02  0.7816164E-02  0.1312668E+00
        -11   -1    0    0    0    0  0.00000000000E+00  0.00000000000E+00  0.45593999997E+02  0.45594000000E+02  0.51100000000E-03 0.  1.
         11   -1    0    0    0    0 -0.00000000000E+00 -0.00000000000E+00 -0.45593999997E+02  0.45594000000E+02  0.51100000000E-03 0. -1.
    9900012    2    1    2    0    0 -0.19493070572E+02  0.36567896994E+02  0.12900875826E+02  0.47787268578E+02  0.19999988755E+02 0.  0.
         12    1    1    2    0    0  0.19493070572E+02 -0.36567896994E+02 -0.12900875826E+02  0.43400731422E+02  0.00000000000E+00 0. -1.
         11    1    3    3    0    0 -0.11274905376E+02  0.81751333229E+01 -0.14147328389E+01  0.13998491538E+02  0.51100000000E-03 0. -1.
        -11    1    3    3    0    0 -0.73748554848E+01  0.13186459309E+02  0.93604376655E+01  0.17773266331E+02  0.51100000000E-03 0.  1.
         12    1    3    3    0    0 -0.84330971156E+00  0.15206304362E+02  0.49551709993E+01  0.16015510708E+02  0.00000000000E+00 0. -1.
</event>
<event>
 7    1  0.5467297E-010  0.4778727E+02  0.7816164E-02  0.1312668E+00
        -11   -1    0    0    0    0  0.00000000000E+00  0.00000000000E+00  0.45593999997E+02  0.45594000000E+02  0.51100000000E-03 0.  1.
         11   -1    0    0    0    0 -0.00000000000E+00 -0.00000000000E+00 -0.45593999997E+02  0.45594000000E+02  0.51100000000E-03 0. -1.
    9900012    2    1    2    0    0 -0.35002356829E+02 -0.18086278805E+02  0.18202886535E+02  0.47787267946E+02  0.19999985874E+02 0.  0.
         12    1    1    2    0    0  0.35002356829E+02  0.18086278805E+02 -0.18202886535E+02  0.43400732054E+02  0.00000000000E+00 0. -1.
         11    1    3    3    0    0 -0.28112759231E+02 -0.19522325930E+02  0.10018260795E+02  0.35662501187E+02  0.51100000000E-03 0. -1.
        -11    1    3    3    0    0 -0.77400603212E+01  0.94217186798E+00  0.64013662215E+01  0.10088295761E+02  0.51100000000E-03 0.  1.
         12    1    3    3    0    0  0.85046272344E+00  0.49387525748E+00  0.17832595185E+01  0.20364709976E+01  0.00000000000E+00 0. -1.
</event>
<event>
 7    1  0.5467297E-010  0.4778726E+02  0.7816164E-02  0.1312668E+00
        -11   -1    0    0    0    0  0.00000000000E+00  0.00000000000E+00  0.45593999997E+02  0.45594000000E+02  0.51100000000E-03 0.  1.
         11   -1    0    0    0    0 -0.00000000000E+00 -0.00000000000E+00 -0.45593999997E+02  0.45594000000E+02  0.51100000000E-03 0. -1.
    9900012    2    1    2    0    0  0.12624922196E+02  0.20762468721E+02  0.35960471530E+02  0.47787259448E+02  0.19999947126E+02 0.  0.
         12    1    1    2    0    0 -0.12624922196E+02 -0.20762468721E+02 -0.35960471530E+02  0.43400740552E+02  0.00000000000E+00 0. -1.
         11    1    3    3    0    0 -0.28005580782E+01  0.19488442155E+01 -0.18888483305E+00  0.34171328723E+01  0.51100000000E-03 0. -1.
        -11    1    3    3    0    0  0.15814387394E+02  0.15829117113E+02  0.33875081093E+02  0.40597745215E+02  0.51100000000E-03 0.  1.
        -12    1    3    3    0    0 -0.38890711976E+00  0.29845073928E+01  0.22742752697E+01  0.37723813603E+01  0.00000000000E+00 0.  1.
</event>
<event>
 7    1  0.5467297E-010  0.4778732E+02  0.7816164E-02  0.1312668E+00
        -11   -1    0    0    0    0  0.00000000000E+00  0.00000000000E+00  0.45593999997E+02  0.45594000000E+02  0.51100000000E-03 0.  1.
         11   -1    0    0    0    0 -0.00000000000E+00 -0.00000000000E+00 -0.45593999997E+02  0.45594000000E+02  0.51100000000E-03 0. -1.
    9900012    2    1    2    0    0  0.42602299965E+02 -0.36695244517E+01  0.74295302465E+01  0.47787316921E+02  0.20000209168E+02 0.  0.
         12    1    1    2    0    0 -0.42602299965E+02  0.36695244517E+01 -0.74295302465E+01  0.43400683079E+02  0.00000000000E+00 0. -1.
         11    1    3    3    0    0  0.20010939043E+02  0.21605117065E+01  0.73457736707E+01  0.21425822815E+02  0.51100000000E-03 0. -1.
        -11    1    3    3    0    0  0.19027712854E+02 -0.44598940055E+01  0.49652186346E+01  0.20164273043E+02  0.51100000000E-03 0.  1.
         12    1    3    3    0    0  0.35636480685E+01 -0.13701421526E+01 -0.48814620589E+01  0.61972210632E+01  0.00000000000E+00 0. -1.
</event>
<event>
 7    1  0.5467297E-010  0.4778727E+02  0.7816164E-02  0.1312668E+00
        -11   -1    0    0    0    0  0.00000000000E+00  0.00000000000E+00  0.45593999997E+02  0.45594000000E+02  0.51100000000E-03 0.  1.
         11   -1    0    0    0    0 -0.00000000000E+00 -0.00000000000E+00 -0.45593999997E+02  0.45594000000E+02  0.51100000000E-03 0. -1.
    9900012    2    1    2    0    0  0.27623190107E+02  0.27886537838E+02  0.18518201240E+02  0.47787269575E+02  0.19999993299E+02 0.  0.
         12    1    1    2    0    0 -0.27623190107E+02 -0.27886537838E+02 -0.18518201240E+02  0.43400730425E+02  0.00000000000E+00 0. -1.
         11    1    3    3    0    0 -0.74211712116E+00  0.51477040385E+00 -0.21737999934E+01  0.23539611429E+01  0.51100000000E-03 0. -1.
        -11    1    3    3    0    0  0.18823411649E+02  0.19329204979E+02  0.93054113674E+01  0.28539966226E+02  0.51100000000E-03 0.  1.
         12    1    3    3    0    0  0.95418955791E+01  0.80425624556E+01  0.11386589866E+02  0.16893342206E+02  0.00000000000E+00 0. -1.
</event>
<event>
 7    1  0.5467297E-010  0.4778727E+02  0.7816164E-02  0.1312668E+00
        -11   -1    0    0    0    0  0.00000000000E+00  0.00000000000E+00  0.45593999997E+02  0.45594000000E+02  0.51100000000E-03 0. -1.
         11   -1    0    0    0    0 -0.00000000000E+00 -0.00000000000E+00 -0.45593999997E+02  0.45594000000E+02  0.51100000000E-03 0.  1.
    9900012    2    1    2    0    0 -0.30270770614E+02  0.30585659966E+02  0.56410120817E+01  0.47787272282E+02  0.20000005643E+02 0.  0.
         12    1    1    2    0    0  0.30270770614E+02 -0.30585659966E+02 -0.56410120817E+01  0.43400727718E+02  0.00000000000E+00 0. -1.
         11    1    3    3    0    0  0.42340374773E+00 -0.22323719244E+01  0.45862961232E+00  0.23179940735E+01  0.51100000000E-03 0. -1.
        -11    1    3    3    0    0 -0.23928795007E+02  0.25520676687E+02  0.59589972851E+01  0.35488051763E+02  0.51100000000E-03 0.  1.
        -12    1    3    3    0    0 -0.67653793546E+01  0.72973552037E+01 -0.77661481565E+00  0.99812264454E+01  0.00000000000E+00 0.  1.
</event>
<event>
 7    1  0.5467297E-010  0.4778727E+02  0.7816164E-02  0.1312668E+00
        -11   -1    0    0    0    0  0.00000000000E+00  0.00000000000E+00  0.45593999997E+02  0.45594000000E+02  0.51100000000E-03 0.  1.
         11   -1    0    0    0    0 -0.00000000000E+00 -0.00000000000E+00 -0.45593999997E+02  0.45594000000E+02  0.51100000000E-03 0. -1.
    9900012    2    1    2    0    0 -0.43057993071E+01  0.29586405840E+02  0.31459941521E+02  0.47787271450E+02  0.20000001848E+02 0.  0.
         12    1    1    2    0    0  0.43057993071E+01 -0.29586405840E+02 -0.31459941521E+02  0.43400728550E+02  0.00000000000E+00 0. -1.
         11    1    3    3    0    0  0.32823160354E+01  0.48221802314E+01 -0.43929343048E+00  0.58497862969E+01  0.51100000000E-03 0. -1.
        -11    1    3    3    0    0 -0.77849843734E+01  0.11381386292E+02  0.17473492557E+02  0.22259040366E+02  0.51100000000E-03 0.  1.
        -12    1    3    3    0    0  0.19686903095E+00  0.13382839317E+02  0.14425742395E+02  0.19678444787E+02  0.00000000000E+00 0.  1.
</event>
<event>
 7    1  0.5467297E-010  0.4778727E+02  0.7816164E-02  0.1312668E+00
        -11   -1    0    0    0    0  0.00000000000E+00  0.00000000000E+00  0.45593999997E+02  0.45594000000E+02  0.51100000000E-03 0. -1.
         11   -1    0    0    0    0 -0.00000000000E+00 -0.00000000000E+00 -0.45593999997E+02  0.45594000000E+02  0.51100000000E-03 0.  1.
    9900012    2    1    2    0    0  0.32648882815E+02  0.24342741311E+02 -0.15003490117E+02  0.47787270521E+02  0.19999997616E+02 0.  0.
         12    1    1    2    0    0 -0.32648882815E+02 -0.24342741311E+02  0.15003490117E+02  0.43400729479E+02  0.00000000000E+00 0. -1.
         11    1    3    3    0    0  0.57071926921E+01  0.33007279375E+01 -0.46895779509E+01  0.80906733317E+01  0.51100000000E-03 0. -1.
        -11    1    3    3    0    0  0.38598746448E+01 -0.29516252555E+01 -0.59048184904E-01  0.48594455313E+01  0.51100000000E-03 0.  1.
        -12    1    3    3    0    0  0.23081815478E+02  0.23993638629E+02 -0.10254863981E+02  0.34837151658E+02  0.00000000000E+00 0.  1.
</event>
<event>
 7    1  0.5467297E-010  0.4778726E+02  0.7816164E-02  0.1312668E+00
        -11   -1    0    0    0    0  0.00000000000E+00  0.00000000000E+00  0.45593999997E+02  0.45594000000E+02  0.51100000000E-03 0.  1.
         11   -1    0    0    0    0 -0.00000000000E+00 -0.00000000000E+00 -0.45593999997E+02  0.45594000000E+02  0.51100000000E-03 0. -1.
    9900012    2    1    2    0    0 -0.27899188631E+02  0.24333809101E+02  0.22652267697E+02  0.47787260105E+02  0.19999950122E+02 0.  0.
         12    1    1    2    0    0  0.27899188631E+02 -0.24333809101E+02 -0.22652267697E+02  0.43400739895E+02  0.00000000000E+00 0. -1.
         11    1    3    3    0    0 -0.56623023656E+01  0.79366307108E+01  0.14908308294E+02  0.17813181399E+02  0.51100000000E-03 0. -1.
        -11    1    3    3    0    0 -0.12471517825E+02  0.14267391726E+02  0.46641871709E+01  0.19515426354E+02  0.51100000000E-03 0.  1.
         12    1    3    3    0    0 -0.97653684406E+01  0.21297866638E+01  0.30797722320E+01  0.10458652352E+02  0.00000000000E+00 0. -1.
</event>
<event>
 7    1  0.5467297E-010  0.4778727E+02  0.7816164E-02  0.1312668E+00
        -11   -1    0    0    0    0  0.00000000000E+00  0.00000000000E+00  0.45593999997E+02  0.45594000000E+02  0.51100000000E-03 0.  1.
         11   -1    0    0    0    0 -0.00000000000E+00 -0.00000000000E+00 -0.45593999997E+02  0.45594000000E+02  0.51100000000E-03 0. -1.
    9900012    2    1    2    0    0  0.20454636880E+02 -0.13986608122E+02  0.35631536601E+02  0.47787265246E+02  0.19999973561E+02 0.  0.
         12    1    1    2    0    0 -0.20454636880E+02  0.13986608122E+02 -0.35631536601E+02  0.43400734754E+02  0.00000000000E+00 0. -1.
         11    1    3    3    0    0  0.47319255910E+01 -0.22350283992E+01  0.18777809829E+02  0.19493399241E+02  0.51100000000E-03 0. -1.
        -11    1    3    3    0    0  0.62389648299E+01 -0.25903614693E+01  0.12843264252E+02  0.14511515827E+02  0.51100000000E-03 0.  1.
         12    1    3    3    0    0  0.94837464595E+01 -0.91612182532E+01  0.40104625202E+01  0.13782350178E+02  0.00000000000E+00 0. -1.
</event>
<event>
 7    1  0.5467297E-010  0.4778728E+02  0.7816164E-02  0.1312668E+00
        -11   -1    0    0    0    0  0.00000000000E+00  0.00000000000E+00  0.45593999997E+02  0.45594000000E+02  0.51100000000E-03 0.  1.
         11   -1    0    0    0    0 -0.00000000000E+00 -0.00000000000E+00 -0.45593999997E+02  0.45594000000E+02  0.51100000000E-03 0. -1.
    9900012    2    1    2    0    0 -0.21536923438E+02  0.19016431177E+02  0.32529356900E+02  0.47787276662E+02  0.20000025614E+02 0.  0.
         12    1    1    2    0    0  0.21536923438E+02 -0.19016431177E+02 -0.32529356900E+02  0.43400723338E+02  0.00000000000E+00 0. -1.
         11    1    3    3    0    0 -0.32809194921E+01 -0.37224433200E+01  0.43623476542E+01  0.66068974793E+01  0.51100000000E-03 0. -1.
        -11    1    3    3    0    0 -0.16764451748E+02  0.16170643821E+02  0.22344229889E+02  0.32276944924E+02  0.51100000000E-03 0.  1.
         12    1    3    3    0    0 -0.14915521983E+01  0.65682306764E+01  0.58227793565E+01  0.89034342595E+01  0.00000000000E+00 0. -1.
</event>
<event>
 7    1  0.5467297E-010  0.4778727E+02  0.7816164E-02  0.1312668E+00
        -11   -1    0    0    0    0  0.00000000000E+00  0.00000000000E+00  0.45593999997E+02  0.45594000000E+02  0.51100000000E-03 0. -1.
         11   -1    0    0    0    0 -0.00000000000E+00 -0.00000000000E+00 -0.45593999997E+02  0.45594000000E+02  0.51100000000E-03 0.  1.
    9900012    2    1    2    0    0  0.78791409647E+01  0.20540636926E+02 -0.37411558441E+02  0.47787270367E+02  0.19999996912E+02 0.  0.
         12    1    1    2    0    0 -0.78791409647E+01 -0.20540636926E+02  0.37411558441E+02  0.43400729633E+02  0.00000000000E+00 0. -1.
         11    1    3    3    0    0 -0.30250812246E+01  0.12137773512E+02 -0.19927356536E+02  0.23528200122E+02  0.51100000000E-03 0. -1.
        -11    1    3    3    0    0  0.57412789188E+01  0.96828275992E+01 -0.98718525726E+01  0.14972404864E+02  0.51100000000E-03 0.  1.
         12    1    3    3    0    0  0.51629432705E+01 -0.12799641845E+01 -0.76123493328E+01  0.92866653807E+01  0.00000000000E+00 0. -1.
</event>
<event>
 7    1  0.5467297E-010  0.4778727E+02  0.7816164E-02  0.1312668E+00
        -11   -1    0    0    0    0  0.00000000000E+00  0.00000000000E+00  0.45593999997E+02  0.45594000000E+02  0.51100000000E-03 0.  1.
         11   -1    0    0    0    0 -0.00000000000E+00 -0.00000000000E+00 -0.45593999997E+02  0.45594000000E+02  0.51100000000E-03 0. -1.
    9900012    2    1    2    0    0  0.39087514424E+02  0.18849010756E+02  0.71008801237E+00  0.47787271719E+02  0.20000003075E+02 0.  0.
         12    1    1    2    0    0 -0.39087514424E+02 -0.18849010756E+02 -0.71008801237E+00  0.43400728281E+02  0.00000000000E+00 0. -1.
         11    1    3    3    0    0 -0.16612288420E+01  0.76738264059E+00  0.13280445263E+01  0.22610307179E+01  0.51100000000E-03 0. -1.
        -11    1    3    3    0    0  0.35370240683E+02  0.17867035649E+02  0.17052834705E+01  0.39663495570E+02  0.51100000000E-03 0.  1.
         12    1    3    3    0    0  0.53785025833E+01  0.21459246683E+00 -0.23232399844E+01  0.58627454312E+01  0.00000000000E+00 0. -1.
</event>
<event>
 7    1  0.5467297E-010  0.4778728E+02  0.7816164E-02  0.1312668E+00
        -11   -1    0    0    0    0  0.00000000000E+00  0.00000000000E+00  0.45593999997E+02  0.45594000000E+02  0.51100000000E-03 0. -1.
         11   -1    0    0    0    0 -0.00000000000E+00 -0.00000000000E+00 -0.45593999997E+02  0.45594000000E+02  0.51100000000E-03 0.  1.
    9900012    2    1    2    0    0 -0.42309607496E+02  0.93483771045E+01  0.24754047399E+01  0.47787278006E+02  0.20000031741E+02 0.  0.
         12    1    1    2    0    0  0.42309607496E+02 -0.93483771045E+01 -0.24754047399E+01  0.43400721994E+02  0.00000000000E+00 0. -1.
         11    1    3    3    0    0 -0.28843989109E+02  0.98405328102E+00  0.43864434312E-01  0.28860803747E+02  0.51100000000E-03 0. -1.
        -11    1    3    3    0    0  0.61736687917E-01  0.10463297150E+01 -0.25523417227E+01  0.27591784686E+01  0.51100000000E-03 0.  1.
         12    1    3    3    0    0 -0.13527355075E+02  0.73179941085E+01  0.49838820282E+01  0.16167295790E+02  0.00000000000E+00 0. -1.
</event>
<event>
 7    1  0.5467297E-010  0.4778729E+02  0.7816164E-02  0.1312668E+00
        -11   -1    0    0    0    0  0.00000000000E+00  0.00000000000E+00  0.45593999997E+02  0.45594000000E+02  0.51100000000E-03 0. -1.
         11   -1    0    0    0    0 -0.00000000000E+00 -0.00000000000E+00 -0.45593999997E+02  0.45594000000E+02  0.51100000000E-03 0.  1.
    9900012    2    1    2    0    0 -0.41208525967E+02 -0.24443713118E+00 -0.13616886722E+02  0.47787286114E+02  0.20000068706E+02 0.  0.
         12    1    1    2    0    0  0.41208525967E+02  0.24443713118E+00  0.13616886722E+02  0.43400713886E+02  0.00000000000E+00 0. -1.
         11    1    3    3    0    0 -0.16518207911E+02  0.54550499138E+01 -0.11604152041E+02  0.20910884893E+02  0.51100000000E-03 0. -1.
        -11    1    3    3    0    0 -0.21832878554E+02 -0.38601593253E+01  0.11945182535E+01  0.22203654882E+02  0.51100000000E-03 0.  1.
        -12    1    3    3    0    0 -0.28574395014E+01 -0.18393277196E+01 -0.32072529345E+01  0.46727463391E+01  0.00000000000E+00 0.  1.
</event>
<event>
 7    1  0.7303532E-010  0.4778727E+02  0.7816164E-02  0.1312668E+00
        -11   -1    0    0    0    0  0.00000000000E+00  0.00000000000E+00  0.45593999997E+02  0.45594000000E+02  0.51100000000E-03 0.  1.
         11   -1    0    0    0    0 -0.00000000000E+00 -0.00000000000E+00 -0.45593999997E+02  0.45594000000E+02  0.51100000000E-03 0. -1.
    9900012    2    1    2    0    0 -0.24803595599E+02 -0.34108751850E+02 -0.10246876375E+02  0.47787265180E+02  0.19999973264E+02 0.  0.
         12    1    1    2    0    0  0.24803595599E+02  0.34108751850E+02  0.10246876375E+02  0.43400734820E+02  0.00000000000E+00 0. -1.
         11    1    3    3    0    0  0.18614942321E+01 -0.55040717253E+01 -0.13008369161E+01  0.59541702425E+01  0.51100000000E-03 0. -1.
        -11    1    3    3    0    0 -0.19064499850E+02 -0.18226052626E+02 -0.37975393941E+00  0.26377800556E+02  0.51100000000E-03 0.  1.
        -12    1    3    3    0    0 -0.76005899809E+01 -0.10378627499E+02 -0.85662855199E+01  0.15455294382E+02  0.00000000000E+00 0.  1.
</event>
<event>
 7    1  0.5467297E-010  0.4778727E+02  0.7816164E-02  0.1312668E+00
        -11   -1    0    0    0    0  0.00000000000E+00  0.00000000000E+00  0.45593999997E+02  0.45594000000E+02  0.51100000000E-03 0.  1.
         11   -1    0    0    0    0 -0.00000000000E+00 -0.00000000000E+00 -0.45593999997E+02  0.45594000000E+02  0.51100000000E-03 0. -1.
    9900012    2    1    2    0    0 -0.88403813614E+01  0.13272483543E+00  0.42490628085E+02  0.47787269204E+02  0.19999991611E+02 0.  0.
         12    1    1    2    0    0  0.88403813614E+01 -0.13272483543E+00 -0.42490628085E+02  0.43400730796E+02  0.00000000000E+00 0. -1.
         11    1    3    3    0    0 -0.60011310056E+01  0.41793648858E+01  0.37636193731E+02  0.38340106195E+02  0.51100000000E-03 0. -1.
        -11    1    3    3    0    0 -0.23485474732E+01 -0.19522592667E+01  0.61989634707E+01  0.69104370232E+01  0.51100000000E-03 0.  1.
         12    1    3    3    0    0 -0.49070288259E+00 -0.20943807837E+01 -0.13445291165E+01  0.25367259866E+01  0.00000000000E+00 0. -1.
</event>
<event>
 7    1  0.5467297E-010  0.4778727E+02  0.7816164E-02  0.1312668E+00
        -11   -1    0    0    0    0  0.00000000000E+00  0.00000000000E+00  0.45593999997E+02  0.45594000000E+02  0.51100000000E-03 0. -1.
         11   -1    0    0    0    0 -0.00000000000E+00 -0.00000000000E+00 -0.45593999997E+02  0.45594000000E+02  0.51100000000E-03 0.  1.
    9900012    2    1    2    0    0  0.33333408747E+02 -0.20496218947E+02 -0.18772649182E+02  0.47787268588E+02  0.19999988800E+02 0.  0.
         12    1    1    2    0    0 -0.33333408747E+02  0.20496218947E+02  0.18772649182E+02  0.43400731412E+02  0.00000000000E+00 0. -1.
         11    1    3    3    0    0  0.80898480075E+01 -0.16417443912E+01 -0.12619417198E+02  0.15079477979E+02  0.51100000000E-03 0. -1.
        -11    1    3    3    0    0  0.17351926725E+02 -0.98867865897E+01 -0.20443783230E+01  0.20075293102E+02  0.51100000000E-03 0.  1.
         12    1    3    3    0    0  0.78916340145E+01 -0.89676879660E+01 -0.41088536605E+01  0.12632497507E+02  0.00000000000E+00 0. -1.
</event>
<event>
 7    1  0.5467297E-010  0.4778727E+02  0.7816164E-02  0.1312668E+00
        -11   -1    0    0    0    0  0.00000000000E+00  0.00000000000E+00  0.45593999997E+02  0.45594000000E+02  0.51100000000E-03 0.  1.
         11   -1    0    0    0    0 -0.00000000000E+00 -0.00000000000E+00 -0.45593999997E+02  0.45594000000E+02  0.51100000000E-03 0. -1.
    9900012    2    1    2    0    0 -0.24853483530E+02 -0.25870381736E+02  0.24426441354E+02  0.47787270375E+02  0.19999996947E+02 0.  0.
         12    1    1    2    0    0  0.24853483530E+02  0.25870381736E+02 -0.24426441354E+02  0.43400729625E+02  0.00000000000E+00 0. -1.
         11    1    3    3    0    0 -0.10791153236E+02 -0.18017653934E+02  0.45620917627E+01  0.21491801297E+02  0.51100000000E-03 0. -1.
        -11    1    3    3    0    0 -0.12099685215E+02 -0.46095259712E+01  0.12421236445E+02  0.17942609261E+02  0.51100000000E-03 0.  1.
         12    1    3    3    0    0 -0.19626450789E+01 -0.32432018306E+01  0.74431131465E+01  0.83528598175E+01  0.00000000000E+00 0. -1.
</event>
<event>
 7    1  0.5467297E-010  0.4778728E+02  0.7816164E-02  0.1312668E+00
        -11   -1    0    0    0    0  0.00000000000E+00  0.00000000000E+00  0.45593999997E+02  0.45594000000E+02  0.51100000000E-03 0.  1.
         11   -1    0    0    0    0 -0.00000000000E+00 -0.00000000000E+00 -0.45593999997E+02  0.45594000000E+02  0.51100000000E-03 0. -1.
    9900012    2    1    2    0    0  0.93969626497E+01  0.11299380815E+02  0.40836796714E+02  0.47787275585E+02  0.20000020704E+02 0.  0.
         12    1    1    2    0    0 -0.93969626497E+01 -0.11299380815E+02 -0.40836796714E+02  0.43400724415E+02  0.00000000000E+00 0. -1.
         11    1    3    3    0    0  0.53727344960E+01  0.14157073590E+02  0.27304196916E+02  0.31221918232E+02  0.51100000000E-03 0. -1.
        -11    1    3    3    0    0  0.16697241077E+01  0.21969008837E+01  0.88937099980E+01  0.93119509168E+01  0.51100000000E-03 0.  1.
         12    1    3    3    0    0  0.23545040459E+01 -0.50545936583E+01  0.46388897997E+01  0.72534064361E+01  0.00000000000E+00 0. -1.
</event>
<event>
 7    1  0.5467297E-010  0.4778731E+02  0.7816164E-02  0.1312668E+00
        -11   -1    0    0    0    0  0.00000000000E+00  0.00000000000E+00  0.45593999997E+02  0.45594000000E+02  0.51100000000E-03 0.  1.
         11   -1    0    0    0    0 -0.00000000000E+00 -0.00000000000E+00 -0.45593999997E+02  0.45594000000E+02  0.51100000000E-03 0. -1.
    9900012    2    1    2    0    0 -0.15201957047E+02 -0.13742757084E+02  0.38257775994E+02  0.47787305370E+02  0.20000156502E+02 0.  0.
         12    1    1    2    0    0  0.15201957047E+02  0.13742757084E+02 -0.38257775994E+02  0.43400694630E+02  0.00000000000E+00 0. -1.
         11    1    3    3    0    0 -0.13034098718E+02 -0.13706369733E+02  0.27246190950E+02  0.33167864300E+02  0.51100000000E-03 0. -1.
        -11    1    3    3    0    0 -0.21762168141E+01 -0.28523118381E+01  0.11235701138E+02  0.11794599729E+02  0.51100000000E-03 0.  1.
         12    1    3    3    0    0  0.83584846563E-02  0.28159244866E+01 -0.22411609399E+00  0.28248413410E+01  0.00000000000E+00 0. -1.
</event>
<event>
 7    1  0.5467297E-010  0.4778727E+02  0.7816164E-02  0.1312668E+00
        -11   -1    0    0    0    0  0.00000000000E+00  0.00000000000E+00  0.45593999997E+02  0.45594000000E+02  0.51100000000E-03 0.  1.
         11   -1    0    0    0    0 -0.00000000000E+00 -0.00000000000E+00 -0.45593999997E+02  0.45594000000E+02  0.51100000000E-03 0. -1.
    9900012    2    1    2    0    0  0.32772789840E+02  0.26006613200E+02  0.11542250447E+02  0.47787271557E+02  0.20000002335E+02 0.  0.
         12    1    1    2    0    0 -0.32772789840E+02 -0.26006613200E+02 -0.11542250447E+02  0.43400728443E+02  0.00000000000E+00 0. -1.
         11    1    3    3    0    0  0.48245251987E+01  0.11945348118E+02 -0.24583672202E+01  0.13115294686E+02  0.51100000000E-03 0. -1.
        -11    1    3    3    0    0  0.20526250477E+02  0.12066993559E+02  0.12304087658E+02  0.26801676543E+02  0.51100000000E-03 0.  1.
         12    1    3    3    0    0  0.74220141647E+01  0.19942715236E+01  0.16965300091E+01  0.78703003274E+01  0.00000000000E+00 0. -1.
</event>
<event>
 7    1  0.5467297E-010  0.4778727E+02  0.7816164E-02  0.1312668E+00
        -11   -1    0    0    0    0  0.00000000000E+00  0.00000000000E+00  0.45593999997E+02  0.45594000000E+02  0.51100000000E-03 0.  1.
         11   -1    0    0    0    0 -0.00000000000E+00 -0.00000000000E+00 -0.45593999997E+02  0.45594000000E+02  0.51100000000E-03 0. -1.
    9900012    2    1    2    0    0  0.32091936788E+02  0.23235201308E+01  0.29126136101E+02  0.47787274697E+02  0.20000016656E+02 0.  0.
         12    1    1    2    0    0 -0.32091936788E+02 -0.23235201308E+01 -0.29126136101E+02  0.43400725303E+02  0.00000000000E+00 0. -1.
         11    1    3    3    0    0  0.73050722506E+01 -0.13142407783E+01  0.43137715476E+01  0.85848666056E+01  0.51100000000E-03 0. -1.
        -11    1    3    3    0    0  0.16863005509E+02 -0.52479792628E+01  0.19045240496E+02  0.25973513951E+02  0.51100000000E-03 0.  1.
        -12    1    3    3    0    0  0.79238590286E+01  0.88857401718E+01  0.57671240576E+01  0.13228894141E+02  0.00000000000E+00 0.  1.
</event>
<event>
 7    1  0.5467297E-010  0.4778729E+02  0.7816164E-02  0.1312668E+00
        -11   -1    0    0    0    0  0.00000000000E+00  0.00000000000E+00  0.45593999997E+02  0.45594000000E+02  0.51100000000E-03 0.  1.
         11   -1    0    0    0    0 -0.00000000000E+00 -0.00000000000E+00 -0.45593999997E+02  0.45594000000E+02  0.51100000000E-03 0. -1.
    9900012    2    1    2    0    0 -0.73128048689E+01 -0.35836247594E+02  0.23364665348E+02  0.47787293283E+02  0.20000101395E+02 0.  0.
         12    1    1    2    0    0  0.73128048689E+01  0.35836247594E+02 -0.23364665348E+02  0.43400706717E+02  0.00000000000E+00 0. -1.
         11    1    3    3    0    0 -0.40823496949E+00 -0.15990496238E+00 -0.12351774342E+01  0.13106826245E+01  0.51100000000E-03 0.  1.
        -11    1    3    3    0    0  0.26259141110E+00 -0.55045018075E+01  0.11615896509E+02  0.12856809339E+02  0.51100000000E-03 0. -1.
        -12    1    3    3    0    0 -0.71671613105E+01 -0.30171840824E+02  0.12983946273E+02  0.33619801320E+02  0.00000000000E+00 0.  1.
</event>
<event>
 7    1  0.5467297E-010  0.4778727E+02  0.7816164E-02  0.1312668E+00
        -11   -1    0    0    0    0  0.00000000000E+00  0.00000000000E+00  0.45593999997E+02  0.45594000000E+02  0.51100000000E-03 0. -1.
         11   -1    0    0    0    0 -0.00000000000E+00 -0.00000000000E+00 -0.45593999997E+02  0.45594000000E+02  0.51100000000E-03 0.  1.
    9900012    2    1    2    0    0 -0.24423859902E+02 -0.25132876739E+02 -0.25601500614E+02  0.47787271212E+02  0.20000000762E+02 0.  0.
         12    1    1    2    0    0  0.24423859902E+02  0.25132876739E+02  0.25601500614E+02  0.43400728788E+02  0.00000000000E+00 0. -1.
         11    1    3    3    0    0 -0.96548066063E+01 -0.19989202950E+01 -0.56062329114E+00  0.98754884277E+01  0.51100000000E-03 0. -1.
        -11    1    3    3    0    0 -0.57112222553E+01 -0.15445535417E+02 -0.12838877494E+02  0.20881077547E+02  0.51100000000E-03 0.  1.
        -12    1    3    3    0    0 -0.90578310400E+01 -0.76884210279E+01 -0.12201999829E+02  0.17030705237E+02  0.00000000000E+00 0.  1.
</event>
<event>
 7    1  0.5467297E-010  0.4778727E+02  0.7816164E-02  0.1312668E+00
        -11   -1    0    0    0    0  0.00000000000E+00  0.00000000000E+00  0.45593999997E+02  0.45594000000E+02  0.51100000000E-03 0.  1.
         11   -1    0    0    0    0 -0.00000000000E+00 -0.00000000000E+00 -0.45593999997E+02  0.45594000000E+02  0.51100000000E-03 0. -1.
    9900012    2    1    2    0    0  0.61574977311E+01 -0.29129341673E+02  0.31578312550E+02  0.47787272494E+02  0.20000006608E+02 0.  0.
         12    1    1    2    0    0 -0.61574977311E+01  0.29129341673E+02 -0.31578312550E+02  0.43400727506E+02  0.00000000000E+00 0. -1.
         11    1    3    3    0    0 -0.37164448786E+01 -0.10574612327E+02  0.36749121279E+01  0.11795735153E+02  0.51100000000E-03 0. -1.
        -11    1    3    3    0    0  0.32404676086E+01 -0.14265000420E+02  0.20346974305E+02  0.25059733257E+02  0.51100000000E-03 0.  1.
         12    1    3    3    0    0  0.66334750011E+01 -0.42897289259E+01  0.75564261167E+01  0.10931804083E+02  0.00000000000E+00 0. -1.
</event>
<event>
 7    1  0.5467297E-010  0.4778724E+02  0.7816164E-02  0.1312668E+00
        -11   -1    0    0    0    0  0.00000000000E+00  0.00000000000E+00  0.45593999997E+02  0.45594000000E+02  0.51100000000E-03 0. -1.
         11   -1    0    0    0    0 -0.00000000000E+00 -0.00000000000E+00 -0.45593999997E+02  0.45594000000E+02  0.51100000000E-03 0.  1.
    9900012    2    1    2    0    0 -0.42226938625E+02  0.46766959003E+01 -0.88679465936E+01  0.47787236102E+02  0.19999840681E+02 0.  0.
         12    1    1    2    0    0  0.42226938625E+02 -0.46766959003E+01  0.88679465936E+01  0.43400763898E+02  0.00000000000E+00 0. -1.
         11    1    3    3    0    0 -0.39903956433E+01  0.53949321163E+01  0.28239870425E+01  0.72803470389E+01  0.51100000000E-03 0. -1.
        -11    1    3    3    0    0 -0.33081169640E+02  0.12448814856E+01 -0.11285821193E+02  0.34975466758E+02  0.51100000000E-03 0.  1.
         12    1    3    3    0    0 -0.51553733411E+01 -0.19631177016E+01 -0.40611244333E+00  0.55314223047E+01  0.00000000000E+00 0. -1.
</event>
<event>
 7    1  0.5467297E-010  0.4778727E+02  0.7816164E-02  0.1312668E+00
        -11   -1    0    0    0    0  0.00000000000E+00  0.00000000000E+00  0.45593999997E+02  0.45594000000E+02  0.51100000000E-03 0.  1.
         11   -1    0    0    0    0 -0.00000000000E+00 -0.00000000000E+00 -0.45593999997E+02  0.45594000000E+02  0.51100000000E-03 0. -1.
    9900012    2    1    2    0    0  0.73173274435E+01 -0.33489966455E+02  0.26617706903E+02  0.47787268959E+02  0.19999990494E+02 0.  0.
         12    1    1    2    0    0 -0.73173274435E+01  0.33489966455E+02 -0.26617706903E+02  0.43400731041E+02  0.00000000000E+00 0. -1.
         11    1    3    3    0    0 -0.22033640232E+01 -0.94774435973E+00  0.81347385013E+00  0.25327400886E+01  0.51100000000E-03 0. -1.
        -11    1    3    3    0    0  0.20339630463E+01 -0.28551333277E+02  0.18719469634E+02  0.34201376890E+02  0.51100000000E-03 0.  1.
        -12    1    3    3    0    0  0.74867284205E+01 -0.39908888187E+01  0.70847634190E+01  0.11053151981E+02  0.00000000000E+00 0.  1.
</event>
<event>
 7    1  0.5467297E-010  0.4778727E+02  0.7816164E-02  0.1312668E+00
        -11   -1    0    0    0    0  0.00000000000E+00  0.00000000000E+00  0.45593999997E+02  0.45594000000E+02  0.51100000000E-03 0. -1.
         11   -1    0    0    0    0 -0.00000000000E+00 -0.00000000000E+00 -0.45593999997E+02  0.45594000000E+02  0.51100000000E-03 0.  1.
    9900012    2    1    2    0    0 -0.71101751932E+01  0.17570454887E+02 -0.39042898925E+02  0.47787269215E+02  0.19999991660E+02 0.  0.
         12    1    1    2    0    0  0.71101751932E+01 -0.17570454887E+02  0.39042898925E+02  0.43400730785E+02  0.00000000000E+00 0. -1.
         11    1    3    3    0    0  0.55886520305E+01  0.17400096037E+01 -0.35458979746E+01  0.68435413089E+01  0.51100000000E-03 0. -1.
        -11    1    3    3    0    0 -0.74423430715E+01  0.90583591326E+01 -0.18392658825E+02  0.21811286975E+02  0.51100000000E-03 0.  1.
         12    1    3    3    0    0 -0.52564841522E+01  0.67720861506E+01 -0.17104342125E+02  0.19132440932E+02  0.00000000000E+00 0. -1.
</event>
<event>
 7    1  0.5467297E-010  0.4778728E+02  0.7816164E-02  0.1312668E+00
        -11   -1    0    0    0    0  0.00000000000E+00  0.00000000000E+00  0.45593999997E+02  0.45594000000E+02  0.51100000000E-03 0.  1.
         11   -1    0    0    0    0 -0.00000000000E+00 -0.00000000000E+00 -0.45593999997E+02  0.45594000000E+02  0.51100000000E-03 0. -1.
    9900012    2    1    2    0    0 -0.29681015485E+02  0.13293562378E+01  0.31636891665E+02  0.47787276706E+02  0.20000025813E+02 0.  0.
         12    1    1    2    0    0  0.29681015485E+02 -0.13293562378E+01 -0.31636891665E+02  0.43400723294E+02  0.00000000000E+00 0. -1.
         11    1    3    3    0    0 -0.11806323158E+02 -0.54646479646E+00  0.84807557315E+00  0.11849351152E+02  0.51100000000E-03 0. -1.
        -11    1    3    3    0    0 -0.26904878988E+01  0.86720907629E+00  0.84337335883E+01  0.88948658908E+01  0.51100000000E-03 0.  1.
         12    1    3    3    0    0 -0.15184204428E+02  0.10086119580E+01  0.22355082504E+02  0.27043059663E+02  0.00000000000E+00 0. -1.
</event>
<event>
 7    1  0.5467297E-010  0.4778727E+02  0.7816164E-02  0.1312668E+00
        -11   -1    0    0    0    0  0.00000000000E+00  0.00000000000E+00  0.45593999997E+02  0.45594000000E+02  0.51100000000E-03 0.  1.
         11   -1    0    0    0    0 -0.00000000000E+00 -0.00000000000E+00 -0.45593999997E+02  0.45594000000E+02  0.51100000000E-03 0. -1.
    9900012    2    1    2    0    0  0.55945157160E+00 -0.35007576892E+02  0.25647219062E+02  0.47787271071E+02  0.20000000122E+02 0.  0.
         12    1    1    2    0    0 -0.55945157160E+00  0.35007576892E+02 -0.25647219062E+02  0.43400728929E+02  0.00000000000E+00 0. -1.
         11    1    3    3    0    0 -0.20730554500E+01 -0.16996466405E+02  0.68572658160E+01  0.18444498473E+02  0.51100000000E-03 0. -1.
        -11    1    3    3    0    0  0.45128761901E+01 -0.56544135052E+00  0.64462901286E+01  0.78892605554E+01  0.51100000000E-03 0.  1.
        -12    1    3    3    0    0 -0.18803691686E+01 -0.17445669136E+02  0.12343663118E+02  0.21453512043E+02  0.00000000000E+00 0.  1.
</event>
<event>
 7    1  0.5467297E-010  0.4778727E+02  0.7816164E-02  0.1312668E+00
        -11   -1    0    0    0    0  0.00000000000E+00  0.00000000000E+00  0.45593999997E+02  0.45594000000E+02  0.51100000000E-03 0. -1.
         11   -1    0    0    0    0 -0.00000000000E+00 -0.00000000000E+00 -0.45593999997E+02  0.45594000000E+02  0.51100000000E-03 0.  1.
    9900012    2    1    2    0    0  0.98928306647E+01 -0.42126698263E+02  0.33311348447E+01  0.47787271153E+02  0.20000000494E+02 0.  0.
         12    1    1    2    0    0 -0.98928306647E+01  0.42126698263E+02 -0.33311348447E+01  0.43400728847E+02  0.00000000000E+00 0. -1.
         11    1    3    3    0    0 -0.16571263593E+01 -0.12761904711E+02  0.41509089987E+01  0.13521920182E+02  0.51100000000E-03 0. -1.
        -11    1    3    3    0    0  0.28812821239E+01 -0.60186923957E+01 -0.58322548945E+01  0.88623722698E+01  0.51100000000E-03 0.  1.
        -12    1    3    3    0    0  0.86686749001E+01 -0.23346101156E+02  0.50124807405E+01  0.25402978701E+02  0.00000000000E+00 0.  1.
</event>
<event>
 7    1  0.5467297E-010  0.4778729E+02  0.7816164E-02  0.1312668E+00
        -11   -1    0    0    0    0  0.00000000000E+00  0.00000000000E+00  0.45593999997E+02  0.45594000000E+02  0.51100000000E-03 0.  1.
         11   -1    0    0    0    0 -0.00000000000E+00 -0.00000000000E+00 -0.45593999997E+02  0.45594000000E+02  0.51100000000E-03 0. -1.
    9900012    2    1    2    0    0  0.22219601104E+02  0.21495811670E+02  0.30460488292E+02  0.47787286416E+02  0.20000070085E+02 0.  0.
         12    1    1    2    0    0 -0.22219601104E+02 -0.21495811670E+02 -0.30460488292E+02  0.43400713584E+02  0.00000000000E+00 0. -1.
         11    1    3    3    0    0  0.77787701213E+01  0.84898787917E+01  0.16917542743E+02  0.20464372926E+02  0.51100000000E-03 0. -1.
        -11    1    3    3    0    0  0.78638236414E+01  0.12221753163E+02  0.29497887791E+01  0.14829437843E+02  0.51100000000E-03 0.  1.
         12    1    3    3    0    0  0.65770073418E+01  0.78417971510E+00  0.10593156770E+02  0.12493475647E+02  0.00000000000E+00 0. -1.
</event>
<event>
 7    1  0.5467297E-010  0.4778727E+02  0.7816164E-02  0.1312668E+00
        -11   -1    0    0    0    0  0.00000000000E+00  0.00000000000E+00  0.45593999997E+02  0.45594000000E+02  0.51100000000E-03 0. -1.
         11   -1    0    0    0    0 -0.00000000000E+00 -0.00000000000E+00 -0.45593999997E+02  0.45594000000E+02  0.51100000000E-03 0.  1.
    9900012    2    1    2    0    0 -0.58580829532E+01 -0.40928978557E+02 -0.13195646480E+02  0.47787268351E+02  0.19999987722E+02 0.  0.
         12    1    1    2    0    0  0.58580829532E+01  0.40928978557E+02  0.13195646480E+02  0.43400731649E+02  0.00000000000E+00 0. -1.
         11    1    3    3    0    0  0.82476319925E+00  0.88771676725E+00 -0.16629004021E+01  0.20575503401E+01  0.51100000000E-03 0. -1.
        -11    1    3    3    0    0 -0.25122562294E+01 -0.29106158331E+02 -0.13545494338E+02  0.32201867978E+02  0.51100000000E-03 0.  1.
        -12    1    3    3    0    0 -0.41705899231E+01 -0.12710536993E+02  0.20127482602E+01  0.13527850033E+02  0.00000000000E+00 0.  1.
</event>
<event>
 7    1  0.5467297E-010  0.4778727E+02  0.7816164E-02  0.1312668E+00
        -11   -1    0    0    0    0  0.00000000000E+00  0.00000000000E+00  0.45593999997E+02  0.45594000000E+02  0.51100000000E-03 0.  1.
         11   -1    0    0    0    0 -0.00000000000E+00 -0.00000000000E+00 -0.45593999997E+02  0.45594000000E+02  0.51100000000E-03 0. -1.
    9900012    2    1    2    0    0  0.15504917445E+02 -0.19278844877E+02  0.35658758529E+02  0.47787269769E+02  0.19999994186E+02 0.  0.
         12    1    1    2    0    0 -0.15504917445E+02  0.19278844877E+02 -0.35658758529E+02  0.43400730231E+02  0.00000000000E+00 0. -1.
         11    1    3    3    0    0  0.62761750670E+01 -0.18649366848E+01  0.12821719648E+02  0.14396696055E+02  0.51100000000E-03 0.  1.
        -11    1    3    3    0    0 -0.41294360164E+00 -0.65620088376E+01  0.29848012897E+00  0.65817606346E+01  0.51100000000E-03 0. -1.
         12    1    3    3    0    0  0.96416859798E+01 -0.10851899354E+02  0.22538558752E+02  0.26808813080E+02  0.00000000000E+00 0. -1.
</event>
<event>
 7    1  0.5467297E-010  0.4778727E+02  0.7816164E-02  0.1312668E+00
        -11   -1    0    0    0    0  0.00000000000E+00  0.00000000000E+00  0.45593999997E+02  0.45594000000E+02  0.51100000000E-03 0. -1.
         11   -1    0    0    0    0 -0.00000000000E+00 -0.00000000000E+00 -0.45593999997E+02  0.45594000000E+02  0.51100000000E-03 0.  1.
    9900012    2    1    2    0    0 -0.16377296332E+02 -0.89904499481E+01 -0.39173708307E+02  0.47787269039E+02  0.19999990855E+02 0.  0.
         12    1    1    2    0    0  0.16377296332E+02  0.89904499481E+01  0.39173708307E+02  0.43400730961E+02  0.00000000000E+00 0. -1.
         11    1    3    3    0    0  0.15695957833E+01 -0.34266284188E+01 -0.15931459605E+02  0.16371219217E+02  0.51100000000E-03 0. -1.
        -11    1    3    3    0    0 -0.10792719038E+02  0.14947034839E+01 -0.14187023357E+02  0.17888223912E+02  0.51100000000E-03 0.  1.
        -12    1    3    3    0    0 -0.71541730782E+01 -0.70585250132E+01 -0.90552253449E+01  0.13527825910E+02  0.00000000000E+00 0.  1.
</event>
<event>
 7    1  0.5467297E-010  0.4778727E+02  0.7816164E-02  0.1312668E+00
        -11   -1    0    0    0    0  0.00000000000E+00  0.00000000000E+00  0.45593999997E+02  0.45594000000E+02  0.51100000000E-03 0.  1.
         11   -1    0    0    0    0 -0.00000000000E+00 -0.00000000000E+00 -0.45593999997E+02  0.45594000000E+02  0.51100000000E-03 0. -1.
    9900012    2    1    2    0    0  0.51548454341E+00 -0.13016966990E+01  0.43378141357E+02  0.47787270902E+02  0.19999999351E+02 0.  0.
         12    1    1    2    0    0 -0.51548454341E+00  0.13016966990E+01 -0.43378141357E+02  0.43400729098E+02  0.00000000000E+00 0. -1.
         11    1    3    3    0    0 -0.75444073285E+01  0.48469952506E+01  0.14240765816E+02  0.16828869724E+02  0.51100000000E-03 0. -1.
        -11    1    3    3    0    0  0.51369904201E+01 -0.32658904261E+01  0.13836176212E+02  0.15116033980E+02  0.51100000000E-03 0.  1.
         12    1    3    3    0    0  0.29229014518E+01 -0.28828015235E+01  0.15301199330E+02  0.15842367198E+02  0.00000000000E+00 0. -1.
</event>
<event>
 7    1  0.5467297E-010  0.4778727E+02  0.7816164E-02  0.1312668E+00
        -11   -1    0    0    0    0  0.00000000000E+00  0.00000000000E+00  0.45593999997E+02  0.45594000000E+02  0.51100000000E-03 0.  1.
         11   -1    0    0    0    0 -0.00000000000E+00 -0.00000000000E+00 -0.45593999997E+02  0.45594000000E+02  0.51100000000E-03 0. -1.
    9900012    2    1    2    0    0 -0.88409284109E+01 -0.24257322286E+01  0.42421427634E+02  0.47787265968E+02  0.19999976856E+02 0.  0.
         12    1    1    2    0    0  0.88409284109E+01  0.24257322286E+01 -0.42421427634E+02  0.43400734032E+02  0.00000000000E+00 0. -1.
         11    1    3    3    0    0 -0.50893142864E+01  0.12404831588E+01  0.16904022308E+01  0.55043054363E+01  0.51100000000E-03 0. -1.
        -11    1    3    3    0    0 -0.58966378066E+01 -0.58046410035E+01  0.31447139976E+02  0.32517484643E+02  0.51100000000E-03 0.  1.
         12    1    3    3    0    0  0.21450236820E+01  0.21384256161E+01  0.92838854268E+01  0.97654758886E+01  0.00000000000E+00 0. -1.
</event>
<event>
 7    1  0.5467297E-010  0.4778727E+02  0.7816164E-02  0.1312668E+00
        -11   -1    0    0    0    0  0.00000000000E+00  0.00000000000E+00  0.45593999997E+02  0.45594000000E+02  0.51100000000E-03 0.  1.
         11   -1    0    0    0    0 -0.00000000000E+00 -0.00000000000E+00 -0.45593999997E+02  0.45594000000E+02  0.51100000000E-03 0. -1.
    9900012    2    1    2    0    0  0.24461896518E+02  0.21543288980E+02  0.28655292899E+02  0.47787268527E+02  0.19999988521E+02 0.  0.
         12    1    1    2    0    0 -0.24461896518E+02 -0.21543288980E+02 -0.28655292899E+02  0.43400731473E+02  0.00000000000E+00 0. -1.
         11    1    3    3    0    0  0.12804226962E+02  0.13090417293E+02  0.73663710422E+01  0.19737544821E+02  0.51100000000E-03 0. -1.
        -11    1    3    3    0    0  0.12114051190E+02  0.79618049661E+01  0.12230238652E+02  0.18966267748E+02  0.51100000000E-03 0.  1.
         12    1    3    3    0    0 -0.45638163423E+00  0.49106672101E+00  0.90586832048E+01  0.90834559571E+01  0.00000000000E+00 0. -1.
</event>
<event>
 7    1  0.5467297E-010  0.4778727E+02  0.7816164E-02  0.1312668E+00
        -11   -1    0    0    0    0  0.00000000000E+00  0.00000000000E+00  0.45593999997E+02  0.45594000000E+02  0.51100000000E-03 0.  1.
         11   -1    0    0    0    0 -0.00000000000E+00 -0.00000000000E+00 -0.45593999997E+02  0.45594000000E+02  0.51100000000E-03 0. -1.
    9900012    2    1    2    0    0  0.35301340908E+02 -0.24291523980E+02  0.68819033175E+01  0.47787269586E+02  0.19999993353E+02 0.  0.
         12    1    1    2    0    0 -0.35301340908E+02  0.24291523980E+02 -0.68819033175E+01  0.43400730414E+02  0.00000000000E+00 0. -1.
         11    1    3    3    0    0  0.53710209681E+01  0.18407829998E+01  0.18309977339E+01  0.59656434066E+01  0.51100000000E-03 0. -1.
        -11    1    3    3    0    0  0.13454204572E+02 -0.19244908598E+02  0.47731002839E+01  0.23961732287E+02  0.51100000000E-03 0.  1.
        -12    1    3    3    0    0  0.16476115368E+02 -0.68873983816E+01  0.27780529973E+00  0.17859893893E+02  0.00000000000E+00 0.  1.
</event>
<event>
 7    1  0.5467297E-010  0.4778727E+02  0.7816164E-02  0.1312668E+00
        -11   -1    0    0    0    0  0.00000000000E+00  0.00000000000E+00  0.45593999997E+02  0.45594000000E+02  0.51100000000E-03 0.  1.
         11   -1    0    0    0    0 -0.00000000000E+00 -0.00000000000E+00 -0.45593999997E+02  0.45594000000E+02  0.51100000000E-03 0. -1.
    9900012    2    1    2    0    0  0.10005531102E+02 -0.10186461458E+02  0.40984735879E+02  0.47787271610E+02  0.20000002580E+02 0.  0.
         12    1    1    2    0    0 -0.10005531102E+02  0.10186461458E+02 -0.40984735879E+02  0.43400728390E+02  0.00000000000E+00 0. -1.
         11    1    3    3    0    0  0.10977552397E+01  0.57509122247E-01  0.20203148140E-01  0.10994463578E+01  0.51100000000E-03 0. -1.
        -11    1    3    3    0    0  0.64871725475E+01 -0.14513981895E+02  0.22286800969E+02  0.27375912328E+02  0.51100000000E-03 0.  1.
        -12    1    3    3    0    0  0.24206033149E+01  0.42700113142E+01  0.18677731762E+02  0.19311912924E+02  0.00000000000E+00 0.  1.
</event>
<event>
 7    1  0.5467297E-010  0.4778727E+02  0.7816164E-02  0.1312668E+00
        -11   -1    0    0    0    0  0.00000000000E+00  0.00000000000E+00  0.45593999997E+02  0.45594000000E+02  0.51100000000E-03 0. -1.
         11   -1    0    0    0    0 -0.00000000000E+00 -0.00000000000E+00 -0.45593999997E+02  0.45594000000E+02  0.51100000000E-03 0.  1.
    9900012    2    1    2    0    0 -0.18112067247E+02 -0.23354024969E+02 -0.31783105079E+02  0.47787271542E+02  0.20000002270E+02 0.  0.
         12    1    1    2    0    0  0.18112067247E+02  0.23354024969E+02  0.31783105079E+02  0.43400728458E+02  0.00000000000E+00 0. -1.
         11    1    3    3    0    0 -0.29210084286E+01  0.28197887803E+01 -0.23191461777E+01  0.46756751663E+01  0.51100000000E-03 0. -1.
        -11    1    3    3    0    0 -0.81828259234E+01 -0.10950961264E+02 -0.18810888740E+02  0.23253639030E+02  0.51100000000E-03 0.  1.
         12    1    3    3    0    0 -0.70082328951E+01 -0.15222852485E+02 -0.10653070161E+02  0.19857957346E+02  0.00000000000E+00 0. -1.
</event>
<event>
 7    1  0.5467297E-010  0.4778727E+02  0.7816164E-02  0.1312668E+00
        -11   -1    0    0    0    0  0.00000000000E+00  0.00000000000E+00  0.45593999997E+02  0.45594000000E+02  0.51100000000E-03 0.  1.
         11   -1    0    0    0    0 -0.00000000000E+00 -0.00000000000E+00 -0.45593999997E+02  0.45594000000E+02  0.51100000000E-03 0. -1.
    9900012    2    1    2    0    0 -0.28274130184E+02 -0.19262942157E+02  0.26704601025E+02  0.47787273115E+02  0.20000009442E+02 0.  0.
         12    1    1    2    0    0  0.28274130184E+02  0.19262942157E+02 -0.26704601025E+02  0.43400726885E+02  0.00000000000E+00 0. -1.
         11    1    3    3    0    0 -0.81161167250E+01 -0.10489350555E+02  0.78470241641E+01  0.15410178917E+02  0.51100000000E-03 0.  1.
        -11    1    3    3    0    0 -0.11168006751E+02 -0.12766469341E+01  0.17210338720E+02  0.20556020074E+02  0.51100000000E-03 0. -1.
        -12    1    3    3    0    0 -0.89900067076E+01 -0.74969446684E+01  0.16472381419E+01  0.11821074125E+02  0.00000000000E+00 0.  1.
</event>
<event>
 7    1  0.5467297E-010  0.4778727E+02  0.7816164E-02  0.1312668E+00
        -11   -1    0    0    0    0  0.00000000000E+00  0.00000000000E+00  0.45593999997E+02  0.45594000000E+02  0.51100000000E-03 0. -1.
         11   -1    0    0    0    0 -0.00000000000E+00 -0.00000000000E+00 -0.45593999997E+02  0.45594000000E+02  0.51100000000E-03 0.  1.
    9900012    2    1    2    0    0  0.39041922479E+02  0.18837633918E+02 -0.21201844610E+01  0.47787270229E+02  0.19999996281E+02 0.  0.
         12    1    1    2    0    0 -0.39041922479E+02 -0.18837633918E+02  0.21201844610E+01  0.43400729771E+02  0.00000000000E+00 0. -1.
         11    1    3    3    0    0  0.29294195456E+01 -0.26152116670E+01  0.30626041801E+01  0.49799975465E+01  0.51100000000E-03 0. -1.
        -11    1    3    3    0    0  0.34830904432E+02  0.21722162971E+02 -0.44070832934E+01  0.41285186824E+02  0.51100000000E-03 0.  1.
         12    1    3    3    0    0  0.12815985014E+01 -0.26931738547E+00 -0.77570534770E+00  0.15220858581E+01  0.00000000000E+00 0. -1.
</event>
<event>
 7    1  0.5467297E-010  0.4778727E+02  0.7816164E-02  0.1312668E+00
        -11   -1    0    0    0    0  0.00000000000E+00  0.00000000000E+00  0.45593999997E+02  0.45594000000E+02  0.51100000000E-03 0. -1.
         11   -1    0    0    0    0 -0.00000000000E+00 -0.00000000000E+00 -0.45593999997E+02  0.45594000000E+02  0.51100000000E-03 0.  1.
    9900012    2    1    2    0    0 -0.19358195515E+02 -0.35234124508E+02 -0.16353589092E+02  0.47787272591E+02  0.20000007050E+02 0.  0.
         12    1    1    2    0    0  0.19358195515E+02  0.35234124508E+02  0.16353589092E+02  0.43400727409E+02  0.00000000000E+00 0. -1.
         11    1    3    3    0    0  0.12623228952E+01 -0.12605075367E+01  0.11890233531E+00  0.17878692257E+01  0.51100000000E-03 0. -1.
        -11    1    3    3    0    0 -0.45957692861E+01 -0.22695947371E+02 -0.11108205679E+02  0.25683055817E+02  0.51100000000E-03 0.  1.
        -12    1    3    3    0    0 -0.16024749124E+02 -0.11277669600E+02 -0.53642857478E+01  0.20316347548E+02  0.00000000000E+00 0.  1.
</event>
<event>
 7    1  0.5467297E-010  0.4778727E+02  0.7816164E-02  0.1312668E+00
        -11   -1    0    0    0    0  0.00000000000E+00  0.00000000000E+00  0.45593999997E+02  0.45594000000E+02  0.51100000000E-03 0.  1.
         11   -1    0    0    0    0 -0.00000000000E+00 -0.00000000000E+00 -0.45593999997E+02  0.45594000000E+02  0.51100000000E-03 0. -1.
    9900012    2    1    2    0    0 -0.21429951870E+02  0.16960833390E+01  0.37702835029E+02  0.47787270685E+02  0.19999998363E+02 0.  0.
         12    1    1    2    0    0  0.21429951870E+02 -0.16960833390E+01 -0.37702835029E+02  0.43400729315E+02  0.00000000000E+00 0. -1.
         11    1    3    3    0    0 -0.15631770368E+01  0.50652416708E+01  0.37825340042E+00  0.53144399072E+01  0.51100000000E-03 0. -1.
        -11    1    3    3    0    0 -0.11389657327E+02 -0.30248296599E+01  0.21661714276E+02  0.24659759815E+02  0.51100000000E-03 0.  1.
         12    1    3    3    0    0 -0.84771175062E+01 -0.34432867189E+00  0.15662867352E+02  0.17813070963E+02  0.00000000000E+00 0. -1.
</event>
<event>
 7    1  0.5467297E-010  0.4778727E+02  0.7816164E-02  0.1312668E+00
        -11   -1    0    0    0    0  0.00000000000E+00  0.00000000000E+00  0.45593999997E+02  0.45594000000E+02  0.51100000000E-03 0.  1.
         11   -1    0    0    0    0 -0.00000000000E+00 -0.00000000000E+00 -0.45593999997E+02  0.45594000000E+02  0.51100000000E-03 0. -1.
    9900012    2    1    2    0    0  0.25888926465E+02  0.32218353380E+02  0.13242524031E+02  0.47787271311E+02  0.20000001214E+02 0.  0.
         12    1    1    2    0    0 -0.25888926465E+02 -0.32218353380E+02 -0.13242524031E+02  0.43400728689E+02  0.00000000000E+00 0. -1.
         11    1    3    3    0    0 -0.11796901637E+00 -0.19403647833E+00  0.21076374861E+01  0.21198355780E+01  0.51100000000E-03 0. -1.
        -11    1    3    3    0    0  0.13934547599E+02  0.27598160266E+02  0.10515335917E+02  0.32655816581E+02  0.51100000000E-03 0.  1.
        -12    1    3    3    0    0  0.12072347883E+02  0.48142295925E+01  0.61955062789E+00  0.13011619152E+02  0.00000000000E+00 0.  1.
</event>
<event>
 7    1  0.5467297E-010  0.4778726E+02  0.7816164E-02  0.1312668E+00
        -11   -1    0    0    0    0  0.00000000000E+00  0.00000000000E+00  0.45593999997E+02  0.45594000000E+02  0.51100000000E-03 0.  1.
         11   -1    0    0    0    0 -0.00000000000E+00 -0.00000000000E+00 -0.45593999997E+02  0.45594000000E+02  0.51100000000E-03 0. -1.
    9900012    2    1    2    0    0  0.31214993608E+02 -0.27912475393E+02  0.11407995094E+02  0.47787257373E+02  0.19999937665E+02 0.  0.
         12    1    1    2    0    0 -0.31214993608E+02  0.27912475393E+02 -0.11407995094E+02  0.43400742627E+02  0.00000000000E+00 0. -1.
         11    1    3    3    0    0  0.22131283106E+01 -0.11471557420E+02  0.17787168146E+01  0.11817715529E+02  0.51100000000E-03 0. -1.
        -11    1    3    3    0    0  0.26882130334E+02 -0.17614887361E+02  0.96138627496E+01  0.33546379018E+02  0.51100000000E-03 0.  1.
         12    1    3    3    0    0  0.21197349636E+01  0.11739693875E+01  0.15415530092E-01  0.24231628252E+01  0.00000000000E+00 0. -1.
</event>
<event>
 7    1  0.5467297E-010  0.4778727E+02  0.7816164E-02  0.1312668E+00
        -11   -1    0    0    0    0  0.00000000000E+00  0.00000000000E+00  0.45593999997E+02  0.45594000000E+02  0.51100000000E-03 0.  1.
         11   -1    0    0    0    0 -0.00000000000E+00 -0.00000000000E+00 -0.45593999997E+02  0.45594000000E+02  0.51100000000E-03 0. -1.
    9900012    2    1    2    0    0 -0.17767786368E+02  0.14426381459E+01  0.39570796553E+02  0.47787269856E+02  0.19999994581E+02 0.  0.
         12    1    1    2    0    0  0.17767786368E+02 -0.14426381459E+01 -0.39570796553E+02  0.43400730144E+02  0.00000000000E+00 0. -1.
         11    1    3    3    0    0  0.27489061354E+01  0.82752402308E-01  0.13588754584E+02  0.13864255635E+02  0.51100000000E-03 0. -1.
        -11    1    3    3    0    0 -0.13327233892E+02 -0.19291548093E+01  0.19508162960E+02  0.23704540152E+02  0.51100000000E-03 0.  1.
         12    1    3    3    0    0 -0.71894586115E+01  0.32890405529E+01  0.64738790089E+01  0.10218474069E+02  0.00000000000E+00 0. -1.
</event>
<event>
 7    1  0.7005466E-010  0.4778727E+02  0.7816164E-02  0.1312668E+00
        -11   -1    0    0    0    0  0.00000000000E+00  0.00000000000E+00  0.45593999997E+02  0.45594000000E+02  0.51100000000E-03 0.  1.
         11   -1    0    0    0    0 -0.00000000000E+00 -0.00000000000E+00 -0.45593999997E+02  0.45594000000E+02  0.51100000000E-03 0. -1.
    9900012    2    1    2    0    0  0.39018040669E+02 -0.36795274629E+01  0.18646106015E+02  0.47787266256E+02  0.19999978168E+02 0.  0.
         12    1    1    2    0    0 -0.39018040669E+02  0.36795274629E+01 -0.18646106015E+02  0.43400733744E+02  0.00000000000E+00 0. -1.
         11    1    3    3    0    0  0.13239735605E+02 -0.15319928214E-01 -0.12885319966E+01  0.13302298619E+02  0.51100000000E-03 0. -1.
        -11    1    3    3    0    0  0.43268238604E+01 -0.34252745956E+01  0.86095340731E+01  0.10226337956E+02  0.51100000000E-03 0.  1.
        -12    1    3    3    0    0  0.21451481203E+02 -0.23893293912E+00  0.11325103939E+02  0.24258629681E+02  0.00000000000E+00 0.  1.
</event>
<event>
 7    1  0.5467297E-010  0.4778726E+02  0.7816164E-02  0.1312668E+00
        -11   -1    0    0    0    0  0.00000000000E+00  0.00000000000E+00  0.45593999997E+02  0.45594000000E+02  0.51100000000E-03 0. -1.
         11   -1    0    0    0    0 -0.00000000000E+00 -0.00000000000E+00 -0.45593999997E+02  0.45594000000E+02  0.51100000000E-03 0.  1.
    9900012    2    1    2    0    0  0.18793014452E+02 -0.98539142146E+00 -0.39108510468E+02  0.47787262916E+02  0.19999962938E+02 0.  0.
         12    1    1    2    0    0 -0.18793014452E+02  0.98539142146E+00  0.39108510468E+02  0.43400737084E+02  0.00000000000E+00 0. -1.
         11    1    3    3    0    0  0.33228310184E+01  0.62720054036E+01 -0.14409790230E+02  0.16063041819E+02  0.51100000000E-03 0.  1.
        -11    1    3    3    0    0  0.16489785761E+02 -0.81647853086E+01 -0.23826373796E+02  0.30104365831E+02  0.51100000000E-03 0. -1.
         12    1    3    3    0    0 -0.10196023271E+01  0.90738848348E+00 -0.87234644207E+00  0.16198552652E+01  0.00000000000E+00 0. -1.
</event>
<event>
 7    1  0.5467297E-010  0.4778727E+02  0.7816164E-02  0.1312668E+00
        -11   -1    0    0    0    0  0.00000000000E+00  0.00000000000E+00  0.45593999997E+02  0.45594000000E+02  0.51100000000E-03 0.  1.
         11   -1    0    0    0    0 -0.00000000000E+00 -0.00000000000E+00 -0.45593999997E+02  0.45594000000E+02  0.51100000000E-03 0. -1.
    9900012    2    1    2    0    0  0.28731187004E+01  0.90691989162E+00  0.43296025347E+02  0.47787272752E+02  0.20000007788E+02 0.  0.
         12    1    1    2    0    0 -0.28731187004E+01 -0.90691989162E+00 -0.43296025347E+02  0.43400727248E+02  0.00000000000E+00 0. -1.
         11    1    3    3    0    0  0.32471630015E+01 -0.69486831286E+01  0.78564716675E+01  0.10979636246E+02  0.51100000000E-03 0. -1.
        -11    1    3    3    0    0  0.20160120173E+01  0.44073791313E+01  0.26409155690E+02  0.26850191802E+02  0.51100000000E-03 0.  1.
         12    1    3    3    0    0 -0.23900563184E+01  0.34482238889E+01  0.90303979896E+01  0.99574447046E+01  0.00000000000E+00 0. -1.
</event>
<event>
 7    1  0.5467297E-010  0.4778727E+02  0.7816164E-02  0.1312668E+00
        -11   -1    0    0    0    0  0.00000000000E+00  0.00000000000E+00  0.45593999997E+02  0.45594000000E+02  0.51100000000E-03 0.  1.
         11   -1    0    0    0    0 -0.00000000000E+00 -0.00000000000E+00 -0.45593999997E+02  0.45594000000E+02  0.51100000000E-03 0. -1.
    9900012    2    1    2    0    0 -0.24838718121E+01  0.95385619065E+01  0.42266648991E+02  0.47787269599E+02  0.19999993410E+02 0.  0.
         12    1    1    2    0    0  0.24838718121E+01 -0.95385619065E+01 -0.42266648991E+02  0.43400730401E+02  0.00000000000E+00 0. -1.
         11    1    3    3    0    0 -0.43917018717E+01  0.95224916750E+01  0.13697882427E+02  0.17250996385E+02  0.51100000000E-03 0. -1.
        -11    1    3    3    0    0  0.24499961925E+01 -0.35933260801E+01  0.47531081080E+01  0.64425546648E+01  0.51100000000E-03 0.  1.
        -12    1    3    3    0    0 -0.54216613293E+00  0.36093963115E+01  0.23815658456E+02  0.24093718550E+02  0.00000000000E+00 0.  1.
</event>
<event>
 7    1  0.5467297E-010  0.4778727E+02  0.7816164E-02  0.1312668E+00
        -11   -1    0    0    0    0  0.00000000000E+00  0.00000000000E+00  0.45593999997E+02  0.45594000000E+02  0.51100000000E-03 0.  1.
         11   -1    0    0    0    0 -0.00000000000E+00 -0.00000000000E+00 -0.45593999997E+02  0.45594000000E+02  0.51100000000E-03 0. -1.
    9900012    2    1    2    0    0 -0.39068226685E+02 -0.17437774711E+02  0.72952750761E+01  0.47787270034E+02  0.19999995392E+02 0.  0.
         12    1    1    2    0    0  0.39068226685E+02  0.17437774711E+02 -0.72952750761E+01  0.43400729966E+02  0.00000000000E+00 0. -1.
         11    1    3    3    0    0  0.80757733434E+00  0.15323282173E+01  0.23497589083E+01  0.29191742162E+01  0.51100000000E-03 0. -1.
        -11    1    3    3    0    0 -0.32770273943E+01 -0.36368144943E+01  0.14272910817E+00  0.48975197874E+01  0.51100000000E-03 0.  1.
         12    1    3    3    0    0 -0.36598776625E+02 -0.15333288434E+02  0.48027870596E+01  0.39970576030E+02  0.00000000000E+00 0. -1.
</event>
<event>
 7    1  0.5467297E-010  0.4778729E+02  0.7816164E-02  0.1312668E+00
        -11   -1    0    0    0    0  0.00000000000E+00  0.00000000000E+00  0.45593999997E+02  0.45594000000E+02  0.51100000000E-03 0.  1.
         11   -1    0    0    0    0 -0.00000000000E+00 -0.00000000000E+00 -0.45593999997E+02  0.45594000000E+02  0.51100000000E-03 0. -1.
    9900012    2    1    2    0    0 -0.43081307414E+01  0.34989398178E+01  0.43044381655E+02  0.47787293065E+02  0.20000100402E+02 0.  0.
         12    1    1    2    0    0  0.43081307414E+01 -0.34989398178E+01 -0.43044381655E+02  0.43400706935E+02  0.00000000000E+00 0. -1.
         11    1    3    3    0    0  0.26870403431E+01  0.89397304401E+01  0.14203517824E+02  0.16996437420E+02  0.51100000000E-03 0. -1.
        -11    1    3    3    0    0 -0.55624843845E+01 -0.33171547894E+01  0.26632470435E+02  0.27408634226E+02  0.51100000000E-03 0.  1.
         12    1    3    3    0    0 -0.14326867001E+01 -0.21236358329E+01  0.22083933971E+01  0.33822214190E+01  0.00000000000E+00 0. -1.
</event>
