<event>
 7    1  0.1899036E-009  0.4778727E+02  0.7816164E-02  0.1312668E+00
        -11   -1    0    0    0    0  0.00000000000E+00  0.00000000000E+00  0.45593999997E+02  0.45594000000E+02  0.51100000000E-03 0. -1.
         11   -1    0    0    0    0 -0.00000000000E+00 -0.00000000000E+00 -0.45593999997E+02  0.45594000000E+02  0.51100000000E-03 0.  1.
    9900012    2    1    2    0    0  0.19535629363E+02 -0.36070904996E+02 -0.14172945869E+02  0.47787269632E+02  0.19999993562E+02 0.  0.
        -12    1    1    2    0    0 -0.19535629363E+02  0.36070904996E+02  0.14172945869E+02  0.43400730368E+02  0.00000000000E+00 0.  1.
         11    1    3    3    0    0  0.39225975606E+01 -0.13524543874E+02  0.32393530013E+01  0.14449687427E+02  0.51100000000E-03 0. -1.
        -11    1    3    3    0    0  0.87565480310E+01 -0.68442181209E+01 -0.50382445306E+01  0.12202637556E+02  0.51100000000E-03 0.  1.
         12    1    3    3    0    0  0.68564837712E+01 -0.15702143002E+02 -0.12374054340E+02  0.21134944650E+02  0.00000000000E+00 0. -1.
</event>
<event>
 7    1  0.1899036E-009  0.4778727E+02  0.7816164E-02  0.1312668E+00
        -11   -1    0    0    0    0  0.00000000000E+00  0.00000000000E+00  0.45593999997E+02  0.45594000000E+02  0.51100000000E-03 0.  1.
         11   -1    0    0    0    0 -0.00000000000E+00 -0.00000000000E+00 -0.45593999997E+02  0.45594000000E+02  0.51100000000E-03 0. -1.
    9900012    2    1    2    0    0  0.22212248040E+02 -0.38815888462E+01 -0.37083317335E+02  0.47787272822E+02  0.20000008107E+02 0.  0.
        -12    1    1    2    0    0 -0.22212248040E+02  0.38815888462E+01  0.37083317335E+02  0.43400727178E+02  0.00000000000E+00 0.  1.
         11    1    3    3    0    0  0.12160756838E+02 -0.84340250765E+00 -0.18317044804E+02  0.22002487707E+02  0.51100000000E-03 0. -1.
        -11    1    3    3    0    0  0.37764787078E+01 -0.17338103014E+01  0.15855176237E+01  0.44476686014E+01  0.51100000000E-03 0.  1.
         12    1    3    3    0    0  0.62750124941E+01 -0.13043760371E+01 -0.20351790154E+02  0.21337116514E+02  0.00000000000E+00 0. -1.
</event>
<event>
 7    1  0.1899036E-009  0.4778727E+02  0.7816164E-02  0.1312668E+00
        -11   -1    0    0    0    0  0.00000000000E+00  0.00000000000E+00  0.45593999997E+02  0.45594000000E+02  0.51100000000E-03 0. -1.
         11   -1    0    0    0    0 -0.00000000000E+00 -0.00000000000E+00 -0.45593999997E+02  0.45594000000E+02  0.51100000000E-03 0.  1.
    9900012    2    1    2    0    0 -0.37373715281E+02  0.22060050111E+02  0.42780994031E+00  0.47787269290E+02  0.19999992001E+02 0.  0.
        -12    1    1    2    0    0  0.37373715281E+02 -0.22060050111E+02 -0.42780994031E+00  0.43400730710E+02  0.00000000000E+00 0.  1.
         11    1    3    3    0    0 -0.25673112085E+01 -0.15393356058E+01  0.43660384802E-01  0.29937513990E+01  0.51100000000E-03 0.  1.
        -11    1    3    3    0    0 -0.33729373288E+02  0.25690078370E+02  0.79463526776E+00  0.42406157507E+02  0.51100000000E-03 0. -1.
         12    1    3    3    0    0 -0.10770307847E+01 -0.20906926532E+01 -0.41048571226E+00  0.23873603836E+01  0.00000000000E+00 0. -1.
</event>
<event>
 7    1  0.1899036E-009  0.4778727E+02  0.7816164E-02  0.1312668E+00
        -11   -1    0    0    0    0  0.00000000000E+00  0.00000000000E+00  0.45593999997E+02  0.45594000000E+02  0.51100000000E-03 0.  1.
         11   -1    0    0    0    0 -0.00000000000E+00 -0.00000000000E+00 -0.45593999997E+02  0.45594000000E+02  0.51100000000E-03 0. -1.
    9900012    2    1    2    0    0 -0.15735113302E+02 -0.28058255184E+01 -0.40350427229E+02  0.47787269303E+02  0.19999992059E+02 0.  0.
        -12    1    1    2    0    0  0.15735113302E+02  0.28058255184E+01  0.40350427229E+02  0.43400730697E+02  0.00000000000E+00 0.  1.
         11    1    3    3    0    0 -0.13375863269E+01  0.34319303009E+01 -0.67337590753E+00  0.37444249419E+01  0.51100000000E-03 0. -1.
        -11    1    3    3    0    0 -0.72143401604E+00 -0.53483521481E+01 -0.10403851041E+02  0.11720300955E+02  0.51100000000E-03 0.  1.
         12    1    3    3    0    0 -0.13676092959E+02 -0.88940367110E+00 -0.29273200281E+02  0.32322543405E+02  0.00000000000E+00 0. -1.
</event>
<event>
 7    1  0.1899036E-009  0.4778726E+02  0.7816164E-02  0.1312668E+00
        -11   -1    0    0    0    0  0.00000000000E+00  0.00000000000E+00  0.45593999997E+02  0.45594000000E+02  0.51100000000E-03 0. -1.
         11   -1    0    0    0    0 -0.00000000000E+00 -0.00000000000E+00 -0.45593999997E+02  0.45594000000E+02  0.51100000000E-03 0.  1.
    9900012    2    1    2    0    0  0.19286515626E+02 -0.36135629305E+02  0.14348192926E+02  0.47787262328E+02  0.19999960259E+02 0.  0.
        -12    1    1    2    0    0 -0.19286515626E+02  0.36135629305E+02 -0.14348192926E+02  0.43400737672E+02  0.00000000000E+00 0.  1.
         11    1    3    3    0    0  0.97122973280E+01 -0.94913408372E+01  0.10272313400E+02  0.17027468782E+02  0.51100000000E-03 0.  1.
        -11    1    3    3    0    0  0.56942359595E+01 -0.58953432831E+01  0.50527767349E+01  0.96286005516E+01  0.51100000000E-03 0. -1.
        -12    1    3    3    0    0  0.38799823382E+01 -0.20748945184E+02 -0.97689720953E+00  0.21131192994E+02  0.00000000000E+00 0.  1.
</event>
<event>
 7    1  0.1899036E-009  0.4778727E+02  0.7816164E-02  0.1312668E+00
        -11   -1    0    0    0    0  0.00000000000E+00  0.00000000000E+00  0.45593999997E+02  0.45594000000E+02  0.51100000000E-03 0. -1.
         11   -1    0    0    0    0 -0.00000000000E+00 -0.00000000000E+00 -0.45593999997E+02  0.45594000000E+02  0.51100000000E-03 0.  1.
    9900012    2    1    2    0    0 -0.13267129301E+02 -0.40093595028E+02  0.10005511522E+02  0.47787270248E+02  0.19999996369E+02 0.  0.
        -12    1    1    2    0    0  0.13267129301E+02  0.40093595028E+02 -0.10005511522E+02  0.43400729752E+02  0.00000000000E+00 0.  1.
         11    1    3    3    0    0 -0.60193421235E+01 -0.67597809201E+01 -0.24818305612E+01  0.93854462272E+01  0.51100000000E-03 0. -1.
        -11    1    3    3    0    0 -0.83262018234E+01 -0.18853701114E+02  0.12051173089E+02  0.23875059279E+02  0.51100000000E-03 0.  1.
         12    1    3    3    0    0  0.10784146456E+01 -0.14480112994E+02  0.43616899394E+00  0.14526764742E+02  0.00000000000E+00 0. -1.
</event>
<event>
 7    1  0.1899036E-009  0.4778729E+02  0.7816164E-02  0.1312668E+00
        -11   -1    0    0    0    0  0.00000000000E+00  0.00000000000E+00  0.45593999997E+02  0.45594000000E+02  0.51100000000E-03 0. -1.
         11   -1    0    0    0    0 -0.00000000000E+00 -0.00000000000E+00 -0.45593999997E+02  0.45594000000E+02  0.51100000000E-03 0.  1.
    9900012    2    1    2    0    0  0.13948399659E+02  0.83922190866E+01  0.40232260996E+02  0.47787285500E+02  0.20000065909E+02 0.  0.
        -12    1    1    2    0    0 -0.13948399659E+02 -0.83922190866E+01 -0.40232260996E+02  0.43400714500E+02  0.00000000000E+00 0.  1.
         11    1    3    3    0    0  0.13871460747E+02  0.96274233509E+00  0.22290885308E+02  0.26272188035E+02  0.51100000000E-03 0. -1.
        -11    1    3    3    0    0  0.53182675491E+00 -0.15858694450E+01  0.76282377824E+01  0.78094707580E+01  0.51100000000E-03 0.  1.
        -12    1    3    3    0    0 -0.45488784217E+00  0.90153461965E+01  0.10313137905E+02  0.13705626708E+02  0.00000000000E+00 0.  1.
</event>
<event>
 7    1  0.1899036E-009  0.4778729E+02  0.7816164E-02  0.1312668E+00
        -11   -1    0    0    0    0  0.00000000000E+00  0.00000000000E+00  0.45593999997E+02  0.45594000000E+02  0.51100000000E-03 0.  1.
         11   -1    0    0    0    0 -0.00000000000E+00 -0.00000000000E+00 -0.45593999997E+02  0.45594000000E+02  0.51100000000E-03 0. -1.
    9900012    2    1    2    0    0 -0.16206396088E+00  0.35724695726E+02 -0.24644301161E+02  0.47787288840E+02  0.20000081139E+02 0.  0.
        -12    1    1    2    0    0  0.16206396088E+00 -0.35724695726E+02  0.24644301161E+02  0.43400711160E+02  0.00000000000E+00 0.  1.
         11    1    3    3    0    0  0.83373671683E+00  0.15657001531E+02 -0.17710631342E+02  0.23653821607E+02  0.51100000000E-03 0. -1.
        -11    1    3    3    0    0  0.17142491604E+01 -0.10937167717E+00  0.13193858144E+01  0.21659620348E+01  0.51100000000E-03 0.  1.
        -12    1    3    3    0    0 -0.27100498381E+01  0.20177065872E+02 -0.82530556340E+01  0.21967505198E+02  0.00000000000E+00 0.  1.
</event>
<event>
 7    1  0.1899036E-009  0.4778727E+02  0.7816164E-02  0.1312668E+00
        -11   -1    0    0    0    0  0.00000000000E+00  0.00000000000E+00  0.45593999997E+02  0.45594000000E+02  0.51100000000E-03 0.  1.
         11   -1    0    0    0    0 -0.00000000000E+00 -0.00000000000E+00 -0.45593999997E+02  0.45594000000E+02  0.51100000000E-03 0. -1.
    9900012    2    1    2    0    0 -0.42373127600E+01  0.35807687617E+02 -0.24155284876E+02  0.47787273055E+02  0.20000009166E+02 0.  0.
        -12    1    1    2    0    0  0.42373127600E+01 -0.35807687617E+02  0.24155284876E+02  0.43400726945E+02  0.00000000000E+00 0.  1.
         11    1    3    3    0    0 -0.12019170706E+01  0.24059053985E+01 -0.96261166404E+01  0.99947539873E+01  0.51100000000E-03 0. -1.
        -11    1    3    3    0    0 -0.48158025507E+01  0.11001683125E+02 -0.23635940379E+01  0.12239916782E+02  0.51100000000E-03 0.  1.
        -12    1    3    3    0    0  0.17804068612E+01  0.22400099093E+02 -0.12165574198E+02  0.25552602285E+02  0.00000000000E+00 0.  1.
</event>
<event>
 7    1  0.1899036E-009  0.4778727E+02  0.7816164E-02  0.1312668E+00
        -11   -1    0    0    0    0  0.00000000000E+00  0.00000000000E+00  0.45593999997E+02  0.45594000000E+02  0.51100000000E-03 0. -1.
         11   -1    0    0    0    0 -0.00000000000E+00 -0.00000000000E+00 -0.45593999997E+02  0.45594000000E+02  0.51100000000E-03 0.  1.
    9900012    2    1    2    0    0  0.14466538727E+02  0.38614527780E+02  0.13537385852E+02  0.47787270581E+02  0.19999997885E+02 0.  0.
        -12    1    1    2    0    0 -0.14466538727E+02 -0.38614527780E+02 -0.13537385852E+02  0.43400729419E+02  0.00000000000E+00 0.  1.
         11    1    3    3    0    0  0.49272015607E+01  0.10467094738E+02  0.64664685787E+01  0.13253399700E+02  0.51100000000E-03 0. -1.
        -11    1    3    3    0    0  0.72001703817E+01  0.88281329592E+01 -0.40853718211E+01  0.12102423239E+02  0.51100000000E-03 0.  1.
        -12    1    3    3    0    0  0.23391667842E+01  0.19319300083E+02  0.11156289094E+02  0.22431447642E+02  0.00000000000E+00 0.  1.
</event>
<event>
 7    1  0.1899036E-009  0.4778727E+02  0.7816164E-02  0.1312668E+00
        -11   -1    0    0    0    0  0.00000000000E+00  0.00000000000E+00  0.45593999997E+02  0.45594000000E+02  0.51100000000E-03 0.  1.
         11   -1    0    0    0    0 -0.00000000000E+00 -0.00000000000E+00 -0.45593999997E+02  0.45594000000E+02  0.51100000000E-03 0. -1.
    9900012    2    1    2    0    0  0.21019236817E+02 -0.37914053282E+02  0.20831441331E+01  0.47787271411E+02  0.20000001669E+02 0.  0.
        -12    1    1    2    0    0 -0.21019236817E+02  0.37914053282E+02 -0.20831441331E+01  0.43400728589E+02  0.00000000000E+00 0.  1.
         11    1    3    3    0    0  0.16073098001E+02 -0.29836704942E+02  0.13813023697E+01  0.33918747584E+02  0.51100000000E-03 0. -1.
        -11    1    3    3    0    0  0.62118656316E+01 -0.40085239933E+01  0.40679491977E+01  0.84382314596E+01  0.51100000000E-03 0.  1.
         12    1    3    3    0    0 -0.12657268159E+01 -0.40688243466E+01 -0.33661074342E+01  0.54302923673E+01  0.00000000000E+00 0. -1.
</event>
<event>
 7    1  0.1899036E-009  0.4778727E+02  0.7816164E-02  0.1312668E+00
        -11   -1    0    0    0    0  0.00000000000E+00  0.00000000000E+00  0.45593999997E+02  0.45594000000E+02  0.51100000000E-03 0. -1.
         11   -1    0    0    0    0 -0.00000000000E+00 -0.00000000000E+00 -0.45593999997E+02  0.45594000000E+02  0.51100000000E-03 0.  1.
    9900012    2    1    2    0    0  0.78360712277E+01 -0.24883309882E+02  0.34684868355E+02  0.47787271714E+02  0.20000003053E+02 0.  0.
        -12    1    1    2    0    0 -0.78360712277E+01  0.24883309882E+02 -0.34684868355E+02  0.43400728286E+02  0.00000000000E+00 0.  1.
         11    1    3    3    0    0  0.48748269529E+01 -0.14446532804E+02  0.24876565888E+02  0.29177213344E+02  0.51100000000E-03 0. -1.
        -11    1    3    3    0    0  0.29578446143E+01  0.16733782648E+01  0.37779571911E+01  0.50815352383E+01  0.51100000000E-03 0.  1.
         12    1    3    3    0    0  0.33996604451E-02 -0.12110155342E+02  0.60303452757E+01  0.13528523131E+02  0.00000000000E+00 0. -1.
</event>
<event>
 7    1  0.1899036E-009  0.4778728E+02  0.7816164E-02  0.1312668E+00
        -11   -1    0    0    0    0  0.00000000000E+00  0.00000000000E+00  0.45593999997E+02  0.45594000000E+02  0.51100000000E-03 0. -1.
         11   -1    0    0    0    0 -0.00000000000E+00 -0.00000000000E+00 -0.45593999997E+02  0.45594000000E+02  0.51100000000E-03 0.  1.
    9900012    2    1    2    0    0  0.15274680474E+02  0.21735312946E+02  0.34320293823E+02  0.47787282718E+02  0.20000053225E+02 0.  0.
        -12    1    1    2    0    0 -0.15274680474E+02 -0.21735312946E+02 -0.34320293823E+02  0.43400717282E+02  0.00000000000E+00 0.  1.
         11    1    3    3    0    0  0.59064579659E+01  0.39107147923E+01  0.10631386067E+00  0.70845775307E+01  0.51100000000E-03 0. -1.
        -11    1    3    3    0    0  0.76308492680E+01  0.14777185327E+02  0.19751371031E+02  0.25820761503E+02  0.51100000000E-03 0.  1.
        -12    1    3    3    0    0  0.17373732400E+01  0.30474128275E+01  0.14462608932E+02  0.14881943685E+02  0.00000000000E+00 0.  1.
</event>
<event>
 7    1  0.1899036E-009  0.4778727E+02  0.7816164E-02  0.1312668E+00
        -11   -1    0    0    0    0  0.00000000000E+00  0.00000000000E+00  0.45593999997E+02  0.45594000000E+02  0.51100000000E-03 0.  1.
         11   -1    0    0    0    0 -0.00000000000E+00 -0.00000000000E+00 -0.45593999997E+02  0.45594000000E+02  0.51100000000E-03 0. -1.
    9900012    2    1    2    0    0  0.23920758053E+02 -0.74086566821E+00 -0.36205960502E+02  0.47787272775E+02  0.20000007892E+02 0.  0.
        -12    1    1    2    0    0 -0.23920758053E+02  0.74086566821E+00  0.36205960502E+02  0.43400727225E+02  0.00000000000E+00 0.  1.
         11    1    3    3    0    0  0.15573743133E+02 -0.26344255342E+01 -0.23228530798E+02  0.28089968251E+02  0.51100000000E-03 0. -1.
        -11    1    3    3    0    0  0.61798991512E+01 -0.26314328758E+01 -0.11034246033E+01  0.68068449824E+01  0.51100000000E-03 0.  1.
        -12    1    3    3    0    0  0.21671157689E+01  0.45249927417E+01 -0.11874005100E+02  0.12890459541E+02  0.00000000000E+00 0.  1.
</event>
<event>
 7    1  0.1899036E-009  0.4778728E+02  0.7816164E-02  0.1312668E+00
        -11   -1    0    0    0    0  0.00000000000E+00  0.00000000000E+00  0.45593999997E+02  0.45594000000E+02  0.51100000000E-03 0.  1.
         11   -1    0    0    0    0 -0.00000000000E+00 -0.00000000000E+00 -0.45593999997E+02  0.45594000000E+02  0.51100000000E-03 0. -1.
    9900012    2    1    2    0    0 -0.40479892741E+02 -0.74229460256E+01 -0.13780450966E+02  0.47787277969E+02  0.20000031571E+02 0.  0.
        -12    1    1    2    0    0  0.40479892741E+02  0.74229460256E+01  0.13780450966E+02  0.43400722031E+02  0.00000000000E+00 0.  1.
         11    1    3    3    0    0 -0.31570815958E+02 -0.10293826184E+02 -0.30090296204E+01  0.33342668419E+02  0.51100000000E-03 0. -1.
        -11    1    3    3    0    0 -0.88877904063E+00  0.12814518688E+00 -0.22626484309E+01  0.24343228124E+01  0.51100000000E-03 0.  1.
         12    1    3    3    0    0 -0.80202977420E+01  0.27427349717E+01 -0.85087729152E+01  0.12010286737E+02  0.00000000000E+00 0. -1.
</event>
<event>
 7    1  0.1899036E-009  0.4778727E+02  0.7816164E-02  0.1312668E+00
        -11   -1    0    0    0    0  0.00000000000E+00  0.00000000000E+00  0.45593999997E+02  0.45594000000E+02  0.51100000000E-03 0. -1.
         11   -1    0    0    0    0 -0.00000000000E+00 -0.00000000000E+00 -0.45593999997E+02  0.45594000000E+02  0.51100000000E-03 0.  1.
    9900012    2    1    2    0    0 -0.19474083686E+02  0.21568287600E+02  0.32236508382E+02  0.47787269152E+02  0.19999991373E+02 0.  0.
        -12    1    1    2    0    0  0.19474083686E+02 -0.21568287600E+02 -0.32236508382E+02  0.43400730848E+02  0.00000000000E+00 0.  1.
         11    1    3    3    0    0 -0.20618851983E+02  0.18601164336E+02  0.25191715560E+02  0.37493504836E+02  0.51100000000E-03 0. -1.
        -11    1    3    3    0    0  0.27112144726E+00  0.42965574997E+01  0.74924086334E+01  0.86411862946E+01  0.51100000000E-03 0.  1.
        -12    1    3    3    0    0  0.87364684967E+00 -0.13294342353E+01 -0.44761581116E+00  0.16525780218E+01  0.00000000000E+00 0.  1.
</event>
<event>
 7    1  0.1899036E-009  0.4778724E+02  0.7816164E-02  0.1312668E+00
        -11   -1    0    0    0    0  0.00000000000E+00  0.00000000000E+00  0.45593999997E+02  0.45594000000E+02  0.51100000000E-03 0.  1.
         11   -1    0    0    0    0 -0.00000000000E+00 -0.00000000000E+00 -0.45593999997E+02  0.45594000000E+02  0.51100000000E-03 0. -1.
    9900012    2    1    2    0    0  0.37061179347E+02  0.21397832083E+02 -0.72268583198E+01  0.47787242937E+02  0.19999871847E+02 0.  0.
        -12    1    1    2    0    0 -0.37061179347E+02 -0.21397832083E+02  0.72268583198E+01  0.43400757063E+02  0.00000000000E+00 0.  1.
         11    1    3    3    0    0  0.11889222385E+02  0.20591086216E+01  0.15095516563E+01  0.12160274820E+02  0.51100000000E-03 0. -1.
        -11    1    3    3    0    0  0.38788135283E+01  0.45962948804E+00  0.29180848106E+01  0.48756202556E+01  0.51100000000E-03 0.  1.
        -12    1    3    3    0    0  0.21293143434E+02  0.18879093974E+02 -0.11654494787E+02  0.30751347862E+02  0.00000000000E+00 0.  1.
</event>
<event>
 7    1  0.1899036E-009  0.4778727E+02  0.7816164E-02  0.1312668E+00
        -11   -1    0    0    0    0  0.00000000000E+00  0.00000000000E+00  0.45593999997E+02  0.45594000000E+02  0.51100000000E-03 0.  1.
         11   -1    0    0    0    0 -0.00000000000E+00 -0.00000000000E+00 -0.45593999997E+02  0.45594000000E+02  0.51100000000E-03 0. -1.
    9900012    2    1    2    0    0  0.12004191149E+02  0.25410143463E+02 -0.33073358732E+02  0.47787273580E+02  0.20000011562E+02 0.  0.
        -12    1    1    2    0    0 -0.12004191149E+02 -0.25410143463E+02  0.33073358732E+02  0.43400726420E+02  0.00000000000E+00 0.  1.
         11    1    3    3    0    0  0.68105914868E+01  0.59572753114E+01 -0.83352319162E+01  0.12302413458E+02  0.51100000000E-03 0. -1.
        -11    1    3    3    0    0  0.10526272666E+02  0.14133776280E+02 -0.14787903773E+02  0.23005393855E+02  0.51100000000E-03 0.  1.
        -12    1    3    3    0    0 -0.53326730042E+01  0.53190918716E+01 -0.99502230426E+01  0.12479466267E+02  0.00000000000E+00 0.  1.
</event>
<event>
 7    1  0.1899036E-009  0.4778727E+02  0.7816164E-02  0.1312668E+00
        -11   -1    0    0    0    0  0.00000000000E+00  0.00000000000E+00  0.45593999997E+02  0.45594000000E+02  0.51100000000E-03 0.  1.
         11   -1    0    0    0    0 -0.00000000000E+00 -0.00000000000E+00 -0.45593999997E+02  0.45594000000E+02  0.51100000000E-03 0. -1.
    9900012    2    1    2    0    0 -0.11314951414E+02  0.30620204538E+02 -0.28600674564E+02  0.47787266862E+02  0.19999980929E+02 0.  0.
        -12    1    1    2    0    0  0.11314951414E+02 -0.30620204538E+02  0.28600674564E+02  0.43400733138E+02  0.00000000000E+00 0.  1.
         11    1    3    3    0    0  0.48045332794E+00  0.19481957210E+01 -0.83661882170E+01  0.86034532317E+01  0.51100000000E-03 0. -1.
        -11    1    3    3    0    0 -0.12186515496E+02  0.19207152127E+02 -0.18985381820E+02  0.29628880773E+02  0.51100000000E-03 0.  1.
         12    1    3    3    0    0  0.39111075456E+00  0.94648566894E+01 -0.12491045274E+01  0.95549328566E+01  0.00000000000E+00 0. -1.
</event>
<event>
 7    1  0.1899036E-009  0.4778727E+02  0.7816164E-02  0.1312668E+00
        -11   -1    0    0    0    0  0.00000000000E+00  0.00000000000E+00  0.45593999997E+02  0.45594000000E+02  0.51100000000E-03 0. -1.
         11   -1    0    0    0    0 -0.00000000000E+00 -0.00000000000E+00 -0.45593999997E+02  0.45594000000E+02  0.51100000000E-03 0.  1.
    9900012    2    1    2    0    0  0.25659591103E+02 -0.18255423365E+02  0.29865503336E+02  0.47787269737E+02  0.19999994040E+02 0.  0.
        -12    1    1    2    0    0 -0.25659591103E+02  0.18255423365E+02 -0.29865503336E+02  0.43400730263E+02  0.00000000000E+00 0.  1.
         11    1    3    3    0    0  0.36041689640E+01 -0.11704121178E+02  0.11994894700E+02  0.17142169804E+02  0.51100000000E-03 0. -1.
        -11    1    3    3    0    0  0.15717950396E+02 -0.76387960634E+01  0.89101166574E+01  0.19616201188E+02  0.51100000000E-03 0.  1.
        -12    1    3    3    0    0  0.63374717430E+01  0.10874938757E+01  0.89604919789E+01  0.11028898745E+02  0.00000000000E+00 0.  1.
</event>
<event>
 7    1  0.1899036E-009  0.4778727E+02  0.7816164E-02  0.1312668E+00
        -11   -1    0    0    0    0  0.00000000000E+00  0.00000000000E+00  0.45593999997E+02  0.45594000000E+02  0.51100000000E-03 0.  1.
         11   -1    0    0    0    0 -0.00000000000E+00 -0.00000000000E+00 -0.45593999997E+02  0.45594000000E+02  0.51100000000E-03 0. -1.
    9900012    2    1    2    0    0 -0.23706121569E+02  0.22630240910E+02 -0.28451986983E+02  0.47787267670E+02  0.19999984615E+02 0.  0.
        -12    1    1    2    0    0  0.23706121569E+02 -0.22630240910E+02  0.28451986983E+02  0.43400732330E+02  0.00000000000E+00 0.  1.
         11    1    3    3    0    0 -0.24388892822E+02  0.15869689569E+02 -0.19225659052E+02  0.34875365322E+02  0.51100000000E-03 0. -1.
        -11    1    3    3    0    0 -0.58129133397E+00  0.50645384207E+01 -0.21613174328E+01  0.55370337127E+01  0.51100000000E-03 0.  1.
         12    1    3    3    0    0  0.12640625869E+01  0.16960129204E+01 -0.70650104978E+01  0.73748686350E+01  0.00000000000E+00 0. -1.
</event>
<event>
 7    1  0.1899036E-009  0.4778728E+02  0.7816164E-02  0.1312668E+00
        -11   -1    0    0    0    0  0.00000000000E+00  0.00000000000E+00  0.45593999997E+02  0.45594000000E+02  0.51100000000E-03 0.  1.
         11   -1    0    0    0    0 -0.00000000000E+00 -0.00000000000E+00 -0.45593999997E+02  0.45594000000E+02  0.51100000000E-03 0. -1.
    9900012    2    1    2    0    0 -0.47641782991E+01 -0.34974117325E+02 -0.25253439928E+02  0.47787279894E+02  0.20000040348E+02 0.  0.
        -12    1    1    2    0    0  0.47641782991E+01  0.34974117325E+02  0.25253439928E+02  0.43400720106E+02  0.00000000000E+00 0.  1.
         11    1    3    3    0    0  0.44705617410E+01 -0.14150884517E+02 -0.84272863115E+01  0.17066124625E+02  0.51100000000E-03 0. -1.
        -11    1    3    3    0    0 -0.26854654460E+01 -0.30652250426E+01 -0.96570430535E+01  0.10481689273E+02  0.51100000000E-03 0.  1.
         12    1    3    3    0    0 -0.65492745941E+01 -0.17758007765E+02 -0.71691105631E+01  0.20239465995E+02  0.00000000000E+00 0. -1.
</event>
<event>
 7    1  0.1899036E-009  0.4778727E+02  0.7816164E-02  0.1312668E+00
        -11   -1    0    0    0    0  0.00000000000E+00  0.00000000000E+00  0.45593999997E+02  0.45594000000E+02  0.51100000000E-03 0.  1.
         11   -1    0    0    0    0 -0.00000000000E+00 -0.00000000000E+00 -0.45593999997E+02  0.45594000000E+02  0.51100000000E-03 0. -1.
    9900012    2    1    2    0    0 -0.11674599098E+02 -0.41412701988E+02 -0.56846411358E+01  0.47787270802E+02  0.19999998896E+02 0.  0.
        -12    1    1    2    0    0  0.11674599098E+02  0.41412701988E+02  0.56846411358E+01  0.43400729198E+02  0.00000000000E+00 0.  1.
         11    1    3    3    0    0  0.14208632144E+01 -0.88618899706E+01 -0.39869863269E+01  0.98207945889E+01  0.51100000000E-03 0. -1.
        -11    1    3    3    0    0 -0.44068615834E+01 -0.19767588615E+02 -0.72966243274E+01  0.21527162273E+02  0.51100000000E-03 0.  1.
        -12    1    3    3    0    0 -0.86886007287E+01 -0.12783223402E+02  0.55989695185E+01  0.16439313941E+02  0.00000000000E+00 0.  1.
</event>
<event>
 7    1  0.1899036E-009  0.4778727E+02  0.7816164E-02  0.1312668E+00
        -11   -1    0    0    0    0  0.00000000000E+00  0.00000000000E+00  0.45593999997E+02  0.45594000000E+02  0.51100000000E-03 0.  1.
         11   -1    0    0    0    0 -0.00000000000E+00 -0.00000000000E+00 -0.45593999997E+02  0.45594000000E+02  0.51100000000E-03 0. -1.
    9900012    2    1    2    0    0 -0.19845819115E+02 -0.38259034859E+02 -0.51002820662E+01  0.47787272335E+02  0.20000005884E+02 0.  0.
        -12    1    1    2    0    0  0.19845819115E+02  0.38259034859E+02  0.51002820662E+01  0.43400727665E+02  0.00000000000E+00 0.  1.
         11    1    3    3    0    0 -0.40780882313E+01 -0.85876664957E+01  0.53373631537E+01  0.10902580665E+02  0.51100000000E-03 0. -1.
        -11    1    3    3    0    0 -0.12806298679E+01 -0.12418060088E+02 -0.12213691596E+01  0.12543523113E+02  0.51100000000E-03 0.  1.
         12    1    3    3    0    0 -0.14487101016E+02 -0.17253308276E+02 -0.92162760603E+01  0.24341168557E+02  0.00000000000E+00 0. -1.
</event>
<event>
 7    1  0.1899036E-009  0.4778727E+02  0.7816164E-02  0.1312668E+00
        -11   -1    0    0    0    0  0.00000000000E+00  0.00000000000E+00  0.45593999997E+02  0.45594000000E+02  0.51100000000E-03 0. -1.
         11   -1    0    0    0    0 -0.00000000000E+00 -0.00000000000E+00 -0.45593999997E+02  0.45594000000E+02  0.51100000000E-03 0.  1.
    9900012    2    1    2    0    0 -0.35677796564E+02  0.81971458686E+01  0.23313630444E+02  0.47787265760E+02  0.19999975908E+02 0.  0.
        -12    1    1    2    0    0  0.35677796564E+02 -0.81971458686E+01 -0.23313630444E+02  0.43400734240E+02  0.00000000000E+00 0.  1.
         11    1    3    3    0    0 -0.11125910492E+02  0.42279113429E+01  0.80955300648E+00  0.11929647729E+02  0.51100000000E-03 0. -1.
        -11    1    3    3    0    0 -0.95146262043E+01 -0.29502736871E+01  0.14180697504E+02  0.17329870415E+02  0.51100000000E-03 0.  1.
         12    1    3    3    0    0 -0.15037259867E+02  0.69195082128E+01  0.83233799335E+01  0.18527747617E+02  0.00000000000E+00 0. -1.
</event>
<event>
 7    1  0.1899036E-009  0.4778727E+02  0.7816164E-02  0.1312668E+00
        -11   -1    0    0    0    0  0.00000000000E+00  0.00000000000E+00  0.45593999997E+02  0.45594000000E+02  0.51100000000E-03 0. -1.
         11   -1    0    0    0    0 -0.00000000000E+00 -0.00000000000E+00 -0.45593999997E+02  0.45594000000E+02  0.51100000000E-03 0.  1.
    9900012    2    1    2    0    0  0.41341042971E+02 -0.16870097653E+01  0.13103269719E+02  0.47787268287E+02  0.19999987430E+02 0.  0.
        -12    1    1    2    0    0 -0.41341042971E+02  0.16870097653E+01 -0.13103269719E+02  0.43400731713E+02  0.00000000000E+00 0.  1.
         11    1    3    3    0    0  0.73473965341E+01 -0.18983727955E+01 -0.37926217488E+01  0.84836333661E+01  0.51100000000E-03 0. -1.
        -11    1    3    3    0    0  0.48503995648E+01 -0.72608522116E+00  0.69286615667E+01  0.84888118753E+01  0.51100000000E-03 0.  1.
         12    1    3    3    0    0  0.29143246872E+02  0.93744825139E+00  0.99672299008E+01  0.30814823046E+02  0.00000000000E+00 0. -1.
</event>
<event>
 7    1  0.2570049E-009  0.4778727E+02  0.7816164E-02  0.1312668E+00
        -11   -1    0    0    0    0  0.00000000000E+00  0.00000000000E+00  0.45593999997E+02  0.45594000000E+02  0.51100000000E-03 0.  1.
         11   -1    0    0    0    0 -0.00000000000E+00 -0.00000000000E+00 -0.45593999997E+02  0.45594000000E+02  0.51100000000E-03 0. -1.
    9900012    2    1    2    0    0 -0.42194553220E+02 -0.15407925134E+00 -0.10159680721E+02  0.47787272193E+02  0.20000005236E+02 0.  0.
        -12    1    1    2    0    0  0.42194553220E+02  0.15407925134E+00  0.10159680721E+02  0.43400727807E+02  0.00000000000E+00 0.  1.
         11    1    3    3    0    0 -0.12484670460E+02 -0.26023979290E+01 -0.11318526462E+01  0.12803146572E+02  0.51100000000E-03 0. -1.
        -11    1    3    3    0    0 -0.14970326727E+02  0.48695290651E+01 -0.11949538802E+02  0.19763969072E+02  0.51100000000E-03 0.  1.
        -12    1    3    3    0    0 -0.14739556034E+02 -0.24212103874E+01  0.29217107275E+01  0.15220156549E+02  0.00000000000E+00 0.  1.
</event>
<event>
 7    1  0.1899036E-009  0.4778727E+02  0.7816164E-02  0.1312668E+00
        -11   -1    0    0    0    0  0.00000000000E+00  0.00000000000E+00  0.45593999997E+02  0.45594000000E+02  0.51100000000E-03 0.  1.
         11   -1    0    0    0    0 -0.00000000000E+00 -0.00000000000E+00 -0.45593999997E+02  0.45594000000E+02  0.51100000000E-03 0. -1.
    9900012    2    1    2    0    0  0.58000766147E+01  0.45975928945E+01 -0.42764994413E+02  0.47787268482E+02  0.19999988318E+02 0.  0.
        -12    1    1    2    0    0 -0.58000766147E+01 -0.45975928945E+01  0.42764994413E+02  0.43400731518E+02  0.00000000000E+00 0.  1.
         11    1    3    3    0    0  0.41815885053E+00 -0.22432869813E+01 -0.34426909548E+00  0.23077510213E+01  0.51100000000E-03 0.  1.
        -11    1    3    3    0    0  0.65999710785E+01  0.38264784648E+00 -0.34772965004E+02  0.35395834968E+02  0.51100000000E-03 0. -1.
         12    1    3    3    0    0 -0.12180533143E+01  0.64582320294E+01 -0.76477603130E+01  0.10083682493E+02  0.00000000000E+00 0. -1.
</event>
<event>
 7    1  0.1899036E-009  0.4778727E+02  0.7816164E-02  0.1312668E+00
        -11   -1    0    0    0    0  0.00000000000E+00  0.00000000000E+00  0.45593999997E+02  0.45594000000E+02  0.51100000000E-03 0.  1.
         11   -1    0    0    0    0 -0.00000000000E+00 -0.00000000000E+00 -0.45593999997E+02  0.45594000000E+02  0.51100000000E-03 0. -1.
    9900012    2    1    2    0    0 -0.31804964973E+02 -0.35134747883E+01 -0.29321032445E+02  0.47787271369E+02  0.20000001480E+02 0.  0.
        -12    1    1    2    0    0  0.31804964973E+02  0.35134747883E+01  0.29321032445E+02  0.43400728631E+02  0.00000000000E+00 0.  1.
         11    1    3    3    0    0 -0.11419030454E+02  0.22241861769E+01 -0.10420008353E+02  0.15617869092E+02  0.51100000000E-03 0. -1.
        -11    1    3    3    0    0 -0.62123275657E+01  0.47386357449E+01 -0.28082068475E+01  0.83026326226E+01  0.51100000000E-03 0.  1.
        -12    1    3    3    0    0 -0.14173606954E+02 -0.10476296710E+02 -0.16092817245E+02  0.23866769654E+02  0.00000000000E+00 0.  1.
</event>
<event>
 7    1  0.1899036E-009  0.4778727E+02  0.7816164E-02  0.1312668E+00
        -11   -1    0    0    0    0  0.00000000000E+00  0.00000000000E+00  0.45593999997E+02  0.45594000000E+02  0.51100000000E-03 0. -1.
         11   -1    0    0    0    0 -0.00000000000E+00 -0.00000000000E+00 -0.45593999997E+02  0.45594000000E+02  0.51100000000E-03 0.  1.
    9900012    2    1    2    0    0 -0.24523672406E+02 -0.14548789312E+02  0.32719189001E+02  0.47787272960E+02  0.20000008733E+02 0.  0.
        -12    1    1    2    0    0  0.24523672406E+02  0.14548789312E+02 -0.32719189001E+02  0.43400727040E+02  0.00000000000E+00 0.  1.
         11    1    3    3    0    0 -0.72533984298E+01 -0.65812916692E+01  0.58473108791E+01  0.11406850292E+02  0.51100000000E-03 0. -1.
        -11    1    3    3    0    0 -0.18484745477E+02 -0.31839647989E+01  0.16870821004E+02  0.25227922007E+02  0.51100000000E-03 0.  1.
        -12    1    3    3    0    0  0.12144715009E+01 -0.47835328434E+01  0.10001057118E+02  0.11152500660E+02  0.00000000000E+00 0.  1.
</event>
<event>
 7    1  0.1899036E-009  0.4778727E+02  0.7816164E-02  0.1312668E+00
        -11   -1    0    0    0    0  0.00000000000E+00  0.00000000000E+00  0.45593999997E+02  0.45594000000E+02  0.51100000000E-03 0.  1.
         11   -1    0    0    0    0 -0.00000000000E+00 -0.00000000000E+00 -0.45593999997E+02  0.45594000000E+02  0.51100000000E-03 0. -1.
    9900012    2    1    2    0    0  0.28495610166E+02 -0.27051346875E+02 -0.18434979962E+02  0.47787266680E+02  0.19999980101E+02 0.  0.
        -12    1    1    2    0    0 -0.28495610166E+02  0.27051346875E+02  0.18434979962E+02  0.43400733320E+02  0.00000000000E+00 0.  1.
         11    1    3    3    0    0  0.11282809560E+02 -0.15007936085E+01 -0.73659582429E+01  0.13557710504E+02  0.51100000000E-03 0. -1.
        -11    1    3    3    0    0  0.71601069315E+01 -0.94228412329E+01  0.73575454264E+00  0.11857419752E+02  0.51100000000E-03 0.  1.
         12    1    3    3    0    0  0.10052693675E+02 -0.16127712034E+02 -0.11804776261E+02  0.22372136424E+02  0.00000000000E+00 0. -1.
</event>
<event>
 7    1  0.1899036E-009  0.4778727E+02  0.7816164E-02  0.1312668E+00
        -11   -1    0    0    0    0  0.00000000000E+00  0.00000000000E+00  0.45593999997E+02  0.45594000000E+02  0.51100000000E-03 0.  1.
         11   -1    0    0    0    0 -0.00000000000E+00 -0.00000000000E+00 -0.45593999997E+02  0.45594000000E+02  0.51100000000E-03 0. -1.
    9900012    2    1    2    0    0 -0.10806768439E+01 -0.40468095731E+02 -0.15645725174E+02  0.47787270159E+02  0.19999995962E+02 0.  0.
        -12    1    1    2    0    0  0.10806768439E+01  0.40468095731E+02  0.15645725174E+02  0.43400729841E+02  0.00000000000E+00 0.  1.
         11    1    3    3    0    0  0.53112559393E+01 -0.11995834675E+02 -0.80151473005E+01  0.15373746313E+02  0.51100000000E-03 0. -1.
        -11    1    3    3    0    0 -0.64637136936E+01 -0.80040974034E+01 -0.59298672441E+01  0.11874699817E+02  0.51100000000E-03 0.  1.
         12    1    3    3    0    0  0.71780910418E-01 -0.20468163653E+02 -0.17007106297E+01  0.20538824028E+02  0.00000000000E+00 0. -1.
</event>
<event>
 7    1  0.1899036E-009  0.4778727E+02  0.7816164E-02  0.1312668E+00
        -11   -1    0    0    0    0  0.00000000000E+00  0.00000000000E+00  0.45593999997E+02  0.45594000000E+02  0.51100000000E-03 0.  1.
         11   -1    0    0    0    0 -0.00000000000E+00 -0.00000000000E+00 -0.45593999997E+02  0.45594000000E+02  0.51100000000E-03 0. -1.
    9900012    2    1    2    0    0  0.23079813296E+02 -0.16318689889E+02 -0.32933961649E+02  0.47787271304E+02  0.20000001182E+02 0.  0.
        -12    1    1    2    0    0 -0.23079813296E+02  0.16318689889E+02  0.32933961649E+02  0.43400728696E+02  0.00000000000E+00 0.  1.
         11    1    3    3    0    0  0.60648081561E+01  0.19179466128E+01 -0.14725425661E+02  0.16040529241E+02  0.51100000000E-03 0.  1.
        -11    1    3    3    0    0  0.27876102377E+01 -0.80000186504E+01 -0.55957162524E+01  0.10152985270E+02  0.51100000000E-03 0. -1.
        -12    1    3    3    0    0  0.14227394902E+02 -0.10236617852E+02 -0.12612819735E+02  0.21593756793E+02  0.00000000000E+00 0.  1.
</event>
<event>
 7    1  0.1899036E-009  0.4778727E+02  0.7816164E-02  0.1312668E+00
        -11   -1    0    0    0    0  0.00000000000E+00  0.00000000000E+00  0.45593999997E+02  0.45594000000E+02  0.51100000000E-03 0. -1.
         11   -1    0    0    0    0 -0.00000000000E+00 -0.00000000000E+00 -0.45593999997E+02  0.45594000000E+02  0.51100000000E-03 0.  1.
    9900012    2    1    2    0    0 -0.28620112423E+02  0.16810514999E+02  0.27962814931E+02  0.47787271106E+02  0.20000000283E+02 0.  0.
        -12    1    1    2    0    0  0.28620112423E+02 -0.16810514999E+02 -0.27962814931E+02  0.43400728894E+02  0.00000000000E+00 0.  1.
         11    1    3    3    0    0 -0.79712756656E+01  0.70509119694E+01  0.12230823442E+02  0.16212638208E+02  0.51100000000E-03 0. -1.
        -11    1    3    3    0    0 -0.16950119825E+02  0.35119092666E+01  0.39816349964E+01  0.17762136310E+02  0.51100000000E-03 0.  1.
         12    1    3    3    0    0 -0.36987169320E+01  0.62476937633E+01  0.11750356492E+02  0.13812496588E+02  0.00000000000E+00 0. -1.
</event>
<event>
 7    1  0.1899036E-009  0.4778728E+02  0.7816164E-02  0.1312668E+00
        -11   -1    0    0    0    0  0.00000000000E+00  0.00000000000E+00  0.45593999997E+02  0.45594000000E+02  0.51100000000E-03 0. -1.
         11   -1    0    0    0    0 -0.00000000000E+00 -0.00000000000E+00 -0.45593999997E+02  0.45594000000E+02  0.51100000000E-03 0.  1.
    9900012    2    1    2    0    0 -0.15139205104E+02  0.84152371738E+01  0.39794606016E+02  0.47787280929E+02  0.20000045069E+02 0.  0.
        -12    1    1    2    0    0  0.15139205104E+02 -0.84152371738E+01 -0.39794606016E+02  0.43400719071E+02  0.00000000000E+00 0.  1.
         11    1    3    3    0    0 -0.17566412383E+02  0.49027489379E+01  0.39454081910E+02  0.43465392795E+02  0.51100000000E-03 0. -1.
        -11    1    3    3    0    0  0.10538275491E+01  0.10889833222E+01  0.24157763768E+00  0.15345348466E+01  0.51100000000E-03 0.  1.
         12    1    3    3    0    0  0.13733797300E+01  0.24235049136E+01  0.98946468284E-01  0.27873532881E+01  0.00000000000E+00 0. -1.
</event>
<event>
 7    1  0.1899036E-009  0.4778727E+02  0.7816164E-02  0.1312668E+00
        -11   -1    0    0    0    0  0.00000000000E+00  0.00000000000E+00  0.45593999997E+02  0.45594000000E+02  0.51100000000E-03 0.  1.
         11   -1    0    0    0    0 -0.00000000000E+00 -0.00000000000E+00 -0.45593999997E+02  0.45594000000E+02  0.51100000000E-03 0. -1.
    9900012    2    1    2    0    0 -0.20748621510E+02  0.16146348804E+01 -0.38085570204E+02  0.47787274221E+02  0.20000014485E+02 0.  0.
        -12    1    1    2    0    0  0.20748621510E+02 -0.16146348804E+01  0.38085570204E+02  0.43400725779E+02  0.00000000000E+00 0.  1.
         11    1    3    3    0    0 -0.36849591836E+01 -0.66557780854E+01 -0.19643758003E+02  0.21065505805E+02  0.51100000000E-03 0. -1.
        -11    1    3    3    0    0 -0.93418920387E+01  0.28296553377E+01 -0.10921112226E+02  0.14647477213E+02  0.51100000000E-03 0.  1.
        -12    1    3    3    0    0 -0.77217702875E+01  0.54407576280E+01 -0.75206999750E+01  0.12074291203E+02  0.00000000000E+00 0.  1.
</event>
<event>
 7    1  0.1899036E-009  0.4778727E+02  0.7816164E-02  0.1312668E+00
        -11   -1    0    0    0    0  0.00000000000E+00  0.00000000000E+00  0.45593999997E+02  0.45594000000E+02  0.51100000000E-03 0. -1.
         11   -1    0    0    0    0 -0.00000000000E+00 -0.00000000000E+00 -0.45593999997E+02  0.45594000000E+02  0.51100000000E-03 0.  1.
    9900012    2    1    2    0    0 -0.66390675506E+00  0.11616490591E+02  0.41811954355E+02  0.47787272439E+02  0.20000006358E+02 0.  0.
        -12    1    1    2    0    0  0.66390675506E+00 -0.11616490591E+02 -0.41811954355E+02  0.43400727561E+02  0.00000000000E+00 0.  1.
         11    1    3    3    0    0 -0.24586152686E+01  0.56789737911E+01  0.35445173641E+02  0.35981326644E+02  0.51100000000E-03 0. -1.
        -11    1    3    3    0    0 -0.18243084038E+01 -0.81928086641E+00  0.25576582025E+01  0.32466810795E+01  0.51100000000E-03 0.  1.
        -12    1    3    3    0    0  0.36190169173E+01  0.67567976666E+01  0.38091225114E+01  0.85592647150E+01  0.00000000000E+00 0.  1.
</event>
<event>
 7    1  0.1899036E-009  0.4778727E+02  0.7816164E-02  0.1312668E+00
        -11   -1    0    0    0    0  0.00000000000E+00  0.00000000000E+00  0.45593999997E+02  0.45594000000E+02  0.51100000000E-03 0.  1.
         11   -1    0    0    0    0 -0.00000000000E+00 -0.00000000000E+00 -0.45593999997E+02  0.45594000000E+02  0.51100000000E-03 0. -1.
    9900012    2    1    2    0    0  0.40884462226E+02  0.11769306572E+02 -0.85771589914E+01  0.47787268612E+02  0.19999988908E+02 0.  0.
        -12    1    1    2    0    0 -0.40884462226E+02 -0.11769306572E+02  0.85771589914E+01  0.43400731388E+02  0.00000000000E+00 0.  1.
         11    1    3    3    0    0  0.29147723988E+02  0.13485741090E+02 -0.16386098056E+01  0.32158048274E+02  0.51100000000E-03 0. -1.
        -11    1    3    3    0    0  0.10738979067E+02 -0.26876992083E+01 -0.30260699359E+01  0.11476345148E+02  0.51100000000E-03 0.  1.
        -12    1    3    3    0    0  0.99775917035E+00  0.97126469022E+00 -0.39124792499E+01  0.41528751897E+01  0.00000000000E+00 0.  1.
</event>
<event>
 7    1  0.1899036E-009  0.4778727E+02  0.7816164E-02  0.1312668E+00
        -11   -1    0    0    0    0  0.00000000000E+00  0.00000000000E+00  0.45593999997E+02  0.45594000000E+02  0.51100000000E-03 0. -1.
         11   -1    0    0    0    0 -0.00000000000E+00 -0.00000000000E+00 -0.45593999997E+02  0.45594000000E+02  0.51100000000E-03 0.  1.
    9900012    2    1    2    0    0  0.12516945892E+02 -0.27644980551E+02  0.31027481446E+02  0.47787268565E+02  0.19999988697E+02 0.  0.
        -12    1    1    2    0    0 -0.12516945892E+02  0.27644980551E+02 -0.31027481446E+02  0.43400731435E+02  0.00000000000E+00 0.  1.
         11    1    3    3    0    0  0.10185516127E+01 -0.80057101168E+01  0.13765733674E+02  0.15956950389E+02  0.51100000000E-03 0. -1.
        -11    1    3    3    0    0  0.41092168835E+01 -0.78322924917E+01 -0.95787416725E+00  0.88965157366E+01  0.51100000000E-03 0.  1.
        -12    1    3    3    0    0  0.73891773962E+01 -0.11806977943E+02  0.18219621939E+02  0.22933802440E+02  0.00000000000E+00 0.  1.
</event>
<event>
 7    1  0.1899036E-009  0.4778728E+02  0.7816164E-02  0.1312668E+00
        -11   -1    0    0    0    0  0.00000000000E+00  0.00000000000E+00  0.45593999997E+02  0.45594000000E+02  0.51100000000E-03 0.  1.
         11   -1    0    0    0    0 -0.00000000000E+00 -0.00000000000E+00 -0.45593999997E+02  0.45594000000E+02  0.51100000000E-03 0. -1.
    9900012    2    1    2    0    0 -0.18372800255E+02 -0.27433640716E+02 -0.28168394196E+02  0.47787275770E+02  0.20000021544E+02 0.  0.
        -12    1    1    2    0    0  0.18372800255E+02  0.27433640716E+02  0.28168394196E+02  0.43400724230E+02  0.00000000000E+00 0.  1.
         11    1    3    3    0    0  0.62326436265E+00 -0.53184091219E+01 -0.10694663759E+02  0.11960341435E+02  0.51100000000E-03 0. -1.
        -11    1    3    3    0    0 -0.31053385604E+00  0.11966708525E+01 -0.41903347795E-01  0.12370159888E+01  0.51100000000E-03 0.  1.
         12    1    3    3    0    0 -0.18685530762E+02 -0.23311902446E+02 -0.17431827089E+02  0.34589918346E+02  0.00000000000E+00 0. -1.
</event>
<event>
 7    1  0.1899036E-009  0.4778727E+02  0.7816164E-02  0.1312668E+00
        -11   -1    0    0    0    0  0.00000000000E+00  0.00000000000E+00  0.45593999997E+02  0.45594000000E+02  0.51100000000E-03 0.  1.
         11   -1    0    0    0    0 -0.00000000000E+00 -0.00000000000E+00 -0.45593999997E+02  0.45594000000E+02  0.51100000000E-03 0. -1.
    9900012    2    1    2    0    0  0.39481936260E+02 -0.47152398739E+01  0.17394436395E+02  0.47787271948E+02  0.20000004120E+02 0.  0.
        -12    1    1    2    0    0 -0.39481936260E+02  0.47152398739E+01 -0.17394436395E+02  0.43400728052E+02  0.00000000000E+00 0.  1.
         11    1    3    3    0    0  0.23304439029E+02  0.30289978334E+01  0.58935628194E+01  0.24228202354E+02  0.51100000000E-03 0. -1.
        -11    1    3    3    0    0 -0.11125525419E+01  0.37920795482E+00 -0.14733112442E+00  0.11846005879E+01  0.51100000000E-03 0.  1.
        -12    1    3    3    0    0  0.17290049773E+02 -0.81234456621E+01  0.11648204700E+02  0.22374469006E+02  0.00000000000E+00 0.  1.
</event>
<event>
 7    1  0.1899036E-009  0.4778727E+02  0.7816164E-02  0.1312668E+00
        -11   -1    0    0    0    0  0.00000000000E+00  0.00000000000E+00  0.45593999997E+02  0.45594000000E+02  0.51100000000E-03 0. -1.
         11   -1    0    0    0    0 -0.00000000000E+00 -0.00000000000E+00 -0.45593999997E+02  0.45594000000E+02  0.51100000000E-03 0.  1.
    9900012    2    1    2    0    0 -0.30916049659E+02  0.21212858030E+02  0.21859457781E+02  0.47787269974E+02  0.19999995120E+02 0.  0.
        -12    1    1    2    0    0  0.30916049659E+02 -0.21212858030E+02 -0.21859457781E+02  0.43400730026E+02  0.00000000000E+00 0.  1.
         11    1    3    3    0    0 -0.17364469049E+02  0.16155098582E+02  0.12770872302E+02  0.26937096636E+02  0.51100000000E-03 0. -1.
        -11    1    3    3    0    0 -0.45433644307E-01  0.28508652998E+01  0.62556296380E+01  0.68747654216E+01  0.51100000000E-03 0.  1.
         12    1    3    3    0    0 -0.13506146965E+02  0.22068941473E+01  0.28329558410E+01  0.13975407916E+02  0.00000000000E+00 0. -1.
</event>
<event>
 7    1  0.1899036E-009  0.4778727E+02  0.7816164E-02  0.1312668E+00
        -11   -1    0    0    0    0  0.00000000000E+00  0.00000000000E+00  0.45593999997E+02  0.45594000000E+02  0.51100000000E-03 0.  1.
         11   -1    0    0    0    0 -0.00000000000E+00 -0.00000000000E+00 -0.45593999997E+02  0.45594000000E+02  0.51100000000E-03 0. -1.
    9900012    2    1    2    0    0  0.45761414869E+01  0.25743359828E+02 -0.34640460860E+02  0.47787272187E+02  0.20000005208E+02 0.  0.
        -12    1    1    2    0    0 -0.45761414869E+01 -0.25743359828E+02  0.34640460860E+02  0.43400727813E+02  0.00000000000E+00 0.  1.
         11    1    3    3    0    0  0.48550131306E+01  0.13865520187E+02 -0.19971040682E+02  0.24792463950E+02  0.51100000000E-03 0. -1.
        -11    1    3    3    0    0 -0.73490096683E+00  0.63675828177E-01 -0.10397663081E+02  0.10423796422E+02  0.51100000000E-03 0.  1.
        -12    1    3    3    0    0  0.45602932304E+00  0.11814163813E+02 -0.42717570971E+01  0.12571011815E+02  0.00000000000E+00 0.  1.
</event>
<event>
 7    1  0.1899036E-009  0.4778727E+02  0.7816164E-02  0.1312668E+00
        -11   -1    0    0    0    0  0.00000000000E+00  0.00000000000E+00  0.45593999997E+02  0.45594000000E+02  0.51100000000E-03 0.  1.
         11   -1    0    0    0    0 -0.00000000000E+00 -0.00000000000E+00 -0.45593999997E+02  0.45594000000E+02  0.51100000000E-03 0. -1.
    9900012    2    1    2    0    0 -0.41199437068E+02 -0.46114981976E+01  0.12843821219E+02  0.47787271044E+02  0.19999999999E+02 0.  0.
        -12    1    1    2    0    0  0.41199437068E+02  0.46114981976E+01 -0.12843821219E+02  0.43400728956E+02  0.00000000000E+00 0.  1.
         11    1    3    3    0    0 -0.24929485452E+01 -0.15375138864E+01 -0.32754228778E+01  0.43939886993E+01  0.51100000000E-03 0. -1.
        -11    1    3    3    0    0 -0.19328775733E+02  0.34167660370E+01  0.56148970746E+01  0.20415752029E+02  0.51100000000E-03 0.  1.
        -12    1    3    3    0    0 -0.19377712790E+02 -0.64907503482E+01  0.10504347022E+02  0.22977530316E+02  0.00000000000E+00 0.  1.
</event>
<event>
 7    1  0.1899036E-009  0.4778727E+02  0.7816164E-02  0.1312668E+00
        -11   -1    0    0    0    0  0.00000000000E+00  0.00000000000E+00  0.45593999997E+02  0.45594000000E+02  0.51100000000E-03 0. -1.
         11   -1    0    0    0    0 -0.00000000000E+00 -0.00000000000E+00 -0.45593999997E+02  0.45594000000E+02  0.51100000000E-03 0.  1.
    9900012    2    1    2    0    0 -0.29595128149E+01  0.36002826972E+02  0.24055373269E+02  0.47787271329E+02  0.20000001299E+02 0.  0.
        -12    1    1    2    0    0  0.29595128149E+01 -0.36002826972E+02 -0.24055373269E+02  0.43400728671E+02  0.00000000000E+00 0.  1.
         11    1    3    3    0    0 -0.61505331864E+01  0.16552635720E+02  0.10143314011E+02  0.20364322408E+02  0.51100000000E-03 0. -1.
        -11    1    3    3    0    0  0.64151084543E+01  0.92502128184E+01  0.12181615346E+02  0.16586494698E+02  0.51100000000E-03 0.  1.
        -12    1    3    3    0    0 -0.32240880828E+01  0.10199978433E+02  0.17304439119E+01  0.10836454223E+02  0.00000000000E+00 0.  1.
</event>
<event>
 7    1  0.1899036E-009  0.4778727E+02  0.7816164E-02  0.1312668E+00
        -11   -1    0    0    0    0  0.00000000000E+00  0.00000000000E+00  0.45593999997E+02  0.45594000000E+02  0.51100000000E-03 0. -1.
         11   -1    0    0    0    0 -0.00000000000E+00 -0.00000000000E+00 -0.45593999997E+02  0.45594000000E+02  0.51100000000E-03 0.  1.
    9900012    2    1    2    0    0 -0.34082667758E+02 -0.13752041562E+02  0.23084108502E+02  0.47787274730E+02  0.20000016804E+02 0.  0.
        -12    1    1    2    0    0  0.34082667758E+02  0.13752041562E+02 -0.23084108502E+02  0.43400725270E+02  0.00000000000E+00 0.  1.
         11    1    3    3    0    0 -0.13365377018E+02 -0.25723464947E+01  0.10782459833E+00  0.13611094582E+02  0.51100000000E-03 0. -1.
        -11    1    3    3    0    0 -0.37193906963E+01 -0.56104701796E+01  0.30224442156E+01  0.73787812060E+01  0.51100000000E-03 0.  1.
        -12    1    3    3    0    0 -0.16997900044E+02 -0.55692248874E+01  0.19953839688E+02  0.26797398942E+02  0.00000000000E+00 0.  1.
</event>
<event>
 7    1  0.1899036E-009  0.4778727E+02  0.7816164E-02  0.1312668E+00
        -11   -1    0    0    0    0  0.00000000000E+00  0.00000000000E+00  0.45593999997E+02  0.45594000000E+02  0.51100000000E-03 0.  1.
         11   -1    0    0    0    0 -0.00000000000E+00 -0.00000000000E+00 -0.45593999997E+02  0.45594000000E+02  0.51100000000E-03 0. -1.
    9900012    2    1    2    0    0 -0.18022008168E+02  0.18735059532E+02 -0.34753818601E+02  0.47787272570E+02  0.20000006956E+02 0.  0.
        -12    1    1    2    0    0  0.18022008168E+02 -0.18735059532E+02  0.34753818601E+02  0.43400727430E+02  0.00000000000E+00 0.  1.
         11    1    3    3    0    0 -0.13950405253E+02  0.16588532707E+02 -0.24327859745E+02  0.32582786624E+02  0.51100000000E-03 0.  1.
        -11    1    3    3    0    0 -0.38103487848E+01  0.23647829211E+00 -0.12077150299E+02  0.12666184881E+02  0.51100000000E-03 0. -1.
         12    1    3    3    0    0 -0.26125413033E+00  0.19100485325E+01  0.16511914429E+01  0.25383010653E+01  0.00000000000E+00 0. -1.
</event>
<event>
 7    1  0.1899036E-009  0.4778727E+02  0.7816164E-02  0.1312668E+00
        -11   -1    0    0    0    0  0.00000000000E+00  0.00000000000E+00  0.45593999997E+02  0.45594000000E+02  0.51100000000E-03 0.  1.
         11   -1    0    0    0    0 -0.00000000000E+00 -0.00000000000E+00 -0.45593999997E+02  0.45594000000E+02  0.51100000000E-03 0. -1.
    9900012    2    1    2    0    0 -0.14860010398E+02  0.26337217848E+02 -0.31131239707E+02  0.47787273754E+02  0.20000012353E+02 0.  0.
        -12    1    1    2    0    0  0.14860010398E+02 -0.26337217848E+02  0.31131239707E+02  0.43400726246E+02  0.00000000000E+00 0.  1.
         11    1    3    3    0    0 -0.10879634725E+02  0.17977915362E+02 -0.22424850500E+02  0.30731837119E+02  0.51100000000E-03 0. -1.
        -11    1    3    3    0    0  0.20151278449E+01  0.21061725807E+01 -0.78219109918E+01  0.83473945034E+01  0.51100000000E-03 0.  1.
         12    1    3    3    0    0 -0.59955035176E+01  0.62531299052E+01 -0.88447821532E+00  0.87080421310E+01  0.00000000000E+00 0. -1.
</event>
<event>
 7    1  0.1899036E-009  0.4778727E+02  0.7816164E-02  0.1312668E+00
        -11   -1    0    0    0    0  0.00000000000E+00  0.00000000000E+00  0.45593999997E+02  0.45594000000E+02  0.51100000000E-03 0.  1.
         11   -1    0    0    0    0 -0.00000000000E+00 -0.00000000000E+00 -0.45593999997E+02  0.45594000000E+02  0.51100000000E-03 0. -1.
    9900012    2    1    2    0    0 -0.32182524273E+02 -0.22616884577E+02 -0.18340796674E+02  0.47787272365E+02  0.20000006022E+02 0.  0.
        -12    1    1    2    0    0  0.32182524273E+02  0.22616884577E+02  0.18340796674E+02  0.43400727635E+02  0.00000000000E+00 0.  1.
         11    1    3    3    0    0 -0.22302073715E+02 -0.21579893838E+02 -0.70326992724E+01  0.31820326355E+02  0.51100000000E-03 0. -1.
        -11    1    3    3    0    0 -0.43562589406E+01  0.79763962705E+00 -0.17214326291E+01  0.47514788740E+01  0.51100000000E-03 0.  1.
         12    1    3    3    0    0 -0.55241916177E+01 -0.18346303665E+01 -0.95866647727E+01  0.11215467136E+02  0.00000000000E+00 0. -1.
</event>
<event>
 7    1  0.1899036E-009  0.4778726E+02  0.7816164E-02  0.1312668E+00
        -11   -1    0    0    0    0  0.00000000000E+00  0.00000000000E+00  0.45593999997E+02  0.45594000000E+02  0.51100000000E-03 0.  1.
         11   -1    0    0    0    0 -0.00000000000E+00 -0.00000000000E+00 -0.45593999997E+02  0.45594000000E+02  0.51100000000E-03 0. -1.
    9900012    2    1    2    0    0  0.24683094277E+02  0.25814998921E+02 -0.24656733588E+02  0.47787264711E+02  0.19999971125E+02 0.  0.
        -12    1    1    2    0    0 -0.24683094277E+02 -0.25814998921E+02  0.24656733588E+02  0.43400735289E+02  0.00000000000E+00 0.  1.
         11    1    3    3    0    0  0.12840345469E+00  0.61806727522E+01 -0.28134804830E+01  0.67921186537E+01  0.51100000000E-03 0. -1.
        -11    1    3    3    0    0  0.78339868950E+01  0.15449461016E+02 -0.91585735461E+01  0.19594301876E+02  0.51100000000E-03 0.  1.
         12    1    3    3    0    0  0.16720703927E+02  0.41848651529E+01 -0.12684679559E+02  0.21400844182E+02  0.00000000000E+00 0. -1.
</event>
<event>
 7    1  0.1899036E-009  0.4778727E+02  0.7816164E-02  0.1312668E+00
        -11   -1    0    0    0    0  0.00000000000E+00  0.00000000000E+00  0.45593999997E+02  0.45594000000E+02  0.51100000000E-03 0.  1.
         11   -1    0    0    0    0 -0.00000000000E+00 -0.00000000000E+00 -0.45593999997E+02  0.45594000000E+02  0.51100000000E-03 0. -1.
    9900012    2    1    2    0    0 -0.41466928726E+02 -0.11308610736E+02 -0.60193191950E+01  0.47787273528E+02  0.20000011324E+02 0.  0.
        -12    1    1    2    0    0  0.41466928726E+02  0.11308610736E+02  0.60193191950E+01  0.43400726472E+02  0.00000000000E+00 0.  1.
         11    1    3    3    0    0 -0.21482887134E+02 -0.47702931639E+01  0.26409126422E+01  0.22164037456E+02  0.51100000000E-03 0. -1.
        -11    1    3    3    0    0 -0.13571481062E+02 -0.99010126100E+01 -0.51120463550E+01  0.17559845305E+02  0.51100000000E-03 0.  1.
         12    1    3    3    0    0 -0.64125605289E+01  0.33626950375E+01 -0.35481854823E+01  0.80633907675E+01  0.00000000000E+00 0. -1.
</event>
<event>
 7    1  0.1999747E-009  0.4778729E+02  0.7816164E-02  0.1312668E+00
        -11   -1    0    0    0    0  0.00000000000E+00  0.00000000000E+00  0.45593999997E+02  0.45594000000E+02  0.51100000000E-03 0.  1.
         11   -1    0    0    0    0 -0.00000000000E+00 -0.00000000000E+00 -0.45593999997E+02  0.45594000000E+02  0.51100000000E-03 0. -1.
    9900012    2    1    2    0    0  0.29733184561E+02  0.21504426173E+02 -0.23175837526E+02  0.47787285096E+02  0.20000064067E+02 0.  0.
        -12    1    1    2    0    0 -0.29733184561E+02 -0.21504426173E+02  0.23175837526E+02  0.43400714904E+02  0.00000000000E+00 0.  1.
         11    1    3    3    0    0  0.18536503758E+02  0.11700032308E+02 -0.87965526579E+01  0.23619315538E+02  0.51100000000E-03 0. -1.
        -11    1    3    3    0    0  0.69175460045E+01 -0.17205998997E+01 -0.54768911659E+01  0.89893961891E+01  0.51100000000E-03 0.  1.
        -12    1    3    3    0    0  0.42791347988E+01  0.11524993764E+02 -0.89023937017E+01  0.15178573369E+02  0.00000000000E+00 0.  1.
</event>
<event>
 7    1  0.1899036E-009  0.4778727E+02  0.7816164E-02  0.1312668E+00
        -11   -1    0    0    0    0  0.00000000000E+00  0.00000000000E+00  0.45593999997E+02  0.45594000000E+02  0.51100000000E-03 0.  1.
         11   -1    0    0    0    0 -0.00000000000E+00 -0.00000000000E+00 -0.45593999997E+02  0.45594000000E+02  0.51100000000E-03 0. -1.
    9900012    2    1    2    0    0 -0.11039208144E+02  0.14789223996E+02 -0.39281526009E+02  0.47787267881E+02  0.19999985578E+02 0.  0.
        -12    1    1    2    0    0  0.11039208144E+02 -0.14789223996E+02  0.39281526009E+02  0.43400732119E+02  0.00000000000E+00 0.  1.
         11    1    3    3    0    0 -0.74185674331E+01  0.52193583955E+01 -0.21239245396E+02  0.23095072853E+02  0.51100000000E-03 0. -1.
        -11    1    3    3    0    0 -0.38824737901E+01  0.10052293768E+02 -0.54278176871E+01  0.12065795367E+02  0.51100000000E-03 0.  1.
         12    1    3    3    0    0  0.26183307940E+00 -0.48242816791E+00 -0.12614462926E+02  0.12626399662E+02  0.00000000000E+00 0. -1.
</event>
<event>
 7    1  0.1899036E-009  0.4778726E+02  0.7816164E-02  0.1312668E+00
        -11   -1    0    0    0    0  0.00000000000E+00  0.00000000000E+00  0.45593999997E+02  0.45594000000E+02  0.51100000000E-03 0. -1.
         11   -1    0    0    0    0 -0.00000000000E+00 -0.00000000000E+00 -0.45593999997E+02  0.45594000000E+02  0.51100000000E-03 0.  1.
    9900012    2    1    2    0    0  0.12925854529E+02  0.55296784875E+01  0.41060553715E+02  0.47787261171E+02  0.19999954985E+02 0.  0.
        -12    1    1    2    0    0 -0.12925854529E+02 -0.55296784875E+01 -0.41060553715E+02  0.43400738829E+02  0.00000000000E+00 0.  1.
         11    1    3    3    0    0  0.50614001220E+01  0.30923122859E+01  0.74561094319E+01  0.95275251031E+01  0.51100000000E-03 0. -1.
        -11    1    3    3    0    0  0.74177851848E+01 -0.61824347016E+01  0.18084287765E+02  0.20500914617E+02  0.51100000000E-03 0.  1.
         12    1    3    3    0    0  0.44666922226E+00  0.86198009031E+01  0.15520156518E+02  0.17758821451E+02  0.00000000000E+00 0. -1.
</event>
<event>
 7    1  0.1899036E-009  0.4778730E+02  0.7816164E-02  0.1312668E+00
        -11   -1    0    0    0    0  0.00000000000E+00  0.00000000000E+00  0.45593999997E+02  0.45594000000E+02  0.51100000000E-03 0.  1.
         11   -1    0    0    0    0 -0.00000000000E+00 -0.00000000000E+00 -0.45593999997E+02  0.45594000000E+02  0.51100000000E-03 0. -1.
    9900012    2    1    2    0    0  0.37441852470E+02  0.23478230744E+01 -0.21822373726E+02  0.47787302026E+02  0.20000141257E+02 0.  0.
        -12    1    1    2    0    0 -0.37441852470E+02 -0.23478230744E+01  0.21822373726E+02  0.43400697974E+02  0.00000000000E+00 0.  1.
         11    1    3    3    0    0  0.51359563893E+01 -0.10825293339E+01 -0.91459827521E+00  0.53278896439E+01  0.51100000000E-03 0. -1.
        -11    1    3    3    0    0  0.10628456961E+02  0.79829372170E+01 -0.22153005979E+01  0.13475865129E+02  0.51100000000E-03 0.  1.
         12    1    3    3    0    0  0.21677439120E+02 -0.45525848087E+01 -0.18692474853E+02  0.28983547253E+02  0.00000000000E+00 0. -1.
</event>
<event>
 7    1  0.1899036E-009  0.4778728E+02  0.7816164E-02  0.1312668E+00
        -11   -1    0    0    0    0  0.00000000000E+00  0.00000000000E+00  0.45593999997E+02  0.45594000000E+02  0.51100000000E-03 0. -1.
         11   -1    0    0    0    0 -0.00000000000E+00 -0.00000000000E+00 -0.45593999997E+02  0.45594000000E+02  0.51100000000E-03 0.  1.
    9900012    2    1    2    0    0 -0.17054847797E+02 -0.20079879243E+02  0.34489904606E+02  0.47787275311E+02  0.20000019454E+02 0.  0.
        -12    1    1    2    0    0  0.17054847797E+02  0.20079879243E+02 -0.34489904606E+02  0.43400724689E+02  0.00000000000E+00 0.  1.
         11    1    3    3    0    0 -0.96883592237E+01 -0.15490990560E+02  0.26839565425E+02  0.32468405650E+02  0.51100000000E-03 0. -1.
        -11    1    3    3    0    0 -0.96414445437E+00 -0.39898979332E+01  0.78794195289E+01  0.88844871782E+01  0.51100000000E-03 0.  1.
        -12    1    3    3    0    0 -0.64023441190E+01 -0.59899074963E+00 -0.22908034760E+00  0.64343824833E+01  0.00000000000E+00 0.  1.
</event>
<event>
 7    1  0.1899036E-009  0.4778727E+02  0.7816164E-02  0.1312668E+00
        -11   -1    0    0    0    0  0.00000000000E+00  0.00000000000E+00  0.45593999997E+02  0.45594000000E+02  0.51100000000E-03 0. -1.
         11   -1    0    0    0    0 -0.00000000000E+00 -0.00000000000E+00 -0.45593999997E+02  0.45594000000E+02  0.51100000000E-03 0.  1.
    9900012    2    1    2    0    0  0.28632235969E+02  0.42902106224E+01  0.32332839457E+02  0.47787270154E+02  0.19999995942E+02 0.  0.
        -12    1    1    2    0    0 -0.28632235969E+02 -0.42902106224E+01 -0.32332839457E+02  0.43400729846E+02  0.00000000000E+00 0.  1.
         11    1    3    3    0    0  0.30119754753E+01  0.51050269554E+01  0.16509115250E+01  0.61529509671E+01  0.51100000000E-03 0.  1.
        -11    1    3    3    0    0  0.11108320433E+02  0.23640825138E+01  0.21081905855E+02  0.23946407324E+02  0.51100000000E-03 0. -1.
        -12    1    3    3    0    0  0.14511940061E+02 -0.31788988468E+01  0.96000220772E+01  0.17687911864E+02  0.00000000000E+00 0.  1.
</event>
<event>
 7    1  0.1899036E-009  0.4778727E+02  0.7816164E-02  0.1312668E+00
        -11   -1    0    0    0    0  0.00000000000E+00  0.00000000000E+00  0.45593999997E+02  0.45594000000E+02  0.51100000000E-03 0.  1.
         11   -1    0    0    0    0 -0.00000000000E+00 -0.00000000000E+00 -0.45593999997E+02  0.45594000000E+02  0.51100000000E-03 0. -1.
    9900012    2    1    2    0    0  0.15646209407E+02  0.35804043451E+02 -0.18891529404E+02  0.47787270979E+02  0.19999999704E+02 0.  0.
        -12    1    1    2    0    0 -0.15646209407E+02 -0.35804043451E+02  0.18891529404E+02  0.43400729021E+02  0.00000000000E+00 0.  1.
         11    1    3    3    0    0 -0.10114179825E+01 -0.26154225795E+00 -0.98678945050E+00  0.14370540591E+01  0.51100000000E-03 0. -1.
        -11    1    3    3    0    0 -0.18898498649E+00  0.11409378411E+02  0.22960650355E+00  0.11413253281E+02  0.51100000000E-03 0.  1.
         12    1    3    3    0    0  0.16846612376E+02  0.24656207298E+02 -0.18134346457E+02  0.34936963639E+02  0.00000000000E+00 0. -1.
</event>
<event>
 7    1  0.1899036E-009  0.4778728E+02  0.7816164E-02  0.1312668E+00
        -11   -1    0    0    0    0  0.00000000000E+00  0.00000000000E+00  0.45593999997E+02  0.45594000000E+02  0.51100000000E-03 0.  1.
         11   -1    0    0    0    0 -0.00000000000E+00 -0.00000000000E+00 -0.45593999997E+02  0.45594000000E+02  0.51100000000E-03 0. -1.
    9900012    2    1    2    0    0 -0.32217767399E+02  0.27954755786E+02  0.80106193872E+01  0.47787275003E+02  0.20000018050E+02 0.  0.
        -12    1    1    2    0    0  0.32217767399E+02 -0.27954755786E+02 -0.80106193872E+01  0.43400724997E+02  0.00000000000E+00 0.  1.
         11    1    3    3    0    0 -0.11295699907E+02  0.18552602201E+01 -0.22776615946E+00  0.11449310222E+02  0.51100000000E-03 0. -1.
        -11    1    3    3    0    0 -0.29089411569E+00  0.63170516165E+01 -0.76645019937E+00  0.63700240722E+01  0.51100000000E-03 0.  1.
         12    1    3    3    0    0 -0.20631173377E+02  0.19782443950E+02  0.90048357460E+01  0.29967940709E+02  0.00000000000E+00 0. -1.
</event>
<event>
 7    1  0.1911248E-009  0.4778727E+02  0.7816164E-02  0.1312668E+00
        -11   -1    0    0    0    0  0.00000000000E+00  0.00000000000E+00  0.45593999997E+02  0.45594000000E+02  0.51100000000E-03 0. -1.
         11   -1    0    0    0    0 -0.00000000000E+00 -0.00000000000E+00 -0.45593999997E+02  0.45594000000E+02  0.51100000000E-03 0.  1.
    9900012    2    1    2    0    0  0.13749245534E+02  0.19902620009E+01  0.41117156511E+02  0.47787268956E+02  0.19999990479E+02 0.  0.
        -12    1    1    2    0    0 -0.13749245534E+02 -0.19902620009E+01 -0.41117156511E+02  0.43400731044E+02  0.00000000000E+00 0.  1.
         11    1    3    3    0    0  0.45593016151E+01 -0.20441329589E+00  0.16633797061E+02  0.17248542574E+02  0.51100000000E-03 0. -1.
        -11    1    3    3    0    0  0.32417765522E+00  0.77106354779E+01  0.88928773206E+01  0.11774644705E+02  0.51100000000E-03 0.  1.
        -12    1    3    3    0    0  0.88657662634E+01 -0.55159601810E+01  0.15590482130E+02  0.18764081677E+02  0.00000000000E+00 0.  1.
</event>
<event>
 7    1  0.1899036E-009  0.4778727E+02  0.7816164E-02  0.1312668E+00
        -11   -1    0    0    0    0  0.00000000000E+00  0.00000000000E+00  0.45593999997E+02  0.45594000000E+02  0.51100000000E-03 0.  1.
         11   -1    0    0    0    0 -0.00000000000E+00 -0.00000000000E+00 -0.45593999997E+02  0.45594000000E+02  0.51100000000E-03 0. -1.
    9900012    2    1    2    0    0  0.12201540277E+02  0.29399663834E+02  0.29502634878E+02  0.47787270934E+02  0.19999999497E+02 0.  0.
        -12    1    1    2    0    0 -0.12201540277E+02 -0.29399663834E+02 -0.29502634878E+02  0.43400729066E+02  0.00000000000E+00 0.  1.
         11    1    3    3    0    0  0.87737942370E+00  0.18570506664E+01 -0.13878885592E+01  0.24788438322E+01  0.51100000000E-03 0. -1.
        -11    1    3    3    0    0 -0.68158394024E+00  0.14931872978E+02  0.19216125721E+02  0.24345120153E+02  0.51100000000E-03 0.  1.
        -12    1    3    3    0    0  0.12005744793E+02  0.12610740190E+02  0.11674397716E+02  0.20963306949E+02  0.00000000000E+00 0.  1.
</event>
<event>
 7    1  0.1899036E-009  0.4778727E+02  0.7816164E-02  0.1312668E+00
        -11   -1    0    0    0    0  0.00000000000E+00  0.00000000000E+00  0.45593999997E+02  0.45594000000E+02  0.51100000000E-03 0.  1.
         11   -1    0    0    0    0 -0.00000000000E+00 -0.00000000000E+00 -0.45593999997E+02  0.45594000000E+02  0.51100000000E-03 0. -1.
    9900012    2    1    2    0    0 -0.42039973524E+02  0.10613118841E+02 -0.19041078387E+01  0.47787270835E+02  0.19999999043E+02 0.  0.
        -12    1    1    2    0    0  0.42039973524E+02 -0.10613118841E+02  0.19041078387E+01  0.43400729165E+02  0.00000000000E+00 0.  1.
         11    1    3    3    0    0 -0.20702959638E+02  0.12320216852E+02  0.13277318591E+01  0.24128057385E+02  0.51100000000E-03 0. -1.
        -11    1    3    3    0    0 -0.20468953223E+02  0.10394511518E+01 -0.22615827302E+01  0.20619729907E+02  0.51100000000E-03 0.  1.
        -12    1    3    3    0    0 -0.86806066336E+00 -0.27465491629E+01 -0.97025696760E+00  0.30394835421E+01  0.00000000000E+00 0.  1.
</event>
<event>
 7    1  0.1899036E-009  0.4778727E+02  0.7816164E-02  0.1312668E+00
        -11   -1    0    0    0    0  0.00000000000E+00  0.00000000000E+00  0.45593999997E+02  0.45594000000E+02  0.51100000000E-03 0.  1.
         11   -1    0    0    0    0 -0.00000000000E+00 -0.00000000000E+00 -0.45593999997E+02  0.45594000000E+02  0.51100000000E-03 0. -1.
    9900012    2    1    2    0    0 -0.12054457925E+01 -0.57907537092E+01 -0.42995782756E+02  0.47787271171E+02  0.20000000576E+02 0.  0.
        -12    1    1    2    0    0  0.12054457925E+01  0.57907537092E+01  0.42995782756E+02  0.43400728829E+02  0.00000000000E+00 0.  1.
         11    1    3    3    0    0 -0.25727027115E+01 -0.77141759209E+01 -0.17023885547E+02  0.18866371902E+02  0.51100000000E-03 0. -1.
        -11    1    3    3    0    0 -0.46453820448E+01 -0.24500982447E+01 -0.11838535057E+02  0.12951195633E+02  0.51100000000E-03 0.  1.
        -12    1    3    3    0    0  0.60126389638E+01  0.43735204564E+01 -0.14133362152E+02  0.15969703636E+02  0.00000000000E+00 0.  1.
</event>
<event>
 7    1  0.1899036E-009  0.4778727E+02  0.7816164E-02  0.1312668E+00
        -11   -1    0    0    0    0  0.00000000000E+00  0.00000000000E+00  0.45593999997E+02  0.45594000000E+02  0.51100000000E-03 0. -1.
         11   -1    0    0    0    0 -0.00000000000E+00 -0.00000000000E+00 -0.45593999997E+02  0.45594000000E+02  0.51100000000E-03 0.  1.
    9900012    2    1    2    0    0  0.90372441935E+01  0.29693824783E+02  0.30335262756E+02  0.47787272134E+02  0.20000004966E+02 0.  0.
        -12    1    1    2    0    0 -0.90372441935E+01 -0.29693824783E+02 -0.30335262756E+02  0.43400727866E+02  0.00000000000E+00 0.  1.
         11    1    3    3    0    0  0.87756951126E+00  0.22198906527E+00  0.68491086553E+01  0.69086682527E+01  0.51100000000E-03 0.  1.
        -11    1    3    3    0    0  0.10867920980E+02  0.16511370898E+02  0.10722992261E+02  0.22488211103E+02  0.51100000000E-03 0. -1.
         12    1    3    3    0    0 -0.27082462976E+01  0.12960464820E+02  0.12763161840E+02  0.18390392777E+02  0.00000000000E+00 0. -1.
</event>
<event>
 7    1  0.1899036E-009  0.4778728E+02  0.7816164E-02  0.1312668E+00
        -11   -1    0    0    0    0  0.00000000000E+00  0.00000000000E+00  0.45593999997E+02  0.45594000000E+02  0.51100000000E-03 0. -1.
         11   -1    0    0    0    0 -0.00000000000E+00 -0.00000000000E+00 -0.45593999997E+02  0.45594000000E+02  0.51100000000E-03 0.  1.
    9900012    2    1    2    0    0  0.27584290200E+02  0.31343604456E+02  0.11845176658E+02  0.47787276317E+02  0.20000024041E+02 0.  0.
        -12    1    1    2    0    0 -0.27584290200E+02 -0.31343604456E+02 -0.11845176658E+02  0.43400723683E+02  0.00000000000E+00 0.  1.
         11    1    3    3    0    0  0.36986582111E+01 -0.83877255928E+00  0.23404114682E+00  0.37997878214E+01  0.51100000000E-03 0. -1.
        -11    1    3    3    0    0  0.58360667919E+01  0.18885892994E+02  0.31040370463E+01  0.20009289743E+02  0.51100000000E-03 0.  1.
         12    1    3    3    0    0  0.18049565197E+02  0.13296484022E+02  0.85070984645E+01  0.23978198753E+02  0.00000000000E+00 0. -1.
</event>
<event>
 7    1  0.1899036E-009  0.4778727E+02  0.7816164E-02  0.1312668E+00
        -11   -1    0    0    0    0  0.00000000000E+00  0.00000000000E+00  0.45593999997E+02  0.45594000000E+02  0.51100000000E-03 0.  1.
         11   -1    0    0    0    0 -0.00000000000E+00 -0.00000000000E+00 -0.45593999997E+02  0.45594000000E+02  0.51100000000E-03 0. -1.
    9900012    2    1    2    0    0 -0.25220957211E+02  0.34893608687E+02  0.54737997798E+01  0.47787273118E+02  0.20000009455E+02 0.  0.
        -12    1    1    2    0    0  0.25220957211E+02 -0.34893608687E+02 -0.54737997798E+01  0.43400726882E+02  0.00000000000E+00 0.  1.
         11    1    3    3    0    0 -0.26096045383E+00  0.48522178922E+01 -0.50135785213E+01  0.69819831482E+01  0.51100000000E-03 0.  1.
        -11    1    3    3    0    0 -0.11506119575E+02  0.11953660670E+02  0.19740137745E+01  0.16708606217E+02  0.51100000000E-03 0. -1.
        -12    1    3    3    0    0 -0.13453877183E+02  0.18087730125E+02  0.85133645265E+01  0.24096683753E+02  0.00000000000E+00 0.  1.
</event>
<event>
 7    1  0.1899036E-009  0.4778727E+02  0.7816164E-02  0.1312668E+00
        -11   -1    0    0    0    0  0.00000000000E+00  0.00000000000E+00  0.45593999997E+02  0.45594000000E+02  0.51100000000E-03 0. -1.
         11   -1    0    0    0    0 -0.00000000000E+00 -0.00000000000E+00 -0.45593999997E+02  0.45594000000E+02  0.51100000000E-03 0.  1.
    9900012    2    1    2    0    0 -0.37172753370E+02 -0.83713079180E+01 -0.20778127852E+02  0.47787274356E+02  0.20000015098E+02 0.  0.
        -12    1    1    2    0    0  0.37172753370E+02  0.83713079180E+01  0.20778127852E+02  0.43400725644E+02  0.00000000000E+00 0.  1.
         11    1    3    3    0    0 -0.16096856143E+02  0.60293226200E+01 -0.85345120194E+01  0.19191128279E+02  0.51100000000E-03 0. -1.
        -11    1    3    3    0    0 -0.10829460777E+02 -0.49653796762E+01 -0.56105574533E+01  0.13168544765E+02  0.51100000000E-03 0.  1.
         12    1    3    3    0    0 -0.10246436451E+02 -0.94352508618E+01 -0.66330583797E+01  0.15427601312E+02  0.00000000000E+00 0. -1.
</event>
<event>
 7    1  0.1899036E-009  0.4778727E+02  0.7816164E-02  0.1312668E+00
        -11   -1    0    0    0    0  0.00000000000E+00  0.00000000000E+00  0.45593999997E+02  0.45594000000E+02  0.51100000000E-03 0. -1.
         11   -1    0    0    0    0 -0.00000000000E+00 -0.00000000000E+00 -0.45593999997E+02  0.45594000000E+02  0.51100000000E-03 0.  1.
    9900012    2    1    2    0    0 -0.11854724238E+02 -0.40443469610E+02  0.10364115826E+02  0.47787267083E+02  0.19999981937E+02 0.  0.
        -12    1    1    2    0    0  0.11854724238E+02  0.40443469610E+02 -0.10364115826E+02  0.43400732917E+02  0.00000000000E+00 0.  1.
         11    1    3    3    0    0 -0.13854219880E+02 -0.30060281511E+02  0.31817312302E+01  0.33251817197E+02  0.51100000000E-03 0. -1.
        -11    1    3    3    0    0 -0.21918540821E+00 -0.65446481993E+01  0.56841381921E+00  0.65729412615E+01  0.51100000000E-03 0.  1.
        -12    1    3    3    0    0  0.22186810500E+01 -0.38385398999E+01  0.66139707762E+01  0.79625086244E+01  0.00000000000E+00 0.  1.
</event>
<event>
 7    1  0.1899036E-009  0.4778727E+02  0.7816164E-02  0.1312668E+00
        -11   -1    0    0    0    0  0.00000000000E+00  0.00000000000E+00  0.45593999997E+02  0.45594000000E+02  0.51100000000E-03 0.  1.
         11   -1    0    0    0    0 -0.00000000000E+00 -0.00000000000E+00 -0.45593999997E+02  0.45594000000E+02  0.51100000000E-03 0. -1.
    9900012    2    1    2    0    0  0.42363096372E+02 -0.74219103944E+01  0.58229482283E+01  0.47787269428E+02  0.19999992631E+02 0.  0.
        -12    1    1    2    0    0 -0.42363096372E+02  0.74219103944E+01 -0.58229482283E+01  0.43400730572E+02  0.00000000000E+00 0.  1.
         11    1    3    3    0    0  0.15151845138E+01 -0.31823320914E+01 -0.68480421290E+00  0.35905401714E+01  0.51100000000E-03 0. -1.
        -11    1    3    3    0    0  0.37184180864E+02 -0.84514041293E+01  0.56405952208E+01  0.38547449371E+02  0.51100000000E-03 0.  1.
        -12    1    3    3    0    0  0.36637309938E+01  0.42118258264E+01  0.86715722039E+00  0.56492798861E+01  0.00000000000E+00 0.  1.
</event>
<event>
 7    1  0.1899036E-009  0.4778727E+02  0.7816164E-02  0.1312668E+00
        -11   -1    0    0    0    0  0.00000000000E+00  0.00000000000E+00  0.45593999997E+02  0.45594000000E+02  0.51100000000E-03 0.  1.
         11   -1    0    0    0    0 -0.00000000000E+00 -0.00000000000E+00 -0.45593999997E+02  0.45594000000E+02  0.51100000000E-03 0. -1.
    9900012    2    1    2    0    0  0.31910314109E+02 -0.15431369463E+02 -0.25044517358E+02  0.47787272360E+02  0.20000005996E+02 0.  0.
        -12    1    1    2    0    0 -0.31910314109E+02  0.15431369463E+02  0.25044517358E+02  0.43400727640E+02  0.00000000000E+00 0.  1.
         11    1    3    3    0    0 -0.73560036801E+00 -0.15088214826E+00  0.27495554802E+00  0.79967126907E+00  0.51100000000E-03 0. -1.
        -11    1    3    3    0    0  0.44833584269E+01 -0.25249552239E+01  0.22011989197E+01  0.55965327312E+01  0.51100000000E-03 0.  1.
         12    1    3    3    0    0  0.28162556050E+02 -0.12755532091E+02 -0.27520671825E+02  0.41391068359E+02  0.00000000000E+00 0. -1.
</event>
<event>
 7    1  0.1947369E-009  0.4778727E+02  0.7816164E-02  0.1312668E+00
        -11   -1    0    0    0    0  0.00000000000E+00  0.00000000000E+00  0.45593999997E+02  0.45594000000E+02  0.51100000000E-03 0.  1.
         11   -1    0    0    0    0 -0.00000000000E+00 -0.00000000000E+00 -0.45593999997E+02  0.45594000000E+02  0.51100000000E-03 0. -1.
    9900012    2    1    2    0    0  0.79800539115E+00  0.35304803375E+02 -0.25230083787E+02  0.47787273257E+02  0.20000010087E+02 0.  0.
        -12    1    1    2    0    0 -0.79800539115E+00 -0.35304803375E+02  0.25230083787E+02  0.43400726743E+02  0.00000000000E+00 0.  1.
         11    1    3    3    0    0 -0.61233681927E-01  0.21834250625E+02 -0.18246630033E+02  0.28454837159E+02  0.51100000000E-03 0. -1.
        -11    1    3    3    0    0  0.55642438926E+01  0.43450051861E+01 -0.55199846695E+01  0.89615908843E+01  0.51100000000E-03 0.  1.
        -12    1    3    3    0    0 -0.47050048195E+01  0.91255475636E+01 -0.14634690853E+01  0.10370845214E+02  0.00000000000E+00 0.  1.
</event>
<event>
 7    1  0.1899036E-009  0.4778728E+02  0.7816164E-02  0.1312668E+00
        -11   -1    0    0    0    0  0.00000000000E+00  0.00000000000E+00  0.45593999997E+02  0.45594000000E+02  0.51100000000E-03 0. -1.
         11   -1    0    0    0    0 -0.00000000000E+00 -0.00000000000E+00 -0.45593999997E+02  0.45594000000E+02  0.51100000000E-03 0.  1.
    9900012    2    1    2    0    0 -0.36163058981E+02  0.82354623838E+01  0.22539592204E+02  0.47787275441E+02  0.20000020045E+02 0.  0.
        -12    1    1    2    0    0  0.36163058981E+02 -0.82354623838E+01 -0.22539592204E+02  0.43400724559E+02  0.00000000000E+00 0.  1.
         11    1    3    3    0    0 -0.16166284376E+02 -0.19571033859E+01  0.44836489961E+01  0.16890296408E+02  0.51100000000E-03 0. -1.
        -11    1    3    3    0    0 -0.20576091187E+02  0.72054518522E+01  0.17100327601E+02  0.27707675277E+02  0.51100000000E-03 0.  1.
        -12    1    3    3    0    0  0.57931658169E+00  0.29871139175E+01  0.95561560636E+00  0.31893037555E+01  0.00000000000E+00 0.  1.
</event>
<event>
 7    1  0.1899036E-009  0.4778727E+02  0.7816164E-02  0.1312668E+00
        -11   -1    0    0    0    0  0.00000000000E+00  0.00000000000E+00  0.45593999997E+02  0.45594000000E+02  0.51100000000E-03 0.  1.
         11   -1    0    0    0    0 -0.00000000000E+00 -0.00000000000E+00 -0.45593999997E+02  0.45594000000E+02  0.51100000000E-03 0. -1.
    9900012    2    1    2    0    0 -0.39669855378E+02  0.14323872632E+02 -0.10234864183E+02  0.47787271922E+02  0.20000003999E+02 0.  0.
        -12    1    1    2    0    0  0.39669855378E+02 -0.14323872632E+02  0.10234864183E+02  0.43400728078E+02  0.00000000000E+00 0.  1.
         11    1    3    3    0    0 -0.11629444822E+02  0.97421197243E+01 -0.63705845417E+00  0.15184160409E+02  0.51100000000E-03 0. -1.
        -11    1    3    3    0    0 -0.17492364113E+02  0.64962377909E+01 -0.11201154158E+02  0.21763496099E+02  0.51100000000E-03 0.  1.
        -12    1    3    3    0    0 -0.10548046443E+02 -0.19144848835E+01  0.16033484297E+01  0.10839615414E+02  0.00000000000E+00 0.  1.
</event>
<event>
 7    1  0.1899036E-009  0.4778727E+02  0.7816164E-02  0.1312668E+00
        -11   -1    0    0    0    0  0.00000000000E+00  0.00000000000E+00  0.45593999997E+02  0.45594000000E+02  0.51100000000E-03 0. -1.
         11   -1    0    0    0    0 -0.00000000000E+00 -0.00000000000E+00 -0.45593999997E+02  0.45594000000E+02  0.51100000000E-03 0.  1.
    9900012    2    1    2    0    0  0.17883549623E+02  0.39030640521E+02 -0.63569573062E+01  0.47787272440E+02  0.20000006361E+02 0.  0.
        -12    1    1    2    0    0 -0.17883549623E+02 -0.39030640521E+02  0.63569573062E+01  0.43400727560E+02  0.00000000000E+00 0.  1.
         11    1    3    3    0    0  0.14780611809E+02  0.23971281979E+02  0.31815027139E+01  0.28340973959E+02  0.51100000000E-03 0. -1.
        -11    1    3    3    0    0  0.36647385258E+01  0.42017762885E+01 -0.55467103115E+01  0.78645551674E+01  0.51100000000E-03 0.  1.
        -12    1    3    3    0    0 -0.56180071242E+00  0.10857582253E+02 -0.39917497086E+01  0.11581743313E+02  0.00000000000E+00 0.  1.
</event>
<event>
 7    1  0.1899036E-009  0.4778727E+02  0.7816164E-02  0.1312668E+00
        -11   -1    0    0    0    0  0.00000000000E+00  0.00000000000E+00  0.45593999997E+02  0.45594000000E+02  0.51100000000E-03 0.  1.
         11   -1    0    0    0    0 -0.00000000000E+00 -0.00000000000E+00 -0.45593999997E+02  0.45594000000E+02  0.51100000000E-03 0. -1.
    9900012    2    1    2    0    0 -0.30766709486E+02 -0.26522526118E+02 -0.15283611081E+02  0.47787267610E+02  0.19999984343E+02 0.  0.
        -12    1    1    2    0    0  0.30766709486E+02  0.26522526118E+02  0.15283611081E+02  0.43400732390E+02  0.00000000000E+00 0.  1.
         11    1    3    3    0    0 -0.88385154960E+01 -0.67393736632E+01 -0.83385940988E+01  0.13894987058E+02  0.51100000000E-03 0. -1.
        -11    1    3    3    0    0  0.25536658906E+00 -0.19692920508E+01 -0.49944764027E+01  0.53747667926E+01  0.51100000000E-03 0.  1.
         12    1    3    3    0    0 -0.22183560579E+02 -0.17813860404E+02 -0.19505405791E+01  0.28517513759E+02  0.00000000000E+00 0. -1.
</event>
<event>
 7    1  0.1899036E-009  0.4778727E+02  0.7816164E-02  0.1312668E+00
        -11   -1    0    0    0    0  0.00000000000E+00  0.00000000000E+00  0.45593999997E+02  0.45594000000E+02  0.51100000000E-03 0.  1.
         11   -1    0    0    0    0 -0.00000000000E+00 -0.00000000000E+00 -0.45593999997E+02  0.45594000000E+02  0.51100000000E-03 0. -1.
    9900012    2    1    2    0    0  0.29737452876E+02 -0.31583410533E+02  0.13400021407E+01  0.47787268092E+02  0.19999986537E+02 0.  0.
        -12    1    1    2    0    0 -0.29737452876E+02  0.31583410533E+02 -0.13400021407E+01  0.43400731908E+02  0.00000000000E+00 0.  1.
         11    1    3    3    0    0  0.11964690354E+02 -0.19467433187E+02  0.25537074015E+01  0.22992524697E+02  0.51100000000E-03 0. -1.
        -11    1    3    3    0    0  0.14256431039E+02 -0.12420261309E+02 -0.50612296298E+01  0.19573573066E+02  0.51100000000E-03 0.  1.
         12    1    3    3    0    0  0.35163314839E+01  0.30428396364E+00  0.38475243689E+01  0.52211703290E+01  0.00000000000E+00 0. -1.
</event>
<event>
 7    1  0.1997980E-009  0.4778727E+02  0.7816164E-02  0.1312668E+00
        -11   -1    0    0    0    0  0.00000000000E+00  0.00000000000E+00  0.45593999997E+02  0.45594000000E+02  0.51100000000E-03 0.  1.
         11   -1    0    0    0    0 -0.00000000000E+00 -0.00000000000E+00 -0.45593999997E+02  0.45594000000E+02  0.51100000000E-03 0. -1.
    9900012    2    1    2    0    0  0.86395281919E+01 -0.38809884935E+02 -0.17400419957E+02  0.47787271541E+02  0.20000002264E+02 0.  0.
        -12    1    1    2    0    0 -0.86395281919E+01  0.38809884935E+02  0.17400419957E+02  0.43400728459E+02  0.00000000000E+00 0.  1.
         11    1    3    3    0    0  0.58464254775E+01 -0.66058354862E+01 -0.34501725730E+01  0.94721404328E+01  0.51100000000E-03 0. -1.
        -11    1    3    3    0    0  0.20430260926E+01 -0.32682969962E+02 -0.99615976728E+01  0.34228407933E+02  0.51100000000E-03 0.  1.
        -12    1    3    3    0    0  0.75007662181E+00  0.47892051249E+00 -0.39886497112E+01  0.40867231757E+01  0.00000000000E+00 0.  1.
</event>
<event>
 7    1  0.1899036E-009  0.4778727E+02  0.7816164E-02  0.1312668E+00
        -11   -1    0    0    0    0  0.00000000000E+00  0.00000000000E+00  0.45593999997E+02  0.45594000000E+02  0.51100000000E-03 0. -1.
         11   -1    0    0    0    0 -0.00000000000E+00 -0.00000000000E+00 -0.45593999997E+02  0.45594000000E+02  0.51100000000E-03 0.  1.
    9900012    2    1    2    0    0  0.41021351655E+02 -0.43938477246E+01 -0.13474642262E+02  0.47787272201E+02  0.20000005271E+02 0.  0.
        -12    1    1    2    0    0 -0.41021351655E+02  0.43938477246E+01  0.13474642262E+02  0.43400727799E+02  0.00000000000E+00 0.  1.
         11    1    3    3    0    0  0.19034089368E+02 -0.79528528721E+01 -0.30854107588E+00  0.20631035474E+02  0.51100000000E-03 0. -1.
        -11    1    3    3    0    0  0.20182561128E+02  0.12432362704E+01 -0.91837275294E+01  0.22208607829E+02  0.51100000000E-03 0.  1.
        -12    1    3    3    0    0  0.18047011588E+01  0.23157688770E+01 -0.39823736565E+01  0.49476288972E+01  0.00000000000E+00 0.  1.
</event>
<event>
 7    1  0.1899036E-009  0.4778727E+02  0.7816164E-02  0.1312668E+00
        -11   -1    0    0    0    0  0.00000000000E+00  0.00000000000E+00  0.45593999997E+02  0.45594000000E+02  0.51100000000E-03 0.  1.
         11   -1    0    0    0    0 -0.00000000000E+00 -0.00000000000E+00 -0.45593999997E+02  0.45594000000E+02  0.51100000000E-03 0. -1.
    9900012    2    1    2    0    0 -0.24239171929E+02 -0.66473764978E+01 -0.35382175197E+02  0.47787269686E+02  0.19999993808E+02 0.  0.
        -12    1    1    2    0    0  0.24239171929E+02  0.66473764978E+01  0.35382175197E+02  0.43400730314E+02  0.00000000000E+00 0.  1.
         11    1    3    3    0    0 -0.87980172518E+01 -0.76642632471E+00 -0.58797405793E+01  0.10609611982E+02  0.51100000000E-03 0. -1.
        -11    1    3    3    0    0 -0.64515645536E+00 -0.75801832556E+01 -0.82023159861E+01  0.11187197720E+02  0.51100000000E-03 0.  1.
         12    1    3    3    0    0 -0.14795998222E+02  0.16992330826E+01 -0.21300118632E+02  0.25990459984E+02  0.00000000000E+00 0. -1.
</event>
<event>
 7    1  0.1899036E-009  0.4778727E+02  0.7816164E-02  0.1312668E+00
        -11   -1    0    0    0    0  0.00000000000E+00  0.00000000000E+00  0.45593999997E+02  0.45594000000E+02  0.51100000000E-03 0.  1.
         11   -1    0    0    0    0 -0.00000000000E+00 -0.00000000000E+00 -0.45593999997E+02  0.45594000000E+02  0.51100000000E-03 0. -1.
    9900012    2    1    2    0    0 -0.16600217266E+02  0.33818010615E+02  0.21549900832E+02  0.47787270961E+02  0.19999999621E+02 0.  0.
        -12    1    1    2    0    0  0.16600217266E+02 -0.33818010615E+02 -0.21549900832E+02  0.43400729039E+02  0.00000000000E+00 0.  1.
         11    1    3    3    0    0 -0.52742864285E+01  0.17617989587E+02  0.19970418554E+01  0.18498644027E+02  0.51100000000E-03 0. -1.
        -11    1    3    3    0    0  0.72368583094E+00  0.19275407115E+00 -0.53239346248E+00  0.91886798500E+00  0.51100000000E-03 0.  1.
        -12    1    3    3    0    0 -0.12049616669E+02  0.16007266957E+02  0.20085252439E+02  0.28369758949E+02  0.00000000000E+00 0.  1.
</event>
<event>
 7    1  0.1899036E-009  0.4778727E+02  0.7816164E-02  0.1312668E+00
        -11   -1    0    0    0    0  0.00000000000E+00  0.00000000000E+00  0.45593999997E+02  0.45594000000E+02  0.51100000000E-03 0.  1.
         11   -1    0    0    0    0 -0.00000000000E+00 -0.00000000000E+00 -0.45593999997E+02  0.45594000000E+02  0.51100000000E-03 0. -1.
    9900012    2    1    2    0    0  0.14762415444E+02 -0.15349161128E+01 -0.40784047297E+02  0.47787269693E+02  0.19999993840E+02 0.  0.
        -12    1    1    2    0    0 -0.14762415444E+02  0.15349161128E+01  0.40784047297E+02  0.43400730307E+02  0.00000000000E+00 0.  1.
         11    1    3    3    0    0 -0.35578785080E+01  0.27086521434E+01 -0.11399661507E+02  0.12245308434E+02  0.51100000000E-03 0. -1.
        -11    1    3    3    0    0  0.53615963129E+01 -0.10733421259E+01 -0.37081952219E+01  0.66067760978E+01  0.51100000000E-03 0.  1.
         12    1    3    3    0    0  0.12958697640E+02 -0.31702261303E+01 -0.25676190568E+02  0.28935185161E+02  0.00000000000E+00 0. -1.
</event>
<event>
 7    1  0.1899036E-009  0.4778727E+02  0.7816164E-02  0.1312668E+00
        -11   -1    0    0    0    0  0.00000000000E+00  0.00000000000E+00  0.45593999997E+02  0.45594000000E+02  0.51100000000E-03 0.  1.
         11   -1    0    0    0    0 -0.00000000000E+00 -0.00000000000E+00 -0.45593999997E+02  0.45594000000E+02  0.51100000000E-03 0. -1.
    9900012    2    1    2    0    0 -0.74679593820E+01 -0.30016106185E+02 -0.30444810586E+02  0.47787267985E+02  0.19999986049E+02 0.  0.
        -12    1    1    2    0    0  0.74679593820E+01  0.30016106185E+02  0.30444810586E+02  0.43400732015E+02  0.00000000000E+00 0.  1.
         11    1    3    3    0    0 -0.10990029825E+01 -0.20593310944E+02 -0.24277611726E+02  0.31854272783E+02  0.51100000000E-03 0. -1.
        -11    1    3    3    0    0 -0.17380158195E+01 -0.95112447239E+01 -0.23987668834E+01  0.99618551490E+01  0.51100000000E-03 0.  1.
        -12    1    3    3    0    0 -0.46309405799E+01  0.88449482070E-01 -0.37684319767E+01  0.59711400527E+01  0.00000000000E+00 0.  1.
</event>
<event>
 7    1  0.1899036E-009  0.4778727E+02  0.7816164E-02  0.1312668E+00
        -11   -1    0    0    0    0  0.00000000000E+00  0.00000000000E+00  0.45593999997E+02  0.45594000000E+02  0.51100000000E-03 0.  1.
         11   -1    0    0    0    0 -0.00000000000E+00 -0.00000000000E+00 -0.45593999997E+02  0.45594000000E+02  0.51100000000E-03 0. -1.
    9900012    2    1    2    0    0  0.60027452509E+01  0.15443384812E+02 -0.40113494027E+02  0.47787268577E+02  0.19999988750E+02 0.  0.
        -12    1    1    2    0    0 -0.60027452509E+01 -0.15443384812E+02  0.40113494027E+02  0.43400731423E+02  0.00000000000E+00 0.  1.
         11    1    3    3    0    0  0.50819658438E+01  0.27271086308E+01 -0.92680527804E+01  0.10916057023E+02  0.51100000000E-03 0. -1.
        -11    1    3    3    0    0 -0.42941553619E+01  0.67006049413E+01 -0.26768747725E+02  0.27926756558E+02  0.51100000000E-03 0.  1.
        -12    1    3    3    0    0  0.52149347690E+01  0.60156712395E+01 -0.40766935222E+01  0.89444549963E+01  0.00000000000E+00 0.  1.
</event>
<event>
 7    1  0.1899036E-009  0.4778727E+02  0.7816164E-02  0.1312668E+00
        -11   -1    0    0    0    0  0.00000000000E+00  0.00000000000E+00  0.45593999997E+02  0.45594000000E+02  0.51100000000E-03 0. -1.
         11   -1    0    0    0    0 -0.00000000000E+00 -0.00000000000E+00 -0.45593999997E+02  0.45594000000E+02  0.51100000000E-03 0.  1.
    9900012    2    1    2    0    0  0.57172419417E+01 -0.40633149029E+02  0.14138021595E+02  0.47787270628E+02  0.19999998100E+02 0.  0.
        -12    1    1    2    0    0 -0.57172419417E+01  0.40633149029E+02 -0.14138021595E+02  0.43400729372E+02  0.00000000000E+00 0.  1.
         11    1    3    3    0    0  0.46526810807E+00 -0.64936440342E+01 -0.17461177740E+01  0.67403868433E+01  0.51100000000E-03 0. -1.
        -11    1    3    3    0    0  0.52816317800E+00  0.92675336434E+00 -0.13248539230E+01  0.17009016195E+01  0.51100000000E-03 0.  1.
         12    1    3    3    0    0  0.47238106556E+01 -0.35066258359E+02  0.17208993292E+02  0.39345982165E+02  0.00000000000E+00 0. -1.
</event>
<event>
 7    1  0.1899036E-009  0.4778727E+02  0.7816164E-02  0.1312668E+00
        -11   -1    0    0    0    0  0.00000000000E+00  0.00000000000E+00  0.45593999997E+02  0.45594000000E+02  0.51100000000E-03 0.  1.
         11   -1    0    0    0    0 -0.00000000000E+00 -0.00000000000E+00 -0.45593999997E+02  0.45594000000E+02  0.51100000000E-03 0. -1.
    9900012    2    1    2    0    0  0.74256072518E+01  0.34678100130E+02 -0.25018251122E+02  0.47787272346E+02  0.20000005934E+02 0.  0.
        -12    1    1    2    0    0 -0.74256072518E+01 -0.34678100130E+02  0.25018251122E+02  0.43400727654E+02  0.00000000000E+00 0.  1.
         11    1    3    3    0    0  0.22047221884E+01  0.18392359931E+02 -0.32066333113E+01  0.18799526622E+02  0.51100000000E-03 0. -1.
        -11    1    3    3    0    0  0.19484022933E+01  0.14522397969E+02 -0.13676403803E+02  0.20043461166E+02  0.51100000000E-03 0.  1.
        -12    1    3    3    0    0  0.32724827701E+01  0.17633422302E+01 -0.81352140080E+01  0.89442845581E+01  0.00000000000E+00 0.  1.
</event>
<event>
 7    1  0.1899036E-009  0.4778728E+02  0.7816164E-02  0.1312668E+00
        -11   -1    0    0    0    0  0.00000000000E+00  0.00000000000E+00  0.45593999997E+02  0.45594000000E+02  0.51100000000E-03 0.  1.
         11   -1    0    0    0    0 -0.00000000000E+00 -0.00000000000E+00 -0.45593999997E+02  0.45594000000E+02  0.51100000000E-03 0. -1.
    9900012    2    1    2    0    0  0.93056760496E+01  0.31061911446E+02 -0.28847616301E+02  0.47787275171E+02  0.20000018816E+02 0.  0.
        -12    1    1    2    0    0 -0.93056760496E+01 -0.31061911446E+02  0.28847616301E+02  0.43400724829E+02  0.00000000000E+00 0.  1.
         11    1    3    3    0    0 -0.64461253533E+00  0.86611481566E+01 -0.44560327766E+01  0.97615183797E+01  0.51100000000E-03 0. -1.
        -11    1    3    3    0    0  0.12530085234E+02  0.92816909508E+01 -0.10856671071E+02  0.19000529726E+02  0.51100000000E-03 0.  1.
        -12    1    3    3    0    0 -0.25797966488E+01  0.13119072338E+02 -0.13534912454E+02  0.19025227066E+02  0.00000000000E+00 0.  1.
</event>
<event>
 7    1  0.1899036E-009  0.4778727E+02  0.7816164E-02  0.1312668E+00
        -11   -1    0    0    0    0  0.00000000000E+00  0.00000000000E+00  0.45593999997E+02  0.45594000000E+02  0.51100000000E-03 0. -1.
         11   -1    0    0    0    0 -0.00000000000E+00 -0.00000000000E+00 -0.45593999997E+02  0.45594000000E+02  0.51100000000E-03 0.  1.
    9900012    2    1    2    0    0 -0.17489220658E+02 -0.39720488791E+02  0.18218069225E+00  0.47787271218E+02  0.20000000790E+02 0.  0.
        -12    1    1    2    0    0  0.17489220658E+02  0.39720488791E+02 -0.18218069225E+00  0.43400728782E+02  0.00000000000E+00 0.  1.
         11    1    3    3    0    0 -0.78742717685E+01 -0.20573314882E+02 -0.58290989143E+01  0.22786922467E+02  0.51100000000E-03 0. -1.
        -11    1    3    3    0    0 -0.41441673907E+01 -0.44985521200E+01 -0.31473801127E+01  0.68787423541E+01  0.51100000000E-03 0.  1.
        -12    1    3    3    0    0 -0.54707814990E+01 -0.14648621789E+02  0.91586597193E+01  0.18121606396E+02  0.00000000000E+00 0.  1.
</event>
<event>
 7    1  0.1899036E-009  0.4778728E+02  0.7816164E-02  0.1312668E+00
        -11   -1    0    0    0    0  0.00000000000E+00  0.00000000000E+00  0.45593999997E+02  0.45594000000E+02  0.51100000000E-03 0.  1.
         11   -1    0    0    0    0 -0.00000000000E+00 -0.00000000000E+00 -0.45593999997E+02  0.45594000000E+02  0.51100000000E-03 0. -1.
    9900012    2    1    2    0    0 -0.23807256191E+01  0.24146051969E+02 -0.35985035403E+02  0.47787280500E+02  0.20000043110E+02 0.  0.
        -12    1    1    2    0    0  0.23807256191E+01 -0.24146051969E+02  0.35985035403E+02  0.43400719500E+02  0.00000000000E+00 0.  1.
         11    1    3    3    0    0  0.69680469579E+01  0.23716080213E+01 -0.83182020106E+01  0.11107235838E+02  0.51100000000E-03 0. -1.
        -11    1    3    3    0    0 -0.46426643194E+01  0.65951210990E+01 -0.75951175419E+01  0.11078617469E+02  0.51100000000E-03 0.  1.
         12    1    3    3    0    0 -0.47061082576E+01  0.15179322849E+02 -0.20071715851E+02  0.25601427192E+02  0.00000000000E+00 0. -1.
</event>
<event>
 7    1  0.1899036E-009  0.4778727E+02  0.7816164E-02  0.1312668E+00
        -11   -1    0    0    0    0  0.00000000000E+00  0.00000000000E+00  0.45593999997E+02  0.45594000000E+02  0.51100000000E-03 0. -1.
         11   -1    0    0    0    0 -0.00000000000E+00 -0.00000000000E+00 -0.45593999997E+02  0.45594000000E+02  0.51100000000E-03 0.  1.
    9900012    2    1    2    0    0  0.17158327995E+02 -0.34323078511E+02  0.20276622085E+02  0.47787270268E+02  0.19999996461E+02 0.  0.
        -12    1    1    2    0    0 -0.17158327995E+02  0.34323078511E+02 -0.20276622085E+02  0.43400729732E+02  0.00000000000E+00 0.  1.
         11    1    3    3    0    0  0.13580901908E+02 -0.11464752477E+02  0.12758630689E+02  0.21878393527E+02  0.51100000000E-03 0. -1.
        -11    1    3    3    0    0 -0.23708564326E+01 -0.41156799771E+01  0.33387336692E+01  0.58057665017E+01  0.51100000000E-03 0.  1.
        -12    1    3    3    0    0  0.59482825201E+01 -0.18742646057E+02  0.41792577263E+01  0.20103110240E+02  0.00000000000E+00 0.  1.
</event>
<event>
 7    1  0.1899036E-009  0.4778727E+02  0.7816164E-02  0.1312668E+00
        -11   -1    0    0    0    0  0.00000000000E+00  0.00000000000E+00  0.45593999997E+02  0.45594000000E+02  0.51100000000E-03 0. -1.
         11   -1    0    0    0    0 -0.00000000000E+00 -0.00000000000E+00 -0.45593999997E+02  0.45594000000E+02  0.51100000000E-03 0.  1.
    9900012    2    1    2    0    0  0.86948177943E+00 -0.42294064057E+02  0.96994511910E+01  0.47787271821E+02  0.20000003543E+02 0.  0.
        -12    1    1    2    0    0 -0.86948177943E+00  0.42294064057E+02 -0.96994511910E+01  0.43400728179E+02  0.00000000000E+00 0.  1.
         11    1    3    3    0    0  0.13098712481E+01 -0.19705942598E+02  0.19941351190E+01  0.19849849155E+02  0.51100000000E-03 0. -1.
        -11    1    3    3    0    0  0.56889082585E+01 -0.32329115377E+01  0.15873647187E+01  0.67331360595E+01  0.51100000000E-03 0.  1.
        -12    1    3    3    0    0 -0.61292977271E+01 -0.19355209922E+02  0.61179513534E+01  0.21204286607E+02  0.00000000000E+00 0.  1.
</event>
<event>
 7    1  0.1899036E-009  0.4778728E+02  0.7816164E-02  0.1312668E+00
        -11   -1    0    0    0    0  0.00000000000E+00  0.00000000000E+00  0.45593999997E+02  0.45594000000E+02  0.51100000000E-03 0.  1.
         11   -1    0    0    0    0 -0.00000000000E+00 -0.00000000000E+00 -0.45593999997E+02  0.45594000000E+02  0.51100000000E-03 0. -1.
    9900012    2    1    2    0    0  0.27471793268E+02  0.32390058463E+02 -0.89334784183E+01  0.47787281696E+02  0.20000048566E+02 0.  0.
        -12    1    1    2    0    0 -0.27471793268E+02 -0.32390058463E+02  0.89334784183E+01  0.43400718304E+02  0.00000000000E+00 0.  1.
         11    1    3    3    0    0  0.17280349640E+02  0.19351712191E+02 -0.60294016041E+01  0.26635557670E+02  0.51100000000E-03 0. -1.
        -11    1    3    3    0    0  0.10869353805E+02  0.50578102050E+01 -0.48122400696E+01  0.12918279721E+02  0.51100000000E-03 0.  1.
        -12    1    3    3    0    0 -0.67791017630E+00  0.79805360671E+01  0.19081632553E+01  0.82334443056E+01  0.00000000000E+00 0.  1.
</event>
<event>
 7    1  0.1899036E-009  0.4778728E+02  0.7816164E-02  0.1312668E+00
        -11   -1    0    0    0    0  0.00000000000E+00  0.00000000000E+00  0.45593999997E+02  0.45594000000E+02  0.51100000000E-03 0.  1.
         11   -1    0    0    0    0 -0.00000000000E+00 -0.00000000000E+00 -0.45593999997E+02  0.45594000000E+02  0.51100000000E-03 0. -1.
    9900012    2    1    2    0    0 -0.68532920833E+01  0.12488052815E+02 -0.40996386881E+02  0.47787276357E+02  0.20000024221E+02 0.  0.
        -12    1    1    2    0    0  0.68532920833E+01 -0.12488052815E+02  0.40996386881E+02  0.43400723643E+02  0.00000000000E+00 0.  1.
         11    1    3    3    0    0 -0.87424518568E+01  0.13704093762E+02 -0.37254280295E+02  0.40646205860E+02  0.51100000000E-03 0. -1.
        -11    1    3    3    0    0  0.28327324601E+01  0.12302287848E+01 -0.32313645484E+01  0.44698493441E+01  0.51100000000E-03 0.  1.
        -12    1    3    3    0    0 -0.94357268653E+00 -0.24462697318E+01 -0.51074203737E+00  0.26712211523E+01  0.00000000000E+00 0.  1.
</event>
<event>
 7    1  0.1899036E-009  0.4778725E+02  0.7816164E-02  0.1312668E+00
        -11   -1    0    0    0    0  0.00000000000E+00  0.00000000000E+00  0.45593999997E+02  0.45594000000E+02  0.51100000000E-03 0.  1.
         11   -1    0    0    0    0 -0.00000000000E+00 -0.00000000000E+00 -0.45593999997E+02  0.45594000000E+02  0.51100000000E-03 0. -1.
    9900012    2    1    2    0    0 -0.37726343580E+02  0.40674342586E+01 -0.21066666914E+02  0.47787245672E+02  0.19999884316E+02 0.  0.
        -12    1    1    2    0    0  0.37726343580E+02 -0.40674342586E+01  0.21066666914E+02  0.43400754328E+02  0.00000000000E+00 0.  1.
         11    1    3    3    0    0 -0.17053756717E+02  0.94875090819E+01 -0.73713137589E+01  0.20860961472E+02  0.51100000000E-03 0. -1.
        -11    1    3    3    0    0 -0.20393155655E+02 -0.31968648854E+01 -0.13526389253E+02  0.24679220999E+02  0.51100000000E-03 0.  1.
        -12    1    3    3    0    0 -0.27943120860E+00 -0.22232099379E+01 -0.16896390256E+00  0.22470632009E+01  0.00000000000E+00 0.  1.
</event>
<event>
 7    1  0.1899036E-009  0.4778727E+02  0.7816164E-02  0.1312668E+00
        -11   -1    0    0    0    0  0.00000000000E+00  0.00000000000E+00  0.45593999997E+02  0.45594000000E+02  0.51100000000E-03 0.  1.
         11   -1    0    0    0    0 -0.00000000000E+00 -0.00000000000E+00 -0.45593999997E+02  0.45594000000E+02  0.51100000000E-03 0. -1.
    9900012    2    1    2    0    0  0.33164695694E+02  0.55115003894E+01 -0.27447211274E+02  0.47787273235E+02  0.20000009987E+02 0.  0.
        -12    1    1    2    0    0 -0.33164695694E+02 -0.55115003894E+01  0.27447211274E+02  0.43400726765E+02  0.00000000000E+00 0.  1.
         11    1    3    3    0    0  0.17277309943E+02  0.52485360224E+01 -0.15356537549E+02  0.23703919823E+02  0.51100000000E-03 0. -1.
        -11    1    3    3    0    0 -0.17889159597E+01  0.19492292842E+01 -0.81328271004E-01  0.26469472345E+01  0.51100000000E-03 0.  1.
         12    1    3    3    0    0  0.17676301711E+02 -0.16862649172E+01 -0.12009345454E+02  0.21436406177E+02  0.00000000000E+00 0. -1.
</event>
<event>
 7    1  0.2318764E-009  0.4778727E+02  0.7816164E-02  0.1312668E+00
        -11   -1    0    0    0    0  0.00000000000E+00  0.00000000000E+00  0.45593999997E+02  0.45594000000E+02  0.51100000000E-03 0.  1.
         11   -1    0    0    0    0 -0.00000000000E+00 -0.00000000000E+00 -0.45593999997E+02  0.45594000000E+02  0.51100000000E-03 0. -1.
    9900012    2    1    2    0    0  0.84212693387E+01 -0.29523755614E+02 -0.30676601012E+02  0.47787265300E+02  0.19999973810E+02 0.  0.
        -12    1    1    2    0    0 -0.84212693387E+01  0.29523755614E+02  0.30676601012E+02  0.43400734700E+02  0.00000000000E+00 0.  1.
         11    1    3    3    0    0 -0.34235804366E+01 -0.62924328352E+01 -0.12606179408E+02  0.14499357693E+02  0.51100000000E-03 0. -1.
        -11    1    3    3    0    0  0.81681125269E+01 -0.18682153470E+02 -0.18351320052E+02  0.27431949774E+02  0.51100000000E-03 0.  1.
        -12    1    3    3    0    0  0.36767372484E+01 -0.45491693095E+01  0.28089844793E+00  0.58559578327E+01  0.00000000000E+00 0.  1.
</event>
<event>
 7    1  0.1899036E-009  0.4778727E+02  0.7816164E-02  0.1312668E+00
        -11   -1    0    0    0    0  0.00000000000E+00  0.00000000000E+00  0.45593999997E+02  0.45594000000E+02  0.51100000000E-03 0.  1.
         11   -1    0    0    0    0 -0.00000000000E+00 -0.00000000000E+00 -0.45593999997E+02  0.45594000000E+02  0.51100000000E-03 0. -1.
    9900012    2    1    2    0    0  0.71308327764E+01 -0.15263238145E+02 -0.39997606971E+02  0.47787265234E+02  0.19999973509E+02 0.  0.
        -12    1    1    2    0    0 -0.71308327764E+01  0.15263238145E+02  0.39997606971E+02  0.43400734766E+02  0.00000000000E+00 0.  1.
         11    1    3    3    0    0  0.40886037629E+00 -0.62511543590E+01 -0.19715307146E+02  0.20686648683E+02  0.51100000000E-03 0. -1.
        -11    1    3    3    0    0  0.31348949170E+01  0.25323192542E+01 -0.70416525086E+00  0.40909724892E+01  0.51100000000E-03 0.  1.
        -12    1    3    3    0    0  0.35870774832E+01 -0.11544403040E+02 -0.19578134575E+02  0.23009644062E+02  0.00000000000E+00 0.  1.
</event>
<event>
 7    1  0.1899036E-009  0.4778727E+02  0.7816164E-02  0.1312668E+00
        -11   -1    0    0    0    0  0.00000000000E+00  0.00000000000E+00  0.45593999997E+02  0.45594000000E+02  0.51100000000E-03 0. -1.
         11   -1    0    0    0    0 -0.00000000000E+00 -0.00000000000E+00 -0.45593999997E+02  0.45594000000E+02  0.51100000000E-03 0.  1.
    9900012    2    1    2    0    0  0.30676729032E+01 -0.35511903260E+02  0.24761207116E+02  0.47787271112E+02  0.20000000307E+02 0.  0.
        -12    1    1    2    0    0 -0.30676729032E+01  0.35511903260E+02 -0.24761207116E+02  0.43400728888E+02  0.00000000000E+00 0.  1.
         11    1    3    3    0    0  0.29628501738E+01 -0.20653443945E+02  0.16889713111E+02  0.26844098740E+02  0.51100000000E-03 0. -1.
        -11    1    3    3    0    0  0.56093260365E+01 -0.47526427106E+01  0.70344998447E+00  0.73855936431E+01  0.51100000000E-03 0.  1.
        -12    1    3    3    0    0 -0.55045033072E+01 -0.10105816604E+02  0.71680440203E+01  0.13557578728E+02  0.00000000000E+00 0.  1.
</event>
<event>
 7    1  0.1899036E-009  0.4778727E+02  0.7816164E-02  0.1312668E+00
        -11   -1    0    0    0    0  0.00000000000E+00  0.00000000000E+00  0.45593999997E+02  0.45594000000E+02  0.51100000000E-03 0.  1.
         11   -1    0    0    0    0 -0.00000000000E+00 -0.00000000000E+00 -0.45593999997E+02  0.45594000000E+02  0.51100000000E-03 0. -1.
    9900012    2    1    2    0    0 -0.13226028538E+02  0.24762125105E+02 -0.33098829279E+02  0.47787272239E+02  0.20000005445E+02 0.  0.
        -12    1    1    2    0    0  0.13226028538E+02 -0.24762125105E+02  0.33098829279E+02  0.43400727761E+02  0.00000000000E+00 0.  1.
         11    1    3    3    0    0 -0.15032151030E+02  0.20616409142E+02 -0.22878057549E+02  0.34269628069E+02  0.51100000000E-03 0. -1.
        -11    1    3    3    0    0  0.16973227737E+01  0.35246510097E+01 -0.69775967493E+00  0.39737813432E+01  0.51100000000E-03 0.  1.
         12    1    3    3    0    0  0.10879971885E+00  0.62106495297E+00 -0.95230120551E+01  0.95438628268E+01  0.00000000000E+00 0. -1.
</event>
<event>
 7    1  0.2879134E-009  0.4778727E+02  0.7816164E-02  0.1312668E+00
        -11   -1    0    0    0    0  0.00000000000E+00  0.00000000000E+00  0.45593999997E+02  0.45594000000E+02  0.51100000000E-03 0. -1.
         11   -1    0    0    0    0 -0.00000000000E+00 -0.00000000000E+00 -0.45593999997E+02  0.45594000000E+02  0.51100000000E-03 0.  1.
    9900012    2    1    2    0    0 -0.33034178227E+02 -0.13497965629E+01  0.28116620383E+02  0.47787271623E+02  0.20000002638E+02 0.  0.
        -12    1    1    2    0    0  0.33034178227E+02  0.13497965629E+01 -0.28116620383E+02  0.43400728377E+02  0.00000000000E+00 0.  1.
         11    1    3    3    0    0 -0.13189625446E+02  0.53763518200E+01  0.91808612034E+01  0.16945783871E+02  0.51100000000E-03 0. -1.
        -11    1    3    3    0    0 -0.24118198715E+01 -0.35610873294E+01 -0.73991821902E+00  0.43641376344E+01  0.51100000000E-03 0.  1.
        -12    1    3    3    0    0 -0.17432732910E+02 -0.31650610534E+01  0.19675677398E+02  0.26477350118E+02  0.00000000000E+00 0.  1.
</event>
<event>
 7    1  0.1899036E-009  0.4778728E+02  0.7816164E-02  0.1312668E+00
        -11   -1    0    0    0    0  0.00000000000E+00  0.00000000000E+00  0.45593999997E+02  0.45594000000E+02  0.51100000000E-03 0.  1.
         11   -1    0    0    0    0 -0.00000000000E+00 -0.00000000000E+00 -0.45593999997E+02  0.45594000000E+02  0.51100000000E-03 0. -1.
    9900012    2    1    2    0    0 -0.59299476517E+01  0.53016413368E+01 -0.42665574311E+02  0.47787275221E+02  0.20000019043E+02 0.  0.
        -12    1    1    2    0    0  0.59299476517E+01 -0.53016413368E+01  0.42665574311E+02  0.43400724779E+02  0.00000000000E+00 0.  1.
         11    1    3    3    0    0  0.18891216842E+01 -0.17621599472E+01 -0.62233911486E+01  0.67382925187E+01  0.51100000000E-03 0. -1.
        -11    1    3    3    0    0 -0.32491971287E-01 -0.35439761094E+01 -0.18282694813E+02  0.18623043583E+02  0.51100000000E-03 0.  1.
         12    1    3    3    0    0 -0.77865773646E+01  0.10607777393E+02 -0.18159488350E+02  0.22425939120E+02  0.00000000000E+00 0. -1.
</event>
<event>
 7    1  0.1899036E-009  0.4778727E+02  0.7816164E-02  0.1312668E+00
        -11   -1    0    0    0    0  0.00000000000E+00  0.00000000000E+00  0.45593999997E+02  0.45594000000E+02  0.51100000000E-03 0.  1.
         11   -1    0    0    0    0 -0.00000000000E+00 -0.00000000000E+00 -0.45593999997E+02  0.45594000000E+02  0.51100000000E-03 0. -1.
    9900012    2    1    2    0    0  0.28714982243E+02 -0.31941725557E+02  0.62288856467E+01  0.47787273587E+02  0.20000011594E+02 0.  0.
        -12    1    1    2    0    0 -0.28714982243E+02  0.31941725557E+02 -0.62288856467E+01  0.43400726413E+02  0.00000000000E+00 0.  1.
         11    1    3    3    0    0  0.40071995224E+01 -0.10043926131E+02 -0.26115136178E+01  0.11124661962E+02  0.51100000000E-03 0. -1.
        -11    1    3    3    0    0  0.83898580965E+01 -0.46314853559E+01  0.86423548110E+01  0.12904676378E+02  0.51100000000E-03 0.  1.
         12    1    3    3    0    0  0.16317924624E+02 -0.17266314070E+02  0.19804445351E+00  0.23757935247E+02  0.00000000000E+00 0. -1.
</event>
<event>
 7    1  0.1899036E-009  0.4778730E+02  0.7816164E-02  0.1312668E+00
        -11   -1    0    0    0    0  0.00000000000E+00  0.00000000000E+00  0.45593999997E+02  0.45594000000E+02  0.51100000000E-03 0. -1.
         11   -1    0    0    0    0 -0.00000000000E+00 -0.00000000000E+00 -0.45593999997E+02  0.45594000000E+02  0.51100000000E-03 0.  1.
    9900012    2    1    2    0    0  0.34091057411E+02 -0.50679744963E+01  0.26376816036E+02  0.47787297412E+02  0.20000120222E+02 0.  0.
        -12    1    1    2    0    0 -0.34091057411E+02  0.50679744963E+01 -0.26376816036E+02  0.43400702588E+02  0.00000000000E+00 0.  1.
         11    1    3    3    0    0  0.13020633021E+02 -0.73187390301E+01  0.19151390294E+02  0.24287374822E+02  0.51100000000E-03 0. -1.
        -11    1    3    3    0    0  0.99663984452E+00  0.85494814203E+00 -0.11101523435E+01  0.17194957959E+01  0.51100000000E-03 0.  1.
         12    1    3    3    0    0  0.20073784545E+02  0.13958163918E+01  0.83355780859E+01  0.21780426795E+02  0.00000000000E+00 0. -1.
</event>
<event>
 7    1  0.1899036E-009  0.4778727E+02  0.7816164E-02  0.1312668E+00
        -11   -1    0    0    0    0  0.00000000000E+00  0.00000000000E+00  0.45593999997E+02  0.45594000000E+02  0.51100000000E-03 0. -1.
         11   -1    0    0    0    0 -0.00000000000E+00 -0.00000000000E+00 -0.45593999997E+02  0.45594000000E+02  0.51100000000E-03 0.  1.
    9900012    2    1    2    0    0  0.37606838188E+02 -0.20624753531E+02  0.66308761384E+01  0.47787271261E+02  0.20000000986E+02 0.  0.
        -12    1    1    2    0    0 -0.37606838188E+02  0.20624753531E+02 -0.66308761384E+01  0.43400728739E+02  0.00000000000E+00 0.  1.
         11    1    3    3    0    0  0.10731879535E+02 -0.22242380802E+01  0.15575271242E+01  0.11070066142E+02  0.51100000000E-03 0. -1.
        -11    1    3    3    0    0  0.33307504242E+01  0.62974468053E+00 -0.38755423082E+01  0.51488159022E+01  0.51100000000E-03 0.  1.
         12    1    3    3    0    0  0.23544208229E+02 -0.19030260132E+02  0.89488913224E+01  0.31568389216E+02  0.00000000000E+00 0. -1.
</event>
<event>
 7    1  0.1899036E-009  0.4778727E+02  0.7816164E-02  0.1312668E+00
        -11   -1    0    0    0    0  0.00000000000E+00  0.00000000000E+00  0.45593999997E+02  0.45594000000E+02  0.51100000000E-03 0.  1.
         11   -1    0    0    0    0 -0.00000000000E+00 -0.00000000000E+00 -0.45593999997E+02  0.45594000000E+02  0.51100000000E-03 0. -1.
    9900012    2    1    2    0    0  0.98956230978E+01 -0.26339207139E+02 -0.33044607784E+02  0.47787270827E+02  0.19999999007E+02 0.  0.
        -12    1    1    2    0    0 -0.98956230978E+01  0.26339207139E+02  0.33044607784E+02  0.43400729173E+02  0.00000000000E+00 0.  1.
         11    1    3    3    0    0  0.10580288021E+02 -0.57795079851E+01 -0.89378260015E+01  0.15007662744E+02  0.51100000000E-03 0. -1.
        -11    1    3    3    0    0  0.36157921412E+01 -0.13083526683E+02 -0.15285660605E+02  0.20442701476E+02  0.51100000000E-03 0.  1.
        -12    1    3    3    0    0 -0.43004570643E+01 -0.74761724706E+01 -0.88211211775E+01  0.12336906606E+02  0.00000000000E+00 0.  1.
</event>
<event>
 7    1  0.1899036E-009  0.4778727E+02  0.7816164E-02  0.1312668E+00
        -11   -1    0    0    0    0  0.00000000000E+00  0.00000000000E+00  0.45593999997E+02  0.45594000000E+02  0.51100000000E-03 0. -1.
         11   -1    0    0    0    0 -0.00000000000E+00 -0.00000000000E+00 -0.45593999997E+02  0.45594000000E+02  0.51100000000E-03 0.  1.
    9900012    2    1    2    0    0  0.35638076244E+01  0.40608626237E+02 -0.14895032355E+02  0.47787271452E+02  0.20000001857E+02 0.  0.
        -12    1    1    2    0    0 -0.35638076244E+01 -0.40608626237E+02  0.14895032355E+02  0.43400728548E+02  0.00000000000E+00 0.  1.
         11    1    3    3    0    0 -0.27763113513E+01  0.42419264218E+01 -0.41430673260E+01  0.65472781838E+01  0.51100000000E-03 0. -1.
        -11    1    3    3    0    0 -0.36795753092E+01  0.33182108975E+01  0.34525925846E+00  0.49667899325E+01  0.51100000000E-03 0.  1.
         12    1    3    3    0    0  0.10019694285E+02  0.33048488918E+02 -0.11097224288E+02  0.36273203335E+02  0.00000000000E+00 0. -1.
</event>
<event>
 7    1  0.1899036E-009  0.4778727E+02  0.7816164E-02  0.1312668E+00
        -11   -1    0    0    0    0  0.00000000000E+00  0.00000000000E+00  0.45593999997E+02  0.45594000000E+02  0.51100000000E-03 0.  1.
         11   -1    0    0    0    0 -0.00000000000E+00 -0.00000000000E+00 -0.45593999997E+02  0.45594000000E+02  0.51100000000E-03 0. -1.
    9900012    2    1    2    0    0 -0.26759633011E+02 -0.33167887515E+02  0.82119647880E+01  0.47787273200E+02  0.20000009827E+02 0.  0.
        -12    1    1    2    0    0  0.26759633011E+02  0.33167887515E+02 -0.82119647880E+01  0.43400726800E+02  0.00000000000E+00 0.  1.
         11    1    3    3    0    0 -0.14616778887E+01 -0.27333147623E+00  0.22396974451E+01  0.26883930615E+01  0.51100000000E-03 0. -1.
        -11    1    3    3    0    0  0.17736358367E+01 -0.59352800170E+01  0.26867938536E+01  0.67521992295E+01  0.51100000000E-03 0.  1.
         12    1    3    3    0    0 -0.27071590959E+02 -0.26959276022E+02  0.32854734892E+01  0.38346680909E+02  0.00000000000E+00 0. -1.
</event>
<event>
 7    1  0.1899036E-009  0.4778728E+02  0.7816164E-02  0.1312668E+00
        -11   -1    0    0    0    0  0.00000000000E+00  0.00000000000E+00  0.45593999997E+02  0.45594000000E+02  0.51100000000E-03 0.  1.
         11   -1    0    0    0    0 -0.00000000000E+00 -0.00000000000E+00 -0.45593999997E+02  0.45594000000E+02  0.51100000000E-03 0. -1.
    9900012    2    1    2    0    0  0.51084830879E+01 -0.39778187704E+02  0.16589807501E+02  0.47787279621E+02  0.20000039105E+02 0.  0.
        -12    1    1    2    0    0 -0.51084830879E+01  0.39778187704E+02 -0.16589807501E+02  0.43400720379E+02  0.00000000000E+00 0.  1.
         11    1    3    3    0    0  0.46239234087E+01 -0.13345452213E+02 -0.11680820398E+01  0.14172020970E+02  0.51100000000E-03 0. -1.
        -11    1    3    3    0    0 -0.12713449423E+01 -0.21731555584E+02  0.90711005984E+01  0.23583080638E+02  0.51100000000E-03 0.  1.
        -12    1    3    3    0    0  0.17559046215E+01 -0.47011799067E+01  0.86867889421E+01  0.10032178013E+02  0.00000000000E+00 0.  1.
</event>
<event>
 7    1  0.1899036E-009  0.4778727E+02  0.7816164E-02  0.1312668E+00
        -11   -1    0    0    0    0  0.00000000000E+00  0.00000000000E+00  0.45593999997E+02  0.45594000000E+02  0.51100000000E-03 0.  1.
         11   -1    0    0    0    0 -0.00000000000E+00 -0.00000000000E+00 -0.45593999997E+02  0.45594000000E+02  0.51100000000E-03 0. -1.
    9900012    2    1    2    0    0 -0.25232412007E+02  0.25087063330E+01 -0.35222935797E+02  0.47787269253E+02  0.19999991834E+02 0.  0.
        -12    1    1    2    0    0  0.25232412007E+02 -0.25087063330E+01  0.35222935797E+02  0.43400730747E+02  0.00000000000E+00 0.  1.
         11    1    3    3    0    0 -0.17455823467E+00  0.30624315755E+01 -0.25832391167E+01  0.40102471653E+01  0.51100000000E-03 0.  1.
        -11    1    3    3    0    0 -0.23393674335E+00 -0.40845746837E+01 -0.42246653964E+01  0.58810096684E+01  0.51100000000E-03 0. -1.
         12    1    3    3    0    0 -0.24823917029E+02  0.35308494413E+01 -0.28415031284E+02  0.37896012420E+02  0.00000000000E+00 0. -1.
</event>
<event>
 7    1  0.1899036E-009  0.4778727E+02  0.7816164E-02  0.1312668E+00
        -11   -1    0    0    0    0  0.00000000000E+00  0.00000000000E+00  0.45593999997E+02  0.45594000000E+02  0.51100000000E-03 0. -1.
         11   -1    0    0    0    0 -0.00000000000E+00 -0.00000000000E+00 -0.45593999997E+02  0.45594000000E+02  0.51100000000E-03 0.  1.
    9900012    2    1    2    0    0 -0.21545892929E+02 -0.37589402143E+02 -0.25366278769E+01  0.47787272626E+02  0.20000007212E+02 0.  0.
        -12    1    1    2    0    0  0.21545892929E+02  0.37589402143E+02  0.25366278769E+01  0.43400727374E+02  0.00000000000E+00 0.  1.
         11    1    3    3    0    0 -0.12148714719E+01 -0.73500187936E+01 -0.57427279119E+01  0.94062539350E+01  0.51100000000E-03 0. -1.
        -11    1    3    3    0    0 -0.12570780593E+02 -0.93537414807E+01 -0.10235020099E+01  0.15702374375E+02  0.51100000000E-03 0.  1.
         12    1    3    3    0    0 -0.77602408649E+01 -0.20885641869E+02  0.42296020450E+01  0.22678644316E+02  0.00000000000E+00 0. -1.
</event>
<event>
 7    1  0.1899036E-009  0.4778727E+02  0.7816164E-02  0.1312668E+00
        -11   -1    0    0    0    0  0.00000000000E+00  0.00000000000E+00  0.45593999997E+02  0.45594000000E+02  0.51100000000E-03 0. -1.
         11   -1    0    0    0    0 -0.00000000000E+00 -0.00000000000E+00 -0.45593999997E+02  0.45594000000E+02  0.51100000000E-03 0.  1.
    9900012    2    1    2    0    0 -0.29029968394E+02 -0.21362176468E+02  0.24177294886E+02  0.47787271476E+02  0.20000001967E+02 0.  0.
        -12    1    1    2    0    0  0.29029968394E+02  0.21362176468E+02 -0.24177294886E+02  0.43400728524E+02  0.00000000000E+00 0.  1.
         11    1    3    3    0    0  0.55432373843E+00  0.40911908646E+00 -0.13814487930E+00  0.70266457338E+00  0.51100000000E-03 0. -1.
        -11    1    3    3    0    0 -0.11024466726E+01  0.67240959923E+00  0.66026091763E+01  0.67277018016E+01  0.51100000000E-03 0.  1.
         12    1    3    3    0    0 -0.28481845460E+02 -0.22443705154E+02  0.17712830589E+02  0.40356905101E+02  0.00000000000E+00 0. -1.
</event>
<event>
 7    1  0.1899036E-009  0.4778727E+02  0.7816164E-02  0.1312668E+00
        -11   -1    0    0    0    0  0.00000000000E+00  0.00000000000E+00  0.45593999997E+02  0.45594000000E+02  0.51100000000E-03 0.  1.
         11   -1    0    0    0    0 -0.00000000000E+00 -0.00000000000E+00 -0.45593999997E+02  0.45594000000E+02  0.51100000000E-03 0. -1.
    9900012    2    1    2    0    0 -0.36408196152E+01  0.21270552510E+02 -0.37655427731E+02  0.47787271790E+02  0.20000003398E+02 0.  0.
        -12    1    1    2    0    0  0.36408196152E+01 -0.21270552510E+02  0.37655427731E+02  0.43400728210E+02  0.00000000000E+00 0.  1.
         11    1    3    3    0    0 -0.48135838794E+01  0.56864420019E+01 -0.20579553523E+02  0.21886622304E+02  0.51100000000E-03 0. -1.
        -11    1    3    3    0    0 -0.36170060729E+01  0.57408680570E+01 -0.16460246269E+01  0.69820982743E+01  0.51100000000E-03 0.  1.
        -12    1    3    3    0    0  0.47897703371E+01  0.98432424512E+01 -0.15429849581E+02  0.18918551211E+02  0.00000000000E+00 0.  1.
</event>
<event>
 7    1  0.1899036E-009  0.4778728E+02  0.7816164E-02  0.1312668E+00
        -11   -1    0    0    0    0  0.00000000000E+00  0.00000000000E+00  0.45593999997E+02  0.45594000000E+02  0.51100000000E-03 0. -1.
         11   -1    0    0    0    0 -0.00000000000E+00 -0.00000000000E+00 -0.45593999997E+02  0.45594000000E+02  0.51100000000E-03 0.  1.
    9900012    2    1    2    0    0 -0.90035354118E+01  0.42324029460E+02 -0.33519668415E+01  0.47787276488E+02  0.20000024820E+02 0.  0.
        -12    1    1    2    0    0  0.90035354118E+01 -0.42324029460E+02  0.33519668415E+01  0.43400723512E+02  0.00000000000E+00 0.  1.
         11    1    3    3    0    0 -0.17364118161E+01  0.20686526378E+02 -0.43718293975E+01  0.21214626844E+02  0.51100000000E-03 0. -1.
        -11    1    3    3    0    0 -0.11022482581E+02  0.18862234240E+02  0.30618516608E+00  0.21848861581E+02  0.51100000000E-03 0.  1.
        -12    1    3    3    0    0  0.37553589849E+01  0.27752688420E+01  0.71367738985E+00  0.47237880634E+01  0.00000000000E+00 0.  1.
</event>
<event>
 7    1  0.1899036E-009  0.4778727E+02  0.7816164E-02  0.1312668E+00
        -11   -1    0    0    0    0  0.00000000000E+00  0.00000000000E+00  0.45593999997E+02  0.45594000000E+02  0.51100000000E-03 0.  1.
         11   -1    0    0    0    0 -0.00000000000E+00 -0.00000000000E+00 -0.45593999997E+02  0.45594000000E+02  0.51100000000E-03 0. -1.
    9900012    2    1    2    0    0  0.24693401055E+02  0.21971675112E+02 -0.28126588214E+02  0.47787268123E+02  0.19999986680E+02 0.  0.
        -12    1    1    2    0    0 -0.24693401055E+02 -0.21971675112E+02  0.28126588214E+02  0.43400731877E+02  0.00000000000E+00 0.  1.
         11    1    3    3    0    0  0.92978893839E+01  0.10297520681E+02 -0.94638327033E+01  0.16794457683E+02  0.51100000000E-03 0. -1.
        -11    1    3    3    0    0 -0.54401395548E+00  0.83438014889E+00 -0.96718114741E+01  0.97229665673E+01  0.51100000000E-03 0.  1.
         12    1    3    3    0    0  0.15939525627E+02  0.10839774282E+02 -0.89909440368E+01  0.21269843873E+02  0.00000000000E+00 0. -1.
</event>
<event>
 7    1  0.1899036E-009  0.4778727E+02  0.7816164E-02  0.1312668E+00
        -11   -1    0    0    0    0  0.00000000000E+00  0.00000000000E+00  0.45593999997E+02  0.45594000000E+02  0.51100000000E-03 0.  1.
         11   -1    0    0    0    0 -0.00000000000E+00 -0.00000000000E+00 -0.45593999997E+02  0.45594000000E+02  0.51100000000E-03 0. -1.
    9900012    2    1    2    0    0  0.25892550054E+02 -0.81884653598E+01 -0.33854814000E+02  0.47787267930E+02  0.19999985801E+02 0.  0.
        -12    1    1    2    0    0 -0.25892550054E+02  0.81884653598E+01  0.33854814000E+02  0.43400732070E+02  0.00000000000E+00 0.  1.
         11    1    3    3    0    0  0.17061493029E+02 -0.66272543751E+01 -0.15394832375E+02  0.23916854079E+02  0.51100000000E-03 0. -1.
        -11    1    3    3    0    0  0.89564683177E+01  0.38061666815E+01 -0.11129688714E+02  0.14784288981E+02  0.51100000000E-03 0.  1.
        -12    1    3    3    0    0 -0.12541129245E+00 -0.53673776662E+01 -0.73302929110E+01  0.90861248706E+01  0.00000000000E+00 0.  1.
</event>
<event>
 7    1  0.1899036E-009  0.4778727E+02  0.7816164E-02  0.1312668E+00
        -11   -1    0    0    0    0  0.00000000000E+00  0.00000000000E+00  0.45593999997E+02  0.45594000000E+02  0.51100000000E-03 0.  1.
         11   -1    0    0    0    0 -0.00000000000E+00 -0.00000000000E+00 -0.45593999997E+02  0.45594000000E+02  0.51100000000E-03 0. -1.
    9900012    2    1    2    0    0 -0.31956887181E+02 -0.27826694608E+02 -0.93837878042E+01  0.47787273685E+02  0.20000012040E+02 0.  0.
        -12    1    1    2    0    0  0.31956887181E+02  0.27826694608E+02  0.93837878042E+01  0.43400726315E+02  0.00000000000E+00 0.  1.
         11    1    3    3    0    0 -0.15266844382E+02 -0.75571728947E+01 -0.76680961408E+01  0.18681196381E+02  0.51100000000E-03 0. -1.
        -11    1    3    3    0    0  0.19502995474E+01 -0.10794971135E+01  0.41882816806E+00  0.22681269008E+01  0.51100000000E-03 0.  1.
         12    1    3    3    0    0 -0.18640342347E+02 -0.19190024600E+02 -0.21345198315E+01  0.26837950403E+02  0.00000000000E+00 0. -1.
</event>
<event>
 7    1  0.1899036E-009  0.4778727E+02  0.7816164E-02  0.1312668E+00
        -11   -1    0    0    0    0  0.00000000000E+00  0.00000000000E+00  0.45593999997E+02  0.45594000000E+02  0.51100000000E-03 0. -1.
         11   -1    0    0    0    0 -0.00000000000E+00 -0.00000000000E+00 -0.45593999997E+02  0.45594000000E+02  0.51100000000E-03 0.  1.
    9900012    2    1    2    0    0  0.20556190937E+02  0.54968792843E+01  0.37826584312E+02  0.47787272490E+02  0.20000006591E+02 0.  0.
        -12    1    1    2    0    0 -0.20556190937E+02 -0.54968792843E+01 -0.37826584312E+02  0.43400727510E+02  0.00000000000E+00 0.  1.
         11    1    3    3    0    0  0.12443350817E+02  0.20833949460E+01  0.35350957970E+02  0.37534887021E+02  0.51100000000E-03 0. -1.
        -11    1    3    3    0    0  0.17485462220E+01 -0.10655718461E+01 -0.11291006547E+00  0.20507574683E+01  0.51100000000E-03 0.  1.
        -12    1    3    3    0    0  0.63642938986E+01  0.44790561844E+01  0.25885364073E+01  0.82016280008E+01  0.00000000000E+00 0.  1.
</event>
<event>
 7    1  0.1899036E-009  0.4778727E+02  0.7816164E-02  0.1312668E+00
        -11   -1    0    0    0    0  0.00000000000E+00  0.00000000000E+00  0.45593999997E+02  0.45594000000E+02  0.51100000000E-03 0.  1.
         11   -1    0    0    0    0 -0.00000000000E+00 -0.00000000000E+00 -0.45593999997E+02  0.45594000000E+02  0.51100000000E-03 0. -1.
    9900012    2    1    2    0    0 -0.47047051124E+01  0.65901564309E+01 -0.42638700077E+02  0.47787272400E+02  0.20000006179E+02 0.  0.
        -12    1    1    2    0    0  0.47047051124E+01 -0.65901564309E+01  0.42638700077E+02  0.43400727600E+02  0.00000000000E+00 0.  1.
         11    1    3    3    0    0 -0.35177936755E+01 -0.43506597620E+00 -0.25420836167E+02  0.25666769692E+02  0.51100000000E-03 0. -1.
        -11    1    3    3    0    0 -0.48174810814E+01  0.57606928159E+01 -0.16609403429E+02  0.18228164697E+02  0.51100000000E-03 0.  1.
        -12    1    3    3    0    0  0.36305696444E+01  0.12645295912E+01 -0.60846048112E+00  0.38923380104E+01  0.00000000000E+00 0.  1.
</event>
<event>
 7    1  0.1899036E-009  0.4778726E+02  0.7816164E-02  0.1312668E+00
        -11   -1    0    0    0    0  0.00000000000E+00  0.00000000000E+00  0.45593999997E+02  0.45594000000E+02  0.51100000000E-03 0. -1.
         11   -1    0    0    0    0 -0.00000000000E+00 -0.00000000000E+00 -0.45593999997E+02  0.45594000000E+02  0.51100000000E-03 0.  1.
    9900012    2    1    2    0    0  0.10703387246E+02  0.41707194224E+02 -0.54379916641E+01  0.47787259201E+02  0.19999946000E+02 0.  0.
        -12    1    1    2    0    0 -0.10703387246E+02 -0.41707194224E+02  0.54379916641E+01  0.43400740799E+02  0.00000000000E+00 0.  1.
         11    1    3    3    0    0  0.77921329116E+01  0.12099338057E+02 -0.99064551061E+01  0.17471381450E+02  0.51100000000E-03 0. -1.
        -11    1    3    3    0    0 -0.82118382231E+00  0.63136634622E+01  0.14742951951E+01  0.65353068610E+01  0.51100000000E-03 0.  1.
         12    1    3    3    0    0  0.37324381567E+01  0.23294192705E+02  0.29941682469E+01  0.23780570890E+02  0.00000000000E+00 0. -1.
</event>
<event>
 7    1  0.1899036E-009  0.4778728E+02  0.7816164E-02  0.1312668E+00
        -11   -1    0    0    0    0  0.00000000000E+00  0.00000000000E+00  0.45593999997E+02  0.45594000000E+02  0.51100000000E-03 0.  1.
         11   -1    0    0    0    0 -0.00000000000E+00 -0.00000000000E+00 -0.45593999997E+02  0.45594000000E+02  0.51100000000E-03 0. -1.
    9900012    2    1    2    0    0 -0.89812698860E+01 -0.41674847788E+02  0.81342866010E+01  0.47787276902E+02  0.20000026707E+02 0.  0.
        -12    1    1    2    0    0  0.89812698860E+01  0.41674847788E+02 -0.81342866010E+01  0.43400723098E+02  0.00000000000E+00 0.  1.
         11    1    3    3    0    0 -0.58415619240E+01 -0.16845186089E+01 -0.17373844376E+01  0.63229703147E+01  0.51100000000E-03 0. -1.
        -11    1    3    3    0    0 -0.10514722677E+00 -0.15835125577E+02  0.25299123117E+01  0.16036293666E+02  0.51100000000E-03 0.  1.
        -12    1    3    3    0    0 -0.30345607352E+01 -0.24155203602E+02  0.73417587269E+01  0.25428012921E+02  0.00000000000E+00 0.  1.
</event>
<event>
 7    1  0.1899036E-009  0.4778727E+02  0.7816164E-02  0.1312668E+00
        -11   -1    0    0    0    0  0.00000000000E+00  0.00000000000E+00  0.45593999997E+02  0.45594000000E+02  0.51100000000E-03 0. -1.
         11   -1    0    0    0    0 -0.00000000000E+00 -0.00000000000E+00 -0.45593999997E+02  0.45594000000E+02  0.51100000000E-03 0.  1.
    9900012    2    1    2    0    0 -0.42561228943E+02 -0.26212485298E+01  0.80804904432E+01  0.47787268684E+02  0.19999989238E+02 0.  0.
        -12    1    1    2    0    0  0.42561228943E+02  0.26212485298E+01 -0.80804904432E+01  0.43400731316E+02  0.00000000000E+00 0.  1.
         11    1    3    3    0    0 -0.18491983369E+02 -0.33966155728E+01  0.99856939018E+01  0.21288600922E+02  0.51100000000E-03 0. -1.
        -11    1    3    3    0    0 -0.79106282158E+01 -0.46443665555E+01 -0.22758340303E+01  0.94513279630E+01  0.51100000000E-03 0.  1.
        -12    1    3    3    0    0 -0.16158617358E+02  0.54197335985E+01  0.37063057172E+00  0.17047339799E+02  0.00000000000E+00 0.  1.
</event>
<event>
 7    1  0.1899036E-009  0.4778727E+02  0.7816164E-02  0.1312668E+00
        -11   -1    0    0    0    0  0.00000000000E+00  0.00000000000E+00  0.45593999997E+02  0.45594000000E+02  0.51100000000E-03 0. -1.
         11   -1    0    0    0    0 -0.00000000000E+00 -0.00000000000E+00 -0.45593999997E+02  0.45594000000E+02  0.51100000000E-03 0.  1.
    9900012    2    1    2    0    0  0.11702286504E+02 -0.23250190315E+02  0.34729074099E+02  0.47787269051E+02  0.19999990910E+02 0.  0.
        -12    1    1    2    0    0 -0.11702286504E+02  0.23250190315E+02 -0.34729074099E+02  0.43400730949E+02  0.00000000000E+00 0.  1.
         11    1    3    3    0    0  0.10642198930E+02 -0.98962743860E+01  0.29711629133E+02  0.33075270986E+02  0.51100000000E-03 0. -1.
        -11    1    3    3    0    0 -0.32316184376E+00 -0.57324997300E+01  0.37637789161E+01  0.68652763034E+01  0.51100000000E-03 0.  1.
         12    1    3    3    0    0  0.13832494175E+01 -0.76214161992E+01  0.12536660501E+01  0.78467217612E+01  0.00000000000E+00 0. -1.
</event>
<event>
 7    1  0.1899036E-009  0.4778727E+02  0.7816164E-02  0.1312668E+00
        -11   -1    0    0    0    0  0.00000000000E+00  0.00000000000E+00  0.45593999997E+02  0.45594000000E+02  0.51100000000E-03 0. -1.
         11   -1    0    0    0    0 -0.00000000000E+00 -0.00000000000E+00 -0.45593999997E+02  0.45594000000E+02  0.51100000000E-03 0.  1.
    9900012    2    1    2    0    0  0.12776926114E+00  0.41528075523E+02  0.12610544911E+02  0.47787271612E+02  0.20000002588E+02 0.  0.
        -12    1    1    2    0    0 -0.12776926114E+00 -0.41528075523E+02 -0.12610544911E+02  0.43400728388E+02  0.00000000000E+00 0.  1.
         11    1    3    3    0    0 -0.27121805084E+01  0.22593031098E+02  0.90653922000E+01  0.24494536397E+02  0.51100000000E-03 0. -1.
        -11    1    3    3    0    0  0.43386166905E+01  0.16138658048E+02 -0.20739034910E+01  0.16839862064E+02  0.51100000000E-03 0.  1.
         12    1    3    3    0    0 -0.14986669210E+01  0.27963863780E+01  0.56190562018E+01  0.64528731519E+01  0.00000000000E+00 0. -1.
</event>
<event>
 7    1  0.1899036E-009  0.4778728E+02  0.7816164E-02  0.1312668E+00
        -11   -1    0    0    0    0  0.00000000000E+00  0.00000000000E+00  0.45593999997E+02  0.45594000000E+02  0.51100000000E-03 0. -1.
         11   -1    0    0    0    0 -0.00000000000E+00 -0.00000000000E+00 -0.45593999997E+02  0.45594000000E+02  0.51100000000E-03 0.  1.
    9900012    2    1    2    0    0 -0.75923070712E+01  0.21416427629E+02  0.36977238312E+02  0.47787278206E+02  0.20000032652E+02 0.  0.
        -12    1    1    2    0    0  0.75923070712E+01 -0.21416427629E+02 -0.36977238312E+02  0.43400721794E+02  0.00000000000E+00 0.  1.
         11    1    3    3    0    0 -0.22593647125E+01  0.91992451583E+01  0.23724904092E+01  0.97652215228E+01  0.51100000000E-03 0. -1.
        -11    1    3    3    0    0 -0.12026909078E+01  0.11470029433E+02  0.24422509725E+02  0.27008647174E+02  0.51100000000E-03 0.  1.
        -12    1    3    3    0    0 -0.41302514509E+01  0.74715303741E+00  0.10182238178E+02  0.11013409510E+02  0.00000000000E+00 0.  1.
</event>
<event>
 7    1  0.1899036E-009  0.4778727E+02  0.7816164E-02  0.1312668E+00
        -11   -1    0    0    0    0  0.00000000000E+00  0.00000000000E+00  0.45593999997E+02  0.45594000000E+02  0.51100000000E-03 0.  1.
         11   -1    0    0    0    0 -0.00000000000E+00 -0.00000000000E+00 -0.45593999997E+02  0.45594000000E+02  0.51100000000E-03 0. -1.
    9900012    2    1    2    0    0 -0.32424637383E+02  0.70273278669E+00 -0.28840468574E+02  0.47787267629E+02  0.19999984427E+02 0.  0.
        -12    1    1    2    0    0  0.32424637383E+02 -0.70273278669E+00  0.28840468574E+02  0.43400732371E+02  0.00000000000E+00 0.  1.
         11    1    3    3    0    0 -0.18739304981E+02  0.70254483761E+01 -0.92943826136E+01  0.22065901851E+02  0.51100000000E-03 0. -1.
        -11    1    3    3    0    0  0.95462591748E-01 -0.18336020152E+01 -0.74301590848E+00  0.19807277344E+01  0.51100000000E-03 0.  1.
        -12    1    3    3    0    0 -0.13780794994E+02 -0.44891135742E+01 -0.18803070052E+02  0.23740638043E+02  0.00000000000E+00 0.  1.
</event>
<event>
 7    1  0.1899036E-009  0.4778727E+02  0.7816164E-02  0.1312668E+00
        -11   -1    0    0    0    0  0.00000000000E+00  0.00000000000E+00  0.45593999997E+02  0.45594000000E+02  0.51100000000E-03 0.  1.
         11   -1    0    0    0    0 -0.00000000000E+00 -0.00000000000E+00 -0.45593999997E+02  0.45594000000E+02  0.51100000000E-03 0. -1.
    9900012    2    1    2    0    0  0.72925680772E+01 -0.21503332110E+01 -0.42729590057E+02  0.47787270185E+02  0.19999996079E+02 0.  0.
        -12    1    1    2    0    0 -0.72925680772E+01  0.21503332110E+01  0.42729590057E+02  0.43400729815E+02  0.00000000000E+00 0.  1.
         11    1    3    3    0    0  0.57542327530E+00  0.29790915806E+01 -0.18945145361E+02  0.19186574254E+02  0.51100000000E-03 0. -1.
        -11    1    3    3    0    0 -0.33164095615E+01 -0.21907553189E+01 -0.20271372301E+01  0.44617560285E+01  0.51100000000E-03 0.  1.
        -12    1    3    3    0    0  0.10033554363E+02 -0.29386694728E+01 -0.21757307466E+02  0.24138939902E+02  0.00000000000E+00 0.  1.
</event>
<event>
 7    1  0.1899036E-009  0.4778728E+02  0.7816164E-02  0.1312668E+00
        -11   -1    0    0    0    0  0.00000000000E+00  0.00000000000E+00  0.45593999997E+02  0.45594000000E+02  0.51100000000E-03 0.  1.
         11   -1    0    0    0    0 -0.00000000000E+00 -0.00000000000E+00 -0.45593999997E+02  0.45594000000E+02  0.51100000000E-03 0. -1.
    9900012    2    1    2    0    0  0.27664201452E+02 -0.30306298041E+02 -0.14136588227E+02  0.47787275702E+02  0.20000021235E+02 0.  0.
        -12    1    1    2    0    0 -0.27664201452E+02  0.30306298041E+02  0.14136588227E+02  0.43400724298E+02  0.00000000000E+00 0.  1.
         11    1    3    3    0    0  0.15084683730E+02 -0.13839923413E+02 -0.99240866177E+01  0.22750355135E+02  0.51100000000E-03 0. -1.
        -11    1    3    3    0    0  0.12073029443E+02 -0.10876551324E+02  0.23308131635E+01  0.16416153596E+02  0.51100000000E-03 0.  1.
        -12    1    3    3    0    0  0.50648827931E+00 -0.55898233041E+01 -0.65433147732E+01  0.86207669711E+01  0.00000000000E+00 0.  1.
</event>
<event>
 7    1  0.1899036E-009  0.4778727E+02  0.7816164E-02  0.1312668E+00
        -11   -1    0    0    0    0  0.00000000000E+00  0.00000000000E+00  0.45593999997E+02  0.45594000000E+02  0.51100000000E-03 0.  1.
         11   -1    0    0    0    0 -0.00000000000E+00 -0.00000000000E+00 -0.45593999997E+02  0.45594000000E+02  0.51100000000E-03 0. -1.
    9900012    2    1    2    0    0  0.11968387571E+02 -0.14370828622E+02 -0.39164526812E+02  0.47787272164E+02  0.20000005103E+02 0.  0.
        -12    1    1    2    0    0 -0.11968387571E+02  0.14370828622E+02  0.39164526812E+02  0.43400727836E+02  0.00000000000E+00 0.  1.
         11    1    3    3    0    0 -0.13251353188E+01 -0.57106091557E+01 -0.19761131360E+01  0.61864419442E+01  0.51100000000E-03 0.  1.
        -11    1    3    3    0    0  0.20003144231E+01 -0.31575711854E+01 -0.19796909017E+02  0.20146690063E+02  0.51100000000E-03 0. -1.
         12    1    3    3    0    0  0.11293208466E+02 -0.55026482806E+01 -0.17391504659E+02  0.21454140157E+02  0.00000000000E+00 0. -1.
</event>
<event>
 7    1  0.1899036E-009  0.4778727E+02  0.7816164E-02  0.1312668E+00
        -11   -1    0    0    0    0  0.00000000000E+00  0.00000000000E+00  0.45593999997E+02  0.45594000000E+02  0.51100000000E-03 0.  1.
         11   -1    0    0    0    0 -0.00000000000E+00 -0.00000000000E+00 -0.45593999997E+02  0.45594000000E+02  0.51100000000E-03 0. -1.
    9900012    2    1    2    0    0 -0.21316437999E+02 -0.37282730748E+02  0.62634457164E+01  0.47787270822E+02  0.19999998985E+02 0.  0.
        -12    1    1    2    0    0  0.21316437999E+02  0.37282730748E+02 -0.62634457164E+01  0.43400729178E+02  0.00000000000E+00 0.  1.
         11    1    3    3    0    0 -0.12991603137E+02 -0.22842590147E+02  0.14478989665E+01  0.26318474279E+02  0.51100000000E-03 0. -1.
        -11    1    3    3    0    0 -0.68765364555E+00 -0.11398107677E+01  0.59430891905E+01  0.60903485540E+01  0.51100000000E-03 0.  1.
        -12    1    3    3    0    0 -0.76371812164E+01 -0.13300329833E+02 -0.11275424405E+01  0.15378447989E+02  0.00000000000E+00 0.  1.
</event>
<event>
 7    1  0.1899036E-009  0.4778727E+02  0.7816164E-02  0.1312668E+00
        -11   -1    0    0    0    0  0.00000000000E+00  0.00000000000E+00  0.45593999997E+02  0.45594000000E+02  0.51100000000E-03 0. -1.
         11   -1    0    0    0    0 -0.00000000000E+00 -0.00000000000E+00 -0.45593999997E+02  0.45594000000E+02  0.51100000000E-03 0.  1.
    9900012    2    1    2    0    0 -0.32683361381E+01  0.88166173785E+00  0.43268514858E+02  0.47787265830E+02  0.19999976223E+02 0.  0.
        -12    1    1    2    0    0  0.32683361381E+01 -0.88166173785E+00 -0.43268514858E+02  0.43400734170E+02  0.00000000000E+00 0.  1.
         11    1    3    3    0    0 -0.25191133749E+01 -0.86816988806E+01  0.24377419276E+02  0.25999546121E+02  0.51100000000E-03 0. -1.
        -11    1    3    3    0    0  0.21156604794E+01  0.28033523975E+01  0.62440956641E+01  0.71640445876E+01  0.51100000000E-03 0.  1.
        -12    1    3    3    0    0 -0.28648832426E+01  0.67600082210E+01  0.12646999917E+02  0.14623675121E+02  0.00000000000E+00 0.  1.
</event>
<event>
 7    1  0.1899036E-009  0.4778728E+02  0.7816164E-02  0.1312668E+00
        -11   -1    0    0    0    0  0.00000000000E+00  0.00000000000E+00  0.45593999997E+02  0.45594000000E+02  0.51100000000E-03 0.  1.
         11   -1    0    0    0    0 -0.00000000000E+00 -0.00000000000E+00 -0.45593999997E+02  0.45594000000E+02  0.51100000000E-03 0. -1.
    9900012    2    1    2    0    0  0.39298151136E+02  0.32126789974E+01 -0.18137169174E+02  0.47787275413E+02  0.20000019917E+02 0.  0.
        -12    1    1    2    0    0 -0.39298151136E+02 -0.32126789974E+01  0.18137169174E+02  0.43400724587E+02  0.00000000000E+00 0.  1.
         11    1    3    3    0    0  0.14957262525E+02  0.20729454067E+01 -0.80783619967E+01  0.17125324455E+02  0.51100000000E-03 0. -1.
        -11    1    3    3    0    0  0.87281836075E+01 -0.71443593257E+01 -0.43389600029E+01  0.12085099645E+02  0.51100000000E-03 0.  1.
         12    1    3    3    0    0  0.15612705004E+02  0.82840929164E+01 -0.57198471743E+01  0.18576851313E+02  0.00000000000E+00 0. -1.
</event>
<event>
 7    1  0.1899036E-009  0.4778727E+02  0.7816164E-02  0.1312668E+00
        -11   -1    0    0    0    0  0.00000000000E+00  0.00000000000E+00  0.45593999997E+02  0.45594000000E+02  0.51100000000E-03 0.  1.
         11   -1    0    0    0    0 -0.00000000000E+00 -0.00000000000E+00 -0.45593999997E+02  0.45594000000E+02  0.51100000000E-03 0. -1.
    9900012    2    1    2    0    0  0.18216729839E+00  0.39909925345E+02 -0.17052497688E+02  0.47787274161E+02  0.20000014210E+02 0.  0.
        -12    1    1    2    0    0 -0.18216729839E+00 -0.39909925345E+02  0.17052497688E+02  0.43400725839E+02  0.00000000000E+00 0.  1.
         11    1    3    3    0    0  0.59243837067E+01  0.28068173911E+02 -0.13392639739E+02  0.31658861452E+02  0.51100000000E-03 0. -1.
        -11    1    3    3    0    0 -0.16132420676E+01  0.99104915417E+01  0.36488222680E+00  0.10047563479E+02  0.51100000000E-03 0.  1.
        -12    1    3    3    0    0 -0.41289743407E+01  0.19312598925E+01 -0.40247401758E+01  0.60808492303E+01  0.00000000000E+00 0.  1.
</event>
<event>
 7    1  0.1899036E-009  0.4778727E+02  0.7816164E-02  0.1312668E+00
        -11   -1    0    0    0    0  0.00000000000E+00  0.00000000000E+00  0.45593999997E+02  0.45594000000E+02  0.51100000000E-03 0.  1.
         11   -1    0    0    0    0 -0.00000000000E+00 -0.00000000000E+00 -0.45593999997E+02  0.45594000000E+02  0.51100000000E-03 0. -1.
    9900012    2    1    2    0    0 -0.13637445170E+02  0.34467921716E+02 -0.22574449111E+02  0.47787270849E+02  0.19999999108E+02 0.  0.
        -12    1    1    2    0    0  0.13637445170E+02 -0.34467921716E+02  0.22574449111E+02  0.43400729151E+02  0.00000000000E+00 0.  1.
         11    1    3    3    0    0 -0.83408927452E+01  0.36871835160E+01 -0.25714680625E+01  0.94751391718E+01  0.51100000000E-03 0. -1.
        -11    1    3    3    0    0  0.18607662022E+01  0.54107656743E+01 -0.66172296699E+01  0.87479463194E+01  0.51100000000E-03 0.  1.
        -12    1    3    3    0    0 -0.71573186272E+01  0.25369972526E+02 -0.13385751379E+02  0.29564185358E+02  0.00000000000E+00 0.  1.
</event>
<event>
 7    1  0.1899036E-009  0.4778728E+02  0.7816164E-02  0.1312668E+00
        -11   -1    0    0    0    0  0.00000000000E+00  0.00000000000E+00  0.45593999997E+02  0.45594000000E+02  0.51100000000E-03 0. -1.
         11   -1    0    0    0    0 -0.00000000000E+00 -0.00000000000E+00 -0.45593999997E+02  0.45594000000E+02  0.51100000000E-03 0.  1.
    9900012    2    1    2    0    0  0.82903303296E+01  0.17037952911E+02  0.39046145836E+02  0.47787275109E+02  0.20000018533E+02 0.  0.
        -12    1    1    2    0    0 -0.82903303296E+01 -0.17037952911E+02 -0.39046145836E+02  0.43400724891E+02  0.00000000000E+00 0.  1.
         11    1    3    3    0    0  0.11220158069E+02  0.17208507133E+02  0.35021935083E+02  0.40602470393E+02  0.51100000000E-03 0. -1.
        -11    1    3    3    0    0 -0.22959265382E+00  0.13645551024E+01 -0.68459336211E+00  0.15438237421E+01  0.51100000000E-03 0.  1.
         12    1    3    3    0    0 -0.27002350853E+01 -0.15351093236E+01  0.47088041152E+01  0.56409809738E+01  0.00000000000E+00 0. -1.
</event>
<event>
 7    1  0.1899036E-009  0.4778727E+02  0.7816164E-02  0.1312668E+00
        -11   -1    0    0    0    0  0.00000000000E+00  0.00000000000E+00  0.45593999997E+02  0.45594000000E+02  0.51100000000E-03 0.  1.
         11   -1    0    0    0    0 -0.00000000000E+00 -0.00000000000E+00 -0.45593999997E+02  0.45594000000E+02  0.51100000000E-03 0. -1.
    9900012    2    1    2    0    0  0.37268332990E+02 -0.18203763186E+02 -0.12779572354E+02  0.47787272961E+02  0.20000008737E+02 0.  0.
        -12    1    1    2    0    0 -0.37268332990E+02  0.18203763186E+02  0.12779572354E+02  0.43400727039E+02  0.00000000000E+00 0.  1.
         11    1    3    3    0    0  0.15726601508E+02 -0.42487991424E+01 -0.62686028467E+01  0.17454903925E+02  0.51100000000E-03 0. -1.
        -11    1    3    3    0    0  0.91179815705E+01 -0.83941028159E+01 -0.10396991280E+02  0.16177020057E+02  0.51100000000E-03 0.  1.
         12    1    3    3    0    0  0.12423749912E+02 -0.55608612277E+01  0.38860217723E+01  0.14155348978E+02  0.00000000000E+00 0. -1.
</event>
<event>
 7    1  0.1899036E-009  0.4778724E+02  0.7816164E-02  0.1312668E+00
        -11   -1    0    0    0    0  0.00000000000E+00  0.00000000000E+00  0.45593999997E+02  0.45594000000E+02  0.51100000000E-03 0. -1.
         11   -1    0    0    0    0 -0.00000000000E+00 -0.00000000000E+00 -0.45593999997E+02  0.45594000000E+02  0.51100000000E-03 0.  1.
    9900012    2    1    2    0    0  0.18181062552E+02  0.19748217633E+02  0.34103996865E+02  0.47787242663E+02  0.19999870599E+02 0.  0.
        -12    1    1    2    0    0 -0.18181062552E+02 -0.19748217633E+02 -0.34103996865E+02  0.43400757337E+02  0.00000000000E+00 0.  1.
         11    1    3    3    0    0  0.69250304409E+00  0.40752103900E+00  0.93506540694E+01  0.93851140457E+01  0.51100000000E-03 0. -1.
        -11    1    3    3    0    0  0.11090860742E+02  0.18131089696E+02  0.23651725948E+02  0.31798549435E+02  0.51100000000E-03 0.  1.
        -12    1    3    3    0    0  0.63976987660E+01  0.12096068981E+01  0.11016168476E+01  0.66035791831E+01  0.00000000000E+00 0.  1.
</event>
<event>
 7    1  0.1899036E-009  0.4778728E+02  0.7816164E-02  0.1312668E+00
        -11   -1    0    0    0    0  0.00000000000E+00  0.00000000000E+00  0.45593999997E+02  0.45594000000E+02  0.51100000000E-03 0. -1.
         11   -1    0    0    0    0 -0.00000000000E+00 -0.00000000000E+00 -0.45593999997E+02  0.45594000000E+02  0.51100000000E-03 0.  1.
    9900012    2    1    2    0    0  0.41475251945E+02  0.16057935717E+01 -0.12682579074E+02  0.47787275250E+02  0.20000019173E+02 0.  0.
        -12    1    1    2    0    0 -0.41475251945E+02 -0.16057935717E+01  0.12682579074E+02  0.43400724750E+02  0.00000000000E+00 0.  1.
         11    1    3    3    0    0  0.12625684484E+02 -0.75485466164E+01 -0.79004646096E+01  0.16697479032E+02  0.51100000000E-03 0. -1.
        -11    1    3    3    0    0  0.12737641657E+02  0.36707651842E+01 -0.47167110438E+01  0.14070159749E+02  0.51100000000E-03 0.  1.
         12    1    3    3    0    0  0.16111925804E+02  0.54835750039E+01 -0.65403420877E-01  0.17019636469E+02  0.00000000000E+00 0. -1.
</event>
<event>
 7    1  0.1899036E-009  0.4778727E+02  0.7816164E-02  0.1312668E+00
        -11   -1    0    0    0    0  0.00000000000E+00  0.00000000000E+00  0.45593999997E+02  0.45594000000E+02  0.51100000000E-03 0. -1.
         11   -1    0    0    0    0 -0.00000000000E+00 -0.00000000000E+00 -0.45593999997E+02  0.45594000000E+02  0.51100000000E-03 0.  1.
    9900012    2    1    2    0    0  0.41087669141E+02  0.12143025106E+02 -0.69262827111E+01  0.47787274127E+02  0.20000014054E+02 0.  0.
        -12    1    1    2    0    0 -0.41087669141E+02 -0.12143025106E+02  0.69262827111E+01  0.43400725873E+02  0.00000000000E+00 0.  1.
         11    1    3    3    0    0  0.85485240734E+01  0.36998310351E+01  0.41986814831E+01  0.10217384204E+02  0.51100000000E-03 0.  1.
        -11    1    3    3    0    0  0.27418907840E+02  0.10308334619E+02 -0.56256870504E+01  0.29827950396E+02  0.51100000000E-03 0. -1.
        -12    1    3    3    0    0  0.51202372269E+01 -0.18651405490E+01 -0.54992771438E+01  0.77419395265E+01  0.00000000000E+00 0.  1.
</event>
<event>
 7    1  0.1899036E-009  0.4778727E+02  0.7816164E-02  0.1312668E+00
        -11   -1    0    0    0    0  0.00000000000E+00  0.00000000000E+00  0.45593999997E+02  0.45594000000E+02  0.51100000000E-03 0.  1.
         11   -1    0    0    0    0 -0.00000000000E+00 -0.00000000000E+00 -0.45593999997E+02  0.45594000000E+02  0.51100000000E-03 0. -1.
    9900012    2    1    2    0    0 -0.13131113025E+02 -0.27956539668E+02 -0.30489814946E+02  0.47787273567E+02  0.20000011502E+02 0.  0.
        -12    1    1    2    0    0  0.13131113025E+02  0.27956539668E+02  0.30489814946E+02  0.43400726433E+02  0.00000000000E+00 0.  1.
         11    1    3    3    0    0 -0.47867518072E+01 -0.53699071912E+01 -0.15175277347E+02  0.16793985201E+02  0.51100000000E-03 0. -1.
        -11    1    3    3    0    0  0.21049920481E+01 -0.13182504640E+01  0.46049598922E+00  0.25260310025E+01  0.51100000000E-03 0.  1.
        -12    1    3    3    0    0 -0.10449353266E+02 -0.21268382012E+02 -0.15775033588E+02  0.28467257364E+02  0.00000000000E+00 0.  1.
</event>
<event>
 7    1  0.1899036E-009  0.4778726E+02  0.7816164E-02  0.1312668E+00
        -11   -1    0    0    0    0  0.00000000000E+00  0.00000000000E+00  0.45593999997E+02  0.45594000000E+02  0.51100000000E-03 0.  1.
         11   -1    0    0    0    0 -0.00000000000E+00 -0.00000000000E+00 -0.45593999997E+02  0.45594000000E+02  0.51100000000E-03 0. -1.
    9900012    2    1    2    0    0 -0.38575929126E+02 -0.13594610308E+02  0.14515794927E+02  0.47787262222E+02  0.19999959773E+02 0.  0.
        -12    1    1    2    0    0  0.38575929126E+02  0.13594610308E+02 -0.14515794927E+02  0.43400737778E+02  0.00000000000E+00 0.  1.
         11    1    3    3    0    0 -0.93907273722E+01  0.29345237680E+01 -0.24019796285E+01  0.10127521746E+02  0.51100000000E-03 0. -1.
        -11    1    3    3    0    0 -0.60036838611E+01 -0.44680077111E+01  0.44433179048E+01  0.87034698296E+01  0.51100000000E-03 0.  1.
         12    1    3    3    0    0 -0.23181517893E+02 -0.12061126365E+02  0.12474456650E+02  0.28956270646E+02  0.00000000000E+00 0. -1.
</event>
<event>
 7    1  0.1899036E-009  0.4778727E+02  0.7816164E-02  0.1312668E+00
        -11   -1    0    0    0    0  0.00000000000E+00  0.00000000000E+00  0.45593999997E+02  0.45594000000E+02  0.51100000000E-03 0.  1.
         11   -1    0    0    0    0 -0.00000000000E+00 -0.00000000000E+00 -0.45593999997E+02  0.45594000000E+02  0.51100000000E-03 0. -1.
    9900012    2    1    2    0    0 -0.25660654619E+02 -0.32966897583E+02 -0.11761724455E+02  0.47787266206E+02  0.19999977940E+02 0.  0.
        -12    1    1    2    0    0  0.25660654619E+02  0.32966897583E+02  0.11761724455E+02  0.43400733794E+02  0.00000000000E+00 0.  1.
         11    1    3    3    0    0 -0.12396409757E+02 -0.21852736892E+02 -0.35185880722E+01  0.25369145567E+02  0.51100000000E-03 0. -1.
        -11    1    3    3    0    0  0.87288675108E+00 -0.23804790722E+00  0.17519972696E+01  0.19718247336E+01  0.51100000000E-03 0.  1.
         12    1    3    3    0    0 -0.14137131613E+02 -0.10876112784E+02 -0.99951336523E+01  0.20446295905E+02  0.00000000000E+00 0. -1.
</event>
<event>
 7    1  0.1899036E-009  0.4778727E+02  0.7816164E-02  0.1312668E+00
        -11   -1    0    0    0    0  0.00000000000E+00  0.00000000000E+00  0.45593999997E+02  0.45594000000E+02  0.51100000000E-03 0. -1.
         11   -1    0    0    0    0 -0.00000000000E+00 -0.00000000000E+00 -0.45593999997E+02  0.45594000000E+02  0.51100000000E-03 0.  1.
    9900012    2    1    2    0    0 -0.23105181409E+02  0.32468000057E+02  0.17193099775E+02  0.47787272869E+02  0.20000008319E+02 0.  0.
        -12    1    1    2    0    0  0.23105181409E+02 -0.32468000057E+02 -0.17193099775E+02  0.43400727131E+02  0.00000000000E+00 0.  1.
         11    1    3    3    0    0 -0.57890674418E+01  0.32737873332E+01  0.37228002023E+01  0.76216944938E+01  0.51100000000E-03 0. -1.
        -11    1    3    3    0    0 -0.17678619636E+02  0.17585267734E+02  0.13890603969E+02  0.28543372478E+02  0.51100000000E-03 0.  1.
        -12    1    3    3    0    0  0.36250566922E+00  0.11608944990E+02 -0.42030439641E+00  0.11622205898E+02  0.00000000000E+00 0.  1.
</event>
<event>
 7    1  0.1899036E-009  0.4778727E+02  0.7816164E-02  0.1312668E+00
        -11   -1    0    0    0    0  0.00000000000E+00  0.00000000000E+00  0.45593999997E+02  0.45594000000E+02  0.51100000000E-03 0.  1.
         11   -1    0    0    0    0 -0.00000000000E+00 -0.00000000000E+00 -0.45593999997E+02  0.45594000000E+02  0.51100000000E-03 0. -1.
    9900012    2    1    2    0    0  0.19129110407E+02  0.23816155414E+01 -0.38884803948E+02  0.47787274941E+02  0.20000017767E+02 0.  0.
        -12    1    1    2    0    0 -0.19129110407E+02 -0.23816155414E+01  0.38884803948E+02  0.43400725059E+02  0.00000000000E+00 0.  1.
         11    1    3    3    0    0  0.20229570760E+02  0.52525497927E+01 -0.27601200821E+02  0.34621540975E+02  0.51100000000E-03 0. -1.
        -11    1    3    3    0    0 -0.18151873223E+01  0.59336810230E+00 -0.74594018991E+00  0.20502238288E+01  0.51100000000E-03 0.  1.
         12    1    3    3    0    0  0.71472696911E+00 -0.34643023536E+01 -0.10537662937E+02  0.11115510137E+02  0.00000000000E+00 0. -1.
</event>
<event>
 7    1  0.1899036E-009  0.4778727E+02  0.7816164E-02  0.1312668E+00
        -11   -1    0    0    0    0  0.00000000000E+00  0.00000000000E+00  0.45593999997E+02  0.45594000000E+02  0.51100000000E-03 0.  1.
         11   -1    0    0    0    0 -0.00000000000E+00 -0.00000000000E+00 -0.45593999997E+02  0.45594000000E+02  0.51100000000E-03 0. -1.
    9900012    2    1    2    0    0  0.72566212472E+01  0.24869591130E+02 -0.34820517622E+02  0.47787267721E+02  0.19999984848E+02 0.  0.
        -12    1    1    2    0    0 -0.72566212472E+01 -0.24869591130E+02  0.34820517622E+02  0.43400732279E+02  0.00000000000E+00 0.  1.
         11    1    3    3    0    0  0.47681943159E+01  0.13975086012E+02 -0.25352312442E+02  0.29339026100E+02  0.51100000000E-03 0. -1.
        -11    1    3    3    0    0  0.38387592063E+01  0.12405044738E+02 -0.57240898224E+01  0.14191068027E+02  0.51100000000E-03 0.  1.
        -12    1    3    3    0    0 -0.13503322750E+01 -0.15105396206E+01 -0.37441153576E+01  0.42571735940E+01  0.00000000000E+00 0.  1.
</event>
<event>
 7    1  0.1899036E-009  0.4778727E+02  0.7816164E-02  0.1312668E+00
        -11   -1    0    0    0    0  0.00000000000E+00  0.00000000000E+00  0.45593999997E+02  0.45594000000E+02  0.51100000000E-03 0. -1.
         11   -1    0    0    0    0 -0.00000000000E+00 -0.00000000000E+00 -0.45593999997E+02  0.45594000000E+02  0.51100000000E-03 0.  1.
    9900012    2    1    2    0    0 -0.15127159907E+01  0.40139759790E+02  0.16435775875E+02  0.47787270118E+02  0.19999995776E+02 0.  0.
        -12    1    1    2    0    0  0.15127159907E+01 -0.40139759790E+02 -0.16435775875E+02  0.43400729882E+02  0.00000000000E+00 0.  1.
         11    1    3    3    0    0 -0.14422608627E+01  0.22801084591E+02  0.37461679199E+01  0.23151746138E+02  0.51100000000E-03 0.  1.
        -11    1    3    3    0    0  0.47700418283E+00  0.16855191121E+02  0.59870511998E+01  0.17893288771E+02  0.51100000000E-03 0. -1.
        -12    1    3    3    0    0 -0.54745931081E+00  0.48348407871E+00  0.67025567553E+01  0.67422352086E+01  0.00000000000E+00 0.  1.
</event>
<event>
 7    1  0.1899036E-009  0.4778724E+02  0.7816164E-02  0.1312668E+00
        -11   -1    0    0    0    0  0.00000000000E+00  0.00000000000E+00  0.45593999997E+02  0.45594000000E+02  0.51100000000E-03 0.  1.
         11   -1    0    0    0    0 -0.00000000000E+00 -0.00000000000E+00 -0.45593999997E+02  0.45594000000E+02  0.51100000000E-03 0. -1.
    9900012    2    1    2    0    0  0.74186708053E+01  0.12684814212E+02 -0.40837295078E+02  0.47787241280E+02  0.19999864293E+02 0.  0.
        -12    1    1    2    0    0 -0.74186708053E+01 -0.12684814212E+02  0.40837295078E+02  0.43400758720E+02  0.00000000000E+00 0.  1.
         11    1    3    3    0    0  0.68142462830E+01  0.48411327570E+01 -0.12442211761E+02  0.14989301269E+02  0.51100000000E-03 0. -1.
        -11    1    3    3    0    0 -0.42705062700E+01  0.98755536616E+01 -0.15549550583E+02  0.18909053586E+02  0.51100000000E-03 0.  1.
         12    1    3    3    0    0  0.48749307924E+01 -0.20318722064E+01 -0.12845532735E+02  0.13888886425E+02  0.00000000000E+00 0. -1.
</event>
<event>
 7    1  0.1899036E-009  0.4778727E+02  0.7816164E-02  0.1312668E+00
        -11   -1    0    0    0    0  0.00000000000E+00  0.00000000000E+00  0.45593999997E+02  0.45594000000E+02  0.51100000000E-03 0.  1.
         11   -1    0    0    0    0 -0.00000000000E+00 -0.00000000000E+00 -0.45593999997E+02  0.45594000000E+02  0.51100000000E-03 0. -1.
    9900012    2    1    2    0    0  0.13334443098E+02  0.21835707799E+02 -0.35057348835E+02  0.47787271721E+02  0.20000003085E+02 0.  0.
        -12    1    1    2    0    0 -0.13334443098E+02 -0.21835707799E+02  0.35057348835E+02  0.43400728279E+02  0.00000000000E+00 0.  1.
         11    1    3    3    0    0  0.11947437198E+01  0.10597908362E+01 -0.97702377562E+01  0.98999048100E+01  0.51100000000E-03 0. -1.
        -11    1    3    3    0    0  0.80328759642E+01  0.22275098088E+02 -0.19765255247E+02  0.30844325351E+02  0.51100000000E-03 0.  1.
        -12    1    3    3    0    0  0.41068234144E+01 -0.14991811251E+01 -0.55218558310E+01  0.70430415604E+01  0.00000000000E+00 0.  1.
</event>
<event>
 7    1  0.1899036E-009  0.4778727E+02  0.7816164E-02  0.1312668E+00
        -11   -1    0    0    0    0  0.00000000000E+00  0.00000000000E+00  0.45593999997E+02  0.45594000000E+02  0.51100000000E-03 0.  1.
         11   -1    0    0    0    0 -0.00000000000E+00 -0.00000000000E+00 -0.45593999997E+02  0.45594000000E+02  0.51100000000E-03 0. -1.
    9900012    2    1    2    0    0  0.26380764144E+02  0.71400094899E+01 -0.33714971440E+02  0.47787265541E+02  0.19999974909E+02 0.  0.
        -12    1    1    2    0    0 -0.26380764144E+02 -0.71400094899E+01  0.33714971440E+02  0.43400734459E+02  0.00000000000E+00 0.  1.
         11    1    3    3    0    0  0.15917459375E+02 -0.11210543771E+01 -0.23281383298E+02  0.28224901849E+02  0.51100000000E-03 0. -1.
        -11    1    3    3    0    0  0.10928036447E+01 -0.70826666888E+00  0.14651447827E+01  0.19602323779E+01  0.51100000000E-03 0.  1.
         12    1    3    3    0    0  0.93705011242E+01  0.89693305359E+01 -0.11898732925E+02  0.17602131314E+02  0.00000000000E+00 0. -1.
</event>
<event>
 7    1  0.1899036E-009  0.4778727E+02  0.7816164E-02  0.1312668E+00
        -11   -1    0    0    0    0  0.00000000000E+00  0.00000000000E+00  0.45593999997E+02  0.45594000000E+02  0.51100000000E-03 0. -1.
         11   -1    0    0    0    0 -0.00000000000E+00 -0.00000000000E+00 -0.45593999997E+02  0.45594000000E+02  0.51100000000E-03 0.  1.
    9900012    2    1    2    0    0 -0.34746472083E+02  0.91261555513E+01 -0.24351982148E+02  0.47787273371E+02  0.20000010608E+02 0.  0.
        -12    1    1    2    0    0  0.34746472083E+02 -0.91261555513E+01  0.24351982148E+02  0.43400726629E+02  0.00000000000E+00 0.  1.
         11    1    3    3    0    0 -0.18955427277E+02  0.85746921762E+01 -0.78905026434E+01  0.22250698896E+02  0.51100000000E-03 0. -1.
        -11    1    3    3    0    0  0.13628327787E+01 -0.13441131918E+01 -0.38905306692E+00  0.19532833909E+01  0.51100000000E-03 0.  1.
         12    1    3    3    0    0 -0.17153877585E+02  0.18955765668E+01 -0.16072426438E+02  0.23583291084E+02  0.00000000000E+00 0. -1.
</event>
<event>
 7    1  0.1899036E-009  0.4778728E+02  0.7816164E-02  0.1312668E+00
        -11   -1    0    0    0    0  0.00000000000E+00  0.00000000000E+00  0.45593999997E+02  0.45594000000E+02  0.51100000000E-03 0. -1.
         11   -1    0    0    0    0 -0.00000000000E+00 -0.00000000000E+00 -0.45593999997E+02  0.45594000000E+02  0.51100000000E-03 0.  1.
    9900012    2    1    2    0    0 -0.15989422839E+02  0.36985998279E+02 -0.16124409534E+02  0.47787282330E+02  0.20000051456E+02 0.  0.
        -12    1    1    2    0    0  0.15989422839E+02 -0.36985998279E+02  0.16124409534E+02  0.43400717670E+02  0.00000000000E+00 0.  1.
         11    1    3    3    0    0 -0.23289676545E+01  0.16806172279E+02 -0.28418704889E+01  0.17203131841E+02  0.51100000000E-03 0. -1.
        -11    1    3    3    0    0 -0.45723643214E+01  0.12150834634E+02 -0.13118122724E+02  0.18456284616E+02  0.51100000000E-03 0.  1.
        -12    1    3    3    0    0 -0.90880908632E+01  0.80289913666E+01 -0.16441632159E+00  0.12127865873E+02  0.00000000000E+00 0.  1.
</event>
<event>
 7    1  0.1899036E-009  0.4778727E+02  0.7816164E-02  0.1312668E+00
        -11   -1    0    0    0    0  0.00000000000E+00  0.00000000000E+00  0.45593999997E+02  0.45594000000E+02  0.51100000000E-03 0.  1.
         11   -1    0    0    0    0 -0.00000000000E+00 -0.00000000000E+00 -0.45593999997E+02  0.45594000000E+02  0.51100000000E-03 0. -1.
    9900012    2    1    2    0    0  0.30270891891E+01  0.37318242692E+02 -0.21950147297E+02  0.47787268751E+02  0.19999989544E+02 0.  0.
        -12    1    1    2    0    0 -0.30270891891E+01 -0.37318242692E+02  0.21950147297E+02  0.43400731249E+02  0.00000000000E+00 0.  1.
         11    1    3    3    0    0  0.28341134202E+01  0.10650987737E+02  0.45813547135E+00  0.11031120842E+02  0.51100000000E-03 0. -1.
        -11    1    3    3    0    0 -0.51805696607E+01  0.18072797743E+02 -0.16560133140E+02  0.25053988309E+02  0.51100000000E-03 0.  1.
         12    1    3    3    0    0  0.53735454296E+01  0.85944572115E+01 -0.58481496276E+01  0.11702159600E+02  0.00000000000E+00 0. -1.
</event>
<event>
 7    1  0.1899036E-009  0.4778727E+02  0.7816164E-02  0.1312668E+00
        -11   -1    0    0    0    0  0.00000000000E+00  0.00000000000E+00  0.45593999997E+02  0.45594000000E+02  0.51100000000E-03 0.  1.
         11   -1    0    0    0    0 -0.00000000000E+00 -0.00000000000E+00 -0.45593999997E+02  0.45594000000E+02  0.51100000000E-03 0. -1.
    9900012    2    1    2    0    0 -0.12788128988E+02 -0.39546332118E+02  0.12496994484E+02  0.47787268461E+02  0.19999988220E+02 0.  0.
        -12    1    1    2    0    0  0.12788128988E+02  0.39546332118E+02 -0.12496994484E+02  0.43400731539E+02  0.00000000000E+00 0.  1.
         11    1    3    3    0    0 -0.12314427622E+02 -0.32660446640E+02  0.42020021125E+01  0.35156887296E+02  0.51100000000E-03 0. -1.
        -11    1    3    3    0    0  0.23927620659E+01 -0.14666924515E+01  0.74287367532E+00  0.29031635520E+01  0.51100000000E-03 0.  1.
        -12    1    3    3    0    0 -0.28664634320E+01 -0.54191930268E+01  0.75521186966E+01  0.97272176123E+01  0.00000000000E+00 0.  1.
</event>
<event>
 7    1  0.1899036E-009  0.4778727E+02  0.7816164E-02  0.1312668E+00
        -11   -1    0    0    0    0  0.00000000000E+00  0.00000000000E+00  0.45593999997E+02  0.45594000000E+02  0.51100000000E-03 0. -1.
         11   -1    0    0    0    0 -0.00000000000E+00 -0.00000000000E+00 -0.45593999997E+02  0.45594000000E+02  0.51100000000E-03 0.  1.
    9900012    2    1    2    0    0  0.29252169076E+02 -0.31485256125E+02 -0.60508290549E+01  0.47787270960E+02  0.19999999616E+02 0.  0.
        -12    1    1    2    0    0 -0.29252169076E+02  0.31485256125E+02  0.60508290549E+01  0.43400729040E+02  0.00000000000E+00 0.  1.
         11    1    3    3    0    0  0.18417384110E+01 -0.15237721662E+02 -0.14343116889E+01  0.15415492601E+02  0.51100000000E-03 0. -1.
        -11    1    3    3    0    0  0.73223520926E+01 -0.29527603072E+01 -0.19733065296E+01  0.81381553512E+01  0.51100000000E-03 0.  1.
         12    1    3    3    0    0  0.20088078572E+02 -0.13294774156E+02 -0.26432108364E+01  0.24233623008E+02  0.00000000000E+00 0. -1.
</event>
<event>
 7    1  0.1899036E-009  0.4778727E+02  0.7816164E-02  0.1312668E+00
        -11   -1    0    0    0    0  0.00000000000E+00  0.00000000000E+00  0.45593999997E+02  0.45594000000E+02  0.51100000000E-03 0.  1.
         11   -1    0    0    0    0 -0.00000000000E+00 -0.00000000000E+00 -0.45593999997E+02  0.45594000000E+02  0.51100000000E-03 0. -1.
    9900012    2    1    2    0    0 -0.13619693644E+02  0.14877173346E+02 -0.38429115545E+02  0.47787271166E+02  0.20000000555E+02 0.  0.
        -12    1    1    2    0    0  0.13619693644E+02 -0.14877173346E+02  0.38429115545E+02  0.43400728834E+02  0.00000000000E+00 0.  1.
         11    1    3    3    0    0 -0.32704420917E+01 -0.23933499258E+01 -0.12771483695E+02  0.13399056362E+02  0.51100000000E-03 0. -1.
        -11    1    3    3    0    0 -0.93421823035E+01  0.58148996138E+01 -0.93872598512E+01  0.14464096083E+02  0.51100000000E-03 0.  1.
         12    1    3    3    0    0 -0.10070692490E+01  0.11455623658E+02 -0.16270371999E+02  0.19924118722E+02  0.00000000000E+00 0. -1.
</event>
<event>
 7    1  0.1899036E-009  0.4778730E+02  0.7816164E-02  0.1312668E+00
        -11   -1    0    0    0    0  0.00000000000E+00  0.00000000000E+00  0.45593999997E+02  0.45594000000E+02  0.51100000000E-03 0.  1.
         11   -1    0    0    0    0 -0.00000000000E+00 -0.00000000000E+00 -0.45593999997E+02  0.45594000000E+02  0.51100000000E-03 0. -1.
    9900012    2    1    2    0    0 -0.26773438946E+02  0.13624332232E+02 -0.31323809530E+02  0.47787302941E+02  0.20000145427E+02 0.  0.
        -12    1    1    2    0    0  0.26773438946E+02 -0.13624332232E+02  0.31323809530E+02  0.43400697059E+02  0.00000000000E+00 0.  1.
         11    1    3    3    0    0 -0.10780733867E+02  0.36259913300E+01 -0.66384085447E+01  0.13169681245E+02  0.51100000000E-03 0. -1.
        -11    1    3    3    0    0 -0.88677652361E+01  0.12698622233E+02 -0.21158068293E+02  0.26221291369E+02  0.51100000000E-03 0.  1.
        -12    1    3    3    0    0 -0.71249398429E+01 -0.27002813310E+01 -0.35273326927E+01  0.83963303268E+01  0.00000000000E+00 0.  1.
</event>
<event>
 7    1  0.1899036E-009  0.4778727E+02  0.7816164E-02  0.1312668E+00
        -11   -1    0    0    0    0  0.00000000000E+00  0.00000000000E+00  0.45593999997E+02  0.45594000000E+02  0.51100000000E-03 0.  1.
         11   -1    0    0    0    0 -0.00000000000E+00 -0.00000000000E+00 -0.45593999997E+02  0.45594000000E+02  0.51100000000E-03 0. -1.
    9900012    2    1    2    0    0  0.26219201331E+02  0.34472608725E+02 -0.27957122088E+01  0.47787271002E+02  0.19999999808E+02 0.  0.
        -12    1    1    2    0    0 -0.26219201331E+02 -0.34472608725E+02  0.27957122088E+01  0.43400728998E+02  0.00000000000E+00 0.  1.
         11    1    3    3    0    0  0.21383003475E+02  0.19045996445E+02  0.14035362778E+01  0.28669718041E+02  0.51100000000E-03 0. -1.
        -11    1    3    3    0    0  0.48285859161E+01  0.14841094581E+02 -0.75628571828E+00  0.15625149557E+02  0.51100000000E-03 0.  1.
        -12    1    3    3    0    0  0.76119403000E-02  0.58551769888E+00 -0.34429627683E+01  0.34924034047E+01  0.00000000000E+00 0.  1.
</event>
<event>
 7    1  0.1899036E-009  0.4778727E+02  0.7816164E-02  0.1312668E+00
        -11   -1    0    0    0    0  0.00000000000E+00  0.00000000000E+00  0.45593999997E+02  0.45594000000E+02  0.51100000000E-03 0.  1.
         11   -1    0    0    0    0 -0.00000000000E+00 -0.00000000000E+00 -0.45593999997E+02  0.45594000000E+02  0.51100000000E-03 0. -1.
    9900012    2    1    2    0    0 -0.33378386412E+02 -0.24446628907E+02 -0.13109879026E+02  0.47787271061E+02  0.20000000074E+02 0.  0.
        -12    1    1    2    0    0  0.33378386412E+02  0.24446628907E+02  0.13109879026E+02  0.43400728939E+02  0.00000000000E+00 0.  1.
         11    1    3    3    0    0 -0.21953467602E+01 -0.85310180604E+01 -0.15205889092E+01  0.89392397571E+01  0.51100000000E-03 0. -1.
        -11    1    3    3    0    0 -0.14168367149E+02 -0.74228883895E+01 -0.11723096833E+02  0.19831109383E+02  0.51100000000E-03 0.  1.
        -12    1    3    3    0    0 -0.17014672503E+02 -0.84927224568E+01  0.13380671671E+00  0.19016921921E+02  0.00000000000E+00 0.  1.
</event>
<event>
 7    1  0.1899036E-009  0.4778727E+02  0.7816164E-02  0.1312668E+00
        -11   -1    0    0    0    0  0.00000000000E+00  0.00000000000E+00  0.45593999997E+02  0.45594000000E+02  0.51100000000E-03 0.  1.
         11   -1    0    0    0    0 -0.00000000000E+00 -0.00000000000E+00 -0.45593999997E+02  0.45594000000E+02  0.51100000000E-03 0. -1.
    9900012    2    1    2    0    0  0.35771684163E+02 -0.13765616710E+02 -0.20359707855E+02  0.47787270799E+02  0.19999998880E+02 0.  0.
        -12    1    1    2    0    0 -0.35771684163E+02  0.13765616710E+02  0.20359707855E+02  0.43400729201E+02  0.00000000000E+00 0.  1.
         11    1    3    3    0    0  0.74282792178E+01  0.13664007849E+01 -0.38586325762E+01  0.84814756299E+01  0.51100000000E-03 0. -1.
        -11    1    3    3    0    0  0.10839913355E+02 -0.14118534883E+02 -0.11025008753E+02  0.20937706824E+02  0.51100000000E-03 0.  1.
        -12    1    3    3    0    0  0.17503491590E+02 -0.10134826119E+01 -0.54760665261E+01  0.18368088345E+02  0.00000000000E+00 0.  1.
</event>
<event>
 7    1  0.1899036E-009  0.4778727E+02  0.7816164E-02  0.1312668E+00
        -11   -1    0    0    0    0  0.00000000000E+00  0.00000000000E+00  0.45593999997E+02  0.45594000000E+02  0.51100000000E-03 0. -1.
         11   -1    0    0    0    0 -0.00000000000E+00 -0.00000000000E+00 -0.45593999997E+02  0.45594000000E+02  0.51100000000E-03 0.  1.
    9900012    2    1    2    0    0 -0.40369477522E+02  0.15412698410E+02 -0.40468822351E+01  0.47787271394E+02  0.20000001595E+02 0.  0.
        -12    1    1    2    0    0  0.40369477522E+02 -0.15412698410E+02  0.40468822351E+01  0.43400728606E+02  0.00000000000E+00 0.  1.
         11    1    3    3    0    0 -0.11142616730E+02  0.61663885036E+01  0.36080364469E+01  0.13236320563E+02  0.51100000000E-03 0. -1.
        -11    1    3    3    0    0  0.17127448550E+00  0.20193774530E+00  0.22284368982E+01  0.22441134269E+01  0.51100000000E-03 0.  1.
        -12    1    3    3    0    0 -0.29398135277E+02  0.90443721612E+01 -0.98833555802E+01  0.32306837405E+02  0.00000000000E+00 0.  1.
</event>
<event>
 7    1  0.1899036E-009  0.4778727E+02  0.7816164E-02  0.1312668E+00
        -11   -1    0    0    0    0  0.00000000000E+00  0.00000000000E+00  0.45593999997E+02  0.45594000000E+02  0.51100000000E-03 0. -1.
         11   -1    0    0    0    0 -0.00000000000E+00 -0.00000000000E+00 -0.45593999997E+02  0.45594000000E+02  0.51100000000E-03 0.  1.
    9900012    2    1    2    0    0  0.39745782179E+02 -0.16240421904E+02  0.63359883892E+01  0.47787271278E+02  0.20000001067E+02 0.  0.
        -12    1    1    2    0    0 -0.39745782179E+02  0.16240421904E+02 -0.63359883892E+01  0.43400728722E+02  0.00000000000E+00 0.  1.
         11    1    3    3    0    0  0.18191058740E+02 -0.11151443101E+02  0.93798016396E+01  0.23307723621E+02  0.51100000000E-03 0. -1.
        -11    1    3    3    0    0  0.20160697753E+02 -0.32552415757E+01  0.29417180446E+00  0.20423928832E+02  0.51100000000E-03 0.  1.
        -12    1    3    3    0    0  0.13940256858E+01 -0.18337372281E+01 -0.33379850549E+01  0.40556188259E+01  0.00000000000E+00 0.  1.
</event>
<event>
 7    1  0.1899036E-009  0.4778727E+02  0.7816164E-02  0.1312668E+00
        -11   -1    0    0    0    0  0.00000000000E+00  0.00000000000E+00  0.45593999997E+02  0.45594000000E+02  0.51100000000E-03 0.  1.
         11   -1    0    0    0    0 -0.00000000000E+00 -0.00000000000E+00 -0.45593999997E+02  0.45594000000E+02  0.51100000000E-03 0. -1.
    9900012    2    1    2    0    0 -0.28598929355E+02 -0.22572424513E+02 -0.23584103310E+02  0.47787273767E+02  0.20000012413E+02 0.  0.
        -12    1    1    2    0    0  0.28598929355E+02  0.22572424513E+02  0.23584103310E+02  0.43400726233E+02  0.00000000000E+00 0.  1.
         11    1    3    3    0    0 -0.11107860896E+02 -0.18893554340E+01 -0.15270774534E+02  0.18977639283E+02  0.51100000000E-03 0. -1.
        -11    1    3    3    0    0 -0.11845308875E+02 -0.11811059533E+02 -0.72794703310E+01  0.18242893362E+02  0.51100000000E-03 0.  1.
        -12    1    3    3    0    0 -0.56457595840E+01 -0.88720095454E+01 -0.10338584449E+01  0.10566741122E+02  0.00000000000E+00 0.  1.
</event>
<event>
 7    1  0.1899036E-009  0.4778728E+02  0.7816164E-02  0.1312668E+00
        -11   -1    0    0    0    0  0.00000000000E+00  0.00000000000E+00  0.45593999997E+02  0.45594000000E+02  0.51100000000E-03 0. -1.
         11   -1    0    0    0    0 -0.00000000000E+00 -0.00000000000E+00 -0.45593999997E+02  0.45594000000E+02  0.51100000000E-03 0.  1.
    9900012    2    1    2    0    0  0.12769734220E+02 -0.26646461578E+02  0.31788715795E+02  0.47787280206E+02  0.20000041772E+02 0.  0.
        -12    1    1    2    0    0 -0.12769734220E+02  0.26646461578E+02 -0.31788715795E+02  0.43400719794E+02  0.00000000000E+00 0.  1.
         11    1    3    3    0    0  0.85817501884E+01 -0.62055990203E+01  0.10271266872E+02  0.14753129123E+02  0.51100000000E-03 0.  1.
        -11    1    3    3    0    0  0.55866178158E+01 -0.25743618733E+01  0.18435428368E+01  0.64215487327E+01  0.51100000000E-03 0. -1.
         12    1    3    3    0    0 -0.13986337839E+01 -0.17866500685E+02  0.19673906087E+02  0.26612602351E+02  0.00000000000E+00 0. -1.
</event>
<event>
 7    1  0.1899036E-009  0.4778728E+02  0.7816164E-02  0.1312668E+00
        -11   -1    0    0    0    0  0.00000000000E+00  0.00000000000E+00  0.45593999997E+02  0.45594000000E+02  0.51100000000E-03 0.  1.
         11   -1    0    0    0    0 -0.00000000000E+00 -0.00000000000E+00 -0.45593999997E+02  0.45594000000E+02  0.51100000000E-03 0. -1.
    9900012    2    1    2    0    0  0.85828346305E+01 -0.37691449050E+02 -0.19731004300E+02  0.47787275208E+02  0.20000018983E+02 0.  0.
        -12    1    1    2    0    0 -0.85828346305E+01  0.37691449050E+02  0.19731004300E+02  0.43400724792E+02  0.00000000000E+00 0.  1.
         11    1    3    3    0    0  0.59364470730E+01 -0.28641543067E+02 -0.88753872553E+01  0.30567170171E+02  0.51100000000E-03 0. -1.
        -11    1    3    3    0    0  0.23731914898E+01 -0.10757629661E+02 -0.10889974968E+02  0.15490325653E+02  0.51100000000E-03 0.  1.
        -12    1    3    3    0    0  0.27319606771E+00  0.17077236773E+01  0.34357923564E-01  0.17297793837E+01  0.00000000000E+00 0.  1.
</event>
<event>
 7    1  0.1899036E-009  0.4778727E+02  0.7816164E-02  0.1312668E+00
        -11   -1    0    0    0    0  0.00000000000E+00  0.00000000000E+00  0.45593999997E+02  0.45594000000E+02  0.51100000000E-03 0.  1.
         11   -1    0    0    0    0 -0.00000000000E+00 -0.00000000000E+00 -0.45593999997E+02  0.45594000000E+02  0.51100000000E-03 0. -1.
    9900012    2    1    2    0    0  0.22107414524E+02 -0.84915795909E+01 -0.36370030044E+02  0.47787265142E+02  0.19999973087E+02 0.  0.
        -12    1    1    2    0    0 -0.22107414524E+02  0.84915795909E+01  0.36370030044E+02  0.43400734858E+02  0.00000000000E+00 0.  1.
         11    1    3    3    0    0  0.25225588098E+01 -0.74835139263E+00  0.16585196122E+01  0.31103087180E+01  0.51100000000E-03 0.  1.
        -11    1    3    3    0    0  0.17219119574E+02 -0.88936039833E+01 -0.37153945734E+02  0.41904772456E+02  0.51100000000E-03 0. -1.
         12    1    3    3    0    0  0.23657361400E+01  0.11503757850E+01 -0.87460392153E+00  0.27721839676E+01  0.00000000000E+00 0. -1.
</event>
<event>
 7    1  0.1899036E-009  0.4778727E+02  0.7816164E-02  0.1312668E+00
        -11   -1    0    0    0    0  0.00000000000E+00  0.00000000000E+00  0.45593999997E+02  0.45594000000E+02  0.51100000000E-03 0.  1.
         11   -1    0    0    0    0 -0.00000000000E+00 -0.00000000000E+00 -0.45593999997E+02  0.45594000000E+02  0.51100000000E-03 0. -1.
    9900012    2    1    2    0    0  0.11641024166E+01  0.61758752234E+01 -0.42943293982E+02  0.47787273425E+02  0.20000010855E+02 0.  0.
        -12    1    1    2    0    0 -0.11641024166E+01 -0.61758752234E+01  0.42943293982E+02  0.43400726575E+02  0.00000000000E+00 0.  1.
         11    1    3    3    0    0  0.10863934117E+01  0.80888290144E+01 -0.17606969917E+02  0.19406565780E+02  0.51100000000E-03 0. -1.
        -11    1    3    3    0    0  0.24097107462E+00 -0.52137671725E+00  0.14490398241E+01  0.15587230071E+01  0.51100000000E-03 0.  1.
         12    1    3    3    0    0 -0.16326206967E+00 -0.13915770737E+01 -0.26785363889E+02  0.26821984638E+02  0.00000000000E+00 0. -1.
</event>
<event>
 7    1  0.1899036E-009  0.4778727E+02  0.7816164E-02  0.1312668E+00
        -11   -1    0    0    0    0  0.00000000000E+00  0.00000000000E+00  0.45593999997E+02  0.45594000000E+02  0.51100000000E-03 0.  1.
         11   -1    0    0    0    0 -0.00000000000E+00 -0.00000000000E+00 -0.45593999997E+02  0.45594000000E+02  0.51100000000E-03 0. -1.
    9900012    2    1    2    0    0  0.23594905430E+02  0.10430471399E+02 -0.34901418146E+02  0.47787270923E+02  0.19999999445E+02 0.  0.
        -12    1    1    2    0    0 -0.23594905430E+02 -0.10430471399E+02  0.34901418146E+02  0.43400729077E+02  0.00000000000E+00 0.  1.
         11    1    3    3    0    0  0.21501373430E+01  0.32493368410E+01 -0.18040336414E+02  0.18456300243E+02  0.51100000000E-03 0. -1.
        -11    1    3    3    0    0  0.11140173257E+02  0.63182376022E+01 -0.13119388509E+02  0.18334174148E+02  0.51100000000E-03 0.  1.
        -12    1    3    3    0    0  0.10304594830E+02  0.86289695582E+00 -0.37416932233E+01  0.10996796531E+02  0.00000000000E+00 0.  1.
</event>
<event>
 7    1  0.1899036E-009  0.4778728E+02  0.7816164E-02  0.1312668E+00
        -11   -1    0    0    0    0  0.00000000000E+00  0.00000000000E+00  0.45593999997E+02  0.45594000000E+02  0.51100000000E-03 0. -1.
         11   -1    0    0    0    0 -0.00000000000E+00 -0.00000000000E+00 -0.45593999997E+02  0.45594000000E+02  0.51100000000E-03 0.  1.
    9900012    2    1    2    0    0  0.38564960195E+02 -0.18285747867E+02 -0.78738844394E+01  0.47787276664E+02  0.20000025622E+02 0.  0.
        -12    1    1    2    0    0 -0.38564960195E+02  0.18285747867E+02  0.78738844394E+01  0.43400723336E+02  0.00000000000E+00 0.  1.
         11    1    3    3    0    0  0.31686356606E+02 -0.20841920865E+02 -0.90651194697E+01  0.38994707995E+02  0.51100000000E-03 0. -1.
        -11    1    3    3    0    0  0.12190916211E+00 -0.22485997266E+00  0.14587724751E+01  0.14810270917E+01  0.51100000000E-03 0.  1.
        -12    1    3    3    0    0  0.67566944268E+01  0.27810329704E+01 -0.26753744481E+00  0.73115415778E+01  0.00000000000E+00 0.  1.
</event>
<event>
 7    1  0.1899036E-009  0.4778726E+02  0.7816164E-02  0.1312668E+00
        -11   -1    0    0    0    0  0.00000000000E+00  0.00000000000E+00  0.45593999997E+02  0.45594000000E+02  0.51100000000E-03 0.  1.
         11   -1    0    0    0    0 -0.00000000000E+00 -0.00000000000E+00 -0.45593999997E+02  0.45594000000E+02  0.51100000000E-03 0. -1.
    9900012    2    1    2    0    0 -0.86918355875E+01 -0.13311630864E+02 -0.40384111419E+02  0.47787262942E+02  0.19999963056E+02 0.  0.
        -12    1    1    2    0    0  0.86918355875E+01  0.13311630864E+02  0.40384111419E+02  0.43400737058E+02  0.00000000000E+00 0.  1.
         11    1    3    3    0    0  0.87914659662E+00  0.13094243319E+01 -0.84542957423E+01  0.86001516021E+01  0.51100000000E-03 0. -1.
        -11    1    3    3    0    0 -0.90648107165E+01 -0.10659506257E+02 -0.10780316501E+02  0.17663835685E+02  0.51100000000E-03 0.  1.
         12    1    3    3    0    0 -0.50617146767E+00 -0.39615489388E+01 -0.21149499175E+02  0.21523275655E+02  0.00000000000E+00 0. -1.
</event>
<event>
 7    1  0.1899036E-009  0.4778727E+02  0.7816164E-02  0.1312668E+00
        -11   -1    0    0    0    0  0.00000000000E+00  0.00000000000E+00  0.45593999997E+02  0.45594000000E+02  0.51100000000E-03 0.  1.
         11   -1    0    0    0    0 -0.00000000000E+00 -0.00000000000E+00 -0.45593999997E+02  0.45594000000E+02  0.51100000000E-03 0. -1.
    9900012    2    1    2    0    0 -0.18043957992E+02 -0.38097081523E+02 -0.10327217341E+02  0.47787268917E+02  0.19999990298E+02 0.  0.
        -12    1    1    2    0    0  0.18043957992E+02  0.38097081523E+02  0.10327217341E+02  0.43400731083E+02  0.00000000000E+00 0.  1.
         11    1    3    3    0    0 -0.13820829085E+02 -0.18073816079E+02 -0.19426402101E+01  0.22835323416E+02  0.51100000000E-03 0.  1.
        -11    1    3    3    0    0 -0.49015804157E+01 -0.91088147968E+01 -0.93900634510E+01  0.13970300263E+02  0.51100000000E-03 0. -1.
         12    1    3    3    0    0  0.67845150923E+00 -0.10914450647E+02  0.10054863203E+01  0.10981645237E+02  0.00000000000E+00 0. -1.
</event>
<event>
 7    1  0.1899036E-009  0.4778727E+02  0.7816164E-02  0.1312668E+00
        -11   -1    0    0    0    0  0.00000000000E+00  0.00000000000E+00  0.45593999997E+02  0.45594000000E+02  0.51100000000E-03 0.  1.
         11   -1    0    0    0    0 -0.00000000000E+00 -0.00000000000E+00 -0.45593999997E+02  0.45594000000E+02  0.51100000000E-03 0. -1.
    9900012    2    1    2    0    0  0.15950899468E+02 -0.19918993502E+02 -0.35105924178E+02  0.47787269495E+02  0.19999992935E+02 0.  0.
        -12    1    1    2    0    0 -0.15950899468E+02  0.19918993502E+02  0.35105924178E+02  0.43400730505E+02  0.00000000000E+00 0.  1.
         11    1    3    3    0    0  0.90003471688E+01 -0.14524161587E+02 -0.14945843934E+02  0.22701008130E+02  0.51100000000E-03 0. -1.
        -11    1    3    3    0    0  0.21332198677E+01 -0.75515298152E+01 -0.57163995098E+01  0.97084217652E+01  0.51100000000E-03 0.  1.
        -12    1    3    3    0    0  0.48173324310E+01  0.21566979003E+01 -0.14443680735E+02  0.15377839599E+02  0.00000000000E+00 0.  1.
</event>
<event>
 7    1  0.1899036E-009  0.4778727E+02  0.7816164E-02  0.1312668E+00
        -11   -1    0    0    0    0  0.00000000000E+00  0.00000000000E+00  0.45593999997E+02  0.45594000000E+02  0.51100000000E-03 0.  1.
         11   -1    0    0    0    0 -0.00000000000E+00 -0.00000000000E+00 -0.45593999997E+02  0.45594000000E+02  0.51100000000E-03 0. -1.
    9900012    2    1    2    0    0  0.24565681528E+02 -0.51291241959E+01 -0.35409640275E+02  0.47787271338E+02  0.20000001338E+02 0.  0.
        -12    1    1    2    0    0 -0.24565681528E+02  0.51291241959E+01  0.35409640275E+02  0.43400728662E+02  0.00000000000E+00 0.  1.
         11    1    3    3    0    0  0.10397391959E+02 -0.58938995537E+00 -0.17461880645E+02  0.20331512880E+02  0.51100000000E-03 0. -1.
        -11    1    3    3    0    0  0.15806885565E+02  0.96456787503E-03 -0.15048920478E+02  0.21824931615E+02  0.51100000000E-03 0.  1.
        -12    1    3    3    0    0 -0.16385959954E+01 -0.45406988084E+01 -0.28988391524E+01  0.56308268431E+01  0.00000000000E+00 0.  1.
</event>
<event>
 7    1  0.1899036E-009  0.4778726E+02  0.7816164E-02  0.1312668E+00
        -11   -1    0    0    0    0  0.00000000000E+00  0.00000000000E+00  0.45593999997E+02  0.45594000000E+02  0.51100000000E-03 0.  1.
         11   -1    0    0    0    0 -0.00000000000E+00 -0.00000000000E+00 -0.45593999997E+02  0.45594000000E+02  0.51100000000E-03 0. -1.
    9900012    2    1    2    0    0  0.36630473275E+01 -0.32508419133E+02 -0.28520326420E+02  0.47787259806E+02  0.19999948760E+02 0.  0.
        -12    1    1    2    0    0 -0.36630473275E+01  0.32508419133E+02  0.28520326420E+02  0.43400740194E+02  0.00000000000E+00 0.  1.
         11    1    3    3    0    0 -0.40809779265E+01 -0.95245491176E+01 -0.12550088937E+02  0.16275016108E+02  0.51100000000E-03 0. -1.
        -11    1    3    3    0    0  0.62114969920E+01 -0.22576769517E+02 -0.17558728484E+02  0.29267766621E+02  0.51100000000E-03 0.  1.
        -12    1    3    3    0    0  0.15325282621E+01 -0.40710049811E+00  0.15884910012E+01  0.22444770773E+01  0.00000000000E+00 0.  1.
</event>
<event>
 7    1  0.1899036E-009  0.4778726E+02  0.7816164E-02  0.1312668E+00
        -11   -1    0    0    0    0  0.00000000000E+00  0.00000000000E+00  0.45593999997E+02  0.45594000000E+02  0.51100000000E-03 0.  1.
         11   -1    0    0    0    0 -0.00000000000E+00 -0.00000000000E+00 -0.45593999997E+02  0.45594000000E+02  0.51100000000E-03 0. -1.
    9900012    2    1    2    0    0  0.35486845787E+02 -0.24290705778E+02  0.58540372540E+01  0.47787258494E+02  0.19999942777E+02 0.  0.
        -12    1    1    2    0    0 -0.35486845787E+02  0.24290705778E+02 -0.58540372540E+01  0.43400741506E+02  0.00000000000E+00 0.  1.
         11    1    3    3    0    0  0.17771009208E+02 -0.12119362665E+02 -0.31618816260E+01  0.21741325060E+02  0.51100000000E-03 0.  1.
        -11    1    3    3    0    0  0.13663161097E+02 -0.10569230564E+02  0.14756028203E+01  0.17336897353E+02  0.51100000000E-03 0. -1.
        -12    1    3    3    0    0  0.40526754823E+01 -0.16021125488E+01  0.75403160597E+01  0.87090360813E+01  0.00000000000E+00 0.  1.
</event>
<event>
 7    1  0.1899036E-009  0.4778727E+02  0.7816164E-02  0.1312668E+00
        -11   -1    0    0    0    0  0.00000000000E+00  0.00000000000E+00  0.45593999997E+02  0.45594000000E+02  0.51100000000E-03 0. -1.
         11   -1    0    0    0    0 -0.00000000000E+00 -0.00000000000E+00 -0.45593999997E+02  0.45594000000E+02  0.51100000000E-03 0.  1.
    9900012    2    1    2    0    0 -0.30460073274E+02  0.29379951474E+02 -0.96242209883E+01  0.47787271411E+02  0.20000001671E+02 0.  0.
        -12    1    1    2    0    0  0.30460073274E+02 -0.29379951474E+02  0.96242209883E+01  0.43400728589E+02  0.00000000000E+00 0.  1.
         11    1    3    3    0    0 -0.12746406926E+02  0.48292503361E+01 -0.62463707230E+01  0.14993655185E+02  0.51100000000E-03 0. -1.
        -11    1    3    3    0    0 -0.83430138077E+01  0.14870580561E+02 -0.76094299994E+01  0.18671996969E+02  0.51100000000E-03 0.  1.
        -12    1    3    3    0    0 -0.93706525395E+01  0.96801205768E+01  0.42315797341E+01  0.14121619257E+02  0.00000000000E+00 0.  1.
</event>
<event>
 7    1  0.1899036E-009  0.4778727E+02  0.7816164E-02  0.1312668E+00
        -11   -1    0    0    0    0  0.00000000000E+00  0.00000000000E+00  0.45593999997E+02  0.45594000000E+02  0.51100000000E-03 0.  1.
         11   -1    0    0    0    0 -0.00000000000E+00 -0.00000000000E+00 -0.45593999997E+02  0.45594000000E+02  0.51100000000E-03 0. -1.
    9900012    2    1    2    0    0  0.39592180315E+02  0.12152921226E+02 -0.12976484174E+02  0.47787269846E+02  0.19999994535E+02 0.  0.
        -12    1    1    2    0    0 -0.39592180315E+02 -0.12152921226E+02  0.12976484174E+02  0.43400730154E+02  0.00000000000E+00 0.  1.
         11    1    3    3    0    0  0.24591520654E+02  0.18550798151E+01 -0.44243319780E+01  0.25055117699E+02  0.51100000000E-03 0. -1.
        -11    1    3    3    0    0  0.12037600039E+02  0.97030846489E+01 -0.20948612415E+01  0.15602631518E+02  0.51100000000E-03 0.  1.
         12    1    3    3    0    0  0.29630596220E+01  0.59475676184E+00 -0.64572909543E+01  0.71295206289E+01  0.00000000000E+00 0. -1.
</event>
<event>
 7    1  0.1899036E-009  0.4778727E+02  0.7816164E-02  0.1312668E+00
        -11   -1    0    0    0    0  0.00000000000E+00  0.00000000000E+00  0.45593999997E+02  0.45594000000E+02  0.51100000000E-03 0.  1.
         11   -1    0    0    0    0 -0.00000000000E+00 -0.00000000000E+00 -0.45593999997E+02  0.45594000000E+02  0.51100000000E-03 0. -1.
    9900012    2    1    2    0    0 -0.34483813372E+02  0.11937843021E+02 -0.23494215681E+02  0.47787266698E+02  0.19999980184E+02 0.  0.
        -12    1    1    2    0    0  0.34483813372E+02 -0.11937843021E+02  0.23494215681E+02  0.43400733302E+02  0.00000000000E+00 0.  1.
         11    1    3    3    0    0 -0.43706623524E+01  0.48088082417E+00  0.40118158970E+00  0.44153009744E+01  0.51100000000E-03 0. -1.
        -11    1    3    3    0    0 -0.28360103188E+01  0.63778545131E+01 -0.36121184157E+00  0.69893101930E+01  0.51100000000E-03 0.  1.
         12    1    3    3    0    0 -0.27277140701E+02  0.50791076840E+01 -0.23534185429E+02  0.36382655531E+02  0.00000000000E+00 0. -1.
</event>
<event>
 7    1  0.1899036E-009  0.4778727E+02  0.7816164E-02  0.1312668E+00
        -11   -1    0    0    0    0  0.00000000000E+00  0.00000000000E+00  0.45593999997E+02  0.45594000000E+02  0.51100000000E-03 0. -1.
         11   -1    0    0    0    0 -0.00000000000E+00 -0.00000000000E+00 -0.45593999997E+02  0.45594000000E+02  0.51100000000E-03 0.  1.
    9900012    2    1    2    0    0 -0.36867319940E+02  0.83878723232E+01  0.21308860115E+02  0.47787271883E+02  0.20000003824E+02 0.  0.
        -12    1    1    2    0    0  0.36867319940E+02 -0.83878723232E+01 -0.21308860115E+02  0.43400728117E+02  0.00000000000E+00 0.  1.
         11    1    3    3    0    0 -0.26390573073E+02  0.22318968028E+00  0.70828794644E+01  0.27325433986E+02  0.51100000000E-03 0. -1.
        -11    1    3    3    0    0 -0.24830704198E+00  0.10795773163E+00  0.37242303762E+01  0.37340599105E+01  0.51100000000E-03 0.  1.
        -12    1    3    3    0    0 -0.10228439825E+02  0.80567249113E+01  0.10501750274E+02  0.16727777987E+02  0.00000000000E+00 0.  1.
</event>
<event>
 7    1  0.1899036E-009  0.4778727E+02  0.7816164E-02  0.1312668E+00
        -11   -1    0    0    0    0  0.00000000000E+00  0.00000000000E+00  0.45593999997E+02  0.45594000000E+02  0.51100000000E-03 0. -1.
         11   -1    0    0    0    0 -0.00000000000E+00 -0.00000000000E+00 -0.45593999997E+02  0.45594000000E+02  0.51100000000E-03 0.  1.
    9900012    2    1    2    0    0 -0.30385816802E+00  0.22450302660E+02  0.37141822907E+02  0.47787269267E+02  0.19999991896E+02 0.  0.
        -12    1    1    2    0    0  0.30385816802E+00 -0.22450302660E+02 -0.37141822907E+02  0.43400730733E+02  0.00000000000E+00 0.  1.
         11    1    3    3    0    0  0.53853115961E+01  0.10947961625E+02  0.19351750245E+02  0.22876837250E+02  0.51100000000E-03 0. -1.
        -11    1    3    3    0    0 -0.82588748548E+00  0.69842232185E+01  0.13236867081E+01  0.71563685530E+01  0.51100000000E-03 0.  1.
        -12    1    3    3    0    0 -0.48632822787E+01  0.45181178164E+01  0.16466385953E+02  0.17754063464E+02  0.00000000000E+00 0.  1.
</event>
<event>
 7    1  0.1899036E-009  0.4778726E+02  0.7816164E-02  0.1312668E+00
        -11   -1    0    0    0    0  0.00000000000E+00  0.00000000000E+00  0.45593999997E+02  0.45594000000E+02  0.51100000000E-03 0.  1.
         11   -1    0    0    0    0 -0.00000000000E+00 -0.00000000000E+00 -0.45593999997E+02  0.45594000000E+02  0.51100000000E-03 0. -1.
    9900012    2    1    2    0    0 -0.32864739779E+02 -0.11555644398E+02 -0.25884353892E+02  0.47787264815E+02  0.19999971597E+02 0.  0.
        -12    1    1    2    0    0  0.32864739779E+02  0.11555644398E+02  0.25884353892E+02  0.43400735185E+02  0.00000000000E+00 0.  1.
         11    1    3    3    0    0 -0.93991364159E+01 -0.47795841305E+01 -0.14933638939E+02  0.18281186013E+02  0.51100000000E-03 0. -1.
        -11    1    3    3    0    0 -0.21587720357E+02 -0.91792164591E+01 -0.11910591308E+02  0.26308741334E+02  0.51100000000E-03 0.  1.
        -12    1    3    3    0    0 -0.18778830065E+01  0.24031561911E+01  0.95987635538E+00  0.31973374677E+01  0.00000000000E+00 0.  1.
</event>
<event>
 7    1  0.1899036E-009  0.4778727E+02  0.7816164E-02  0.1312668E+00
        -11   -1    0    0    0    0  0.00000000000E+00  0.00000000000E+00  0.45593999997E+02  0.45594000000E+02  0.51100000000E-03 0.  1.
         11   -1    0    0    0    0 -0.00000000000E+00 -0.00000000000E+00 -0.45593999997E+02  0.45594000000E+02  0.51100000000E-03 0. -1.
    9900012    2    1    2    0    0  0.17638272578E+02  0.19424794614E+02 -0.34571549619E+02  0.47787270186E+02  0.19999996087E+02 0.  0.
        -12    1    1    2    0    0 -0.17638272578E+02 -0.19424794614E+02  0.34571549619E+02  0.43400729814E+02  0.00000000000E+00 0.  1.
         11    1    3    3    0    0  0.15213216792E+02  0.30915776538E+01 -0.16852852975E+02  0.22913281547E+02  0.51100000000E-03 0. -1.
        -11    1    3    3    0    0  0.14135933851E+01  0.32410528329E+01 -0.73012578497E+01  0.81124001487E+01  0.51100000000E-03 0.  1.
        -12    1    3    3    0    0  0.10114624003E+01  0.13092164127E+02 -0.10417438794E+02  0.16761588491E+02  0.00000000000E+00 0.  1.
</event>
<event>
 7    1  0.1899036E-009  0.4778727E+02  0.7816164E-02  0.1312668E+00
        -11   -1    0    0    0    0  0.00000000000E+00  0.00000000000E+00  0.45593999997E+02  0.45594000000E+02  0.51100000000E-03 0.  1.
         11   -1    0    0    0    0 -0.00000000000E+00 -0.00000000000E+00 -0.45593999997E+02  0.45594000000E+02  0.51100000000E-03 0. -1.
    9900012    2    1    2    0    0 -0.14102382526E+02  0.12584979797E+02 -0.39068712017E+02  0.47787272264E+02  0.20000005560E+02 0.  0.
        -12    1    1    2    0    0  0.14102382526E+02 -0.12584979797E+02  0.39068712017E+02  0.43400727736E+02  0.00000000000E+00 0.  1.
         11    1    3    3    0    0 -0.36304870580E+01  0.68131300483E+01 -0.17304523069E+02  0.18948501161E+02  0.51100000000E-03 0. -1.
        -11    1    3    3    0    0  0.19697302398E+01 -0.30671005745E+01 -0.37700429991E+01  0.52440602235E+01  0.51100000000E-03 0.  1.
         12    1    3    3    0    0 -0.12441625708E+02  0.88389503228E+01 -0.17994145948E+02  0.23594710879E+02  0.00000000000E+00 0. -1.
</event>
<event>
 7    1  0.1899036E-009  0.4778731E+02  0.7816164E-02  0.1312668E+00
        -11   -1    0    0    0    0  0.00000000000E+00  0.00000000000E+00  0.45593999997E+02  0.45594000000E+02  0.51100000000E-03 0.  1.
         11   -1    0    0    0    0 -0.00000000000E+00 -0.00000000000E+00 -0.45593999997E+02  0.45594000000E+02  0.51100000000E-03 0. -1.
    9900012    2    1    2    0    0  0.11297437544E+02  0.14109562675E+02 -0.39457673425E+02  0.47787310535E+02  0.20000180053E+02 0.  0.
        -12    1    1    2    0    0 -0.11297437544E+02 -0.14109562675E+02  0.39457673425E+02  0.43400689465E+02  0.00000000000E+00 0.  1.
         11    1    3    3    0    0  0.71364685275E+01  0.39252058159E+01 -0.44251802618E+01  0.92692310550E+01  0.51100000000E-03 0. -1.
        -11    1    3    3    0    0 -0.54189575863E+00 -0.71156863915E+00  0.52178172766E+00  0.10354889540E+01  0.51100000000E-03 0.  1.
         12    1    3    3    0    0  0.47028647752E+01  0.10895925498E+02 -0.35554274891E+02  0.37482590526E+02  0.00000000000E+00 0. -1.
</event>
<event>
 7    1  0.1899036E-009  0.4778727E+02  0.7816164E-02  0.1312668E+00
        -11   -1    0    0    0    0  0.00000000000E+00  0.00000000000E+00  0.45593999997E+02  0.45594000000E+02  0.51100000000E-03 0. -1.
         11   -1    0    0    0    0 -0.00000000000E+00 -0.00000000000E+00 -0.45593999997E+02  0.45594000000E+02  0.51100000000E-03 0.  1.
    9900012    2    1    2    0    0 -0.23117470656E+02 -0.12827977419E+02  0.34418728415E+02  0.47787270515E+02  0.19999997585E+02 0.  0.
        -12    1    1    2    0    0  0.23117470656E+02  0.12827977419E+02 -0.34418728415E+02  0.43400729485E+02  0.00000000000E+00 0.  1.
         11    1    3    3    0    0 -0.22069287257E+02 -0.80742091328E+01  0.29384169179E+02  0.37625466000E+02  0.51100000000E-03 0. -1.
        -11    1    3    3    0    0 -0.13212598656E+01  0.11005410861E+01 -0.79596057462E+00  0.18948540345E+01  0.51100000000E-03 0.  1.
        -12    1    3    3    0    0  0.27307646657E+00 -0.58543093718E+01  0.58305198103E+01  0.82669504798E+01  0.00000000000E+00 0.  1.
</event>
<event>
 7    1  0.1899036E-009  0.4778727E+02  0.7816164E-02  0.1312668E+00
        -11   -1    0    0    0    0  0.00000000000E+00  0.00000000000E+00  0.45593999997E+02  0.45594000000E+02  0.51100000000E-03 0.  1.
         11   -1    0    0    0    0 -0.00000000000E+00 -0.00000000000E+00 -0.45593999997E+02  0.45594000000E+02  0.51100000000E-03 0. -1.
    9900012    2    1    2    0    0  0.56122541312E+01 -0.40151522645E+02 -0.15491328088E+02  0.47787269441E+02  0.19999992691E+02 0.  0.
        -12    1    1    2    0    0 -0.56122541312E+01  0.40151522645E+02  0.15491328088E+02  0.43400730559E+02  0.00000000000E+00 0.  1.
         11    1    3    3    0    0  0.36108505286E+01 -0.12961042095E+02 -0.68242552184E+01  0.15086328688E+02  0.51100000000E-03 0. -1.
        -11    1    3    3    0    0 -0.69126255797E+01 -0.10709234929E+02 -0.43929320477E+01  0.13482208922E+02  0.51100000000E-03 0.  1.
         12    1    3    3    0    0  0.89140291823E+01 -0.16481245620E+02 -0.42741408215E+01  0.19218731831E+02  0.00000000000E+00 0. -1.
</event>
<event>
 7    1  0.1899036E-009  0.4778727E+02  0.7816164E-02  0.1312668E+00
        -11   -1    0    0    0    0  0.00000000000E+00  0.00000000000E+00  0.45593999997E+02  0.45594000000E+02  0.51100000000E-03 0.  1.
         11   -1    0    0    0    0 -0.00000000000E+00 -0.00000000000E+00 -0.45593999997E+02  0.45594000000E+02  0.51100000000E-03 0. -1.
    9900012    2    1    2    0    0 -0.42727170448E+02  0.61510036449E+01  0.44919084491E+01  0.47787272104E+02  0.20000004832E+02 0.  0.
        -12    1    1    2    0    0  0.42727170448E+02 -0.61510036449E+01 -0.44919084491E+01  0.43400727896E+02  0.00000000000E+00 0.  1.
         11    1    3    3    0    0 -0.12786737370E+02  0.35321161860E+01 -0.67013484842E+01  0.14862185878E+02  0.51100000000E-03 0. -1.
        -11    1    3    3    0    0 -0.13858808743E+02 -0.18118538539E+01  0.28110617994E+01  0.14256628734E+02  0.51100000000E-03 0.  1.
        -12    1    3    3    0    0 -0.16081624336E+02  0.44307413128E+01  0.83821951338E+01  0.18668457492E+02  0.00000000000E+00 0.  1.
</event>
<event>
 7    1  0.1899036E-009  0.4778727E+02  0.7816164E-02  0.1312668E+00
        -11   -1    0    0    0    0  0.00000000000E+00  0.00000000000E+00  0.45593999997E+02  0.45594000000E+02  0.51100000000E-03 0. -1.
         11   -1    0    0    0    0 -0.00000000000E+00 -0.00000000000E+00 -0.45593999997E+02  0.45594000000E+02  0.51100000000E-03 0.  1.
    9900012    2    1    2    0    0  0.21336129416E+02 -0.17943709566E+01  0.37751464110E+02  0.47787271573E+02  0.20000002408E+02 0.  0.
        -12    1    1    2    0    0 -0.21336129416E+02  0.17943709566E+01 -0.37751464110E+02  0.43400728427E+02  0.00000000000E+00 0.  1.
         11    1    3    3    0    0  0.49086531944E+01 -0.64026581660E+01  0.12556759238E+02  0.14925183771E+02  0.51100000000E-03 0. -1.
        -11    1    3    3    0    0  0.12611151253E+02  0.24246411036E+00  0.85551214391E+01  0.15241063870E+02  0.51100000000E-03 0.  1.
        -12    1    3    3    0    0  0.38163249686E+01  0.43658230990E+01  0.16639583433E+02  0.17621023932E+02  0.00000000000E+00 0.  1.
</event>
<event>
 7    1  0.1899036E-009  0.4778727E+02  0.7816164E-02  0.1312668E+00
        -11   -1    0    0    0    0  0.00000000000E+00  0.00000000000E+00  0.45593999997E+02  0.45594000000E+02  0.51100000000E-03 0.  1.
         11   -1    0    0    0    0 -0.00000000000E+00 -0.00000000000E+00 -0.45593999997E+02  0.45594000000E+02  0.51100000000E-03 0. -1.
    9900012    2    1    2    0    0 -0.42733098454E+00 -0.17286391469E+02 -0.39807304996E+02  0.47787268752E+02  0.19999989549E+02 0.  0.
        -12    1    1    2    0    0  0.42733098454E+00  0.17286391469E+02  0.39807304996E+02  0.43400731248E+02  0.00000000000E+00 0.  1.
         11    1    3    3    0    0  0.85729396857E+00 -0.16245591785E+01 -0.12141608929E+02  0.12279772519E+02  0.51100000000E-03 0. -1.
        -11    1    3    3    0    0  0.13657142345E+01 -0.24494213213E+01  0.16423043086E+01  0.32499236734E+01  0.51100000000E-03 0.  1.
        -12    1    3    3    0    0 -0.26503391876E+01 -0.13212410969E+02 -0.29308000376E+02  0.32257572560E+02  0.00000000000E+00 0.  1.
</event>
<event>
 7    1  0.1899036E-009  0.4778727E+02  0.7816164E-02  0.1312668E+00
        -11   -1    0    0    0    0  0.00000000000E+00  0.00000000000E+00  0.45593999997E+02  0.45594000000E+02  0.51100000000E-03 0.  1.
         11   -1    0    0    0    0 -0.00000000000E+00 -0.00000000000E+00 -0.45593999997E+02  0.45594000000E+02  0.51100000000E-03 0. -1.
    9900012    2    1    2    0    0  0.12398623444E+02  0.27615877690E+02 -0.31100818626E+02  0.47787268634E+02  0.19999989011E+02 0.  0.
        -12    1    1    2    0    0 -0.12398623444E+02 -0.27615877690E+02  0.31100818626E+02  0.43400731366E+02  0.00000000000E+00 0.  1.
         11    1    3    3    0    0  0.71139972862E+01  0.10790168109E+02 -0.12185901506E+02  0.17763245227E+02  0.51100000000E-03 0. -1.
        -11    1    3    3    0    0 -0.10762171955E+01  0.95613480212E+01 -0.10010711855E+01  0.96736633812E+01  0.51100000000E-03 0.  1.
        -12    1    3    3    0    0  0.63608433531E+01  0.72643615597E+01 -0.17913845935E+02  0.20350360026E+02  0.00000000000E+00 0.  1.
</event>
<event>
 7    1  0.1899036E-009  0.4778727E+02  0.7816164E-02  0.1312668E+00
        -11   -1    0    0    0    0  0.00000000000E+00  0.00000000000E+00  0.45593999997E+02  0.45594000000E+02  0.51100000000E-03 0. -1.
         11   -1    0    0    0    0 -0.00000000000E+00 -0.00000000000E+00 -0.45593999997E+02  0.45594000000E+02  0.51100000000E-03 0.  1.
    9900012    2    1    2    0    0 -0.22241106829E+02 -0.32736111566E+02  0.17813013608E+02  0.47787270891E+02  0.19999999299E+02 0.  0.
        -12    1    1    2    0    0  0.22241106829E+02  0.32736111566E+02 -0.17813013608E+02  0.43400729109E+02  0.00000000000E+00 0.  1.
         11    1    3    3    0    0  0.14502395483E+00 -0.12487398180E+02  0.50499009941E+00  0.12498446324E+02  0.51100000000E-03 0.  1.
        -11    1    3    3    0    0 -0.89080572853E+00 -0.16765478239E+01  0.28221088723E+01  0.34012712623E+01  0.51100000000E-03 0. -1.
        -12    1    3    3    0    0 -0.21495325055E+02 -0.18572165562E+02  0.14485914636E+02  0.31887553305E+02  0.00000000000E+00 0.  1.
</event>
<event>
 7    1  0.1899036E-009  0.4778727E+02  0.7816164E-02  0.1312668E+00
        -11   -1    0    0    0    0  0.00000000000E+00  0.00000000000E+00  0.45593999997E+02  0.45594000000E+02  0.51100000000E-03 0.  1.
         11   -1    0    0    0    0 -0.00000000000E+00 -0.00000000000E+00 -0.45593999997E+02  0.45594000000E+02  0.51100000000E-03 0. -1.
    9900012    2    1    2    0    0  0.23473600396E+02 -0.33417904689E+02 -0.14692079745E+02  0.47787268709E+02  0.19999989352E+02 0.  0.
        -12    1    1    2    0    0 -0.23473600396E+02  0.33417904689E+02  0.14692079745E+02  0.43400731291E+02  0.00000000000E+00 0.  1.
         11    1    3    3    0    0  0.31155069232E+01 -0.10079803051E+02  0.32904126230E+01  0.11051498922E+02  0.51100000000E-03 0. -1.
        -11    1    3    3    0    0 -0.90476337582E-01 -0.21092643837E+01  0.17159651589E+00  0.21181661487E+01  0.51100000000E-03 0.  1.
        -12    1    3    3    0    0  0.20448569811E+02 -0.21228837254E+02 -0.18154088883E+02  0.34617603639E+02  0.00000000000E+00 0.  1.
</event>
<event>
 7    1  0.1899036E-009  0.4778727E+02  0.7816164E-02  0.1312668E+00
        -11   -1    0    0    0    0  0.00000000000E+00  0.00000000000E+00  0.45593999997E+02  0.45594000000E+02  0.51100000000E-03 0. -1.
         11   -1    0    0    0    0 -0.00000000000E+00 -0.00000000000E+00 -0.45593999997E+02  0.45594000000E+02  0.51100000000E-03 0.  1.
    9900012    2    1    2    0    0  0.15424349742E+02  0.39048126467E+02  0.10998027876E+02  0.47787270021E+02  0.19999995334E+02 0.  0.
        -12    1    1    2    0    0 -0.15424349742E+02 -0.39048126467E+02 -0.10998027876E+02  0.43400729979E+02  0.00000000000E+00 0.  1.
         11    1    3    3    0    0  0.68286111796E+01  0.26760781446E+02  0.35208671178E+01  0.27841800584E+02  0.51100000000E-03 0.  1.
        -11    1    3    3    0    0 -0.21316147684E+01  0.39399160445E+01  0.37742819002E+01  0.58576380975E+01  0.51100000000E-03 0. -1.
         12    1    3    3    0    0  0.10727353331E+02  0.83474289761E+01  0.37028788583E+01  0.14087831339E+02  0.00000000000E+00 0. -1.
</event>
<event>
 7    1  0.1899036E-009  0.4778730E+02  0.7816164E-02  0.1312668E+00
        -11   -1    0    0    0    0  0.00000000000E+00  0.00000000000E+00  0.45593999997E+02  0.45594000000E+02  0.51100000000E-03 0.  1.
         11   -1    0    0    0    0 -0.00000000000E+00 -0.00000000000E+00 -0.45593999997E+02  0.45594000000E+02  0.51100000000E-03 0. -1.
    9900012    2    1    2    0    0 -0.21871198801E+02  0.10223262504E+00 -0.37486808120E+02  0.47787302177E+02  0.20000141947E+02 0.  0.
        -12    1    1    2    0    0  0.21871198801E+02 -0.10223262504E+00  0.37486808120E+02  0.43400697823E+02  0.00000000000E+00 0.  1.
         11    1    3    3    0    0 -0.54869000398E+01 -0.85159441981E+01 -0.11003749723E+02  0.14956934374E+02  0.51100000000E-03 0.  1.
        -11    1    3    3    0    0 -0.98833931111E+01  0.45644201209E+01 -0.10592383414E+02  0.15189271776E+02  0.51100000000E-03 0. -1.
        -12    1    3    3    0    0 -0.65009056496E+01  0.40537567023E+01 -0.15890674982E+02  0.17641096027E+02  0.00000000000E+00 0.  1.
</event>
<event>
 7    1  0.1899036E-009  0.4778728E+02  0.7816164E-02  0.1312668E+00
        -11   -1    0    0    0    0  0.00000000000E+00  0.00000000000E+00  0.45593999997E+02  0.45594000000E+02  0.51100000000E-03 0.  1.
         11   -1    0    0    0    0 -0.00000000000E+00 -0.00000000000E+00 -0.45593999997E+02  0.45594000000E+02  0.51100000000E-03 0. -1.
    9900012    2    1    2    0    0 -0.38418487399E+02 -0.17667910519E+02 -0.97717786133E+01  0.47787275428E+02  0.20000019986E+02 0.  0.
        -12    1    1    2    0    0  0.38418487399E+02  0.17667910519E+02  0.97717786133E+01  0.43400724572E+02  0.00000000000E+00 0.  1.
         11    1    3    3    0    0 -0.11725734793E+02 -0.84335517814E+01 -0.28095733613E+01  0.14714324817E+02  0.51100000000E-03 0. -1.
        -11    1    3    3    0    0 -0.25385459801E+02 -0.26240804191E+01 -0.64015943969E+01  0.26311362154E+02  0.51100000000E-03 0.  1.
        -12    1    3    3    0    0 -0.13072928052E+01 -0.66102783187E+01 -0.56061085504E+00  0.67615884569E+01  0.00000000000E+00 0.  1.
</event>
<event>
 7    1  0.1899036E-009  0.4778727E+02  0.7816164E-02  0.1312668E+00
        -11   -1    0    0    0    0  0.00000000000E+00  0.00000000000E+00  0.45593999997E+02  0.45594000000E+02  0.51100000000E-03 0.  1.
         11   -1    0    0    0    0 -0.00000000000E+00 -0.00000000000E+00 -0.45593999997E+02  0.45594000000E+02  0.51100000000E-03 0. -1.
    9900012    2    1    2    0    0  0.30427381237E+02 -0.87597591603E+01 -0.29682728754E+02  0.47787270792E+02  0.19999998848E+02 0.  0.
        -12    1    1    2    0    0 -0.30427381237E+02  0.87597591603E+01  0.29682728754E+02  0.43400729208E+02  0.00000000000E+00 0.  1.
         11    1    3    3    0    0  0.28070970620E+02 -0.32929081679E+01 -0.29821056539E+02  0.41086713778E+02  0.51100000000E-03 0. -1.
        -11    1    3    3    0    0  0.21983147402E+01 -0.39589822660E+01 -0.11929780793E+01  0.46828757445E+01  0.51100000000E-03 0.  1.
         12    1    3    3    0    0  0.15809587715E+00 -0.15078687264E+01  0.13313058635E+01  0.20176812694E+01  0.00000000000E+00 0. -1.
</event>
<event>
 7    1  0.1899036E-009  0.4778730E+02  0.7816164E-02  0.1312668E+00
        -11   -1    0    0    0    0  0.00000000000E+00  0.00000000000E+00  0.45593999997E+02  0.45594000000E+02  0.51100000000E-03 0. -1.
         11   -1    0    0    0    0 -0.00000000000E+00 -0.00000000000E+00 -0.45593999997E+02  0.45594000000E+02  0.51100000000E-03 0.  1.
    9900012    2    1    2    0    0  0.38964840892E+02  0.19024797276E+02  0.18489576552E+01  0.47787304366E+02  0.20000151924E+02 0.  0.
        -12    1    1    2    0    0 -0.38964840892E+02 -0.19024797276E+02 -0.18489576552E+01  0.43400695634E+02  0.00000000000E+00 0.  1.
         11    1    3    3    0    0  0.99083649377E+01  0.65632212997E+01  0.30267344669E+01  0.12264285196E+02  0.51100000000E-03 0. -1.
        -11    1    3    3    0    0  0.29873484169E+02  0.14371643809E+02 -0.32376974036E-01  0.33150720214E+02  0.51100000000E-03 0.  1.
        -12    1    3    3    0    0 -0.81700821489E+00 -0.19100678325E+01 -0.11453998377E+01  0.23722989559E+01  0.00000000000E+00 0.  1.
</event>
<event>
 7    1  0.1899036E-009  0.4778727E+02  0.7816164E-02  0.1312668E+00
        -11   -1    0    0    0    0  0.00000000000E+00  0.00000000000E+00  0.45593999997E+02  0.45594000000E+02  0.51100000000E-03 0. -1.
         11   -1    0    0    0    0 -0.00000000000E+00 -0.00000000000E+00 -0.45593999997E+02  0.45594000000E+02  0.51100000000E-03 0.  1.
    9900012    2    1    2    0    0 -0.36822851056E+02  0.22305896282E+02  0.54907201217E+01  0.47787269864E+02  0.19999994619E+02 0.  0.
        -12    1    1    2    0    0  0.36822851056E+02 -0.22305896282E+02 -0.54907201217E+01  0.43400730136E+02  0.00000000000E+00 0.  1.
         11    1    3    3    0    0 -0.89573699297E+01  0.51367065384E+01  0.93009400808E+01  0.13897039856E+02  0.51100000000E-03 0. -1.
        -11    1    3    3    0    0 -0.88554543525E+01  0.98661925739E+01 -0.57188783294E+00  0.13269810988E+02  0.51100000000E-03 0.  1.
         12    1    3    3    0    0 -0.19010026774E+02  0.73029971700E+01 -0.32383321261E+01  0.20620419020E+02  0.00000000000E+00 0. -1.
</event>
<event>
 7    1  0.1899036E-009  0.4778728E+02  0.7816164E-02  0.1312668E+00
        -11   -1    0    0    0    0  0.00000000000E+00  0.00000000000E+00  0.45593999997E+02  0.45594000000E+02  0.51100000000E-03 0.  1.
         11   -1    0    0    0    0 -0.00000000000E+00 -0.00000000000E+00 -0.45593999997E+02  0.45594000000E+02  0.51100000000E-03 0. -1.
    9900012    2    1    2    0    0  0.38810343957E+02  0.93305994197E+01 -0.17038763195E+02  0.47787281863E+02  0.20000049328E+02 0.  0.
        -12    1    1    2    0    0 -0.38810343957E+02 -0.93305994197E+01  0.17038763195E+02  0.43400718137E+02  0.00000000000E+00 0.  1.
         11    1    3    3    0    0  0.34611775557E+02  0.33233743429E+01 -0.13620537715E+02  0.37343525171E+02  0.51100000000E-03 0. -1.
        -11    1    3    3    0    0  0.59209796262E+01  0.54775975236E+01 -0.28310792578E+01  0.85485135778E+01  0.51100000000E-03 0.  1.
        -12    1    3    3    0    0 -0.17224112267E+01  0.52962755311E+00 -0.58714622180E+00  0.18952431150E+01  0.00000000000E+00 0.  1.
</event>
<event>
 7    1  0.1899036E-009  0.4778727E+02  0.7816164E-02  0.1312668E+00
        -11   -1    0    0    0    0  0.00000000000E+00  0.00000000000E+00  0.45593999997E+02  0.45594000000E+02  0.51100000000E-03 0. -1.
         11   -1    0    0    0    0 -0.00000000000E+00 -0.00000000000E+00 -0.45593999997E+02  0.45594000000E+02  0.51100000000E-03 0.  1.
    9900012    2    1    2    0    0 -0.18594529391E+02  0.38425018966E+02  0.78348451491E+01  0.47787269541E+02  0.19999993146E+02 0.  0.
        -12    1    1    2    0    0  0.18594529391E+02 -0.38425018966E+02 -0.78348451491E+01  0.43400730459E+02  0.00000000000E+00 0.  1.
         11    1    3    3    0    0 -0.20713843402E+01  0.12359213611E+02  0.17819992757E+01  0.12657658387E+02  0.51100000000E-03 0. -1.
        -11    1    3    3    0    0  0.83437406487E+00  0.77417530358E+00 -0.29490869064E+01  0.31611139371E+01  0.51100000000E-03 0.  1.
         12    1    3    3    0    0 -0.17357519116E+02  0.25291630052E+02  0.90019327798E+01  0.31968497217E+02  0.00000000000E+00 0. -1.
</event>
<event>
 7    1  0.1899036E-009  0.4778727E+02  0.7816164E-02  0.1312668E+00
        -11   -1    0    0    0    0  0.00000000000E+00  0.00000000000E+00  0.45593999997E+02  0.45594000000E+02  0.51100000000E-03 0.  1.
         11   -1    0    0    0    0 -0.00000000000E+00 -0.00000000000E+00 -0.45593999997E+02  0.45594000000E+02  0.51100000000E-03 0. -1.
    9900012    2    1    2    0    0  0.19002372820E+02 -0.28870526566E+02 -0.26249296934E+02  0.47787273433E+02  0.20000010890E+02 0.  0.
        -12    1    1    2    0    0 -0.19002372820E+02  0.28870526566E+02  0.26249296934E+02  0.43400726567E+02  0.00000000000E+00 0.  1.
         11    1    3    3    0    0  0.61294658992E+01 -0.12001343967E+02 -0.40291796264E+01  0.14065450507E+02  0.51100000000E-03 0.  1.
        -11    1    3    3    0    0  0.70618890368E+00  0.21791010488E+01 -0.43205618008E+01  0.48902391234E+01  0.51100000000E-03 0. -1.
         12    1    3    3    0    0  0.12166718017E+02 -0.19048283648E+02 -0.17899555507E+02  0.28831583803E+02  0.00000000000E+00 0. -1.
</event>
<event>
 7    1  0.1899036E-009  0.4778727E+02  0.7816164E-02  0.1312668E+00
        -11   -1    0    0    0    0  0.00000000000E+00  0.00000000000E+00  0.45593999997E+02  0.45594000000E+02  0.51100000000E-03 0.  1.
         11   -1    0    0    0    0 -0.00000000000E+00 -0.00000000000E+00 -0.45593999997E+02  0.45594000000E+02  0.51100000000E-03 0. -1.
    9900012    2    1    2    0    0  0.30105459635E+01 -0.27284039636E+02 -0.33617570962E+02  0.47787270936E+02  0.19999999506E+02 0.  0.
        -12    1    1    2    0    0 -0.30105459635E+01  0.27284039636E+02  0.33617570962E+02  0.43400729064E+02  0.00000000000E+00 0.  1.
         11    1    3    3    0    0  0.51590349157E+01 -0.19004298775E+01 -0.85492308732E+01  0.10164478529E+02  0.51100000000E-03 0. -1.
        -11    1    3    3    0    0 -0.13608712855E+01 -0.10904916450E+02 -0.33129667211E+01  0.11478019088E+02  0.51100000000E-03 0.  1.
        -12    1    3    3    0    0 -0.78761766661E+00 -0.14478693309E+02 -0.21755373368E+02  0.26144773319E+02  0.00000000000E+00 0.  1.
</event>
<event>
 7    1  0.2206717E-009  0.4778728E+02  0.7816164E-02  0.1312668E+00
        -11   -1    0    0    0    0  0.00000000000E+00  0.00000000000E+00  0.45593999997E+02  0.45594000000E+02  0.51100000000E-03 0. -1.
         11   -1    0    0    0    0 -0.00000000000E+00 -0.00000000000E+00 -0.45593999997E+02  0.45594000000E+02  0.51100000000E-03 0.  1.
    9900012    2    1    2    0    0  0.15948770905E+02  0.31269364717E+02  0.25524229230E+02  0.47787277184E+02  0.20000027994E+02 0.  0.
        -12    1    1    2    0    0 -0.15948770905E+02 -0.31269364717E+02 -0.25524229230E+02  0.43400722816E+02  0.00000000000E+00 0.  1.
         11    1    3    3    0    0  0.41313241528E+00  0.92239093294E+01  0.87249616558E+01  0.12703390802E+02  0.51100000000E-03 0. -1.
        -11    1    3    3    0    0  0.12593328349E+02  0.12318397517E+02  0.28808312892E+01  0.17850322839E+02  0.51100000000E-03 0.  1.
        -12    1    3    3    0    0  0.29423101409E+01  0.97270578703E+01  0.13918436285E+02  0.17233563543E+02  0.00000000000E+00 0.  1.
</event>
<event>
 7    1  0.1899036E-009  0.4778727E+02  0.7816164E-02  0.1312668E+00
        -11   -1    0    0    0    0  0.00000000000E+00  0.00000000000E+00  0.45593999997E+02  0.45594000000E+02  0.51100000000E-03 0.  1.
         11   -1    0    0    0    0 -0.00000000000E+00 -0.00000000000E+00 -0.45593999997E+02  0.45594000000E+02  0.51100000000E-03 0. -1.
    9900012    2    1    2    0    0 -0.24496645981E+02  0.33045497844E+02 -0.13839526751E+02  0.47787273131E+02  0.20000009512E+02 0.  0.
        -12    1    1    2    0    0  0.24496645981E+02 -0.33045497844E+02  0.13839526751E+02  0.43400726869E+02  0.00000000000E+00 0.  1.
         11    1    3    3    0    0 -0.54017971409E+00  0.59000608549E+01 -0.52223437961E+01  0.78978090126E+01  0.51100000000E-03 0. -1.
        -11    1    3    3    0    0 -0.14961128745E+02  0.65372950521E+01 -0.52663831057E+01  0.17155360422E+02  0.51100000000E-03 0.  1.
         12    1    3    3    0    0 -0.89953375216E+01  0.20608141938E+02 -0.33507998495E+01  0.22734103696E+02  0.00000000000E+00 0. -1.
</event>
<event>
 7    1  0.1899036E-009  0.4778727E+02  0.7816164E-02  0.1312668E+00
        -11   -1    0    0    0    0  0.00000000000E+00  0.00000000000E+00  0.45593999997E+02  0.45594000000E+02  0.51100000000E-03 0. -1.
         11   -1    0    0    0    0 -0.00000000000E+00 -0.00000000000E+00 -0.45593999997E+02  0.45594000000E+02  0.51100000000E-03 0.  1.
    9900012    2    1    2    0    0 -0.36184280267E+01  0.29753069934E+02  0.31389248864E+02  0.47787272631E+02  0.20000007233E+02 0.  0.
        -12    1    1    2    0    0  0.36184280267E+01 -0.29753069934E+02 -0.31389248864E+02  0.43400727369E+02  0.00000000000E+00 0.  1.
         11    1    3    3    0    0 -0.20955111305E+01  0.37649210270E+01  0.90221865874E+01  0.99982822683E+01  0.51100000000E-03 0. -1.
        -11    1    3    3    0    0 -0.56420940865E+01  0.98727610086E+01  0.16725294269E+02  0.20224739906E+02  0.51100000000E-03 0.  1.
         12    1    3    3    0    0  0.41191771902E+01  0.16115387899E+02  0.56417680080E+01  0.17564250457E+02  0.00000000000E+00 0. -1.
</event>
<event>
 7    1  0.1899036E-009  0.4778727E+02  0.7816164E-02  0.1312668E+00
        -11   -1    0    0    0    0  0.00000000000E+00  0.00000000000E+00  0.45593999997E+02  0.45594000000E+02  0.51100000000E-03 0.  1.
         11   -1    0    0    0    0 -0.00000000000E+00 -0.00000000000E+00 -0.45593999997E+02  0.45594000000E+02  0.51100000000E-03 0. -1.
    9900012    2    1    2    0    0  0.16783931949E+01 -0.15523119642E+02 -0.40494926328E+02  0.47787270681E+02  0.19999998343E+02 0.  0.
        -12    1    1    2    0    0 -0.16783931949E+01  0.15523119642E+02  0.40494926328E+02  0.43400729319E+02  0.00000000000E+00 0.  1.
         11    1    3    3    0    0  0.52444331139E+01 -0.95385938473E+01 -0.92800397732E+01  0.14304124920E+02  0.51100000000E-03 0. -1.
        -11    1    3    3    0    0 -0.25290908219E+00 -0.77278915534E+01 -0.25538611624E+02  0.26683420973E+02  0.51100000000E-03 0.  1.
        -12    1    3    3    0    0 -0.33131308368E+01  0.17433657590E+01 -0.56762749305E+01  0.67997247884E+01  0.00000000000E+00 0.  1.
</event>
<event>
 7    1  0.1899036E-009  0.4778727E+02  0.7816164E-02  0.1312668E+00
        -11   -1    0    0    0    0  0.00000000000E+00  0.00000000000E+00  0.45593999997E+02  0.45594000000E+02  0.51100000000E-03 0.  1.
         11   -1    0    0    0    0 -0.00000000000E+00 -0.00000000000E+00 -0.45593999997E+02  0.45594000000E+02  0.51100000000E-03 0. -1.
    9900012    2    1    2    0    0 -0.26145414408E+02  0.15324248066E+02 -0.31067796782E+02  0.47787271086E+02  0.20000000192E+02 0.  0.
        -12    1    1    2    0    0  0.26145414408E+02 -0.15324248066E+02  0.31067796782E+02  0.43400728914E+02  0.00000000000E+00 0.  1.
         11    1    3    3    0    0 -0.57254662526E+01  0.19094649247E+01 -0.11845641332E+02  0.13294594350E+02  0.51100000000E-03 0. -1.
        -11    1    3    3    0    0 -0.89084293429E+01  0.13768130284E+01 -0.14682755291E+02  0.17229017113E+02  0.51100000000E-03 0.  1.
        -12    1    3    3    0    0 -0.11511518812E+02  0.12037970113E+02 -0.45394001593E+01  0.17263659624E+02  0.00000000000E+00 0.  1.
</event>
<event>
 7    1  0.1899036E-009  0.4778727E+02  0.7816164E-02  0.1312668E+00
        -11   -1    0    0    0    0  0.00000000000E+00  0.00000000000E+00  0.45593999997E+02  0.45594000000E+02  0.51100000000E-03 0. -1.
         11   -1    0    0    0    0 -0.00000000000E+00 -0.00000000000E+00 -0.45593999997E+02  0.45594000000E+02  0.51100000000E-03 0.  1.
    9900012    2    1    2    0    0 -0.38736546497E+01  0.42268005582E+02  0.90572515786E+01  0.47787270716E+02  0.19999998504E+02 0.  0.
        -12    1    1    2    0    0  0.38736546497E+01 -0.42268005582E+02 -0.90572515786E+01  0.43400729284E+02  0.00000000000E+00 0.  1.
         11    1    3    3    0    0  0.14260922721E+01  0.13651556950E+02 -0.25661332454E+01  0.13963659493E+02  0.51100000000E-03 0. -1.
        -11    1    3    3    0    0 -0.82203637205E+01  0.24498113336E+02  0.65319512854E+01  0.26653298569E+02  0.51100000000E-03 0.  1.
        -12    1    3    3    0    0  0.29206167986E+01  0.41183352950E+01  0.50914335386E+01  0.71703126546E+01  0.00000000000E+00 0.  1.
</event>
<event>
 7    1  0.1899036E-009  0.4778727E+02  0.7816164E-02  0.1312668E+00
        -11   -1    0    0    0    0  0.00000000000E+00  0.00000000000E+00  0.45593999997E+02  0.45594000000E+02  0.51100000000E-03 0.  1.
         11   -1    0    0    0    0 -0.00000000000E+00 -0.00000000000E+00 -0.45593999997E+02  0.45594000000E+02  0.51100000000E-03 0. -1.
    9900012    2    1    2    0    0 -0.21852905226E+02  0.89274472008E+01 -0.36419420723E+02  0.47787274359E+02  0.20000015114E+02 0.  0.
        -12    1    1    2    0    0  0.21852905226E+02 -0.89274472008E+01  0.36419420723E+02  0.43400725641E+02  0.00000000000E+00 0.  1.
         11    1    3    3    0    0 -0.95357678217E+01  0.10225278727E+01 -0.84200368562E+01  0.12762188375E+02  0.51100000000E-03 0. -1.
        -11    1    3    3    0    0 -0.78143405411E+01  0.30861967306E+01 -0.26169218292E+01  0.87998186614E+01  0.51100000000E-03 0.  1.
        -12    1    3    3    0    0 -0.45027968628E+01  0.48187225975E+01 -0.25382462038E+02  0.26225267323E+02  0.00000000000E+00 0.  1.
</event>
<event>
 7    1  0.1899036E-009  0.4778727E+02  0.7816164E-02  0.1312668E+00
        -11   -1    0    0    0    0  0.00000000000E+00  0.00000000000E+00  0.45593999997E+02  0.45594000000E+02  0.51100000000E-03 0.  1.
         11   -1    0    0    0    0 -0.00000000000E+00 -0.00000000000E+00 -0.45593999997E+02  0.45594000000E+02  0.51100000000E-03 0. -1.
    9900012    2    1    2    0    0  0.23092199231E+02  0.19465818618E+02 -0.31168177973E+02  0.47787273301E+02  0.20000010289E+02 0.  0.
        -12    1    1    2    0    0 -0.23092199231E+02 -0.19465818618E+02  0.31168177973E+02  0.43400726699E+02  0.00000000000E+00 0.  1.
         11    1    3    3    0    0 -0.72120182430E+00 -0.19243600494E+01 -0.20543788249E+01  0.29058159419E+01  0.51100000000E-03 0. -1.
        -11    1    3    3    0    0  0.12420681358E+02  0.94825768994E+01 -0.65585874880E+01  0.16947202133E+02  0.51100000000E-03 0.  1.
         12    1    3    3    0    0  0.11392719698E+02  0.11907601768E+02 -0.22555211660E+02  0.27934255226E+02  0.00000000000E+00 0. -1.
</event>
<event>
 7    1  0.1899036E-009  0.4778727E+02  0.7816164E-02  0.1312668E+00
        -11   -1    0    0    0    0  0.00000000000E+00  0.00000000000E+00  0.45593999997E+02  0.45594000000E+02  0.51100000000E-03 0.  1.
         11   -1    0    0    0    0 -0.00000000000E+00 -0.00000000000E+00 -0.45593999997E+02  0.45594000000E+02  0.51100000000E-03 0. -1.
    9900012    2    1    2    0    0 -0.21925069961E+02  0.17916742381E+02 -0.32892322494E+02  0.47787271557E+02  0.20000002337E+02 0.  0.
        -12    1    1    2    0    0  0.21925069961E+02 -0.17916742381E+02  0.32892322494E+02  0.43400728443E+02  0.00000000000E+00 0.  1.
         11    1    3    3    0    0 -0.40411823220E+01  0.64015055523E+01 -0.23759838423E+01  0.79344645299E+01  0.51100000000E-03 0. -1.
        -11    1    3    3    0    0 -0.19803564542E+02  0.90341606151E+01 -0.22794277645E+02  0.31517873028E+02  0.51100000000E-03 0.  1.
         12    1    3    3    0    0  0.19196769027E+01  0.24810762138E+01 -0.77220610063E+01  0.83349339994E+01  0.00000000000E+00 0. -1.
</event>
<event>
 7    1  0.1899036E-009  0.4778727E+02  0.7816164E-02  0.1312668E+00
        -11   -1    0    0    0    0  0.00000000000E+00  0.00000000000E+00  0.45593999997E+02  0.45594000000E+02  0.51100000000E-03 0. -1.
         11   -1    0    0    0    0 -0.00000000000E+00 -0.00000000000E+00 -0.45593999997E+02  0.45594000000E+02  0.51100000000E-03 0.  1.
    9900012    2    1    2    0    0  0.14540147312E+02 -0.23215590643E+02  0.33663689679E+02  0.47787268029E+02  0.19999986252E+02 0.  0.
        -12    1    1    2    0    0 -0.14540147312E+02  0.23215590643E+02 -0.33663689679E+02  0.43400731971E+02  0.00000000000E+00 0.  1.
         11    1    3    3    0    0 -0.25466653258E+01  0.17180934079E+01  0.18189134771E+01  0.35701254513E+01  0.51100000000E-03 0. -1.
        -11    1    3    3    0    0  0.55487501391E+01 -0.85956771558E+01  0.14478614124E+02  0.17728636752E+02  0.51100000000E-03 0.  1.
         12    1    3    3    0    0  0.11538062499E+02 -0.16338006895E+02  0.17366162078E+02  0.26488505825E+02  0.00000000000E+00 0. -1.
</event>
<event>
 7    1  0.1899036E-009  0.4778728E+02  0.7816164E-02  0.1312668E+00
        -11   -1    0    0    0    0  0.00000000000E+00  0.00000000000E+00  0.45593999997E+02  0.45594000000E+02  0.51100000000E-03 0. -1.
         11   -1    0    0    0    0 -0.00000000000E+00 -0.00000000000E+00 -0.45593999997E+02  0.45594000000E+02  0.51100000000E-03 0.  1.
    9900012    2    1    2    0    0 -0.45076181076E+01 -0.12485079222E+02  0.41321024747E+02  0.47787275232E+02  0.20000019094E+02 0.  0.
        -12    1    1    2    0    0  0.45076181076E+01  0.12485079222E+02 -0.41321024747E+02  0.43400724768E+02  0.00000000000E+00 0.  1.
         11    1    3    3    0    0 -0.48018088390E+01 -0.86255505273E+01  0.51141388781E+01  0.11118089168E+02  0.51100000000E-03 0. -1.
        -11    1    3    3    0    0  0.20321262451E+01 -0.14496332842E+01  0.10572428408E+02  0.10863112650E+02  0.51100000000E-03 0.  1.
         12    1    3    3    0    0 -0.17379355137E+01 -0.24098954104E+01  0.25634457461E+02  0.25806073414E+02  0.00000000000E+00 0. -1.
</event>
<event>
 7    1  0.1899036E-009  0.4778727E+02  0.7816164E-02  0.1312668E+00
        -11   -1    0    0    0    0  0.00000000000E+00  0.00000000000E+00  0.45593999997E+02  0.45594000000E+02  0.51100000000E-03 0.  1.
         11   -1    0    0    0    0 -0.00000000000E+00 -0.00000000000E+00 -0.45593999997E+02  0.45594000000E+02  0.51100000000E-03 0. -1.
    9900012    2    1    2    0    0 -0.33288814184E+02 -0.52942245449E+00 -0.27842373671E+02  0.47787271785E+02  0.20000003378E+02 0.  0.
        -12    1    1    2    0    0  0.33288814184E+02  0.52942245449E+00  0.27842373671E+02  0.43400728215E+02  0.00000000000E+00 0.  1.
         11    1    3    3    0    0 -0.37155213689E+01  0.39920930255E+01 -0.81858051470E+01  0.98361228100E+01  0.51100000000E-03 0. -1.
        -11    1    3    3    0    0  0.25399488380E+00 -0.23843533730E+01 -0.53589239483E+00  0.24569972178E+01  0.51100000000E-03 0.  1.
        -12    1    3    3    0    0 -0.29827287699E+02 -0.21371621070E+01 -0.19120676129E+02  0.35494151758E+02  0.00000000000E+00 0.  1.
</event>
<event>
 7    1  0.1899036E-009  0.4778727E+02  0.7816164E-02  0.1312668E+00
        -11   -1    0    0    0    0  0.00000000000E+00  0.00000000000E+00  0.45593999997E+02  0.45594000000E+02  0.51100000000E-03 0.  1.
         11   -1    0    0    0    0 -0.00000000000E+00 -0.00000000000E+00 -0.45593999997E+02  0.45594000000E+02  0.51100000000E-03 0. -1.
    9900012    2    1    2    0    0  0.75861460947E+01  0.24837095124E+02 -0.34773447329E+02  0.47787267910E+02  0.19999985708E+02 0.  0.
        -12    1    1    2    0    0 -0.75861460947E+01 -0.24837095124E+02  0.34773447329E+02  0.43400732090E+02  0.00000000000E+00 0.  1.
         11    1    3    3    0    0 -0.46587984481E+01  0.73529345610E+01 -0.74171107921E+01  0.11436064988E+02  0.51100000000E-03 0. -1.
        -11    1    3    3    0    0  0.93407326812E+01  0.76345960581E+01 -0.21161046859E+02  0.24358289111E+02  0.51100000000E-03 0.  1.
         12    1    3    3    0    0  0.29042118616E+01  0.98495645053E+01 -0.61952896785E+01  0.11992913811E+02  0.00000000000E+00 0. -1.
</event>
<event>
 7    1  0.1899036E-009  0.4778726E+02  0.7816164E-02  0.1312668E+00
        -11   -1    0    0    0    0  0.00000000000E+00  0.00000000000E+00  0.45593999997E+02  0.45594000000E+02  0.51100000000E-03 0.  1.
         11   -1    0    0    0    0 -0.00000000000E+00 -0.00000000000E+00 -0.45593999997E+02  0.45594000000E+02  0.51100000000E-03 0. -1.
    9900012    2    1    2    0    0  0.46223012244E+01 -0.22620990675E+02 -0.36749815704E+02  0.47787264499E+02  0.19999970156E+02 0.  0.
        -12    1    1    2    0    0 -0.46223012244E+01  0.22620990675E+02  0.36749815704E+02  0.43400735501E+02  0.00000000000E+00 0.  1.
         11    1    3    3    0    0 -0.12046166805E+01 -0.19102143347E+02 -0.24334471154E+02  0.30959804076E+02  0.51100000000E-03 0. -1.
        -11    1    3    3    0    0  0.65231223035E+01 -0.49797426000E+01 -0.12761541807E+02  0.15172538038E+02  0.51100000000E-03 0.  1.
        -12    1    3    3    0    0 -0.69620439861E+00  0.14608952721E+01  0.34619725682E+00  0.16549223853E+01  0.00000000000E+00 0.  1.
</event>
<event>
 7    1  0.1899036E-009  0.4778727E+02  0.7816164E-02  0.1312668E+00
        -11   -1    0    0    0    0  0.00000000000E+00  0.00000000000E+00  0.45593999997E+02  0.45594000000E+02  0.51100000000E-03 0.  1.
         11   -1    0    0    0    0 -0.00000000000E+00 -0.00000000000E+00 -0.45593999997E+02  0.45594000000E+02  0.51100000000E-03 0. -1.
    9900012    2    1    2    0    0 -0.76732540962E+01  0.25965878142E+02 -0.33919282591E+02  0.47787269734E+02  0.19999994027E+02 0.  0.
        -12    1    1    2    0    0  0.76732540962E+01 -0.25965878142E+02  0.33919282591E+02  0.43400730266E+02  0.00000000000E+00 0.  1.
         11    1    3    3    0    0 -0.52422533855E+01  0.21713735067E+02 -0.21531895488E+02  0.31025635121E+02  0.51100000000E-03 0. -1.
        -11    1    3    3    0    0 -0.27571992423E+01  0.62213253219E+01 -0.13000320193E+02  0.14673628106E+02  0.51100000000E-03 0.  1.
        -12    1    3    3    0    0  0.32619853155E+00 -0.19691822462E+01  0.61293308992E+00  0.20880065071E+01  0.00000000000E+00 0.  1.
</event>
<event>
 7    1  0.1899036E-009  0.4778727E+02  0.7816164E-02  0.1312668E+00
        -11   -1    0    0    0    0  0.00000000000E+00  0.00000000000E+00  0.45593999997E+02  0.45594000000E+02  0.51100000000E-03 0.  1.
         11   -1    0    0    0    0 -0.00000000000E+00 -0.00000000000E+00 -0.45593999997E+02  0.45594000000E+02  0.51100000000E-03 0. -1.
    9900012    2    1    2    0    0 -0.38503674329E+02  0.43015836489E+01 -0.19559820271E+02  0.47787272728E+02  0.20000007674E+02 0.  0.
        -12    1    1    2    0    0  0.38503674329E+02 -0.43015836489E+01  0.19559820271E+02  0.43400727272E+02  0.00000000000E+00 0.  1.
         11    1    3    3    0    0 -0.21124840338E+02  0.52942027543E+01 -0.71131539918E+01  0.22910356219E+02  0.51100000000E-03 0. -1.
        -11    1    3    3    0    0 -0.14790692158E+01 -0.36823258233E+01  0.75145257284E+00  0.40387931916E+01  0.51100000000E-03 0.  1.
         12    1    3    3    0    0 -0.15899764775E+02  0.26897067179E+01 -0.13198118852E+02  0.20838123317E+02  0.00000000000E+00 0. -1.
</event>
<event>
 7    1  0.1899036E-009  0.4778728E+02  0.7816164E-02  0.1312668E+00
        -11   -1    0    0    0    0  0.00000000000E+00  0.00000000000E+00  0.45593999997E+02  0.45594000000E+02  0.51100000000E-03 0. -1.
         11   -1    0    0    0    0 -0.00000000000E+00 -0.00000000000E+00 -0.45593999997E+02  0.45594000000E+02  0.51100000000E-03 0.  1.
    9900012    2    1    2    0    0 -0.65457863763E+01 -0.38200225101E+01  0.42733861392E+02  0.47787276495E+02  0.20000024851E+02 0.  0.
        -12    1    1    2    0    0  0.65457863763E+01  0.38200225101E+01 -0.42733861392E+02  0.43400723505E+02  0.00000000000E+00 0.  1.
         11    1    3    3    0    0 -0.13303212338E+01 -0.49472746778E+01  0.18287472559E+02  0.18991496365E+02  0.51100000000E-03 0. -1.
        -11    1    3    3    0    0 -0.83443456811E+01  0.40634805634E+01  0.21950085412E+02  0.23831622458E+02  0.51100000000E-03 0.  1.
         12    1    3    3    0    0  0.31288805386E+01 -0.29362283957E+01  0.24963034209E+01  0.49641576713E+01  0.00000000000E+00 0. -1.
</event>
<event>
 7    1  0.1899036E-009  0.4778726E+02  0.7816164E-02  0.1312668E+00
        -11   -1    0    0    0    0  0.00000000000E+00  0.00000000000E+00  0.45593999997E+02  0.45594000000E+02  0.51100000000E-03 0. -1.
         11   -1    0    0    0    0 -0.00000000000E+00 -0.00000000000E+00 -0.45593999997E+02  0.45594000000E+02  0.51100000000E-03 0.  1.
    9900012    2    1    2    0    0  0.12787535076E+02 -0.23975115339E+02  0.33842235795E+02  0.47787261153E+02  0.19999954899E+02 0.  0.
        -12    1    1    2    0    0 -0.12787535076E+02  0.23975115339E+02 -0.33842235795E+02  0.43400738847E+02  0.00000000000E+00 0.  1.
         11    1    3    3    0    0  0.28367180010E+01 -0.88288485440E+01  0.14423910394E+01  0.93848829402E+01  0.51100000000E-03 0. -1.
        -11    1    3    3    0    0 -0.64641201433E+00 -0.65234999301E+01  0.14246815877E+02  0.15682654836E+02  0.51100000000E-03 0.  1.
        -12    1    3    3    0    0  0.10597229090E+02 -0.86227668651E+01  0.18153028879E+02  0.22719723376E+02  0.00000000000E+00 0.  1.
</event>
<event>
 7    1  0.1899036E-009  0.4778728E+02  0.7816164E-02  0.1312668E+00
        -11   -1    0    0    0    0  0.00000000000E+00  0.00000000000E+00  0.45593999997E+02  0.45594000000E+02  0.51100000000E-03 0. -1.
         11   -1    0    0    0    0 -0.00000000000E+00 -0.00000000000E+00 -0.45593999997E+02  0.45594000000E+02  0.51100000000E-03 0.  1.
    9900012    2    1    2    0    0 -0.26187471877E+02  0.20687180920E+02  0.27746703525E+02  0.47787277722E+02  0.20000030447E+02 0.  0.
        -12    1    1    2    0    0  0.26187471877E+02 -0.20687180920E+02 -0.27746703525E+02  0.43400722278E+02  0.00000000000E+00 0.  1.
         11    1    3    3    0    0 -0.41853728562E+01  0.24776859864E+01  0.69085986297E+01  0.84489649710E+01  0.51100000000E-03 0. -1.
        -11    1    3    3    0    0 -0.39523375689E+01 -0.28776427435E+01  0.47335865731E+00  0.49118091063E+01  0.51100000000E-03 0.  1.
        -12    1    3    3    0    0 -0.18049761452E+02  0.21087137677E+02  0.20364746238E+02  0.34426503645E+02  0.00000000000E+00 0.  1.
</event>
<event>
 7    1  0.1899036E-009  0.4778728E+02  0.7816164E-02  0.1312668E+00
        -11   -1    0    0    0    0  0.00000000000E+00  0.00000000000E+00  0.45593999997E+02  0.45594000000E+02  0.51100000000E-03 0.  1.
         11   -1    0    0    0    0 -0.00000000000E+00 -0.00000000000E+00 -0.45593999997E+02  0.45594000000E+02  0.51100000000E-03 0. -1.
    9900012    2    1    2    0    0 -0.60244946981E+01 -0.27362463814E+02 -0.33145491389E+02  0.47787279249E+02  0.20000037406E+02 0.  0.
        -12    1    1    2    0    0  0.60244946981E+01  0.27362463814E+02  0.33145491389E+02  0.43400720751E+02  0.00000000000E+00 0.  1.
         11    1    3    3    0    0  0.22107773464E+01 -0.43684750845E+01 -0.72198674274E+01  0.87233936613E+01  0.51100000000E-03 0. -1.
        -11    1    3    3    0    0 -0.30920618702E+00 -0.20568086402E+02 -0.15565347560E+02  0.25795771585E+02  0.51100000000E-03 0.  1.
        -12    1    3    3    0    0 -0.79260658574E+01 -0.24259023274E+01 -0.10360276401E+02  0.13268114003E+02  0.00000000000E+00 0.  1.
</event>
<event>
 7    1  0.1899036E-009  0.4778727E+02  0.7816164E-02  0.1312668E+00
        -11   -1    0    0    0    0  0.00000000000E+00  0.00000000000E+00  0.45593999997E+02  0.45594000000E+02  0.51100000000E-03 0. -1.
         11   -1    0    0    0    0 -0.00000000000E+00 -0.00000000000E+00 -0.45593999997E+02  0.45594000000E+02  0.51100000000E-03 0.  1.
    9900012    2    1    2    0    0  0.28944893971E+02 -0.15654012603E+02  0.28297853987E+02  0.47787268003E+02  0.19999986133E+02 0.  0.
        -12    1    1    2    0    0 -0.28944893971E+02  0.15654012603E+02 -0.28297853987E+02  0.43400731997E+02  0.00000000000E+00 0.  1.
         11    1    3    3    0    0  0.11416739639E+02 -0.93523310580E+01  0.18110343574E+02  0.23362204194E+02  0.51100000000E-03 0. -1.
        -11    1    3    3    0    0  0.91293734840E+01  0.28114105015E+01  0.62747634685E+01  0.11429004596E+02  0.51100000000E-03 0.  1.
         12    1    3    3    0    0  0.83987808488E+01 -0.91130920467E+01  0.39127469448E+01  0.12996059212E+02  0.00000000000E+00 0. -1.
</event>
<event>
 7    1  0.1899036E-009  0.4778727E+02  0.7816164E-02  0.1312668E+00
        -11   -1    0    0    0    0  0.00000000000E+00  0.00000000000E+00  0.45593999997E+02  0.45594000000E+02  0.51100000000E-03 0.  1.
         11   -1    0    0    0    0 -0.00000000000E+00 -0.00000000000E+00 -0.45593999997E+02  0.45594000000E+02  0.51100000000E-03 0. -1.
    9900012    2    1    2    0    0 -0.49896440082E+01  0.42821816998E+02 -0.50018509001E+01  0.47787273384E+02  0.20000010668E+02 0.  0.
        -12    1    1    2    0    0  0.49896440082E+01 -0.42821816998E+02  0.50018509001E+01  0.43400726616E+02  0.00000000000E+00 0.  1.
         11    1    3    3    0    0  0.24493395244E+01  0.33906559978E+02 -0.53738916948E+01  0.34417042085E+02  0.51100000000E-03 0. -1.
        -11    1    3    3    0    0 -0.65687758345E+01  0.95900187798E+01 -0.93455237834E+00  0.11661503530E+02  0.51100000000E-03 0.  1.
        -12    1    3    3    0    0 -0.87020769812E+00 -0.67476176013E+00  0.13065931730E+01  0.17087277696E+01  0.00000000000E+00 0.  1.
</event>
<event>
 7    1  0.1899036E-009  0.4778727E+02  0.7816164E-02  0.1312668E+00
        -11   -1    0    0    0    0  0.00000000000E+00  0.00000000000E+00  0.45593999997E+02  0.45594000000E+02  0.51100000000E-03 0.  1.
         11   -1    0    0    0    0 -0.00000000000E+00 -0.00000000000E+00 -0.45593999997E+02  0.45594000000E+02  0.51100000000E-03 0. -1.
    9900012    2    1    2    0    0  0.20624765464E+02  0.35139367302E+02  0.14948820872E+02  0.47787270394E+02  0.19999997037E+02 0.  0.
        -12    1    1    2    0    0 -0.20624765464E+02 -0.35139367302E+02 -0.14948820872E+02  0.43400729606E+02  0.00000000000E+00 0.  1.
         11    1    3    3    0    0 -0.57763445507E+00  0.16410557205E+02  0.55873794911E+01  0.17345283485E+02  0.51100000000E-03 0. -1.
        -11    1    3    3    0    0  0.11517419638E+02  0.12128774763E+02  0.83052418534E+01  0.18674452465E+02  0.51100000000E-03 0.  1.
        -12    1    3    3    0    0  0.96849802807E+01  0.66000353347E+01  0.10561995270E+01  0.11767534444E+02  0.00000000000E+00 0.  1.
</event>
<event>
 7    1  0.1899036E-009  0.4778728E+02  0.7816164E-02  0.1312668E+00
        -11   -1    0    0    0    0  0.00000000000E+00  0.00000000000E+00  0.45593999997E+02  0.45594000000E+02  0.51100000000E-03 0.  1.
         11   -1    0    0    0    0 -0.00000000000E+00 -0.00000000000E+00 -0.45593999997E+02  0.45594000000E+02  0.51100000000E-03 0. -1.
    9900012    2    1    2    0    0  0.37943959684E+01 -0.32045935023E+02  0.29022117110E+02  0.47787277957E+02  0.20000031519E+02 0.  0.
        -12    1    1    2    0    0 -0.37943959684E+01  0.32045935023E+02 -0.29022117110E+02  0.43400722043E+02  0.00000000000E+00 0.  1.
         11    1    3    3    0    0 -0.31503865803E+01 -0.32835675588E+01  0.34545091059E+01  0.57131764320E+01  0.51100000000E-03 0. -1.
        -11    1    3    3    0    0  0.11230627471E+02 -0.14098754208E+02  0.15549312563E+02  0.23805104181E+02  0.51100000000E-03 0.  1.
        -12    1    3    3    0    0 -0.42858449225E+01 -0.14663613256E+02  0.10018295441E+02  0.18268997345E+02  0.00000000000E+00 0.  1.
</event>
<event>
 7    1  0.1899036E-009  0.4778727E+02  0.7816164E-02  0.1312668E+00
        -11   -1    0    0    0    0  0.00000000000E+00  0.00000000000E+00  0.45593999997E+02  0.45594000000E+02  0.51100000000E-03 0.  1.
         11   -1    0    0    0    0 -0.00000000000E+00 -0.00000000000E+00 -0.45593999997E+02  0.45594000000E+02  0.51100000000E-03 0. -1.
    9900012    2    1    2    0    0  0.16379595052E+02 -0.35113453393E+02 -0.19554479659E+02  0.47787269385E+02  0.19999992432E+02 0.  0.
        -12    1    1    2    0    0 -0.16379595052E+02  0.35113453393E+02  0.19554479659E+02  0.43400730615E+02  0.00000000000E+00 0.  1.
         11    1    3    3    0    0  0.29433139376E+01 -0.16776989076E+02 -0.49643741755E+01  0.17741912823E+02  0.51100000000E-03 0. -1.
        -11    1    3    3    0    0 -0.14971109042E+01 -0.55474425540E+01 -0.32661228826E+00  0.57551833852E+01  0.51100000000E-03 0.  1.
         12    1    3    3    0    0  0.14933392019E+02 -0.12789021763E+02 -0.14263493195E+02  0.24290173177E+02  0.00000000000E+00 0. -1.
</event>
<event>
 7    1  0.1899036E-009  0.4778727E+02  0.7816164E-02  0.1312668E+00
        -11   -1    0    0    0    0  0.00000000000E+00  0.00000000000E+00  0.45593999997E+02  0.45594000000E+02  0.51100000000E-03 0.  1.
         11   -1    0    0    0    0 -0.00000000000E+00 -0.00000000000E+00 -0.45593999997E+02  0.45594000000E+02  0.51100000000E-03 0. -1.
    9900012    2    1    2    0    0  0.11549890377E+02  0.92231321979E+01 -0.40806336375E+02  0.47787271623E+02  0.20000002639E+02 0.  0.
        -12    1    1    2    0    0 -0.11549890377E+02 -0.92231321979E+01  0.40806336375E+02  0.43400728377E+02  0.00000000000E+00 0.  1.
         11    1    3    3    0    0 -0.47900686456E+00  0.85537125339E+01 -0.12132668515E+02  0.14852511277E+02  0.51100000000E-03 0. -1.
        -11    1    3    3    0    0  0.86362859366E+01  0.16003170107E+01 -0.77383613852E+01  0.11705925273E+02  0.51100000000E-03 0.  1.
        -12    1    3    3    0    0  0.33926113045E+01 -0.93089734679E+00 -0.20935306475E+02  0.21228835073E+02  0.00000000000E+00 0.  1.
</event>
<event>
 7    1  0.1899036E-009  0.4778727E+02  0.7816164E-02  0.1312668E+00
        -11   -1    0    0    0    0  0.00000000000E+00  0.00000000000E+00  0.45593999997E+02  0.45594000000E+02  0.51100000000E-03 0.  1.
         11   -1    0    0    0    0 -0.00000000000E+00 -0.00000000000E+00 -0.45593999997E+02  0.45594000000E+02  0.51100000000E-03 0. -1.
    9900012    2    1    2    0    0 -0.78440357711E+01 -0.35241931741E+02 -0.24085275681E+02  0.47787272418E+02  0.20000006261E+02 0.  0.
        -12    1    1    2    0    0  0.78440357711E+01  0.35241931741E+02  0.24085275681E+02  0.43400727582E+02  0.00000000000E+00 0.  1.
         11    1    3    3    0    0 -0.98318883384E+01 -0.21658370548E+02 -0.70733075043E+01  0.24814969724E+02  0.51100000000E-03 0. -1.
        -11    1    3    3    0    0  0.46800676338E+00  0.22365976013E+00 -0.36887200493E+01  0.37250113935E+01  0.51100000000E-03 0.  1.
         12    1    3    3    0    0  0.15198458039E+01 -0.13807220954E+02 -0.13323248127E+02  0.19247291300E+02  0.00000000000E+00 0. -1.
</event>
<event>
 7    1  0.1899036E-009  0.4778728E+02  0.7816164E-02  0.1312668E+00
        -11   -1    0    0    0    0  0.00000000000E+00  0.00000000000E+00  0.45593999997E+02  0.45594000000E+02  0.51100000000E-03 0. -1.
         11   -1    0    0    0    0 -0.00000000000E+00 -0.00000000000E+00 -0.45593999997E+02  0.45594000000E+02  0.51100000000E-03 0.  1.
    9900012    2    1    2    0    0 -0.36134855212E+01  0.41847278975E+02  0.10925670619E+02  0.47787282107E+02  0.20000050437E+02 0.  0.
        -12    1    1    2    0    0  0.36134855212E+01 -0.41847278975E+02 -0.10925670619E+02  0.43400717893E+02  0.00000000000E+00 0.  1.
         11    1    3    3    0    0 -0.18485628681E+01  0.37315612642E+02  0.17504696601E+01  0.37402356555E+02  0.51100000000E-03 0. -1.
        -11    1    3    3    0    0 -0.68899941561E+00  0.19090879297E+01  0.38580799616E+01  0.43593713044E+01  0.51100000000E-03 0.  1.
         12    1    3    3    0    0 -0.10759232376E+01  0.26225784025E+01  0.53171209973E+01  0.60255542476E+01  0.00000000000E+00 0. -1.
</event>
<event>
 7    1  0.1899036E-009  0.4778727E+02  0.7816164E-02  0.1312668E+00
        -11   -1    0    0    0    0  0.00000000000E+00  0.00000000000E+00  0.45593999997E+02  0.45594000000E+02  0.51100000000E-03 0.  1.
         11   -1    0    0    0    0 -0.00000000000E+00 -0.00000000000E+00 -0.45593999997E+02  0.45594000000E+02  0.51100000000E-03 0. -1.
    9900012    2    1    2    0    0 -0.36249718477E+02  0.19458798085E+02 -0.13817974479E+02  0.47787270383E+02  0.19999996985E+02 0.  0.
        -12    1    1    2    0    0  0.36249718477E+02 -0.19458798085E+02  0.13817974479E+02  0.43400729617E+02  0.00000000000E+00 0.  1.
         11    1    3    3    0    0 -0.98558817472E+01  0.82379486812E+01  0.26537373294E+01  0.13116574460E+02  0.51100000000E-03 0. -1.
        -11    1    3    3    0    0 -0.35082752642E+01  0.51976514354E+01 -0.63738143028E+01  0.89414252109E+01  0.51100000000E-03 0.  1.
        -12    1    3    3    0    0 -0.22885561466E+02  0.60231979684E+01 -0.10097897505E+02  0.25729270712E+02  0.00000000000E+00 0.  1.
</event>
<event>
 7    1  0.1899036E-009  0.4778727E+02  0.7816164E-02  0.1312668E+00
        -11   -1    0    0    0    0  0.00000000000E+00  0.00000000000E+00  0.45593999997E+02  0.45594000000E+02  0.51100000000E-03 0.  1.
         11   -1    0    0    0    0 -0.00000000000E+00 -0.00000000000E+00 -0.45593999997E+02  0.45594000000E+02  0.51100000000E-03 0. -1.
    9900012    2    1    2    0    0 -0.36172640566E+02 -0.71270482222E+01 -0.22899097271E+02  0.47787269618E+02  0.19999993494E+02 0.  0.
        -12    1    1    2    0    0  0.36172640566E+02  0.71270482222E+01  0.22899097271E+02  0.43400730382E+02  0.00000000000E+00 0.  1.
         11    1    3    3    0    0 -0.10601017897E+02 -0.15058493016E+01 -0.14466004392E+02  0.17997623340E+02  0.51100000000E-03 0. -1.
        -11    1    3    3    0    0 -0.71984135406E+01 -0.20228443598E+01  0.27672733297E+01  0.79728827125E+01  0.51100000000E-03 0.  1.
         12    1    3    3    0    0 -0.18373209128E+02 -0.35983545608E+01 -0.11200366209E+02  0.21816763565E+02  0.00000000000E+00 0. -1.
</event>
<event>
 7    1  0.1899036E-009  0.4778727E+02  0.7816164E-02  0.1312668E+00
        -11   -1    0    0    0    0  0.00000000000E+00  0.00000000000E+00  0.45593999997E+02  0.45594000000E+02  0.51100000000E-03 0.  1.
         11   -1    0    0    0    0 -0.00000000000E+00 -0.00000000000E+00 -0.45593999997E+02  0.45594000000E+02  0.51100000000E-03 0. -1.
    9900012    2    1    2    0    0 -0.14510108734E+02 -0.25595106583E+02 -0.31905649436E+02  0.47787271868E+02  0.20000003756E+02 0.  0.
        -12    1    1    2    0    0  0.14510108734E+02  0.25595106583E+02  0.31905649436E+02  0.43400728132E+02  0.00000000000E+00 0.  1.
         11    1    3    3    0    0 -0.13138266500E+02 -0.15279596862E+02 -0.17270755041E+02  0.26539764634E+02  0.51100000000E-03 0. -1.
        -11    1    3    3    0    0 -0.57473492548E+01 -0.33764863856E+01 -0.93731692137E+01  0.11501694881E+02  0.51100000000E-03 0.  1.
        -12    1    3    3    0    0  0.43755070210E+01 -0.69390233349E+01 -0.52617251815E+01  0.97458123530E+01  0.00000000000E+00 0.  1.
</event>
<event>
 7    1  0.1899036E-009  0.4778728E+02  0.7816164E-02  0.1312668E+00
        -11   -1    0    0    0    0  0.00000000000E+00  0.00000000000E+00  0.45593999997E+02  0.45594000000E+02  0.51100000000E-03 0. -1.
         11   -1    0    0    0    0 -0.00000000000E+00 -0.00000000000E+00 -0.45593999997E+02  0.45594000000E+02  0.51100000000E-03 0.  1.
    9900012    2    1    2    0    0  0.22159881673E+02 -0.33968455266E+02  0.15450123258E+02  0.47787278605E+02  0.20000034471E+02 0.  0.
        -12    1    1    2    0    0 -0.22159881673E+02  0.33968455266E+02 -0.15450123258E+02  0.43400721395E+02  0.00000000000E+00 0.  1.
         11    1    3    3    0    0  0.28669590403E+01 -0.18370834121E+01  0.65361217132E+01  0.73698858140E+01  0.51100000000E-03 0. -1.
        -11    1    3    3    0    0  0.16144906659E+02 -0.22961226633E+02  0.11577048710E+02  0.30362872009E+02  0.51100000000E-03 0.  1.
        -12    1    3    3    0    0  0.31480159731E+01 -0.91701452219E+01 -0.26630471654E+01  0.10054520782E+02  0.00000000000E+00 0.  1.
</event>
<event>
 7    1  0.2205298E-009  0.4778727E+02  0.7816164E-02  0.1312668E+00
        -11   -1    0    0    0    0  0.00000000000E+00  0.00000000000E+00  0.45593999997E+02  0.45594000000E+02  0.51100000000E-03 0.  1.
         11   -1    0    0    0    0 -0.00000000000E+00 -0.00000000000E+00 -0.45593999997E+02  0.45594000000E+02  0.51100000000E-03 0. -1.
    9900012    2    1    2    0    0  0.41762381560E+02 -0.35242524749E+01 -0.11274170145E+02  0.47787265196E+02  0.19999973333E+02 0.  0.
        -12    1    1    2    0    0 -0.41762381560E+02  0.35242524749E+01  0.11274170145E+02  0.43400734804E+02  0.00000000000E+00 0.  1.
         11    1    3    3    0    0  0.29730110328E+02 -0.99978421314E+00 -0.37245244048E+01  0.29979177956E+02  0.51100000000E-03 0. -1.
        -11    1    3    3    0    0  0.52214035021E+00 -0.46615672029E+00  0.23720495686E+01  0.24731664017E+01  0.51100000000E-03 0.  1.
        -12    1    3    3    0    0  0.11510130882E+02 -0.20583115415E+01 -0.99216953084E+01  0.15334920838E+02  0.00000000000E+00 0.  1.
</event>
<event>
 7    1  0.1899036E-009  0.4778727E+02  0.7816164E-02  0.1312668E+00
        -11   -1    0    0    0    0  0.00000000000E+00  0.00000000000E+00  0.45593999997E+02  0.45594000000E+02  0.51100000000E-03 0.  1.
         11   -1    0    0    0    0 -0.00000000000E+00 -0.00000000000E+00 -0.45593999997E+02  0.45594000000E+02  0.51100000000E-03 0. -1.
    9900012    2    1    2    0    0 -0.31544320023E+02  0.21257096196E+02 -0.20897739722E+02  0.47787265100E+02  0.19999972895E+02 0.  0.
        -12    1    1    2    0    0  0.31544320023E+02 -0.21257096196E+02  0.20897739722E+02  0.43400734900E+02  0.00000000000E+00 0.  1.
         11    1    3    3    0    0 -0.12978903623E+02  0.45136666360E+01 -0.11471834227E+02  0.17900505762E+02  0.51100000000E-03 0. -1.
        -11    1    3    3    0    0 -0.10556989360E+02  0.10546019101E+02 -0.12324645198E+02  0.19353692742E+02  0.51100000000E-03 0.  1.
         12    1    3    3    0    0 -0.80084270396E+01  0.61974104589E+01  0.28987397023E+01  0.10533066596E+02  0.00000000000E+00 0. -1.
</event>
<event>
 7    1  0.1899036E-009  0.4778727E+02  0.7816164E-02  0.1312668E+00
        -11   -1    0    0    0    0  0.00000000000E+00  0.00000000000E+00  0.45593999997E+02  0.45594000000E+02  0.51100000000E-03 0. -1.
         11   -1    0    0    0    0 -0.00000000000E+00 -0.00000000000E+00 -0.45593999997E+02  0.45594000000E+02  0.51100000000E-03 0.  1.
    9900012    2    1    2    0    0 -0.15813561743E+02  0.39139891942E+02  0.10080838045E+02  0.47787272219E+02  0.20000005354E+02 0.  0.
        -12    1    1    2    0    0  0.15813561743E+02 -0.39139891942E+02 -0.10080838045E+02  0.43400727781E+02  0.00000000000E+00 0.  1.
         11    1    3    3    0    0 -0.11210893913E+02  0.14693775434E+02  0.39009155054E+01  0.18889370579E+02  0.51100000000E-03 0. -1.
        -11    1    3    3    0    0 -0.15797455771E+01  0.10661563143E+02  0.95373892903E+01  0.14391883806E+02  0.51100000000E-03 0.  1.
         12    1    3    3    0    0 -0.30229222537E+01  0.13784553364E+02 -0.33574667503E+01  0.14506017834E+02  0.00000000000E+00 0. -1.
</event>
<event>
 7    1  0.1899036E-009  0.4778727E+02  0.7816164E-02  0.1312668E+00
        -11   -1    0    0    0    0  0.00000000000E+00  0.00000000000E+00  0.45593999997E+02  0.45594000000E+02  0.51100000000E-03 0.  1.
         11   -1    0    0    0    0 -0.00000000000E+00 -0.00000000000E+00 -0.45593999997E+02  0.45594000000E+02  0.51100000000E-03 0. -1.
    9900012    2    1    2    0    0 -0.11651630845E+02 -0.17227578409E+02 -0.38092962655E+02  0.47787265409E+02  0.19999974307E+02 0.  0.
        -12    1    1    2    0    0  0.11651630845E+02  0.17227578409E+02  0.38092962655E+02  0.43400734591E+02  0.00000000000E+00 0.  1.
         11    1    3    3    0    0  0.18545129135E+01 -0.21292846571E+01 -0.48649799356E+01  0.56250423405E+01  0.51100000000E-03 0.  1.
        -11    1    3    3    0    0 -0.31906840720E+01 -0.78924307623E+01 -0.26623115018E+02  0.27951049742E+02  0.51100000000E-03 0. -1.
         12    1    3    3    0    0 -0.10315459686E+02 -0.72058629894E+01 -0.66048677020E+01  0.14211173327E+02  0.00000000000E+00 0. -1.
</event>
<event>
 7    1  0.1899036E-009  0.4778727E+02  0.7816164E-02  0.1312668E+00
        -11   -1    0    0    0    0  0.00000000000E+00  0.00000000000E+00  0.45593999997E+02  0.45594000000E+02  0.51100000000E-03 0.  1.
         11   -1    0    0    0    0 -0.00000000000E+00 -0.00000000000E+00 -0.45593999997E+02  0.45594000000E+02  0.51100000000E-03 0. -1.
    9900012    2    1    2    0    0 -0.98539210718E+00  0.37067468234E+02 -0.22553386648E+02  0.47787269036E+02  0.19999990844E+02 0.  0.
        -12    1    1    2    0    0  0.98539210718E+00 -0.37067468234E+02  0.22553386648E+02  0.43400730964E+02  0.00000000000E+00 0.  1.
         11    1    3    3    0    0  0.35420057399E+01  0.20918742968E+01  0.55139235630E+00  0.41503947435E+01  0.51100000000E-03 0. -1.
        -11    1    3    3    0    0 -0.31073514753E+01  0.66354316376E+01 -0.47490801258E+00  0.73423514006E+01  0.51100000000E-03 0.  1.
         12    1    3    3    0    0 -0.14200463718E+01  0.28340162300E+02 -0.22629870992E+02  0.36294522892E+02  0.00000000000E+00 0. -1.
</event>
<event>
 7    1  0.1899036E-009  0.4778727E+02  0.7816164E-02  0.1312668E+00
        -11   -1    0    0    0    0  0.00000000000E+00  0.00000000000E+00  0.45593999997E+02  0.45594000000E+02  0.51100000000E-03 0.  1.
         11   -1    0    0    0    0 -0.00000000000E+00 -0.00000000000E+00 -0.45593999997E+02  0.45594000000E+02  0.51100000000E-03 0. -1.
    9900012    2    1    2    0    0  0.29877165222E+02  0.15339507166E+02 -0.27489592480E+02  0.47787272167E+02  0.20000005116E+02 0.  0.
        -12    1    1    2    0    0 -0.29877165222E+02 -0.15339507166E+02  0.27489592480E+02  0.43400727833E+02  0.00000000000E+00 0.  1.
         11    1    3    3    0    0  0.10017956375E+02  0.10737126773E+02 -0.97026639169E+01  0.17600767842E+02  0.51100000000E-03 0. -1.
        -11    1    3    3    0    0 -0.82595568910E+00  0.19256002723E+01  0.80587062278E+00  0.22448979778E+01  0.51100000000E-03 0.  1.
        -12    1    3    3    0    0  0.20685164536E+02  0.26767801201E+01 -0.18592799186E+02  0.27941606347E+02  0.00000000000E+00 0.  1.
</event>
<event>
 7    1  0.1899036E-009  0.4778727E+02  0.7816164E-02  0.1312668E+00
        -11   -1    0    0    0    0  0.00000000000E+00  0.00000000000E+00  0.45593999997E+02  0.45594000000E+02  0.51100000000E-03 0.  1.
         11   -1    0    0    0    0 -0.00000000000E+00 -0.00000000000E+00 -0.45593999997E+02  0.45594000000E+02  0.51100000000E-03 0. -1.
    9900012    2    1    2    0    0 -0.16225516414E+02  0.38927783581E+02 -0.10246148601E+02  0.47787270990E+02  0.19999999752E+02 0.  0.
        -12    1    1    2    0    0  0.16225516414E+02 -0.38927783581E+02  0.10246148601E+02  0.43400729010E+02  0.00000000000E+00 0.  1.
         11    1    3    3    0    0 -0.11023049133E+02  0.20187305321E+02 -0.35925803629E+01  0.23279637932E+02  0.51100000000E-03 0. -1.
        -11    1    3    3    0    0 -0.19492425655E+01  0.43144903338E+01  0.40677228254E+01  0.62418541048E+01  0.51100000000E-03 0.  1.
         12    1    3    3    0    0 -0.32532247162E+01  0.14425987926E+02 -0.10721291064E+02  0.18265778953E+02  0.00000000000E+00 0. -1.
</event>
<event>
 7    1  0.1899036E-009  0.4778728E+02  0.7816164E-02  0.1312668E+00
        -11   -1    0    0    0    0  0.00000000000E+00  0.00000000000E+00  0.45593999997E+02  0.45594000000E+02  0.51100000000E-03 0.  1.
         11   -1    0    0    0    0 -0.00000000000E+00 -0.00000000000E+00 -0.45593999997E+02  0.45594000000E+02  0.51100000000E-03 0. -1.
    9900012    2    1    2    0    0  0.42920835493E+02  0.59133821823E+01  0.25408869253E+01  0.47787282095E+02  0.20000050385E+02 0.  0.
        -12    1    1    2    0    0 -0.42920835493E+02 -0.59133821823E+01 -0.25408869253E+01  0.43400717905E+02  0.00000000000E+00 0.  1.
         11    1    3    3    0    0  0.48250455380E+01 -0.11553784100E+01 -0.39473158414E+01  0.63401314125E+01  0.51100000000E-03 0.  1.
        -11    1    3    3    0    0  0.20479055058E+02  0.10090504122E+02  0.14470261773E+01  0.22875835603E+02  0.51100000000E-03 0. -1.
         12    1    3    3    0    0  0.17616734897E+02 -0.30217435297E+01  0.50411765894E+01  0.18571315080E+02  0.00000000000E+00 0. -1.
</event>
<event>
 7    1  0.1899036E-009  0.4778726E+02  0.7816164E-02  0.1312668E+00
        -11   -1    0    0    0    0  0.00000000000E+00  0.00000000000E+00  0.45593999997E+02  0.45594000000E+02  0.51100000000E-03 0.  1.
         11   -1    0    0    0    0 -0.00000000000E+00 -0.00000000000E+00 -0.45593999997E+02  0.45594000000E+02  0.51100000000E-03 0. -1.
    9900012    2    1    2    0    0 -0.15895931987E+02  0.14815972834E+02 -0.37569007570E+02  0.47787262281E+02  0.19999960046E+02 0.  0.
        -12    1    1    2    0    0  0.15895931987E+02 -0.14815972834E+02  0.37569007570E+02  0.43400737719E+02  0.00000000000E+00 0.  1.
         11    1    3    3    0    0 -0.51064826459E+01  0.92717718735E+01 -0.12864808961E+02  0.16659688729E+02  0.51100000000E-03 0. -1.
        -11    1    3    3    0    0 -0.12572489305E+00 -0.21584071138E+01  0.89992395808E+00  0.23418777528E+01  0.51100000000E-03 0.  1.
        -12    1    3    3    0    0 -0.10663724448E+02  0.77026080743E+01 -0.25604122566E+02  0.28785695799E+02  0.00000000000E+00 0.  1.
</event>
<event>
 7    1  0.1899036E-009  0.4778727E+02  0.7816164E-02  0.1312668E+00
        -11   -1    0    0    0    0  0.00000000000E+00  0.00000000000E+00  0.45593999997E+02  0.45594000000E+02  0.51100000000E-03 0.  1.
         11   -1    0    0    0    0 -0.00000000000E+00 -0.00000000000E+00 -0.45593999997E+02  0.45594000000E+02  0.51100000000E-03 0. -1.
    9900012    2    1    2    0    0 -0.32832730831E+01  0.18395266378E+02 -0.39172152105E+02  0.47787271806E+02  0.20000003472E+02 0.  0.
        -12    1    1    2    0    0  0.32832730831E+01 -0.18395266378E+02  0.39172152105E+02  0.43400728194E+02  0.00000000000E+00 0.  1.
         11    1    3    3    0    0 -0.22083933258E+01  0.53792803880E+01 -0.25239471857E+02  0.25900667915E+02  0.51100000000E-03 0. -1.
        -11    1    3    3    0    0 -0.23830007661E+01  0.77152130444E+01 -0.14291598155E+02  0.16415023091E+02  0.51100000000E-03 0.  1.
        -12    1    3    3    0    0  0.13081210088E+01  0.53007729453E+01  0.35891790729E+00  0.54715808004E+01  0.00000000000E+00 0.  1.
</event>
<event>
 7    1  0.1899036E-009  0.4778727E+02  0.7816164E-02  0.1312668E+00
        -11   -1    0    0    0    0  0.00000000000E+00  0.00000000000E+00  0.45593999997E+02  0.45594000000E+02  0.51100000000E-03 0. -1.
         11   -1    0    0    0    0 -0.00000000000E+00 -0.00000000000E+00 -0.45593999997E+02  0.45594000000E+02  0.51100000000E-03 0.  1.
    9900012    2    1    2    0    0 -0.97716261330E+01 -0.16819300388E+02  0.38797550909E+02  0.47787268446E+02  0.19999988154E+02 0.  0.
        -12    1    1    2    0    0  0.97716261330E+01  0.16819300388E+02 -0.38797550909E+02  0.43400731554E+02  0.00000000000E+00 0.  1.
         11    1    3    3    0    0  0.17946054435E+01 -0.57772521004E+01  0.19237609220E+02  0.20166379430E+02  0.51100000000E-03 0. -1.
        -11    1    3    3    0    0 -0.13415568507E+01 -0.42470295709E+01 -0.85816464354E-01  0.44547053423E+01  0.51100000000E-03 0.  1.
         12    1    3    3    0    0 -0.10224674726E+02 -0.67950187171E+01  0.19645758153E+02  0.23166183674E+02  0.00000000000E+00 0. -1.
</event>
<event>
 7    1  0.1899036E-009  0.4778727E+02  0.7816164E-02  0.1312668E+00
        -11   -1    0    0    0    0  0.00000000000E+00  0.00000000000E+00  0.45593999997E+02  0.45594000000E+02  0.51100000000E-03 0.  1.
         11   -1    0    0    0    0 -0.00000000000E+00 -0.00000000000E+00 -0.45593999997E+02  0.45594000000E+02  0.51100000000E-03 0. -1.
    9900012    2    1    2    0    0 -0.75322690229E+01 -0.33992591135E+02 -0.25911238810E+02  0.47787266995E+02  0.19999981537E+02 0.  0.
        -12    1    1    2    0    0  0.75322690229E+01  0.33992591135E+02  0.25911238810E+02  0.43400733005E+02  0.00000000000E+00 0.  1.
         11    1    3    3    0    0  0.10870482639E+01 -0.48227545841E+01 -0.67897671526E+01  0.83989031399E+01  0.51100000000E-03 0. -1.
        -11    1    3    3    0    0 -0.11015527288E+02 -0.94492759534E+01 -0.69591742506E+01  0.16095364674E+02  0.51100000000E-03 0.  1.
        -12    1    3    3    0    0  0.23962100011E+01 -0.19720560598E+02 -0.12162297407E+02  0.23292999181E+02  0.00000000000E+00 0.  1.
</event>
<event>
 7    1  0.1899036E-009  0.4778727E+02  0.7816164E-02  0.1312668E+00
        -11   -1    0    0    0    0  0.00000000000E+00  0.00000000000E+00  0.45593999997E+02  0.45594000000E+02  0.51100000000E-03 0.  1.
         11   -1    0    0    0    0 -0.00000000000E+00 -0.00000000000E+00 -0.45593999997E+02  0.45594000000E+02  0.51100000000E-03 0. -1.
    9900012    2    1    2    0    0 -0.17758442007E+02 -0.32598318006E+02 -0.22485793507E+02  0.47787268336E+02  0.19999987650E+02 0.  0.
        -12    1    1    2    0    0  0.17758442007E+02  0.32598318006E+02  0.22485793507E+02  0.43400731664E+02  0.00000000000E+00 0.  1.
         11    1    3    3    0    0 -0.87308248341E+01 -0.82019690178E+01 -0.70826794478E+01  0.13916319430E+02  0.51100000000E-03 0. -1.
        -11    1    3    3    0    0 -0.51708435386E+01 -0.11934954036E+02 -0.16231542730E+02  0.20800089673E+02  0.51100000000E-03 0.  1.
        -12    1    3    3    0    0 -0.38567736345E+01 -0.12461394952E+02  0.82842867091E+00  0.13070859233E+02  0.00000000000E+00 0.  1.
</event>
<event>
 7    1  0.1899036E-009  0.4778726E+02  0.7816164E-02  0.1312668E+00
        -11   -1    0    0    0    0  0.00000000000E+00  0.00000000000E+00  0.45593999997E+02  0.45594000000E+02  0.51100000000E-03 0.  1.
         11   -1    0    0    0    0 -0.00000000000E+00 -0.00000000000E+00 -0.45593999997E+02  0.45594000000E+02  0.51100000000E-03 0. -1.
    9900012    2    1    2    0    0  0.12340448009E+02  0.56899035338E+01 -0.41218470242E+02  0.47787263274E+02  0.19999964572E+02 0.  0.
        -12    1    1    2    0    0 -0.12340448009E+02 -0.56899035338E+01  0.41218470242E+02  0.43400736726E+02  0.00000000000E+00 0.  1.
         11    1    3    3    0    0  0.51874283260E+01  0.40854232965E+01 -0.14324348876E+02  0.15772985359E+02  0.51100000000E-03 0. -1.
        -11    1    3    3    0    0  0.34444421262E+01 -0.26781070100E+01  0.16724646180E+00  0.43662810672E+01  0.51100000000E-03 0.  1.
        -12    1    3    3    0    0  0.37085775566E+01  0.42825872472E+01 -0.27061367828E+02  0.27647996848E+02  0.00000000000E+00 0.  1.
</event>
<event>
 7    1  0.1899036E-009  0.4778727E+02  0.7816164E-02  0.1312668E+00
        -11   -1    0    0    0    0  0.00000000000E+00  0.00000000000E+00  0.45593999997E+02  0.45594000000E+02  0.51100000000E-03 0.  1.
         11   -1    0    0    0    0 -0.00000000000E+00 -0.00000000000E+00 -0.45593999997E+02  0.45594000000E+02  0.51100000000E-03 0. -1.
    9900012    2    1    2    0    0  0.40298774003E+02  0.12322371377E+02 -0.10382265396E+02  0.47787268932E+02  0.19999990367E+02 0.  0.
        -12    1    1    2    0    0 -0.40298774003E+02 -0.12322371377E+02  0.10382265396E+02  0.43400731068E+02  0.00000000000E+00 0.  1.
         11    1    3    3    0    0  0.14704580106E+02  0.82075329228E+01 -0.76182911141E+01  0.18483144552E+02  0.51100000000E-03 0. -1.
        -11    1    3    3    0    0  0.12988380460E+02  0.29968364531E+01 -0.80692636331E+01  0.15581786532E+02  0.51100000000E-03 0.  1.
         12    1    3    3    0    0  0.12605813437E+02  0.11180020008E+01  0.53052893517E+01  0.13722337847E+02  0.00000000000E+00 0. -1.
</event>
<event>
 7    1  0.2437700E-009  0.4778728E+02  0.7816164E-02  0.1312668E+00
        -11   -1    0    0    0    0  0.00000000000E+00  0.00000000000E+00  0.45593999997E+02  0.45594000000E+02  0.51100000000E-03 0.  1.
         11   -1    0    0    0    0 -0.00000000000E+00 -0.00000000000E+00 -0.45593999997E+02  0.45594000000E+02  0.51100000000E-03 0. -1.
    9900012    2    1    2    0    0 -0.40614479719E+02  0.36971241347E+01 -0.14846481347E+02  0.47787277678E+02  0.20000030245E+02 0.  0.
        -12    1    1    2    0    0  0.40614479719E+02 -0.36971241347E+01  0.14846481347E+02  0.43400722322E+02  0.00000000000E+00 0.  1.
         11    1    3    3    0    0 -0.26227853983E+02  0.12024857123E+01 -0.11107965020E+02  0.28508475645E+02  0.51100000000E-03 0. -1.
        -11    1    3    3    0    0 -0.24094511666E+01 -0.21209436059E+01 -0.54544273767E+01  0.63288731203E+01  0.51100000000E-03 0.  1.
        -12    1    3    3    0    0 -0.11977174569E+02  0.46155820284E+01  0.17159110501E+01  0.12949928913E+02  0.00000000000E+00 0.  1.
</event>
<event>
 7    1  0.1899036E-009  0.4778727E+02  0.7816164E-02  0.1312668E+00
        -11   -1    0    0    0    0  0.00000000000E+00  0.00000000000E+00  0.45593999997E+02  0.45594000000E+02  0.51100000000E-03 0.  1.
         11   -1    0    0    0    0 -0.00000000000E+00 -0.00000000000E+00 -0.45593999997E+02  0.45594000000E+02  0.51100000000E-03 0. -1.
    9900012    2    1    2    0    0  0.36092611921E+01 -0.50526198137E+01 -0.42954250506E+02  0.47787269939E+02  0.19999994959E+02 0.  0.
        -12    1    1    2    0    0 -0.36092611921E+01  0.50526198137E+01  0.42954250506E+02  0.43400730061E+02  0.00000000000E+00 0.  1.
         11    1    3    3    0    0  0.95232679842E+01  0.17626065580E+01 -0.13998543563E+02  0.17022298233E+02  0.51100000000E-03 0.  1.
        -11    1    3    3    0    0 -0.28640104701E+01 -0.10300715857E+01 -0.15598512570E+02  0.15892677499E+02  0.51100000000E-03 0. -1.
         12    1    3    3    0    0 -0.30499963221E+01 -0.57851547859E+01 -0.13357194373E+02  0.14872294207E+02  0.00000000000E+00 0. -1.
</event>
<event>
 7    1  0.1899036E-009  0.4778727E+02  0.7816164E-02  0.1312668E+00
        -11   -1    0    0    0    0  0.00000000000E+00  0.00000000000E+00  0.45593999997E+02  0.45594000000E+02  0.51100000000E-03 0.  1.
         11   -1    0    0    0    0 -0.00000000000E+00 -0.00000000000E+00 -0.45593999997E+02  0.45594000000E+02  0.51100000000E-03 0. -1.
    9900012    2    1    2    0    0  0.25488529091E+02  0.20822366413E+02 -0.28291117696E+02  0.47787269606E+02  0.19999993441E+02 0.  0.
        -12    1    1    2    0    0 -0.25488529091E+02 -0.20822366413E+02  0.28291117696E+02  0.43400730394E+02  0.00000000000E+00 0.  1.
         11    1    3    3    0    0  0.56660868205E+01  0.75202381660E+00 -0.91862334226E+01  0.10819286688E+02  0.51100000000E-03 0.  1.
        -11    1    3    3    0    0  0.18694791749E+02  0.15066387557E+02 -0.90108395072E+01  0.25645399226E+02  0.51100000000E-03 0. -1.
         12    1    3    3    0    0  0.11276505214E+01  0.50039550399E+01 -0.10094044766E+02  0.11322583693E+02  0.00000000000E+00 0. -1.
</event>
<event>
 7    1  0.1899036E-009  0.4778727E+02  0.7816164E-02  0.1312668E+00
        -11   -1    0    0    0    0  0.00000000000E+00  0.00000000000E+00  0.45593999997E+02  0.45594000000E+02  0.51100000000E-03 0. -1.
         11   -1    0    0    0    0 -0.00000000000E+00 -0.00000000000E+00 -0.45593999997E+02  0.45594000000E+02  0.51100000000E-03 0.  1.
    9900012    2    1    2    0    0 -0.10722511595E+02 -0.14059538406E+02  0.39635595841E+02  0.47787270366E+02  0.19999996906E+02 0.  0.
        -12    1    1    2    0    0  0.10722511595E+02  0.14059538406E+02 -0.39635595841E+02  0.43400729634E+02  0.00000000000E+00 0.  1.
         11    1    3    3    0    0 -0.64001163445E+01 -0.11203490792E+01  0.29032774225E+02  0.29750943695E+02  0.51100000000E-03 0. -1.
        -11    1    3    3    0    0 -0.20299355169E+01 -0.27461067879E+01  0.40877080270E+00  0.34393072738E+01  0.51100000000E-03 0.  1.
         12    1    3    3    0    0 -0.22924597336E+01 -0.10193082539E+02  0.10194050813E+02  0.14597019397E+02  0.00000000000E+00 0. -1.
</event>
<event>
 7    1  0.1899036E-009  0.4778727E+02  0.7816164E-02  0.1312668E+00
        -11   -1    0    0    0    0  0.00000000000E+00  0.00000000000E+00  0.45593999997E+02  0.45594000000E+02  0.51100000000E-03 0.  1.
         11   -1    0    0    0    0 -0.00000000000E+00 -0.00000000000E+00 -0.45593999997E+02  0.45594000000E+02  0.51100000000E-03 0. -1.
    9900012    2    1    2    0    0 -0.38772172606E+02 -0.11170812405E+02 -0.15986085837E+02  0.47787270067E+02  0.19999995542E+02 0.  0.
        -12    1    1    2    0    0  0.38772172606E+02  0.11170812405E+02  0.15986085837E+02  0.43400729933E+02  0.00000000000E+00 0.  1.
         11    1    3    3    0    0 -0.29965186810E+02 -0.13911212596E+02 -0.10478423703E+02  0.34658788496E+02  0.51100000000E-03 0. -1.
        -11    1    3    3    0    0 -0.90377625422E+01  0.25175993115E+01 -0.19828665749E+01  0.95891197812E+01  0.51100000000E-03 0.  1.
        -12    1    3    3    0    0  0.23077674693E+00  0.22280087917E+00 -0.35247955597E+01  0.35393617894E+01  0.00000000000E+00 0.  1.
</event>
<event>
 7    1  0.1899036E-009  0.4778728E+02  0.7816164E-02  0.1312668E+00
        -11   -1    0    0    0    0  0.00000000000E+00  0.00000000000E+00  0.45593999997E+02  0.45594000000E+02  0.51100000000E-03 0.  1.
         11   -1    0    0    0    0 -0.00000000000E+00 -0.00000000000E+00 -0.45593999997E+02  0.45594000000E+02  0.51100000000E-03 0. -1.
    9900012    2    1    2    0    0 -0.56069262505E+01 -0.80309387975E+01 -0.42281067337E+02  0.47787282782E+02  0.20000053514E+02 0.  0.
        -12    1    1    2    0    0  0.56069262505E+01  0.80309387975E+01  0.42281067337E+02  0.43400717218E+02  0.00000000000E+00 0.  1.
         11    1    3    3    0    0  0.36389574108E+01 -0.16350856125E+01 -0.88109509936E+01  0.96720408225E+01  0.51100000000E-03 0. -1.
        -11    1    3    3    0    0  0.15708172548E+01 -0.17827338301E+01  0.26363568307E+00  0.23906297897E+01  0.51100000000E-03 0.  1.
         12    1    3    3    0    0 -0.10816700916E+02 -0.46131193550E+01 -0.33733752026E+02  0.35724612169E+02  0.00000000000E+00 0. -1.
</event>
<event>
 7    1  0.1899036E-009  0.4778725E+02  0.7816164E-02  0.1312668E+00
        -11   -1    0    0    0    0  0.00000000000E+00  0.00000000000E+00  0.45593999997E+02  0.45594000000E+02  0.51100000000E-03 0. -1.
         11   -1    0    0    0    0 -0.00000000000E+00 -0.00000000000E+00 -0.45593999997E+02  0.45594000000E+02  0.51100000000E-03 0.  1.
    9900012    2    1    2    0    0  0.27421418957E+02 -0.51733540339E+01  0.33240447048E+02  0.47787249666E+02  0.19999902527E+02 0.  0.
        -12    1    1    2    0    0 -0.27421418957E+02  0.51733540339E+01 -0.33240447048E+02  0.43400750334E+02  0.00000000000E+00 0.  1.
         11    1    3    3    0    0  0.10679584312E+02 -0.10886391323E+02  0.10313126715E+02  0.18409986964E+02  0.51100000000E-03 0. -1.
        -11    1    3    3    0    0  0.33741008018E+00 -0.95895184909E-03 -0.24483434270E+00  0.41688199563E+00  0.51100000000E-03 0.  1.
         12    1    3    3    0    0  0.16404424565E+02  0.57139962405E+01  0.23172154676E+02  0.28960380706E+02  0.00000000000E+00 0. -1.
</event>
<event>
 7    1  0.1899036E-009  0.4778727E+02  0.7816164E-02  0.1312668E+00
        -11   -1    0    0    0    0  0.00000000000E+00  0.00000000000E+00  0.45593999997E+02  0.45594000000E+02  0.51100000000E-03 0.  1.
         11   -1    0    0    0    0 -0.00000000000E+00 -0.00000000000E+00 -0.45593999997E+02  0.45594000000E+02  0.51100000000E-03 0. -1.
    9900012    2    1    2    0    0  0.16615491820E+02 -0.39275015642E+02 -0.80636130363E+01  0.47787271005E+02  0.19999999819E+02 0.  0.
        -12    1    1    2    0    0 -0.16615491820E+02  0.39275015642E+02  0.80636130363E+01  0.43400728995E+02  0.00000000000E+00 0.  1.
         11    1    3    3    0    0  0.16394129364E+02 -0.21575548882E+02 -0.62913627579E+01  0.27818214047E+02  0.51100000000E-03 0. -1.
        -11    1    3    3    0    0 -0.12403777241E+00 -0.41973261333E+01 -0.45374502013E+01  0.61823447517E+01  0.51100000000E-03 0.  1.
        -12    1    3    3    0    0  0.34540022813E+00 -0.13502140627E+02  0.27651999229E+01  0.13786712206E+02  0.00000000000E+00 0.  1.
</event>
<event>
 7    1  0.1899036E-009  0.4778727E+02  0.7816164E-02  0.1312668E+00
        -11   -1    0    0    0    0  0.00000000000E+00  0.00000000000E+00  0.45593999997E+02  0.45594000000E+02  0.51100000000E-03 0.  1.
         11   -1    0    0    0    0 -0.00000000000E+00 -0.00000000000E+00 -0.45593999997E+02  0.45594000000E+02  0.51100000000E-03 0. -1.
    9900012    2    1    2    0    0 -0.40505746733E+02 -0.10126133724E+02 -0.11847741020E+02  0.47787273395E+02  0.20000010717E+02 0.  0.
        -12    1    1    2    0    0  0.40505746733E+02  0.10126133724E+02  0.11847741020E+02  0.43400726605E+02  0.00000000000E+00 0.  1.
         11    1    3    3    0    0 -0.34968509729E+01  0.30453057758E+01 -0.24707186536E+01  0.52541702410E+01  0.51100000000E-03 0. -1.
        -11    1    3    3    0    0 -0.24593841434E+02 -0.56079366793E+01  0.15870244691E-01  0.25225111346E+02  0.51100000000E-03 0.  1.
        -12    1    3    3    0    0 -0.12415054326E+02 -0.75635028208E+01 -0.93928926107E+01  0.17307991808E+02  0.00000000000E+00 0.  1.
</event>
<event>
 7    1  0.1899036E-009  0.4778727E+02  0.7816164E-02  0.1312668E+00
        -11   -1    0    0    0    0  0.00000000000E+00  0.00000000000E+00  0.45593999997E+02  0.45594000000E+02  0.51100000000E-03 0.  1.
         11   -1    0    0    0    0 -0.00000000000E+00 -0.00000000000E+00 -0.45593999997E+02  0.45594000000E+02  0.51100000000E-03 0. -1.
    9900012    2    1    2    0    0 -0.49989763211E+01  0.43108174379E+02  0.56484900186E+00  0.47787268244E+02  0.19999987234E+02 0.  0.
        -12    1    1    2    0    0  0.49989763211E+01 -0.43108174379E+02 -0.56484900186E+00  0.43400731756E+02  0.00000000000E+00 0.  1.
         11    1    3    3    0    0 -0.59616187041E+01  0.21801551710E+02  0.58174275159E+01  0.23338616448E+02  0.51100000000E-03 0. -1.
        -11    1    3    3    0    0  0.12135759926E+01 -0.31433835490E+00 -0.23082268427E+01  0.26266874024E+01  0.51100000000E-03 0.  1.
        -12    1    3    3    0    0 -0.25093360961E+00  0.21620961024E+02 -0.29443516713E+01  0.21821964394E+02  0.00000000000E+00 0.  1.
</event>
<event>
 7    1  0.1899036E-009  0.4778727E+02  0.7816164E-02  0.1312668E+00
        -11   -1    0    0    0    0  0.00000000000E+00  0.00000000000E+00  0.45593999997E+02  0.45594000000E+02  0.51100000000E-03 0.  1.
         11   -1    0    0    0    0 -0.00000000000E+00 -0.00000000000E+00 -0.45593999997E+02  0.45594000000E+02  0.51100000000E-03 0. -1.
    9900012    2    1    2    0    0  0.27197121596E+02  0.31395610544E+02 -0.12579963242E+02  0.47787271208E+02  0.20000000746E+02 0.  0.
        -12    1    1    2    0    0 -0.27197121596E+02 -0.31395610544E+02  0.12579963242E+02  0.43400728792E+02  0.00000000000E+00 0.  1.
         11    1    3    3    0    0  0.11671571485E+02  0.12437519678E+02 -0.15256276476E+01  0.17124398286E+02  0.51100000000E-03 0. -1.
        -11    1    3    3    0    0  0.12676804550E+02  0.17003656267E+02 -0.23999837075E+01  0.21344451787E+02  0.51100000000E-03 0.  1.
        -12    1    3    3    0    0  0.28487455610E+01  0.19544345991E+01 -0.86543518867E+01  0.93184211351E+01  0.00000000000E+00 0.  1.
</event>
<event>
 7    1  0.1899036E-009  0.4778727E+02  0.7816164E-02  0.1312668E+00
        -11   -1    0    0    0    0  0.00000000000E+00  0.00000000000E+00  0.45593999997E+02  0.45594000000E+02  0.51100000000E-03 0.  1.
         11   -1    0    0    0    0 -0.00000000000E+00 -0.00000000000E+00 -0.45593999997E+02  0.45594000000E+02  0.51100000000E-03 0. -1.
    9900012    2    1    2    0    0 -0.23240124818E+02  0.13243785860E+02 -0.34177799444E+02  0.47787271431E+02  0.20000001761E+02 0.  0.
        -12    1    1    2    0    0  0.23240124818E+02 -0.13243785860E+02  0.34177799444E+02  0.43400728569E+02  0.00000000000E+00 0.  1.
         11    1    3    3    0    0 -0.14020079082E+02  0.13806304617E+02 -0.18338979681E+02  0.26897859406E+02  0.51100000000E-03 0. -1.
        -11    1    3    3    0    0 -0.65704144007E+01 -0.18934361434E+01 -0.25884396244E+01  0.73113244885E+01  0.51100000000E-03 0.  1.
        -12    1    3    3    0    0 -0.26496313362E+01  0.13309173869E+01 -0.13250380139E+02  0.13578087536E+02  0.00000000000E+00 0.  1.
</event>
<event>
 7    1  0.1899036E-009  0.4778727E+02  0.7816164E-02  0.1312668E+00
        -11   -1    0    0    0    0  0.00000000000E+00  0.00000000000E+00  0.45593999997E+02  0.45594000000E+02  0.51100000000E-03 0. -1.
         11   -1    0    0    0    0 -0.00000000000E+00 -0.00000000000E+00 -0.45593999997E+02  0.45594000000E+02  0.51100000000E-03 0.  1.
    9900012    2    1    2    0    0  0.92726736777E+01 -0.23133187061E+02  0.35531627228E+02  0.47787270120E+02  0.19999995783E+02 0.  0.
        -12    1    1    2    0    0 -0.92726736777E+01  0.23133187061E+02 -0.35531627228E+02  0.43400729880E+02  0.00000000000E+00 0.  1.
         11    1    3    3    0    0  0.72827706550E+01 -0.36965507482E+01  0.83402499786E+01  0.11673174625E+02  0.51100000000E-03 0.  1.
        -11    1    3    3    0    0 -0.15701724900E+01 -0.11166913726E+02  0.24077380573E+02  0.26587321402E+02  0.51100000000E-03 0. -1.
         12    1    3    3    0    0  0.35600755126E+01 -0.82697225869E+01  0.31139966754E+01  0.95267740928E+01  0.00000000000E+00 0. -1.
</event>
<event>
 7    1  0.1899036E-009  0.4778727E+02  0.7816164E-02  0.1312668E+00
        -11   -1    0    0    0    0  0.00000000000E+00  0.00000000000E+00  0.45593999997E+02  0.45594000000E+02  0.51100000000E-03 0. -1.
         11   -1    0    0    0    0 -0.00000000000E+00 -0.00000000000E+00 -0.45593999997E+02  0.45594000000E+02  0.51100000000E-03 0.  1.
    9900012    2    1    2    0    0 -0.16708322765E+02  0.14471574405E+02  0.37350083438E+02  0.47787271340E+02  0.20000001349E+02 0.  0.
        -12    1    1    2    0    0  0.16708322765E+02 -0.14471574405E+02 -0.37350083438E+02  0.43400728660E+02  0.00000000000E+00 0.  1.
         11    1    3    3    0    0 -0.71206977152E+01  0.23742092072E+01  0.12776896555E+02  0.14818579255E+02  0.51100000000E-03 0. -1.
        -11    1    3    3    0    0 -0.14031810701E+01  0.26684099950E+00 -0.21723147963E+01  0.25998217381E+01  0.51100000000E-03 0.  1.
        -12    1    3    3    0    0 -0.81844439794E+01  0.11830524198E+02  0.26745501680E+02  0.30368870347E+02  0.00000000000E+00 0.  1.
</event>
<event>
 7    1  0.1899036E-009  0.4778727E+02  0.7816164E-02  0.1312668E+00
        -11   -1    0    0    0    0  0.00000000000E+00  0.00000000000E+00  0.45593999997E+02  0.45594000000E+02  0.51100000000E-03 0.  1.
         11   -1    0    0    0    0 -0.00000000000E+00 -0.00000000000E+00 -0.45593999997E+02  0.45594000000E+02  0.51100000000E-03 0. -1.
    9900012    2    1    2    0    0 -0.30243932963E+02  0.29420945138E+02 -0.10165442821E+02  0.47787265886E+02  0.19999976480E+02 0.  0.
        -12    1    1    2    0    0  0.30243932963E+02 -0.29420945138E+02  0.10165442821E+02  0.43400734114E+02  0.00000000000E+00 0.  1.
         11    1    3    3    0    0 -0.28540830842E+01  0.72300072090E+01 -0.77132512219E+01  0.10950481230E+02  0.51100000000E-03 0. -1.
        -11    1    3    3    0    0 -0.74408866604E+01  0.12090588624E+02  0.90666944628E+00  0.14225722383E+02  0.51100000000E-03 0.  1.
         12    1    3    3    0    0 -0.19948963219E+02  0.10100349305E+02 -0.33588610452E+01  0.22611062273E+02  0.00000000000E+00 0. -1.
</event>
<event>
 7    1  0.1899036E-009  0.4778728E+02  0.7816164E-02  0.1312668E+00
        -11   -1    0    0    0    0  0.00000000000E+00  0.00000000000E+00  0.45593999997E+02  0.45594000000E+02  0.51100000000E-03 0.  1.
         11   -1    0    0    0    0 -0.00000000000E+00 -0.00000000000E+00 -0.45593999997E+02  0.45594000000E+02  0.51100000000E-03 0. -1.
    9900012    2    1    2    0    0  0.14707006375E+01 -0.43369704064E+02  0.72698742308E+00  0.47787277636E+02  0.20000030055E+02 0.  0.
        -12    1    1    2    0    0 -0.14707006375E+01  0.43369704064E+02 -0.72698742308E+00  0.43400722364E+02  0.00000000000E+00 0.  1.
         11    1    3    3    0    0  0.47377529412E+01 -0.17325462945E+02 -0.79399839789E+01  0.19638261508E+02  0.51100000000E-03 0. -1.
        -11    1    3    3    0    0  0.11217451316E+01 -0.76507230358E+01  0.38364037475E+01  0.86319099326E+01  0.51100000000E-03 0.  1.
         12    1    3    3    0    0 -0.43887974353E+01 -0.18393518083E+02  0.48305676545E+01  0.19517106196E+02  0.00000000000E+00 0. -1.
</event>
<event>
 7    1  0.1899036E-009  0.4778727E+02  0.7816164E-02  0.1312668E+00
        -11   -1    0    0    0    0  0.00000000000E+00  0.00000000000E+00  0.45593999997E+02  0.45594000000E+02  0.51100000000E-03 0. -1.
         11   -1    0    0    0    0 -0.00000000000E+00 -0.00000000000E+00 -0.45593999997E+02  0.45594000000E+02  0.51100000000E-03 0.  1.
    9900012    2    1    2    0    0  0.27470936458E+02  0.18635635308E+02 -0.27958608379E+02  0.47787273788E+02  0.20000012508E+02 0.  0.
        -12    1    1    2    0    0 -0.27470936458E+02 -0.18635635308E+02  0.27958608379E+02  0.43400726212E+02  0.00000000000E+00 0.  1.
         11    1    3    3    0    0  0.10596567977E+02  0.68015819449E+01 -0.69724336335E+01  0.14393178971E+02  0.51100000000E-03 0. -1.
        -11    1    3    3    0    0 -0.17287642852E+01 -0.71580786541E+00  0.87484545401E+00  0.20655172920E+01  0.51100000000E-03 0.  1.
        -12    1    3    3    0    0  0.18603132767E+02  0.12549861229E+02 -0.21861020200E+02  0.31328577525E+02  0.00000000000E+00 0.  1.
</event>
<event>
 7    1  0.1899036E-009  0.4778726E+02  0.7816164E-02  0.1312668E+00
        -11   -1    0    0    0    0  0.00000000000E+00  0.00000000000E+00  0.45593999997E+02  0.45594000000E+02  0.51100000000E-03 0.  1.
         11   -1    0    0    0    0 -0.00000000000E+00 -0.00000000000E+00 -0.45593999997E+02  0.45594000000E+02  0.51100000000E-03 0. -1.
    9900012    2    1    2    0    0 -0.24252973172E+02  0.34739286463E+02  0.94127289360E+01  0.47787260402E+02  0.19999951476E+02 0.  0.
        -12    1    1    2    0    0  0.24252973172E+02 -0.34739286463E+02 -0.94127289360E+01  0.43400739598E+02  0.00000000000E+00 0.  1.
         11    1    3    3    0    0 -0.27574991082E+01  0.15155494246E+00 -0.46795675905E+00  0.28010273154E+01  0.51100000000E-03 0. -1.
        -11    1    3    3    0    0 -0.49716821000E+01  0.66462722124E+01 -0.45456634884E+01  0.94632771298E+01  0.51100000000E-03 0.  1.
         12    1    3    3    0    0 -0.16523791964E+02  0.27941459308E+02  0.14426349183E+02  0.35522955957E+02  0.00000000000E+00 0. -1.
</event>
<event>
 7    1  0.1899036E-009  0.4778728E+02  0.7816164E-02  0.1312668E+00
        -11   -1    0    0    0    0  0.00000000000E+00  0.00000000000E+00  0.45593999997E+02  0.45594000000E+02  0.51100000000E-03 0.  1.
         11   -1    0    0    0    0 -0.00000000000E+00 -0.00000000000E+00 -0.45593999997E+02  0.45594000000E+02  0.51100000000E-03 0. -1.
    9900012    2    1    2    0    0 -0.41973307444E+02 -0.10885167744E+02  0.18376301560E+01  0.47787282273E+02  0.20000051198E+02 0.  0.
        -12    1    1    2    0    0  0.41973307444E+02  0.10885167744E+02 -0.18376301560E+01  0.43400717727E+02  0.00000000000E+00 0.  1.
         11    1    3    3    0    0 -0.93052709759E+01  0.18270128409E+01 -0.80054684756E-01  0.94832722659E+01  0.51100000000E-03 0. -1.
        -11    1    3    3    0    0 -0.77830307200E+01  0.27822186499E+01 -0.25527558574E+01  0.86505994320E+01  0.51100000000E-03 0.  1.
        -12    1    3    3    0    0 -0.24885005748E+02 -0.15494399235E+02  0.44704406982E+01  0.29653410576E+02  0.00000000000E+00 0.  1.
</event>
<event>
 7    1  0.2024094E-009  0.4778727E+02  0.7816164E-02  0.1312668E+00
        -11   -1    0    0    0    0  0.00000000000E+00  0.00000000000E+00  0.45593999997E+02  0.45594000000E+02  0.51100000000E-03 0.  1.
         11   -1    0    0    0    0 -0.00000000000E+00 -0.00000000000E+00 -0.45593999997E+02  0.45594000000E+02  0.51100000000E-03 0. -1.
    9900012    2    1    2    0    0  0.13972826182E+02 -0.38920527035E+02 -0.13174820105E+02  0.47787272114E+02  0.20000004877E+02 0.  0.
        -12    1    1    2    0    0 -0.13972826182E+02  0.38920527035E+02  0.13174820105E+02  0.43400727886E+02  0.00000000000E+00 0.  1.
         11    1    3    3    0    0  0.59213201775E+01 -0.15858412055E+02 -0.96072545637E+01  0.19464085030E+02  0.51100000000E-03 0. -1.
        -11    1    3    3    0    0  0.38885627217E+01 -0.39263005877E+01 -0.64889356501E+01  0.85230887874E+01  0.51100000000E-03 0.  1.
        -12    1    3    3    0    0  0.41629432827E+01 -0.19135814393E+02  0.29213701083E+01  0.19800098297E+02  0.00000000000E+00 0.  1.
</event>
<event>
 7    1  0.1899036E-009  0.4778727E+02  0.7816164E-02  0.1312668E+00
        -11   -1    0    0    0    0  0.00000000000E+00  0.00000000000E+00  0.45593999997E+02  0.45594000000E+02  0.51100000000E-03 0. -1.
         11   -1    0    0    0    0 -0.00000000000E+00 -0.00000000000E+00 -0.45593999997E+02  0.45594000000E+02  0.51100000000E-03 0.  1.
    9900012    2    1    2    0    0 -0.32407889685E+02  0.26810924874E+02  0.10701699674E+02  0.47787269795E+02  0.19999994301E+02 0.  0.
        -12    1    1    2    0    0  0.32407889685E+02 -0.26810924874E+02 -0.10701699674E+02  0.43400730205E+02  0.00000000000E+00 0.  1.
         11    1    3    3    0    0 -0.97645949716E+01  0.10702225035E+02  0.69272881501E+01  0.16058401447E+02  0.51100000000E-03 0. -1.
        -11    1    3    3    0    0 -0.14448467648E+02  0.12164484812E+01  0.20440296211E+01  0.14642951262E+02  0.51100000000E-03 0.  1.
        -12    1    3    3    0    0 -0.81948270649E+01  0.14892251358E+02  0.17303819032E+01  0.17085917086E+02  0.00000000000E+00 0.  1.
</event>
<event>
 7    1  0.1899036E-009  0.4778731E+02  0.7816164E-02  0.1312668E+00
        -11   -1    0    0    0    0  0.00000000000E+00  0.00000000000E+00  0.45593999997E+02  0.45594000000E+02  0.51100000000E-03 0. -1.
         11   -1    0    0    0    0 -0.00000000000E+00 -0.00000000000E+00 -0.45593999997E+02  0.45594000000E+02  0.51100000000E-03 0.  1.
    9900012    2    1    2    0    0 -0.36228419188E+02  0.14220422328E+02  0.19206809750E+02  0.47787305204E+02  0.20000155745E+02 0.  0.
        -12    1    1    2    0    0  0.36228419188E+02 -0.14220422328E+02 -0.19206809750E+02  0.43400694796E+02  0.00000000000E+00 0.  1.
         11    1    3    3    0    0 -0.29107302894E+02  0.98851935590E+01  0.16113090399E+02  0.34707114774E+02  0.51100000000E-03 0. -1.
        -11    1    3    3    0    0 -0.47243181879E+01  0.74185802362E+01  0.19198392646E+01  0.90022385063E+01  0.51100000000E-03 0.  1.
        -12    1    3    3    0    0 -0.23967981063E+01 -0.30833514675E+01  0.11738800868E+01  0.40779519237E+01  0.00000000000E+00 0.  1.
</event>
<event>
 7    1  0.1899036E-009  0.4778729E+02  0.7816164E-02  0.1312668E+00
        -11   -1    0    0    0    0  0.00000000000E+00  0.00000000000E+00  0.45593999997E+02  0.45594000000E+02  0.51100000000E-03 0. -1.
         11   -1    0    0    0    0 -0.00000000000E+00 -0.00000000000E+00 -0.45593999997E+02  0.45594000000E+02  0.51100000000E-03 0.  1.
    9900012    2    1    2    0    0 -0.84779188120E+01 -0.37467887953E+02  0.20196622479E+02  0.47787293847E+02  0.20000103966E+02 0.  0.
        -12    1    1    2    0    0  0.84779188120E+01  0.37467887953E+02 -0.20196622479E+02  0.43400706153E+02  0.00000000000E+00 0.  1.
         11    1    3    3    0    0 -0.67986896189E+01 -0.33104267645E+02  0.18547943122E+02  0.38550498196E+02  0.51100000000E-03 0. -1.
        -11    1    3    3    0    0  0.87608941467E+00 -0.10037819934E+01  0.41305277465E+01  0.43400887869E+01  0.51100000000E-03 0.  1.
         12    1    3    3    0    0 -0.25553186077E+01 -0.33598383146E+01 -0.24818483894E+01  0.48967068644E+01  0.00000000000E+00 0. -1.
</event>
<event>
 7    1  0.1899036E-009  0.4778727E+02  0.7816164E-02  0.1312668E+00
        -11   -1    0    0    0    0  0.00000000000E+00  0.00000000000E+00  0.45593999997E+02  0.45594000000E+02  0.51100000000E-03 0.  1.
         11   -1    0    0    0    0 -0.00000000000E+00 -0.00000000000E+00 -0.45593999997E+02  0.45594000000E+02  0.51100000000E-03 0. -1.
    9900012    2    1    2    0    0  0.21250066790E+02 -0.32714513530E+02 -0.19021524826E+02  0.47787272578E+02  0.20000006992E+02 0.  0.
        -12    1    1    2    0    0 -0.21250066790E+02  0.32714513530E+02  0.19021524826E+02  0.43400727422E+02  0.00000000000E+00 0.  1.
         11    1    3    3    0    0  0.14360531914E+01 -0.78847778030E+00 -0.38383309372E+00  0.16826390235E+01  0.51100000000E-03 0. -1.
        -11    1    3    3    0    0  0.15389458257E+02 -0.33700721282E+02 -0.14474393450E+02  0.39775395742E+02  0.51100000000E-03 0.  1.
        -12    1    3    3    0    0  0.44245553411E+01  0.17746855325E+01 -0.41632982821E+01  0.63292378128E+01  0.00000000000E+00 0.  1.
</event>
<event>
 7    1  0.1899036E-009  0.4778726E+02  0.7816164E-02  0.1312668E+00
        -11   -1    0    0    0    0  0.00000000000E+00  0.00000000000E+00  0.45593999997E+02  0.45594000000E+02  0.51100000000E-03 0.  1.
         11   -1    0    0    0    0 -0.00000000000E+00 -0.00000000000E+00 -0.45593999997E+02  0.45594000000E+02  0.51100000000E-03 0. -1.
    9900012    2    1    2    0    0  0.15246896621E+02  0.14946901008E+02 -0.37785530235E+02  0.47787262662E+02  0.19999961783E+02 0.  0.
        -12    1    1    2    0    0 -0.15246896621E+02 -0.14946901008E+02  0.37785530235E+02  0.43400737338E+02  0.00000000000E+00 0.  1.
         11    1    3    3    0    0  0.68964237921E+01  0.16907375959E+01 -0.13833457351E+02  0.15549398615E+02  0.51100000000E-03 0. -1.
        -11    1    3    3    0    0  0.52757467250E+01  0.15446368081E+02 -0.13690179172E+02  0.21303633409E+02  0.51100000000E-03 0.  1.
        -12    1    3    3    0    0  0.30747261042E+01 -0.21902046686E+01 -0.10261893712E+02  0.10934230639E+02  0.00000000000E+00 0.  1.
</event>
<event>
 7    1  0.1899036E-009  0.4778727E+02  0.7816164E-02  0.1312668E+00
        -11   -1    0    0    0    0  0.00000000000E+00  0.00000000000E+00  0.45593999997E+02  0.45594000000E+02  0.51100000000E-03 0.  1.
         11   -1    0    0    0    0 -0.00000000000E+00 -0.00000000000E+00 -0.45593999997E+02  0.45594000000E+02  0.51100000000E-03 0. -1.
    9900012    2    1    2    0    0  0.17605029899E+02  0.33646579808E+02 -0.21014133495E+02  0.47787271699E+02  0.20000002983E+02 0.  0.
        -12    1    1    2    0    0 -0.17605029899E+02 -0.33646579808E+02  0.21014133495E+02  0.43400728301E+02  0.00000000000E+00 0.  1.
         11    1    3    3    0    0  0.95852038607E+00  0.12172246883E+02 -0.40158032482E+01  0.12853366544E+02  0.51100000000E-03 0. -1.
        -11    1    3    3    0    0  0.68163614080E+01  0.14119554098E+02 -0.24032485858E+01  0.15861910187E+02  0.51100000000E-03 0.  1.
         12    1    3    3    0    0  0.98301481046E+01  0.73547788271E+01 -0.14595081661E+02  0.19071994968E+02  0.00000000000E+00 0. -1.
</event>
<event>
 7    1  0.1899036E-009  0.4778727E+02  0.7816164E-02  0.1312668E+00
        -11   -1    0    0    0    0  0.00000000000E+00  0.00000000000E+00  0.45593999997E+02  0.45594000000E+02  0.51100000000E-03 0. -1.
         11   -1    0    0    0    0 -0.00000000000E+00 -0.00000000000E+00 -0.45593999997E+02  0.45594000000E+02  0.51100000000E-03 0.  1.
    9900012    2    1    2    0    0  0.42308689935E+02  0.39709334289E+01 -0.88221245234E+01  0.47787269160E+02  0.19999991408E+02 0.  0.
        -12    1    1    2    0    0 -0.42308689935E+02 -0.39709334289E+01  0.88221245234E+01  0.43400730840E+02  0.00000000000E+00 0.  1.
         11    1    3    3    0    0  0.18039889862E+02  0.20909886112E+01 -0.93682749473E+01  0.20434638126E+02  0.51100000000E-03 0. -1.
        -11    1    3    3    0    0  0.24374662556E+02  0.39654448985E+01  0.20488447398E+01  0.24779965556E+02  0.51100000000E-03 0.  1.
         12    1    3    3    0    0 -0.10586248220E+00 -0.20855000808E+01 -0.15026943158E+01  0.25726654775E+01  0.00000000000E+00 0. -1.
</event>
<event>
 7    1  0.1899036E-009  0.4778728E+02  0.7816164E-02  0.1312668E+00
        -11   -1    0    0    0    0  0.00000000000E+00  0.00000000000E+00  0.45593999997E+02  0.45594000000E+02  0.51100000000E-03 0.  1.
         11   -1    0    0    0    0 -0.00000000000E+00 -0.00000000000E+00 -0.45593999997E+02  0.45594000000E+02  0.51100000000E-03 0. -1.
    9900012    2    1    2    0    0  0.19763176174E+02 -0.36245885201E+02 -0.13389362750E+02  0.47787281558E+02  0.20000047934E+02 0.  0.
        -12    1    1    2    0    0 -0.19763176174E+02  0.36245885201E+02  0.13389362750E+02  0.43400718442E+02  0.00000000000E+00 0.  1.
         11    1    3    3    0    0  0.32046830842E+01 -0.76080997772E+00 -0.20411319289E+01  0.38749251999E+01  0.51100000000E-03 0. -1.
        -11    1    3    3    0    0 -0.23832873400E+01 -0.65209917691E+01 -0.54029682717E+01  0.87974688748E+01  0.51100000000E-03 0.  1.
         12    1    3    3    0    0  0.18941780430E+02 -0.28964083454E+02 -0.59452625489E+01  0.35114887483E+02  0.00000000000E+00 0. -1.
</event>
<event>
 7    1  0.1899036E-009  0.4778726E+02  0.7816164E-02  0.1312668E+00
        -11   -1    0    0    0    0  0.00000000000E+00  0.00000000000E+00  0.45593999997E+02  0.45594000000E+02  0.51100000000E-03 0. -1.
         11   -1    0    0    0    0 -0.00000000000E+00 -0.00000000000E+00 -0.45593999997E+02  0.45594000000E+02  0.51100000000E-03 0.  1.
    9900012    2    1    2    0    0  0.23004042970E+02  0.18844780635E+02  0.31611906253E+02  0.47787258450E+02  0.19999942579E+02 0.  0.
        -12    1    1    2    0    0 -0.23004042970E+02 -0.18844780635E+02 -0.31611906253E+02  0.43400741550E+02  0.00000000000E+00 0.  1.
         11    1    3    3    0    0  0.25516374471E+01  0.57522808474E+01  0.57767417425E+01  0.85422674993E+01  0.51100000000E-03 0. -1.
        -11    1    3    3    0    0  0.19140316223E+02  0.31479984228E+01  0.18627907431E+02  0.26893503578E+02  0.51100000000E-03 0.  1.
        -12    1    3    3    0    0  0.13120892996E+01  0.99445013647E+01  0.72072570791E+01  0.12351487373E+02  0.00000000000E+00 0.  1.
</event>
<event>
 7    1  0.1899036E-009  0.4778727E+02  0.7816164E-02  0.1312668E+00
        -11   -1    0    0    0    0  0.00000000000E+00  0.00000000000E+00  0.45593999997E+02  0.45594000000E+02  0.51100000000E-03 0.  1.
         11   -1    0    0    0    0 -0.00000000000E+00 -0.00000000000E+00 -0.45593999997E+02  0.45594000000E+02  0.51100000000E-03 0. -1.
    9900012    2    1    2    0    0 -0.17218040684E+02  0.13275783683E+02 -0.37562160005E+02  0.47787271646E+02  0.20000002743E+02 0.  0.
        -12    1    1    2    0    0  0.17218040684E+02 -0.13275783683E+02  0.37562160005E+02  0.43400728354E+02  0.00000000000E+00 0.  1.
         11    1    3    3    0    0 -0.18139081805E+02  0.14173098228E+02 -0.32958843916E+02  0.40201845662E+02  0.51100000000E-03 0. -1.
        -11    1    3    3    0    0  0.16445512693E+01  0.15865064220E+01 -0.44396538889E+01  0.49932032222E+01  0.51100000000E-03 0.  1.
         12    1    3    3    0    0 -0.72351014791E+00 -0.24838209670E+01 -0.16366220058E+00  0.25922227617E+01  0.00000000000E+00 0. -1.
</event>
<event>
 7    1  0.1899036E-009  0.4778726E+02  0.7816164E-02  0.1312668E+00
        -11   -1    0    0    0    0  0.00000000000E+00  0.00000000000E+00  0.45593999997E+02  0.45594000000E+02  0.51100000000E-03 0.  1.
         11   -1    0    0    0    0 -0.00000000000E+00 -0.00000000000E+00 -0.45593999997E+02  0.45594000000E+02  0.51100000000E-03 0. -1.
    9900012    2    1    2    0    0  0.25420969310E+02  0.43527439813E+01 -0.34906334308E+02  0.47787259964E+02  0.19999949482E+02 0.  0.
        -12    1    1    2    0    0 -0.25420969310E+02 -0.43527439813E+01  0.34906334308E+02  0.43400740036E+02  0.00000000000E+00 0.  1.
         11    1    3    3    0    0  0.24822525541E+02  0.48700612472E+01 -0.31166337059E+02  0.40139953123E+02  0.51100000000E-03 0. -1.
        -11    1    3    3    0    0  0.31324187228E+00  0.28319026099E+01 -0.34532324205E+00  0.28700246106E+01  0.51100000000E-03 0.  1.
        -12    1    3    3    0    0  0.28520189608E+00 -0.33492198758E+01 -0.33946740072E+01  0.47772822308E+01  0.00000000000E+00 0.  1.
</event>
<event>
 7    1  0.1899036E-009  0.4778728E+02  0.7816164E-02  0.1312668E+00
        -11   -1    0    0    0    0  0.00000000000E+00  0.00000000000E+00  0.45593999997E+02  0.45594000000E+02  0.51100000000E-03 0.  1.
         11   -1    0    0    0    0 -0.00000000000E+00 -0.00000000000E+00 -0.45593999997E+02  0.45594000000E+02  0.51100000000E-03 0. -1.
    9900012    2    1    2    0    0  0.37007982298E+02  0.83594903108E+01 -0.21074888972E+02  0.47787276766E+02  0.20000026087E+02 0.  0.
        -12    1    1    2    0    0 -0.37007982298E+02 -0.83594903108E+01  0.21074888972E+02  0.43400723234E+02  0.00000000000E+00 0.  1.
         11    1    3    3    0    0 -0.84363928436E-01  0.46372892873E+00  0.69539337031E+00  0.84007975357E+00  0.51100000000E-03 0. -1.
        -11    1    3    3    0    0  0.17737556847E+02  0.38866749382E+01 -0.86759269590E+00  0.18179105652E+02  0.51100000000E-03 0.  1.
         12    1    3    3    0    0  0.19354789380E+02  0.40090864439E+01 -0.20902689646E+02  0.28768091360E+02  0.00000000000E+00 0. -1.
</event>
<event>
 7    1  0.1899036E-009  0.4778727E+02  0.7816164E-02  0.1312668E+00
        -11   -1    0    0    0    0  0.00000000000E+00  0.00000000000E+00  0.45593999997E+02  0.45594000000E+02  0.51100000000E-03 0.  1.
         11   -1    0    0    0    0 -0.00000000000E+00 -0.00000000000E+00 -0.45593999997E+02  0.45594000000E+02  0.51100000000E-03 0. -1.
    9900012    2    1    2    0    0  0.23016100771E+02  0.77342051921E+01 -0.35973106082E+02  0.47787272058E+02  0.20000004623E+02 0.  0.
        -12    1    1    2    0    0 -0.23016100771E+02 -0.77342051921E+01  0.35973106082E+02  0.43400727942E+02  0.00000000000E+00 0.  1.
         11    1    3    3    0    0  0.39182538825E+01 -0.10490002688E+01  0.23918949858E+00  0.40632901605E+01  0.51100000000E-03 0. -1.
        -11    1    3    3    0    0  0.74481313393E+01  0.12216911816E+01 -0.24238568635E+02  0.25386520035E+02  0.51100000000E-03 0.  1.
         12    1    3    3    0    0  0.11649715550E+02  0.75615142794E+01 -0.11973726946E+02  0.18337461862E+02  0.00000000000E+00 0. -1.
</event>
<event>
 7    1  0.1899036E-009  0.4778727E+02  0.7816164E-02  0.1312668E+00
        -11   -1    0    0    0    0  0.00000000000E+00  0.00000000000E+00  0.45593999997E+02  0.45594000000E+02  0.51100000000E-03 0.  1.
         11   -1    0    0    0    0 -0.00000000000E+00 -0.00000000000E+00 -0.45593999997E+02  0.45594000000E+02  0.51100000000E-03 0. -1.
    9900012    2    1    2    0    0  0.13892201237E+02  0.14644345197E+02 -0.38420998016E+02  0.47787272010E+02  0.20000004403E+02 0.  0.
        -12    1    1    2    0    0 -0.13892201237E+02 -0.14644345197E+02  0.38420998016E+02  0.43400727990E+02  0.00000000000E+00 0.  1.
         11    1    3    3    0    0  0.38603551106E+01  0.17254308409E+02 -0.24544315423E+02  0.30249577189E+02  0.51100000000E-03 0. -1.
        -11    1    3    3    0    0  0.47507356511E+01  0.19634669258E-01 -0.51787964928E+01  0.70277882809E+01  0.51100000000E-03 0.  1.
         12    1    3    3    0    0  0.52811104755E+01 -0.26295978809E+01 -0.86978861006E+01  0.10509906540E+02  0.00000000000E+00 0. -1.
</event>
<event>
 7    1  0.1899036E-009  0.4778723E+02  0.7816164E-02  0.1312668E+00
        -11   -1    0    0    0    0  0.00000000000E+00  0.00000000000E+00  0.45593999997E+02  0.45594000000E+02  0.51100000000E-03 0.  1.
         11   -1    0    0    0    0 -0.00000000000E+00 -0.00000000000E+00 -0.45593999997E+02  0.45594000000E+02  0.51100000000E-03 0. -1.
    9900012    2    1    2    0    0  0.33795060067E+02 -0.24513730976E+02  0.11857381557E+02  0.47787232856E+02  0.19999825882E+02 0.  0.
        -12    1    1    2    0    0 -0.33795060067E+02  0.24513730976E+02 -0.11857381557E+02  0.43400767144E+02  0.00000000000E+00 0.  1.
         11    1    3    3    0    0  0.16844269552E+02 -0.15279486436E+02  0.47706385250E+01  0.23236848209E+02  0.51100000000E-03 0. -1.
        -11    1    3    3    0    0  0.64240420358E+01 -0.20307648571E+01  0.94218644489E+01  0.11582912066E+02  0.51100000000E-03 0.  1.
         12    1    3    3    0    0  0.10526748480E+02 -0.72034796825E+01 -0.23351214169E+01  0.12967472580E+02  0.00000000000E+00 0. -1.
</event>
<event>
 7    1  0.1899036E-009  0.4778728E+02  0.7816164E-02  0.1312668E+00
        -11   -1    0    0    0    0  0.00000000000E+00  0.00000000000E+00  0.45593999997E+02  0.45594000000E+02  0.51100000000E-03 0.  1.
         11   -1    0    0    0    0 -0.00000000000E+00 -0.00000000000E+00 -0.45593999997E+02  0.45594000000E+02  0.51100000000E-03 0. -1.
    9900012    2    1    2    0    0 -0.21828745731E+02 -0.17930533716E+02 -0.32948817322E+02  0.47787277167E+02  0.20000027914E+02 0.  0.
        -12    1    1    2    0    0  0.21828745731E+02  0.17930533716E+02  0.32948817322E+02  0.43400722833E+02  0.00000000000E+00 0.  1.
         11    1    3    3    0    0 -0.13493552865E+02 -0.53920131458E+01 -0.91684143591E+01  0.17181664553E+02  0.51100000000E-03 0. -1.
        -11    1    3    3    0    0 -0.54162738951E+01 -0.14149913253E+02 -0.15480557374E+02  0.21661110887E+02  0.51100000000E-03 0.  1.
         12    1    3    3    0    0 -0.29189189706E+01  0.16113926835E+01 -0.82998455893E+01  0.89445017270E+01  0.00000000000E+00 0. -1.
</event>
<event>
 7    1  0.2534066E-009  0.4778727E+02  0.7816164E-02  0.1312668E+00
        -11   -1    0    0    0    0  0.00000000000E+00  0.00000000000E+00  0.45593999997E+02  0.45594000000E+02  0.51100000000E-03 0.  1.
         11   -1    0    0    0    0 -0.00000000000E+00 -0.00000000000E+00 -0.45593999997E+02  0.45594000000E+02  0.51100000000E-03 0. -1.
    9900012    2    1    2    0    0 -0.37518439117E+02 -0.21517041316E+02  0.36064673283E+01  0.47787274807E+02  0.20000017153E+02 0.  0.
        -12    1    1    2    0    0  0.37518439117E+02  0.21517041316E+02 -0.36064673283E+01  0.43400725193E+02  0.00000000000E+00 0.  1.
         11    1    3    3    0    0 -0.19584114545E+02 -0.17565086008E+02  0.10342557781E+01  0.26327542123E+02  0.51100000000E-03 0. -1.
        -11    1    3    3    0    0  0.13256872303E+01 -0.90630076829E+00  0.10118424587E+01  0.18980656304E+01  0.51100000000E-03 0.  1.
        -12    1    3    3    0    0 -0.19260011802E+02 -0.30456545396E+01  0.15603690915E+01  0.19561667053E+02  0.00000000000E+00 0.  1.
</event>
<event>
 7    1  0.1899036E-009  0.4778727E+02  0.7816164E-02  0.1312668E+00
        -11   -1    0    0    0    0  0.00000000000E+00  0.00000000000E+00  0.45593999997E+02  0.45594000000E+02  0.51100000000E-03 0. -1.
         11   -1    0    0    0    0 -0.00000000000E+00 -0.00000000000E+00 -0.45593999997E+02  0.45594000000E+02  0.51100000000E-03 0.  1.
    9900012    2    1    2    0    0  0.85008981918E+01  0.31435679534E+02  0.28690702527E+02  0.47787266949E+02  0.19999981328E+02 0.  0.
        -12    1    1    2    0    0 -0.85008981918E+01 -0.31435679534E+02 -0.28690702527E+02  0.43400733051E+02  0.00000000000E+00 0.  1.
         11    1    3    3    0    0  0.69789567661E+01  0.19441742599E+02  0.11473101550E+02  0.23628780169E+02  0.51100000000E-03 0. -1.
        -11    1    3    3    0    0  0.24638306478E+01  0.12331486648E+02  0.80383099590E+01  0.14924826688E+02  0.51100000000E-03 0.  1.
         12    1    3    3    0    0 -0.94188922218E+00 -0.33754971214E+00  0.91792910177E+01  0.92336600925E+01  0.00000000000E+00 0. -1.
</event>
<event>
 7    1  0.1899036E-009  0.4778726E+02  0.7816164E-02  0.1312668E+00
        -11   -1    0    0    0    0  0.00000000000E+00  0.00000000000E+00  0.45593999997E+02  0.45594000000E+02  0.51100000000E-03 0. -1.
         11   -1    0    0    0    0 -0.00000000000E+00 -0.00000000000E+00 -0.45593999997E+02  0.45594000000E+02  0.51100000000E-03 0.  1.
    9900012    2    1    2    0    0 -0.35110487797E+02  0.23601783099E+02  0.96867630369E+01  0.47787263866E+02  0.19999967273E+02 0.  0.
        -12    1    1    2    0    0  0.35110487797E+02 -0.23601783099E+02 -0.96867630369E+01  0.43400736134E+02  0.00000000000E+00 0.  1.
         11    1    3    3    0    0 -0.22195295510E+01  0.15964732817E+01 -0.27201867585E+01  0.38567414522E+01  0.51100000000E-03 0. -1.
        -11    1    3    3    0    0 -0.23570154937E+02  0.12408288244E+02  0.15164224406E+01  0.26679905513E+02  0.51100000000E-03 0.  1.
         12    1    3    3    0    0 -0.93208033088E+01  0.95970215737E+01  0.10890527355E+02  0.17250616901E+02  0.00000000000E+00 0. -1.
</event>
<event>
 7    1  0.1899036E-009  0.4778727E+02  0.7816164E-02  0.1312668E+00
        -11   -1    0    0    0    0  0.00000000000E+00  0.00000000000E+00  0.45593999997E+02  0.45594000000E+02  0.51100000000E-03 0. -1.
         11   -1    0    0    0    0 -0.00000000000E+00 -0.00000000000E+00 -0.45593999997E+02  0.45594000000E+02  0.51100000000E-03 0.  1.
    9900012    2    1    2    0    0 -0.31644014713E+02  0.29688937986E+02  0.92020334810E+00  0.47787268669E+02  0.19999989168E+02 0.  0.
        -12    1    1    2    0    0  0.31644014713E+02 -0.29688937986E+02 -0.92020334810E+00  0.43400731331E+02  0.00000000000E+00 0.  1.
         11    1    3    3    0    0 -0.10195119559E+02  0.15299780947E+02  0.27956086432E+01  0.18596752076E+02  0.51100000000E-03 0. -1.
        -11    1    3    3    0    0 -0.21303924144E+01 -0.26189796278E+01  0.86465185295E-01  0.33771441514E+01  0.51100000000E-03 0.  1.
         12    1    3    3    0    0 -0.19318502740E+02  0.17008136667E+02 -0.19618704804E+01  0.25813372441E+02  0.00000000000E+00 0. -1.
</event>
<event>
 7    1  0.1899036E-009  0.4778727E+02  0.7816164E-02  0.1312668E+00
        -11   -1    0    0    0    0  0.00000000000E+00  0.00000000000E+00  0.45593999997E+02  0.45594000000E+02  0.51100000000E-03 0.  1.
         11   -1    0    0    0    0 -0.00000000000E+00 -0.00000000000E+00 -0.45593999997E+02  0.45594000000E+02  0.51100000000E-03 0. -1.
    9900012    2    1    2    0    0  0.32026898152E+02  0.31727901189E+01 -0.29117600472E+02  0.47787268904E+02  0.19999990242E+02 0.  0.
        -12    1    1    2    0    0 -0.32026898152E+02 -0.31727901189E+01  0.29117600472E+02  0.43400731096E+02  0.00000000000E+00 0.  1.
         11    1    3    3    0    0  0.49400077220E+01 -0.38890224367E+01 -0.10824285144E+02  0.12517720278E+02  0.51100000000E-03 0. -1.
        -11    1    3    3    0    0  0.21343040874E+02  0.66964305624E+00 -0.14860724489E+02  0.26015667359E+02  0.51100000000E-03 0.  1.
        -12    1    3    3    0    0  0.57438495567E+01  0.63921694994E+01 -0.34325908392E+01  0.92538812673E+01  0.00000000000E+00 0.  1.
</event>
<event>
 7    1  0.1899036E-009  0.4778727E+02  0.7816164E-02  0.1312668E+00
        -11   -1    0    0    0    0  0.00000000000E+00  0.00000000000E+00  0.45593999997E+02  0.45594000000E+02  0.51100000000E-03 0.  1.
         11   -1    0    0    0    0 -0.00000000000E+00 -0.00000000000E+00 -0.45593999997E+02  0.45594000000E+02  0.51100000000E-03 0. -1.
    9900012    2    1    2    0    0  0.35321358078E+02 -0.23037708219E+02  0.10261046557E+02  0.47787269443E+02  0.19999992699E+02 0.  0.
        -12    1    1    2    0    0 -0.35321358078E+02  0.23037708219E+02 -0.10261046557E+02  0.43400730557E+02  0.00000000000E+00 0.  1.
         11    1    3    3    0    0  0.30429763242E+00 -0.34583905888E+00  0.13525795269E+01  0.14288713523E+01  0.51100000000E-03 0. -1.
        -11    1    3    3    0    0  0.22841859752E+01 -0.57858383001E+01 -0.39145335360E+01  0.73496260768E+01  0.51100000000E-03 0.  1.
         12    1    3    3    0    0  0.32732874470E+02 -0.16906030860E+02  0.12823000566E+02  0.39008772014E+02  0.00000000000E+00 0. -1.
</event>
<event>
 7    1  0.1899036E-009  0.4778729E+02  0.7816164E-02  0.1312668E+00
        -11   -1    0    0    0    0  0.00000000000E+00  0.00000000000E+00  0.45593999997E+02  0.45594000000E+02  0.51100000000E-03 0. -1.
         11   -1    0    0    0    0 -0.00000000000E+00 -0.00000000000E+00 -0.45593999997E+02  0.45594000000E+02  0.51100000000E-03 0.  1.
    9900012    2    1    2    0    0 -0.10975469777E+02 -0.30316777051E+02  0.29052607807E+02  0.47787286550E+02  0.20000070696E+02 0.  0.
        -12    1    1    2    0    0  0.10975469777E+02  0.30316777051E+02 -0.29052607807E+02  0.43400713450E+02  0.00000000000E+00 0.  1.
         11    1    3    3    0    0 -0.25561342465E+00 -0.14573183182E+02  0.56896762611E+01  0.15646578620E+02  0.51100000000E-03 0. -1.
        -11    1    3    3    0    0 -0.83409053610E+01 -0.16697465020E+02  0.16865185863E+02  0.25155725686E+02  0.51100000000E-03 0.  1.
        -12    1    3    3    0    0 -0.23789509912E+01  0.95387115112E+00  0.64977456829E+01  0.69849822442E+01  0.00000000000E+00 0.  1.
</event>
<event>
 7    1  0.1899036E-009  0.4778727E+02  0.7816164E-02  0.1312668E+00
        -11   -1    0    0    0    0  0.00000000000E+00  0.00000000000E+00  0.45593999997E+02  0.45594000000E+02  0.51100000000E-03 0.  1.
         11   -1    0    0    0    0 -0.00000000000E+00 -0.00000000000E+00 -0.45593999997E+02  0.45594000000E+02  0.51100000000E-03 0. -1.
    9900012    2    1    2    0    0 -0.16814585157E+02  0.30887492092E+02 -0.25433365864E+02  0.47787267968E+02  0.19999985972E+02 0.  0.
        -12    1    1    2    0    0  0.16814585157E+02 -0.30887492092E+02  0.25433365864E+02  0.43400732032E+02  0.00000000000E+00 0.  1.
         11    1    3    3    0    0  0.14153770887E+01  0.11509598970E+02 -0.32467858131E+01  0.12042249754E+02  0.51100000000E-03 0.  1.
        -11    1    3    3    0    0 -0.63143652275E+01  0.28896330591E+01 -0.23489814268E+01  0.73306821952E+01  0.51100000000E-03 0. -1.
        -12    1    3    3    0    0 -0.11915597018E+02  0.16488260063E+02 -0.19837598624E+02  0.28414336019E+02  0.00000000000E+00 0.  1.
</event>
<event>
 7    1  0.1899036E-009  0.4778727E+02  0.7816164E-02  0.1312668E+00
        -11   -1    0    0    0    0  0.00000000000E+00  0.00000000000E+00  0.45593999997E+02  0.45594000000E+02  0.51100000000E-03 0. -1.
         11   -1    0    0    0    0 -0.00000000000E+00 -0.00000000000E+00 -0.45593999997E+02  0.45594000000E+02  0.51100000000E-03 0.  1.
    9900012    2    1    2    0    0 -0.23551152639E+02 -0.24691963951E+02  0.26819270178E+02  0.47787272733E+02  0.20000007700E+02 0.  0.
        -12    1    1    2    0    0  0.23551152639E+02  0.24691963951E+02 -0.26819270178E+02  0.43400727267E+02  0.00000000000E+00 0.  1.
         11    1    3    3    0    0 -0.31400596745E+01 -0.11188776524E+02  0.38019177837E+01  0.12227153142E+02  0.51100000000E-03 0. -1.
        -11    1    3    3    0    0 -0.17194889424E+02 -0.15424826523E+02  0.17927867811E+02  0.29240347810E+02  0.51100000000E-03 0.  1.
        -12    1    3    3    0    0 -0.32162035412E+01  0.19216390965E+01  0.50894845833E+01  0.63197717807E+01  0.00000000000E+00 0.  1.
</event>
<event>
 7    1  0.1899036E-009  0.4778728E+02  0.7816164E-02  0.1312668E+00
        -11   -1    0    0    0    0  0.00000000000E+00  0.00000000000E+00  0.45593999997E+02  0.45594000000E+02  0.51100000000E-03 0.  1.
         11   -1    0    0    0    0 -0.00000000000E+00 -0.00000000000E+00 -0.45593999997E+02  0.45594000000E+02  0.51100000000E-03 0. -1.
    9900012    2    1    2    0    0 -0.36407764853E+02 -0.19193352706E+02 -0.13773617000E+02  0.47787278175E+02  0.20000032509E+02 0.  0.
        -12    1    1    2    0    0  0.36407764853E+02  0.19193352706E+02  0.13773617000E+02  0.43400721825E+02  0.00000000000E+00 0.  1.
         11    1    3    3    0    0 -0.70266965081E+00 -0.33960476966E+01 -0.56304136882E+01  0.66127485327E+01  0.51100000000E-03 0. -1.
        -11    1    3    3    0    0 -0.81293899887E+01 -0.17415005707E+01  0.20951711356E+01  0.85737709425E+01  0.51100000000E-03 0.  1.
         12    1    3    3    0    0 -0.27575705213E+02 -0.14055804439E+02 -0.10238374448E+02  0.32600758699E+02  0.00000000000E+00 0. -1.
</event>
<event>
 7    1  0.1899036E-009  0.4778727E+02  0.7816164E-02  0.1312668E+00
        -11   -1    0    0    0    0  0.00000000000E+00  0.00000000000E+00  0.45593999997E+02  0.45594000000E+02  0.51100000000E-03 0.  1.
         11   -1    0    0    0    0 -0.00000000000E+00 -0.00000000000E+00 -0.45593999997E+02  0.45594000000E+02  0.51100000000E-03 0. -1.
    9900012    2    1    2    0    0 -0.13036680157E+00 -0.95713883110E+01 -0.42331962362E+02  0.47787268357E+02  0.19999987749E+02 0.  0.
        -12    1    1    2    0    0  0.13036680157E+00  0.95713883110E+01  0.42331962362E+02  0.43400731643E+02  0.00000000000E+00 0.  1.
         11    1    3    3    0    0  0.70375244483E+00  0.18255300223E+01  0.56019969326E+00  0.20351047450E+01  0.51100000000E-03 0. -1.
        -11    1    3    3    0    0  0.24534480792E+00 -0.39798927664E+01 -0.25804325150E+01  0.47495655309E+01  0.51100000000E-03 0.  1.
         12    1    3    3    0    0 -0.10794640543E+01 -0.74170255668E+01 -0.40311729540E+02  0.41002598081E+02  0.00000000000E+00 0. -1.
</event>
<event>
 7    1  0.1899036E-009  0.4778728E+02  0.7816164E-02  0.1312668E+00
        -11   -1    0    0    0    0  0.00000000000E+00  0.00000000000E+00  0.45593999997E+02  0.45594000000E+02  0.51100000000E-03 0. -1.
         11   -1    0    0    0    0 -0.00000000000E+00 -0.00000000000E+00 -0.45593999997E+02  0.45594000000E+02  0.51100000000E-03 0.  1.
    9900012    2    1    2    0    0 -0.34823733185E+02 -0.21871532600E+02  0.13876824148E+02  0.47787279042E+02  0.20000036465E+02 0.  0.
        -12    1    1    2    0    0  0.34823733185E+02  0.21871532600E+02 -0.13876824148E+02  0.43400720958E+02  0.00000000000E+00 0.  1.
         11    1    3    3    0    0 -0.87951974722E+01 -0.38341625082E+01  0.75671289097E+01  0.12219563859E+02  0.51100000000E-03 0. -1.
        -11    1    3    3    0    0 -0.20383817091E+02 -0.56523687774E+01  0.58595746368E+01  0.21949576013E+02  0.51100000000E-03 0.  1.
        -12    1    3    3    0    0 -0.56447186221E+01 -0.12385001315E+02  0.45012060171E+00  0.13618139170E+02  0.00000000000E+00 0.  1.
</event>
<event>
 7    1  0.1899036E-009  0.4778727E+02  0.7816164E-02  0.1312668E+00
        -11   -1    0    0    0    0  0.00000000000E+00  0.00000000000E+00  0.45593999997E+02  0.45594000000E+02  0.51100000000E-03 0. -1.
         11   -1    0    0    0    0 -0.00000000000E+00 -0.00000000000E+00 -0.45593999997E+02  0.45594000000E+02  0.51100000000E-03 0.  1.
    9900012    2    1    2    0    0 -0.42917020811E+02 -0.62463713678E+01 -0.16538187563E+01  0.47787274810E+02  0.20000017170E+02 0.  0.
        -12    1    1    2    0    0  0.42917020811E+02  0.62463713678E+01  0.16538187563E+01  0.43400725190E+02  0.00000000000E+00 0.  1.
         11    1    3    3    0    0 -0.20108546684E+02 -0.10536813375E+02  0.39334976073E+01  0.23040192914E+02  0.51100000000E-03 0. -1.
        -11    1    3    3    0    0 -0.27853994489E+01  0.32900512392E+00 -0.31070650710E+01  0.41857553772E+01  0.51100000000E-03 0.  1.
         12    1    3    3    0    0 -0.20023074678E+02  0.39614368836E+01 -0.24802512926E+01  0.20561326519E+02  0.00000000000E+00 0. -1.
</event>
<event>
 7    1  0.1899036E-009  0.4778727E+02  0.7816164E-02  0.1312668E+00
        -11   -1    0    0    0    0  0.00000000000E+00  0.00000000000E+00  0.45593999997E+02  0.45594000000E+02  0.51100000000E-03 0. -1.
         11   -1    0    0    0    0 -0.00000000000E+00 -0.00000000000E+00 -0.45593999997E+02  0.45594000000E+02  0.51100000000E-03 0.  1.
    9900012    2    1    2    0    0  0.42215613175E+02  0.77662297200E+00  0.10043016225E+02  0.47787270584E+02  0.19999997900E+02 0.  0.
        -12    1    1    2    0    0 -0.42215613175E+02 -0.77662297200E+00 -0.10043016225E+02  0.43400729416E+02  0.00000000000E+00 0.  1.
         11    1    3    3    0    0  0.38734840995E+02  0.15257365788E+01  0.72137743810E+01  0.39430373066E+02  0.51100000000E-03 0. -1.
        -11    1    3    3    0    0  0.27437617973E+01 -0.27245519267E+01  0.43025142491E+01  0.57847248099E+01  0.51100000000E-03 0.  1.
        -12    1    3    3    0    0  0.73701038217E+00  0.19754383199E+01 -0.14732724054E+01  0.25721727080E+01  0.00000000000E+00 0.  1.
</event>
<event>
 7    1  0.1899036E-009  0.4778727E+02  0.7816164E-02  0.1312668E+00
        -11   -1    0    0    0    0  0.00000000000E+00  0.00000000000E+00  0.45593999997E+02  0.45594000000E+02  0.51100000000E-03 0.  1.
         11   -1    0    0    0    0 -0.00000000000E+00 -0.00000000000E+00 -0.45593999997E+02  0.45594000000E+02  0.51100000000E-03 0. -1.
    9900012    2    1    2    0    0  0.37158372369E+02  0.44578865146E+01 -0.21977391934E+02  0.47787272524E+02  0.20000006745E+02 0.  0.
        -12    1    1    2    0    0 -0.37158372369E+02 -0.44578865146E+01  0.21977391934E+02  0.43400727476E+02  0.00000000000E+00 0.  1.
         11    1    3    3    0    0 -0.76875421779E-02  0.21560695561E+01 -0.13603365612E+01  0.25493549870E+01  0.51100000000E-03 0. -1.
        -11    1    3    3    0    0  0.24722103118E+02 -0.49990802357E+01 -0.92308233603E+01  0.26858542141E+02  0.51100000000E-03 0.  1.
         12    1    3    3    0    0  0.12443956792E+02  0.73008971943E+01 -0.11386232012E+02  0.18379375395E+02  0.00000000000E+00 0. -1.
</event>
<event>
 7    1  0.1899036E-009  0.4778728E+02  0.7816164E-02  0.1312668E+00
        -11   -1    0    0    0    0  0.00000000000E+00  0.00000000000E+00  0.45593999997E+02  0.45594000000E+02  0.51100000000E-03 0.  1.
         11   -1    0    0    0    0 -0.00000000000E+00 -0.00000000000E+00 -0.45593999997E+02  0.45594000000E+02  0.51100000000E-03 0. -1.
    9900012    2    1    2    0    0  0.57628500838E+01 -0.42090821069E+02 -0.88755193843E+01  0.47787279917E+02  0.20000040455E+02 0.  0.
        -12    1    1    2    0    0 -0.57628500838E+01  0.42090821069E+02  0.88755193843E+01  0.43400720083E+02  0.00000000000E+00 0.  1.
         11    1    3    3    0    0  0.31107965684E+01 -0.18734036582E+02 -0.10223313336E+02  0.21567506063E+02  0.51100000000E-03 0. -1.
        -11    1    3    3    0    0  0.66569641838E+01 -0.87180487356E+01  0.12752833864E+01  0.11042911476E+02  0.51100000000E-03 0.  1.
        -12    1    3    3    0    0 -0.40049106684E+01 -0.14638735751E+02  0.72510565223E-01  0.15176862378E+02  0.00000000000E+00 0.  1.
</event>
<event>
 7    1  0.1899036E-009  0.4778727E+02  0.7816164E-02  0.1312668E+00
        -11   -1    0    0    0    0  0.00000000000E+00  0.00000000000E+00  0.45593999997E+02  0.45594000000E+02  0.51100000000E-03 0. -1.
         11   -1    0    0    0    0 -0.00000000000E+00 -0.00000000000E+00 -0.45593999997E+02  0.45594000000E+02  0.51100000000E-03 0.  1.
    9900012    2    1    2    0    0  0.20832398208E+02  0.34374530559E+02  0.16371505270E+02  0.47787270155E+02  0.19999995944E+02 0.  0.
        -12    1    1    2    0    0 -0.20832398208E+02 -0.34374530559E+02 -0.16371505270E+02  0.43400729845E+02  0.00000000000E+00 0.  1.
         11    1    3    3    0    0  0.86038522324E+01  0.16075362114E+02  0.14935939694E+02  0.23569595566E+02  0.51100000000E-03 0. -1.
        -11    1    3    3    0    0  0.42571802460E+01  0.46772220133E-01  0.31259311068E+00  0.42688975160E+01  0.51100000000E-03 0.  1.
        -12    1    3    3    0    0  0.79713657298E+01  0.18252396225E+02  0.11229724653E+01  0.19948777073E+02  0.00000000000E+00 0.  1.
</event>
<event>
 7    1  0.1899036E-009  0.4778726E+02  0.7816164E-02  0.1312668E+00
        -11   -1    0    0    0    0  0.00000000000E+00  0.00000000000E+00  0.45593999997E+02  0.45594000000E+02  0.51100000000E-03 0. -1.
         11   -1    0    0    0    0 -0.00000000000E+00 -0.00000000000E+00 -0.45593999997E+02  0.45594000000E+02  0.51100000000E-03 0.  1.
    9900012    2    1    2    0    0 -0.22452356292E+02 -0.24436812775E+02  0.27970660630E+02  0.47787262936E+02  0.19999963028E+02 0.  0.
        -12    1    1    2    0    0  0.22452356292E+02  0.24436812775E+02 -0.27970660630E+02  0.43400737064E+02  0.00000000000E+00 0.  1.
         11    1    3    3    0    0 -0.95217404783E+01 -0.10774103009E+02  0.14705458909E+02  0.20566850984E+02  0.51100000000E-03 0. -1.
        -11    1    3    3    0    0  0.11834108455E+01 -0.73842379212E+01  0.11023247292E+01  0.75592692091E+01  0.51100000000E-03 0.  1.
         12    1    3    3    0    0 -0.14114026659E+02 -0.62784718442E+01  0.12162876992E+02  0.19661142743E+02  0.00000000000E+00 0. -1.
</event>
<event>
 7    1  0.1899036E-009  0.4778728E+02  0.7816164E-02  0.1312668E+00
        -11   -1    0    0    0    0  0.00000000000E+00  0.00000000000E+00  0.45593999997E+02  0.45594000000E+02  0.51100000000E-03 0. -1.
         11   -1    0    0    0    0 -0.00000000000E+00 -0.00000000000E+00 -0.45593999997E+02  0.45594000000E+02  0.51100000000E-03 0.  1.
    9900012    2    1    2    0    0 -0.19041665232E+02  0.36196301593E+02 -0.14521210600E+02  0.47787276260E+02  0.20000023782E+02 0.  0.
        -12    1    1    2    0    0  0.19041665232E+02 -0.36196301593E+02  0.14521210600E+02  0.43400723740E+02  0.00000000000E+00 0.  1.
         11    1    3    3    0    0 -0.55674699447E+01  0.64231328077E+01  0.43532035547E+01  0.95500648217E+01  0.51100000000E-03 0. -1.
        -11    1    3    3    0    0 -0.25380849744E+01  0.10785733836E+02 -0.86529666429E+01  0.14058725465E+02  0.51100000000E-03 0.  1.
         12    1    3    3    0    0 -0.10936110313E+02  0.18987434949E+02 -0.10221447512E+02  0.24178485973E+02  0.00000000000E+00 0. -1.
</event>
<event>
 7    1  0.1899036E-009  0.4778727E+02  0.7816164E-02  0.1312668E+00
        -11   -1    0    0    0    0  0.00000000000E+00  0.00000000000E+00  0.45593999997E+02  0.45594000000E+02  0.51100000000E-03 0. -1.
         11   -1    0    0    0    0 -0.00000000000E+00 -0.00000000000E+00 -0.45593999997E+02  0.45594000000E+02  0.51100000000E-03 0.  1.
    9900012    2    1    2    0    0  0.21964833452E+02  0.82701619530E+01  0.36507175075E+02  0.47787270521E+02  0.19999997614E+02 0.  0.
        -12    1    1    2    0    0 -0.21964833452E+02 -0.82701619530E+01 -0.36507175075E+02  0.43400729479E+02  0.00000000000E+00 0.  1.
         11    1    3    3    0    0  0.75391756405E+01  0.71454231461E+01  0.16998936428E+02  0.19921347375E+02  0.51100000000E-03 0. -1.
        -11    1    3    3    0    0 -0.19984988504E+00  0.46827970626E+01  0.62145653929E+01  0.77839162116E+01  0.51100000000E-03 0.  1.
        -12    1    3    3    0    0  0.14625507697E+02 -0.35580582557E+01  0.13293673254E+02  0.20082006935E+02  0.00000000000E+00 0.  1.
</event>
<event>
 7    1  0.1899036E-009  0.4778727E+02  0.7816164E-02  0.1312668E+00
        -11   -1    0    0    0    0  0.00000000000E+00  0.00000000000E+00  0.45593999997E+02  0.45594000000E+02  0.51100000000E-03 0. -1.
         11   -1    0    0    0    0 -0.00000000000E+00 -0.00000000000E+00 -0.45593999997E+02  0.45594000000E+02  0.51100000000E-03 0.  1.
    9900012    2    1    2    0    0  0.90706792389E+01 -0.39725962138E+02  0.14939677737E+02  0.47787271198E+02  0.20000000700E+02 0.  0.
        -12    1    1    2    0    0 -0.90706792389E+01  0.39725962138E+02 -0.14939677737E+02  0.43400728802E+02  0.00000000000E+00 0.  1.
         11    1    3    3    0    0  0.75558133025E+01 -0.84722818870E+01  0.79389247633E+01  0.13852667674E+02  0.51100000000E-03 0. -1.
        -11    1    3    3    0    0 -0.25329371986E+01 -0.24200883222E+01 -0.11701700426E+01  0.36934938106E+01  0.51100000000E-03 0.  1.
         12    1    3    3    0    0  0.40478031349E+01 -0.28833591929E+02  0.81709230166E+01  0.30241109713E+02  0.00000000000E+00 0. -1.
</event>
<event>
 7    1  0.1899036E-009  0.4778727E+02  0.7816164E-02  0.1312668E+00
        -11   -1    0    0    0    0  0.00000000000E+00  0.00000000000E+00  0.45593999997E+02  0.45594000000E+02  0.51100000000E-03 0.  1.
         11   -1    0    0    0    0 -0.00000000000E+00 -0.00000000000E+00 -0.45593999997E+02  0.45594000000E+02  0.51100000000E-03 0. -1.
    9900012    2    1    2    0    0  0.37447152038E+02  0.19335665679E+02  0.10366583189E+02  0.47787271780E+02  0.20000003353E+02 0.  0.
        -12    1    1    2    0    0 -0.37447152038E+02 -0.19335665679E+02 -0.10366583189E+02  0.43400728220E+02  0.00000000000E+00 0.  1.
         11    1    3    3    0    0  0.13951979197E+02  0.94201805648E+01  0.18141551878E+01  0.16931883672E+02  0.51100000000E-03 0. -1.
        -11    1    3    3    0    0  0.11100156637E+02  0.51279015381E+00  0.10360715014E+02  0.15192789308E+02  0.51100000000E-03 0.  1.
        -12    1    3    3    0    0  0.12395016204E+02  0.94026949608E+01 -0.18082870130E+01  0.15662598799E+02  0.00000000000E+00 0.  1.
</event>
<event>
 7    1  0.1899036E-009  0.4778727E+02  0.7816164E-02  0.1312668E+00
        -11   -1    0    0    0    0  0.00000000000E+00  0.00000000000E+00  0.45593999997E+02  0.45594000000E+02  0.51100000000E-03 0. -1.
         11   -1    0    0    0    0 -0.00000000000E+00 -0.00000000000E+00 -0.45593999997E+02  0.45594000000E+02  0.51100000000E-03 0.  1.
    9900012    2    1    2    0    0 -0.35637784046E+02  0.23247798965E+01  0.24661050217E+02  0.47787266699E+02  0.19999980189E+02 0.  0.
        -12    1    1    2    0    0  0.35637784046E+02 -0.23247798965E+01 -0.24661050217E+02  0.43400733301E+02  0.00000000000E+00 0.  1.
         11    1    3    3    0    0  0.21385556652E+01 -0.81657012665E+00  0.16919175375E+01  0.28465404124E+01  0.51100000000E-03 0. -1.
        -11    1    3    3    0    0 -0.16780358500E+02 -0.16359636952E+01  0.76470223335E+01  0.18513069963E+02  0.51100000000E-03 0.  1.
         12    1    3    3    0    0 -0.20995981210E+02  0.47773137183E+01  0.15322110346E+02  0.26427656324E+02  0.00000000000E+00 0. -1.
</event>
<event>
 7    1  0.1899036E-009  0.4778728E+02  0.7816164E-02  0.1312668E+00
        -11   -1    0    0    0    0  0.00000000000E+00  0.00000000000E+00  0.45593999997E+02  0.45594000000E+02  0.51100000000E-03 0. -1.
         11   -1    0    0    0    0 -0.00000000000E+00 -0.00000000000E+00 -0.45593999997E+02  0.45594000000E+02  0.51100000000E-03 0.  1.
    9900012    2    1    2    0    0  0.28893988038E+02 -0.31460212921E+02  0.76821457872E+01  0.47787275286E+02  0.20000019341E+02 0.  0.
        -12    1    1    2    0    0 -0.28893988038E+02  0.31460212921E+02 -0.76821457872E+01  0.43400724714E+02  0.00000000000E+00 0.  1.
         11    1    3    3    0    0  0.16918284338E+02 -0.23324290585E+02 -0.17357790661E+01  0.28866309177E+02  0.51100000000E-03 0. -1.
        -11    1    3    3    0    0  0.19504472094E+01 -0.56288844023E+01  0.45597665763E+01  0.75020034272E+01  0.51100000000E-03 0.  1.
         12    1    3    3    0    0  0.10025256491E+02 -0.25070379330E+01  0.48581582770E+01  0.11418962683E+02  0.00000000000E+00 0. -1.
</event>
<event>
 7    1  0.1899036E-009  0.4778727E+02  0.7816164E-02  0.1312668E+00
        -11   -1    0    0    0    0  0.00000000000E+00  0.00000000000E+00  0.45593999997E+02  0.45594000000E+02  0.51100000000E-03 0.  1.
         11   -1    0    0    0    0 -0.00000000000E+00 -0.00000000000E+00 -0.45593999997E+02  0.45594000000E+02  0.51100000000E-03 0. -1.
    9900012    2    1    2    0    0 -0.33332028926E+02 -0.17370943330E+02 -0.21699060229E+02  0.47787273747E+02  0.20000012320E+02 0.  0.
        -12    1    1    2    0    0  0.33332028926E+02  0.17370943330E+02  0.21699060229E+02  0.43400726253E+02  0.00000000000E+00 0.  1.
         11    1    3    3    0    0 -0.28598263461E+02 -0.11161791842E+02 -0.22422941169E+02  0.38016240754E+02  0.51100000000E-03 0. -1.
        -11    1    3    3    0    0  0.62634096377E-01  0.10369015826E+01 -0.93459313554E-01  0.10429874527E+01  0.51100000000E-03 0.  1.
        -12    1    3    3    0    0 -0.47963995617E+01 -0.72460530707E+01  0.81734025413E+00  0.87280455401E+01  0.00000000000E+00 0.  1.
</event>
<event>
 7    1  0.1899036E-009  0.4778727E+02  0.7816164E-02  0.1312668E+00
        -11   -1    0    0    0    0  0.00000000000E+00  0.00000000000E+00  0.45593999997E+02  0.45594000000E+02  0.51100000000E-03 0.  1.
         11   -1    0    0    0    0 -0.00000000000E+00 -0.00000000000E+00 -0.45593999997E+02  0.45594000000E+02  0.51100000000E-03 0. -1.
    9900012    2    1    2    0    0  0.30649280831E+02  0.43594090821E+01 -0.30417765050E+02  0.47787270816E+02  0.19999998961E+02 0.  0.
        -12    1    1    2    0    0 -0.30649280831E+02 -0.43594090821E+01  0.30417765050E+02  0.43400729184E+02  0.00000000000E+00 0.  1.
         11    1    3    3    0    0  0.43450975671E+01 -0.57193886580E+01 -0.27954233186E+01  0.77075074622E+01  0.51100000000E-03 0. -1.
        -11    1    3    3    0    0  0.13800108849E+02  0.15964880044E+01 -0.14276152849E+02  0.19919847354E+02  0.51100000000E-03 0.  1.
         12    1    3    3    0    0  0.12504074415E+02  0.84823097358E+01 -0.13346188883E+02  0.20159916000E+02  0.00000000000E+00 0. -1.
</event>
<event>
 7    1  0.1899036E-009  0.4778727E+02  0.7816164E-02  0.1312668E+00
        -11   -1    0    0    0    0  0.00000000000E+00  0.00000000000E+00  0.45593999997E+02  0.45594000000E+02  0.51100000000E-03 0.  1.
         11   -1    0    0    0    0 -0.00000000000E+00 -0.00000000000E+00 -0.45593999997E+02  0.45594000000E+02  0.51100000000E-03 0. -1.
    9900012    2    1    2    0    0  0.92019057186E+01 -0.80998117362E+01 -0.41633416084E+02  0.47787270123E+02  0.19999995798E+02 0.  0.
        -12    1    1    2    0    0 -0.92019057186E+01  0.80998117362E+01  0.41633416084E+02  0.43400729877E+02  0.00000000000E+00 0.  1.
         11    1    3    3    0    0  0.58098546188E+01 -0.26442477796E+01 -0.10323144084E+02  0.12137288043E+02  0.51100000000E-03 0. -1.
        -11    1    3    3    0    0 -0.56463374183E+01 -0.36153338305E+01 -0.72134570358E+01  0.98481332046E+01  0.51100000000E-03 0.  1.
        -12    1    3    3    0    0  0.90383885181E+01 -0.18402301260E+01 -0.24096814965E+02  0.25801848875E+02  0.00000000000E+00 0.  1.
</event>
<event>
 7    1  0.1899036E-009  0.4778727E+02  0.7816164E-02  0.1312668E+00
        -11   -1    0    0    0    0  0.00000000000E+00  0.00000000000E+00  0.45593999997E+02  0.45594000000E+02  0.51100000000E-03 0.  1.
         11   -1    0    0    0    0 -0.00000000000E+00 -0.00000000000E+00 -0.45593999997E+02  0.45594000000E+02  0.51100000000E-03 0. -1.
    9900012    2    1    2    0    0 -0.21089820151E+02  0.20809810925E+02 -0.31714264426E+02  0.47787270596E+02  0.19999997954E+02 0.  0.
        -12    1    1    2    0    0  0.21089820151E+02 -0.20809810925E+02  0.31714264426E+02  0.43400729404E+02  0.00000000000E+00 0.  1.
         11    1    3    3    0    0 -0.27204932125E+00  0.93712369985E+01 -0.72563093753E+01  0.11855299225E+02  0.51100000000E-03 0. -1.
        -11    1    3    3    0    0 -0.82781364158E+01  0.36194456880E+01 -0.17288488623E+02  0.19506915921E+02  0.51100000000E-03 0.  1.
         12    1    3    3    0    0 -0.12539634414E+02  0.78191282388E+01 -0.71694664272E+01  0.16425055449E+02  0.00000000000E+00 0. -1.
</event>
<event>
 7    1  0.1899036E-009  0.4778727E+02  0.7816164E-02  0.1312668E+00
        -11   -1    0    0    0    0  0.00000000000E+00  0.00000000000E+00  0.45593999997E+02  0.45594000000E+02  0.51100000000E-03 0. -1.
         11   -1    0    0    0    0 -0.00000000000E+00 -0.00000000000E+00 -0.45593999997E+02  0.45594000000E+02  0.51100000000E-03 0.  1.
    9900012    2    1    2    0    0  0.27409542547E+02  0.33542958079E+02  0.26851306631E+01  0.47787274361E+02  0.20000015124E+02 0.  0.
        -12    1    1    2    0    0 -0.27409542547E+02 -0.33542958079E+02 -0.26851306631E+01  0.43400725639E+02  0.00000000000E+00 0.  1.
         11    1    3    3    0    0  0.17527719883E+02  0.23305873450E+02  0.97355909525E+01  0.30743559212E+02  0.51100000000E-03 0. -1.
        -11    1    3    3    0    0  0.22624340623E+01 -0.38846285765E+00 -0.19396150263E+01  0.30052650447E+01  0.51100000000E-03 0.  1.
        -12    1    3    3    0    0  0.76193886010E+01  0.10625547487E+02 -0.51108452631E+01  0.14038450105E+02  0.00000000000E+00 0.  1.
</event>
<event>
 7    1  0.1899036E-009  0.4778727E+02  0.7816164E-02  0.1312668E+00
        -11   -1    0    0    0    0  0.00000000000E+00  0.00000000000E+00  0.45593999997E+02  0.45594000000E+02  0.51100000000E-03 0. -1.
         11   -1    0    0    0    0 -0.00000000000E+00 -0.00000000000E+00 -0.45593999997E+02  0.45594000000E+02  0.51100000000E-03 0.  1.
    9900012    2    1    2    0    0  0.12035761500E+02  0.38133875215E+02 -0.16869231741E+02  0.47787274506E+02  0.20000015784E+02 0.  0.
        -12    1    1    2    0    0 -0.12035761500E+02 -0.38133875215E+02  0.16869231741E+02  0.43400725494E+02  0.00000000000E+00 0.  1.
         11    1    3    3    0    0  0.65731148923E+01  0.65491849633E+01 -0.12429623705E+01  0.93617636579E+01  0.51100000000E-03 0.  1.
        -11    1    3    3    0    0  0.31949113052E+01  0.32476040059E+02 -0.14966091931E+02  0.35901038204E+02  0.51100000000E-03 0. -1.
         12    1    3    3    0    0  0.22677353029E+01 -0.89134980672E+00 -0.66017744010E+00  0.25244726448E+01  0.00000000000E+00 0. -1.
</event>
<event>
 7    1  0.1899036E-009  0.4778727E+02  0.7816164E-02  0.1312668E+00
        -11   -1    0    0    0    0  0.00000000000E+00  0.00000000000E+00  0.45593999997E+02  0.45594000000E+02  0.51100000000E-03 0.  1.
         11   -1    0    0    0    0 -0.00000000000E+00 -0.00000000000E+00 -0.45593999997E+02  0.45594000000E+02  0.51100000000E-03 0. -1.
    9900012    2    1    2    0    0  0.17890512843E+02  0.99168899450E+01 -0.38278040509E+02  0.47787267965E+02  0.19999985960E+02 0.  0.
        -12    1    1    2    0    0 -0.17890512843E+02 -0.99168899450E+01  0.38278040509E+02  0.43400732035E+02  0.00000000000E+00 0.  1.
         11    1    3    3    0    0  0.82272232446E+01  0.66693963030E+01 -0.12539416352E+02  0.16413561833E+02  0.51100000000E-03 0. -1.
        -11    1    3    3    0    0  0.17464899712E+01  0.51399367741E+01 -0.12540110456E+01  0.55715097796E+01  0.51100000000E-03 0.  1.
         12    1    3    3    0    0  0.79167996268E+01 -0.18924431321E+01 -0.24484613112E+02  0.25802196352E+02  0.00000000000E+00 0. -1.
</event>
<event>
 7    1  0.1899036E-009  0.4778727E+02  0.7816164E-02  0.1312668E+00
        -11   -1    0    0    0    0  0.00000000000E+00  0.00000000000E+00  0.45593999997E+02  0.45594000000E+02  0.51100000000E-03 0.  1.
         11   -1    0    0    0    0 -0.00000000000E+00 -0.00000000000E+00 -0.45593999997E+02  0.45594000000E+02  0.51100000000E-03 0. -1.
    9900012    2    1    2    0    0 -0.24735051862E+02  0.11451853723E+02 -0.33773590832E+02  0.47787272103E+02  0.20000004826E+02 0.  0.
        -12    1    1    2    0    0  0.24735051862E+02 -0.11451853723E+02  0.33773590832E+02  0.43400727897E+02  0.00000000000E+00 0.  1.
         11    1    3    3    0    0 -0.13964739851E+02  0.10581555120E+02 -0.28685369537E+02  0.33612998879E+02  0.51100000000E-03 0. -1.
        -11    1    3    3    0    0 -0.21065551318E+01 -0.30134807926E+01 -0.20271783041E+01  0.41985822783E+01  0.51100000000E-03 0.  1.
        -12    1    3    3    0    0 -0.86637568795E+01  0.38837793957E+01 -0.30610429904E+01  0.99756909460E+01  0.00000000000E+00 0.  1.
</event>
<event>
 7    1  0.1899036E-009  0.4778727E+02  0.7816164E-02  0.1312668E+00
        -11   -1    0    0    0    0  0.00000000000E+00  0.00000000000E+00  0.45593999997E+02  0.45594000000E+02  0.51100000000E-03 0.  1.
         11   -1    0    0    0    0 -0.00000000000E+00 -0.00000000000E+00 -0.45593999997E+02  0.45594000000E+02  0.51100000000E-03 0. -1.
    9900012    2    1    2    0    0  0.32025676365E+02  0.11345324626E+02 -0.27004865850E+02  0.47787272851E+02  0.20000008235E+02 0.  0.
        -12    1    1    2    0    0 -0.32025676365E+02 -0.11345324626E+02  0.27004865850E+02  0.43400727149E+02  0.00000000000E+00 0.  1.
         11    1    3    3    0    0  0.17680510321E+02  0.15837330435E+01 -0.15738737700E+02  0.23723754345E+02  0.51100000000E-03 0. -1.
        -11    1    3    3    0    0 -0.16146783096E+01  0.26063725803E+01 -0.41992074312E+01  0.51993949053E+01  0.51100000000E-03 0.  1.
         12    1    3    3    0    0  0.15959844354E+02  0.71552190021E+01 -0.70669207193E+01  0.18864123600E+02  0.00000000000E+00 0. -1.
</event>
<event>
 7    1  0.1899036E-009  0.4778727E+02  0.7816164E-02  0.1312668E+00
        -11   -1    0    0    0    0  0.00000000000E+00  0.00000000000E+00  0.45593999997E+02  0.45594000000E+02  0.51100000000E-03 0.  1.
         11   -1    0    0    0    0 -0.00000000000E+00 -0.00000000000E+00 -0.45593999997E+02  0.45594000000E+02  0.51100000000E-03 0. -1.
    9900012    2    1    2    0    0  0.18270798181E+02 -0.36244443875E+02  0.15366897587E+02  0.47787270520E+02  0.19999997610E+02 0.  0.
        -12    1    1    2    0    0 -0.18270798181E+02  0.36244443875E+02 -0.15366897587E+02  0.43400729480E+02  0.00000000000E+00 0.  1.
         11    1    3    3    0    0  0.14562911602E+02 -0.33021661081E+02  0.10770575784E+02  0.37663162346E+02  0.51100000000E-03 0. -1.
        -11    1    3    3    0    0  0.50192305849E+01 -0.33512399784E+01  0.57773086577E+01  0.83546861488E+01  0.51100000000E-03 0.  1.
         12    1    3    3    0    0 -0.13113440065E+01  0.12845718531E+00 -0.11809868552E+01  0.17694220255E+01  0.00000000000E+00 0. -1.
</event>
<event>
 7    1  0.1899036E-009  0.4778727E+02  0.7816164E-02  0.1312668E+00
        -11   -1    0    0    0    0  0.00000000000E+00  0.00000000000E+00  0.45593999997E+02  0.45594000000E+02  0.51100000000E-03 0.  1.
         11   -1    0    0    0    0 -0.00000000000E+00 -0.00000000000E+00 -0.45593999997E+02  0.45594000000E+02  0.51100000000E-03 0. -1.
    9900012    2    1    2    0    0  0.38817036957E+02 -0.13972459121E+02  0.13477075397E+02  0.47787268056E+02  0.19999986376E+02 0.  0.
        -12    1    1    2    0    0 -0.38817036957E+02  0.13972459121E+02 -0.13477075397E+02  0.43400731944E+02  0.00000000000E+00 0.  1.
         11    1    3    3    0    0  0.96150767361E+01 -0.80246904143E+01  0.99808856734E+01  0.16014475826E+02  0.51100000000E-03 0. -1.
        -11    1    3    3    0    0  0.20289923555E+01  0.18423815186E+01 -0.14108057473E+01  0.30824588816E+01  0.51100000000E-03 0.  1.
         12    1    3    3    0    0  0.27172967865E+02 -0.77901502257E+01  0.49069954709E+01  0.28690333349E+02  0.00000000000E+00 0. -1.
</event>
<event>
 7    1  0.1899036E-009  0.4778728E+02  0.7816164E-02  0.1312668E+00
        -11   -1    0    0    0    0  0.00000000000E+00  0.00000000000E+00  0.45593999997E+02  0.45594000000E+02  0.51100000000E-03 0. -1.
         11   -1    0    0    0    0 -0.00000000000E+00 -0.00000000000E+00 -0.45593999997E+02  0.45594000000E+02  0.51100000000E-03 0.  1.
    9900012    2    1    2    0    0 -0.64890657787E+01  0.40824624514E+02  0.13223651326E+02  0.47787275400E+02  0.20000019859E+02 0.  0.
        -12    1    1    2    0    0  0.64890657787E+01 -0.40824624514E+02 -0.13223651326E+02  0.43400724600E+02  0.00000000000E+00 0.  1.
         11    1    3    3    0    0 -0.37556641383E+00  0.20702631629E+02  0.41070328064E+01  0.21109422665E+02  0.51100000000E-03 0. -1.
        -11    1    3    3    0    0  0.38817257041E+01  0.20097983854E+01  0.19262347345E+01  0.47767629735E+01  0.51100000000E-03 0.  1.
         12    1    3    3    0    0 -0.99952250689E+01  0.18112194500E+02  0.71903837855E+01  0.21901089762E+02  0.00000000000E+00 0. -1.
</event>
<event>
 7    1  0.1899036E-009  0.4778727E+02  0.7816164E-02  0.1312668E+00
        -11   -1    0    0    0    0  0.00000000000E+00  0.00000000000E+00  0.45593999997E+02  0.45594000000E+02  0.51100000000E-03 0.  1.
         11   -1    0    0    0    0 -0.00000000000E+00 -0.00000000000E+00 -0.45593999997E+02  0.45594000000E+02  0.51100000000E-03 0. -1.
    9900012    2    1    2    0    0  0.31176369216E+02  0.21569125406E+02 -0.21128886058E+02  0.47787274265E+02  0.20000014684E+02 0.  0.
        -12    1    1    2    0    0 -0.31176369216E+02 -0.21569125406E+02  0.21128886058E+02  0.43400725735E+02  0.00000000000E+00 0.  1.
         11    1    3    3    0    0  0.16469304261E+02  0.89577065106E+01 -0.67691378075E+01  0.19932378576E+02  0.51100000000E-03 0. -1.
        -11    1    3    3    0    0 -0.56326216818E+00 -0.15156762450E+01  0.10834667672E+01  0.19463913394E+01  0.51100000000E-03 0.  1.
         12    1    3    3    0    0  0.15270327123E+02  0.14127095141E+02 -0.15443215018E+02  0.25908504350E+02  0.00000000000E+00 0. -1.
</event>
<event>
 7    1  0.1899036E-009  0.4778727E+02  0.7816164E-02  0.1312668E+00
        -11   -1    0    0    0    0  0.00000000000E+00  0.00000000000E+00  0.45593999997E+02  0.45594000000E+02  0.51100000000E-03 0.  1.
         11   -1    0    0    0    0 -0.00000000000E+00 -0.00000000000E+00 -0.45593999997E+02  0.45594000000E+02  0.51100000000E-03 0. -1.
    9900012    2    1    2    0    0  0.12279400667E+02 -0.16358079884E+02 -0.38278627047E+02  0.47787265596E+02  0.19999975157E+02 0.  0.
        -12    1    1    2    0    0 -0.12279400667E+02  0.16358079884E+02  0.38278627047E+02  0.43400734404E+02  0.00000000000E+00 0.  1.
         11    1    3    3    0    0  0.46532304077E+01 -0.16697806884E+02 -0.30390196511E+02  0.34986188020E+02  0.51100000000E-03 0. -1.
        -11    1    3    3    0    0  0.14066966345E+01  0.21842154122E+01 -0.51328126764E+01  0.57528565618E+01  0.51100000000E-03 0.  1.
        -12    1    3    3    0    0  0.62194736244E+01 -0.18444884122E+01 -0.27556178599E+01  0.70482210136E+01  0.00000000000E+00 0.  1.
</event>
<event>
 7    1  0.1899036E-009  0.4778727E+02  0.7816164E-02  0.1312668E+00
        -11   -1    0    0    0    0  0.00000000000E+00  0.00000000000E+00  0.45593999997E+02  0.45594000000E+02  0.51100000000E-03 0.  1.
         11   -1    0    0    0    0 -0.00000000000E+00 -0.00000000000E+00 -0.45593999997E+02  0.45594000000E+02  0.51100000000E-03 0. -1.
    9900012    2    1    2    0    0  0.25854773413E+02 -0.17006140963E+02 -0.30429346942E+02  0.47787270813E+02  0.19999998943E+02 0.  0.
        -12    1    1    2    0    0 -0.25854773413E+02  0.17006140963E+02  0.30429346942E+02  0.43400729187E+02  0.00000000000E+00 0.  1.
         11    1    3    3    0    0  0.19358032885E+02 -0.16866169102E+02 -0.13029526498E+02  0.28791833189E+02  0.51100000000E-03 0. -1.
        -11    1    3    3    0    0  0.16885765591E+01  0.15793257779E+01 -0.35725409231E+01  0.42554212032E+01  0.51100000000E-03 0.  1.
         12    1    3    3    0    0  0.48081639685E+01 -0.17192976391E+01 -0.13827279521E+02  0.14740016420E+02  0.00000000000E+00 0. -1.
</event>
<event>
 7    1  0.1899036E-009  0.4778727E+02  0.7816164E-02  0.1312668E+00
        -11   -1    0    0    0    0  0.00000000000E+00  0.00000000000E+00  0.45593999997E+02  0.45594000000E+02  0.51100000000E-03 0.  1.
         11   -1    0    0    0    0 -0.00000000000E+00 -0.00000000000E+00 -0.45593999997E+02  0.45594000000E+02  0.51100000000E-03 0. -1.
    9900012    2    1    2    0    0 -0.26709885242E+02 -0.32708918601E+02  0.10016582535E+02  0.47787271304E+02  0.20000001184E+02 0.  0.
        -12    1    1    2    0    0  0.26709885242E+02  0.32708918601E+02 -0.10016582535E+02  0.43400728696E+02  0.00000000000E+00 0.  1.
         11    1    3    3    0    0 -0.12156940070E+02 -0.14559479418E+02  0.27803635990E+01  0.19170290942E+02  0.51100000000E-03 0. -1.
        -11    1    3    3    0    0 -0.16723783202E+02 -0.18446389467E+02  0.48306691717E+01  0.25363153862E+02  0.51100000000E-03 0.  1.
        -12    1    3    3    0    0  0.21708380301E+01  0.29695028430E+00  0.24055497641E+01  0.32538264999E+01  0.00000000000E+00 0.  1.
</event>
<event>
 7    1  0.1899036E-009  0.4778727E+02  0.7816164E-02  0.1312668E+00
        -11   -1    0    0    0    0  0.00000000000E+00  0.00000000000E+00  0.45593999997E+02  0.45594000000E+02  0.51100000000E-03 0.  1.
         11   -1    0    0    0    0 -0.00000000000E+00 -0.00000000000E+00 -0.45593999997E+02  0.45594000000E+02  0.51100000000E-03 0. -1.
    9900012    2    1    2    0    0  0.23126824414E+02  0.26887207742E+02 -0.25017018650E+02  0.47787272244E+02  0.20000005467E+02 0.  0.
        -12    1    1    2    0    0 -0.23126824414E+02 -0.26887207742E+02  0.25017018650E+02  0.43400727756E+02  0.00000000000E+00 0.  1.
         11    1    3    3    0    0  0.21819961747E+02  0.27190386862E+02 -0.25622240055E+02  0.43265772315E+02  0.51100000000E-03 0. -1.
        -11    1    3    3    0    0  0.12456741780E+01 -0.13420267716E+01 -0.13713958277E+01  0.22876771605E+01  0.51100000000E-03 0.  1.
        -12    1    3    3    0    0  0.61188488836E-01  0.10388476525E+01  0.19766172324E+01  0.22338227682E+01  0.00000000000E+00 0.  1.
</event>
<event>
 7    1  0.2312517E-009  0.4778726E+02  0.7816164E-02  0.1312668E+00
        -11   -1    0    0    0    0  0.00000000000E+00  0.00000000000E+00  0.45593999997E+02  0.45594000000E+02  0.51100000000E-03 0.  1.
         11   -1    0    0    0    0 -0.00000000000E+00 -0.00000000000E+00 -0.45593999997E+02  0.45594000000E+02  0.51100000000E-03 0. -1.
    9900012    2    1    2    0    0  0.24033482963E+02 -0.34565118163E+02 -0.10548382461E+02  0.47787261878E+02  0.19999958208E+02 0.  0.
        -12    1    1    2    0    0 -0.24033482963E+02  0.34565118163E+02  0.10548382461E+02  0.43400738122E+02  0.00000000000E+00 0.  1.
         11    1    3    3    0    0  0.73688024927E+01 -0.88600741289E+01 -0.55670920566E+00  0.11537334577E+02  0.51100000000E-03 0. -1.
        -11    1    3    3    0    0  0.24110848944E+01 -0.17504175984E+01 -0.77293731149E+01  0.82837492204E+01  0.51100000000E-03 0.  1.
        -12    1    3    3    0    0  0.14253595576E+02 -0.23954626436E+02 -0.22623001403E+01  0.27966178081E+02  0.00000000000E+00 0.  1.
</event>
<event>
 7    1  0.1899036E-009  0.4778727E+02  0.7816164E-02  0.1312668E+00
        -11   -1    0    0    0    0  0.00000000000E+00  0.00000000000E+00  0.45593999997E+02  0.45594000000E+02  0.51100000000E-03 0.  1.
         11   -1    0    0    0    0 -0.00000000000E+00 -0.00000000000E+00 -0.45593999997E+02  0.45594000000E+02  0.51100000000E-03 0. -1.
    9900012    2    1    2    0    0  0.37157836187E+02  0.28678283590E+01 -0.22241710985E+02  0.47787274924E+02  0.20000017687E+02 0.  0.
        -12    1    1    2    0    0 -0.37157836187E+02 -0.28678283590E+01  0.22241710985E+02  0.43400725076E+02  0.00000000000E+00 0.  1.
         11    1    3    3    0    0  0.41206400482E+01 -0.23406641676E+01 -0.68678621160E+01  0.83442143703E+01  0.51100000000E-03 0. -1.
        -11    1    3    3    0    0  0.37344883939E+01 -0.38509691192E+01 -0.59591708256E+00  0.53973589979E+01  0.51100000000E-03 0.  1.
        -12    1    3    3    0    0  0.29302707745E+02  0.90594616458E+01 -0.14777931786E+02  0.34045701555E+02  0.00000000000E+00 0.  1.
</event>
<event>
 7    1  0.1899036E-009  0.4778727E+02  0.7816164E-02  0.1312668E+00
        -11   -1    0    0    0    0  0.00000000000E+00  0.00000000000E+00  0.45593999997E+02  0.45594000000E+02  0.51100000000E-03 0. -1.
         11   -1    0    0    0    0 -0.00000000000E+00 -0.00000000000E+00 -0.45593999997E+02  0.45594000000E+02  0.51100000000E-03 0.  1.
    9900012    2    1    2    0    0  0.42593714564E+02  0.54774208444E+01  0.62766902654E+01  0.47787268438E+02  0.19999988116E+02 0.  0.
        -12    1    1    2    0    0 -0.42593714564E+02 -0.54774208444E+01 -0.62766902654E+01  0.43400731562E+02  0.00000000000E+00 0.  1.
         11    1    3    3    0    0  0.19395962421E+02  0.82241819883E+01  0.66306734137E+00  0.21077954981E+02  0.51100000000E-03 0. -1.
        -11    1    3    3    0    0 -0.11097232843E+01 -0.12527601164E+01 -0.15910659659E+00  0.16811332032E+01  0.51100000000E-03 0.  1.
        -12    1    3    3    0    0  0.24307475427E+02 -0.14940010275E+01  0.57727295206E+01  0.25028180254E+02  0.00000000000E+00 0.  1.
</event>
<event>
 7    1  0.1899036E-009  0.4778727E+02  0.7816164E-02  0.1312668E+00
        -11   -1    0    0    0    0  0.00000000000E+00  0.00000000000E+00  0.45593999997E+02  0.45594000000E+02  0.51100000000E-03 0.  1.
         11   -1    0    0    0    0 -0.00000000000E+00 -0.00000000000E+00 -0.45593999997E+02  0.45594000000E+02  0.51100000000E-03 0. -1.
    9900012    2    1    2    0    0  0.42620654485E+02 -0.80601276821E+01 -0.14621151555E+01  0.47787266968E+02  0.19999981415E+02 0.  0.
        -12    1    1    2    0    0 -0.42620654485E+02  0.80601276821E+01  0.14621151555E+01  0.43400733032E+02  0.00000000000E+00 0.  1.
         11    1    3    3    0    0  0.26176905114E+02 -0.25954805373E+01 -0.66802357898E+01  0.27140236385E+02  0.51100000000E-03 0. -1.
        -11    1    3    3    0    0  0.20918086627E+01  0.17802925691E+01 -0.16058597414E+01  0.31818062296E+01  0.51100000000E-03 0.  1.
        -12    1    3    3    0    0  0.14351940708E+02 -0.72449397139E+01  0.68239803757E+01  0.17465224353E+02  0.00000000000E+00 0.  1.
</event>
<event>
 7    1  0.1899036E-009  0.4778727E+02  0.7816164E-02  0.1312668E+00
        -11   -1    0    0    0    0  0.00000000000E+00  0.00000000000E+00  0.45593999997E+02  0.45594000000E+02  0.51100000000E-03 0.  1.
         11   -1    0    0    0    0 -0.00000000000E+00 -0.00000000000E+00 -0.45593999997E+02  0.45594000000E+02  0.51100000000E-03 0. -1.
    9900012    2    1    2    0    0 -0.20441458226E+02 -0.43278451361E+01 -0.38039978358E+02  0.47787269460E+02  0.19999992775E+02 0.  0.
        -12    1    1    2    0    0  0.20441458226E+02  0.43278451361E+01  0.38039978358E+02  0.43400730540E+02  0.00000000000E+00 0.  1.
         11    1    3    3    0    0 -0.80119523761E+01 -0.38756893867E+01 -0.22476289243E+02  0.24174282357E+02  0.51100000000E-03 0. -1.
        -11    1    3    3    0    0 -0.72815129352E+01 -0.54236169114E+01 -0.13306255918E+02  0.16108770836E+02  0.51100000000E-03 0.  1.
        -12    1    3    3    0    0 -0.51479929151E+01  0.49714611621E+01 -0.22574331974E+01  0.75042162669E+01  0.00000000000E+00 0.  1.
</event>
<event>
 7    1  0.1899036E-009  0.4778727E+02  0.7816164E-02  0.1312668E+00
        -11   -1    0    0    0    0  0.00000000000E+00  0.00000000000E+00  0.45593999997E+02  0.45594000000E+02  0.51100000000E-03 0.  1.
         11   -1    0    0    0    0 -0.00000000000E+00 -0.00000000000E+00 -0.45593999997E+02  0.45594000000E+02  0.51100000000E-03 0. -1.
    9900012    2    1    2    0    0  0.41098885844E+02  0.22548209044E+01 -0.13763020178E+02  0.47787270059E+02  0.19999995509E+02 0.  0.
        -12    1    1    2    0    0 -0.41098885844E+02 -0.22548209044E+01  0.13763020178E+02  0.43400729941E+02  0.00000000000E+00 0.  1.
         11    1    3    3    0    0  0.22319960489E+02  0.14052714508E+01 -0.10557810165E+01  0.22389062014E+02  0.51100000000E-03 0. -1.
        -11    1    3    3    0    0  0.15694463050E+02  0.53087039506E+01 -0.96677172660E+01  0.19182368609E+02  0.51100000000E-03 0.  1.
         12    1    3    3    0    0  0.30844623062E+01 -0.44591544970E+01 -0.30395218954E+01  0.62158394364E+01  0.00000000000E+00 0. -1.
</event>
<event>
 7    1  0.1899036E-009  0.4778727E+02  0.7816164E-02  0.1312668E+00
        -11   -1    0    0    0    0  0.00000000000E+00  0.00000000000E+00  0.45593999997E+02  0.45594000000E+02  0.51100000000E-03 0.  1.
         11   -1    0    0    0    0 -0.00000000000E+00 -0.00000000000E+00 -0.45593999997E+02  0.45594000000E+02  0.51100000000E-03 0. -1.
    9900012    2    1    2    0    0  0.41640355170E+02 -0.12224412640E+02 -0.51738974448E+00  0.47787272642E+02  0.20000007284E+02 0.  0.
        -12    1    1    2    0    0 -0.41640355170E+02  0.12224412640E+02  0.51738974448E+00  0.43400727358E+02  0.00000000000E+00 0.  1.
         11    1    3    3    0    0  0.17669503029E+02 -0.32332153459E+01 -0.37622597062E+01  0.18352646052E+02  0.51100000000E-03 0. -1.
        -11    1    3    3    0    0  0.15498642656E+02 -0.54858020666E+01  0.88668680246E+01  0.18679488679E+02  0.51100000000E-03 0.  1.
        -12    1    3    3    0    0  0.84722094852E+01 -0.35053952271E+01 -0.56219980629E+01  0.10755137911E+02  0.00000000000E+00 0.  1.
</event>
<event>
 7    1  0.1899036E-009  0.4778726E+02  0.7816164E-02  0.1312668E+00
        -11   -1    0    0    0    0  0.00000000000E+00  0.00000000000E+00  0.45593999997E+02  0.45594000000E+02  0.51100000000E-03 0. -1.
         11   -1    0    0    0    0 -0.00000000000E+00 -0.00000000000E+00 -0.45593999997E+02  0.45594000000E+02  0.51100000000E-03 0.  1.
    9900012    2    1    2    0    0  0.19514734079E+02 -0.29709637387E+02  0.24902541471E+02  0.47787263007E+02  0.19999963352E+02 0.  0.
        -12    1    1    2    0    0 -0.19514734079E+02  0.29709637387E+02 -0.24902541471E+02  0.43400736993E+02  0.00000000000E+00 0.  1.
         11    1    3    3    0    0 -0.21603231409E+01 -0.37377576447E+01  0.66875758363E+01  0.79599936628E+01  0.51100000000E-03 0. -1.
        -11    1    3    3    0    0  0.25328311455E+01  0.16997783558E+00  0.32861907892E+01  0.41524903661E+01  0.51100000000E-03 0.  1.
         12    1    3    3    0    0  0.19142226075E+02 -0.26141857578E+02  0.14928774845E+02  0.35674778978E+02  0.00000000000E+00 0. -1.
</event>
<event>
 7    1  0.1899036E-009  0.4778727E+02  0.7816164E-02  0.1312668E+00
        -11   -1    0    0    0    0  0.00000000000E+00  0.00000000000E+00  0.45593999997E+02  0.45594000000E+02  0.51100000000E-03 0. -1.
         11   -1    0    0    0    0 -0.00000000000E+00 -0.00000000000E+00 -0.45593999997E+02  0.45594000000E+02  0.51100000000E-03 0.  1.
    9900012    2    1    2    0    0 -0.10325466025E+02 -0.22866530855E+01  0.42092505899E+02  0.47787273234E+02  0.20000009982E+02 0.  0.
        -12    1    1    2    0    0  0.10325466025E+02  0.22866530855E+01 -0.42092505899E+02  0.43400726766E+02  0.00000000000E+00 0.  1.
         11    1    3    3    0    0 -0.58282977988E+01  0.53638561144E+01  0.68465688354E+01  0.10469742725E+02  0.51100000000E-03 0. -1.
        -11    1    3    3    0    0 -0.89697996228E+00 -0.49540124375E+01  0.64996194596E+01  0.82214272280E+01  0.51100000000E-03 0.  1.
         12    1    3    3    0    0 -0.36001882643E+01 -0.26964967625E+01  0.28746317604E+02  0.29096103281E+02  0.00000000000E+00 0. -1.
</event>
<event>
 7    1  0.1899036E-009  0.4778727E+02  0.7816164E-02  0.1312668E+00
        -11   -1    0    0    0    0  0.00000000000E+00  0.00000000000E+00  0.45593999997E+02  0.45594000000E+02  0.51100000000E-03 0.  1.
         11   -1    0    0    0    0 -0.00000000000E+00 -0.00000000000E+00 -0.45593999997E+02  0.45594000000E+02  0.51100000000E-03 0. -1.
    9900012    2    1    2    0    0  0.42974609724E+02  0.59972318991E+01  0.91620494635E+00  0.47787270710E+02  0.19999998476E+02 0.  0.
        -12    1    1    2    0    0 -0.42974609724E+02 -0.59972318991E+01 -0.91620494635E+00  0.43400729290E+02  0.00000000000E+00 0.  1.
         11    1    3    3    0    0  0.29791179285E+01 -0.45071926125E+01 -0.13290779126E+01  0.55638455440E+01  0.51100000000E-03 0. -1.
        -11    1    3    3    0    0  0.14881474215E+02  0.44115925569E+01  0.48204288952E+01  0.16252906161E+02  0.51100000000E-03 0.  1.
         12    1    3    3    0    0  0.25114017581E+02  0.60928319547E+01 -0.25751460362E+01  0.25970519005E+02  0.00000000000E+00 0. -1.
</event>
<event>
 7    1  0.1899036E-009  0.4778727E+02  0.7816164E-02  0.1312668E+00
        -11   -1    0    0    0    0  0.00000000000E+00  0.00000000000E+00  0.45593999997E+02  0.45594000000E+02  0.51100000000E-03 0. -1.
         11   -1    0    0    0    0 -0.00000000000E+00 -0.00000000000E+00 -0.45593999997E+02  0.45594000000E+02  0.51100000000E-03 0.  1.
    9900012    2    1    2    0    0  0.34244535739E+02  0.26120202531E+02 -0.53544433140E+01  0.47787271072E+02  0.20000000128E+02 0.  0.
        -12    1    1    2    0    0 -0.34244535739E+02 -0.26120202531E+02  0.53544433140E+01  0.43400728928E+02  0.00000000000E+00 0.  1.
         11    1    3    3    0    0  0.21327141255E+01  0.95287817711E+01 -0.18862791560E+01  0.99450591198E+01  0.51100000000E-03 0. -1.
        -11    1    3    3    0    0  0.15139035452E+02  0.66518830365E+01  0.36334187297E+01  0.16930436328E+02  0.51100000000E-03 0.  1.
        -12    1    3    3    0    0  0.16972786162E+02  0.99395377236E+01 -0.71015828877E+01  0.20911775624E+02  0.00000000000E+00 0.  1.
</event>
<event>
 7    1  0.1899036E-009  0.4778727E+02  0.7816164E-02  0.1312668E+00
        -11   -1    0    0    0    0  0.00000000000E+00  0.00000000000E+00  0.45593999997E+02  0.45594000000E+02  0.51100000000E-03 0.  1.
         11   -1    0    0    0    0 -0.00000000000E+00 -0.00000000000E+00 -0.45593999997E+02  0.45594000000E+02  0.51100000000E-03 0. -1.
    9900012    2    1    2    0    0 -0.86550081327E+01  0.22281028615E+02 -0.36225265549E+02  0.47787271135E+02  0.20000000413E+02 0.  0.
        -12    1    1    2    0    0  0.86550081327E+01 -0.22281028615E+02  0.36225265549E+02  0.43400728865E+02  0.00000000000E+00 0.  1.
         11    1    3    3    0    0 -0.37082100452E+01  0.20790760955E+02 -0.31214410494E+02  0.37687477836E+02  0.51100000000E-03 0. -1.
        -11    1    3    3    0    0  0.10067237313E+01  0.16911980405E+01  0.44961141419E+00  0.20188596207E+01  0.51100000000E-03 0.  1.
         12    1    3    3    0    0 -0.59535218188E+01 -0.20093038069E+00 -0.54604664687E+01  0.80809336788E+01  0.00000000000E+00 0. -1.
</event>
<event>
 7    1  0.1899036E-009  0.4778727E+02  0.7816164E-02  0.1312668E+00
        -11   -1    0    0    0    0  0.00000000000E+00  0.00000000000E+00  0.45593999997E+02  0.45594000000E+02  0.51100000000E-03 0. -1.
         11   -1    0    0    0    0 -0.00000000000E+00 -0.00000000000E+00 -0.45593999997E+02  0.45594000000E+02  0.51100000000E-03 0.  1.
    9900012    2    1    2    0    0 -0.38104689420E+02 -0.10240931094E+02  0.18077037156E+02  0.47787270769E+02  0.19999998745E+02 0.  0.
        -12    1    1    2    0    0  0.38104689420E+02  0.10240931094E+02 -0.18077037156E+02  0.43400729231E+02  0.00000000000E+00 0.  1.
         11    1    3    3    0    0 -0.96000019747E+01  0.11238057287E+01  0.25601452645E+01  0.99988659990E+01  0.51100000000E-03 0. -1.
        -11    1    3    3    0    0 -0.56096336580E+01 -0.83388130211E+01  0.15427012235E+00  0.10051248276E+02  0.51100000000E-03 0.  1.
         12    1    3    3    0    0 -0.22895053787E+02 -0.30259238013E+01  0.15362621769E+02  0.27737156494E+02  0.00000000000E+00 0. -1.
</event>
<event>
 7    1  0.1899036E-009  0.4778727E+02  0.7816164E-02  0.1312668E+00
        -11   -1    0    0    0    0  0.00000000000E+00  0.00000000000E+00  0.45593999997E+02  0.45594000000E+02  0.51100000000E-03 0.  1.
         11   -1    0    0    0    0 -0.00000000000E+00 -0.00000000000E+00 -0.45593999997E+02  0.45594000000E+02  0.51100000000E-03 0. -1.
    9900012    2    1    2    0    0  0.36083264261E+01 -0.13471071707E+02 -0.41099070271E+02  0.47787269941E+02  0.19999994967E+02 0.  0.
        -12    1    1    2    0    0 -0.36083264261E+01  0.13471071707E+02  0.41099070271E+02  0.43400730059E+02  0.00000000000E+00 0.  1.
         11    1    3    3    0    0 -0.35971475119E+01 -0.99015518550E+00 -0.14494010987E+02  0.14966503675E+02  0.51100000000E-03 0. -1.
        -11    1    3    3    0    0  0.66495860326E+01 -0.43291739004E+00 -0.61128420837E+01  0.90427457375E+01  0.51100000000E-03 0.  1.
        -12    1    3    3    0    0  0.55588790548E+00 -0.12047999131E+02 -0.20492217201E+02  0.23778020528E+02  0.00000000000E+00 0.  1.
</event>
<event>
 7    1  0.1899036E-009  0.4778727E+02  0.7816164E-02  0.1312668E+00
        -11   -1    0    0    0    0  0.00000000000E+00  0.00000000000E+00  0.45593999997E+02  0.45594000000E+02  0.51100000000E-03 0.  1.
         11   -1    0    0    0    0 -0.00000000000E+00 -0.00000000000E+00 -0.45593999997E+02  0.45594000000E+02  0.51100000000E-03 0. -1.
    9900012    2    1    2    0    0 -0.39985230255E+02  0.15430131463E+01  0.16805468504E+02  0.47787270746E+02  0.19999998640E+02 0.  0.
        -12    1    1    2    0    0  0.39985230255E+02 -0.15430131463E+01 -0.16805468504E+02  0.43400729254E+02  0.00000000000E+00 0.  1.
         11    1    3    3    0    0 -0.17965164600E+02 -0.43327409043E+01  0.84652075586E+01  0.20326817806E+02  0.51100000000E-03 0. -1.
        -11    1    3    3    0    0 -0.16598604031E+02  0.62806045395E+01  0.11523880022E+02  0.21160327506E+02  0.51100000000E-03 0.  1.
        -12    1    3    3    0    0 -0.54214616247E+01 -0.40485048887E+00 -0.31836190762E+01  0.63001254344E+01  0.00000000000E+00 0.  1.
</event>
<event>
 7    1  0.1899036E-009  0.4778727E+02  0.7816164E-02  0.1312668E+00
        -11   -1    0    0    0    0  0.00000000000E+00  0.00000000000E+00  0.45593999997E+02  0.45594000000E+02  0.51100000000E-03 0. -1.
         11   -1    0    0    0    0 -0.00000000000E+00 -0.00000000000E+00 -0.45593999997E+02  0.45594000000E+02  0.51100000000E-03 0.  1.
    9900012    2    1    2    0    0  0.12756783084E+02  0.36207131031E+02  0.20246766344E+02  0.47787269596E+02  0.19999993398E+02 0.  0.
        -12    1    1    2    0    0 -0.12756783084E+02 -0.36207131031E+02 -0.20246766344E+02  0.43400730404E+02  0.00000000000E+00 0.  1.
         11    1    3    3    0    0  0.41015852959E+01  0.53095540980E+01 -0.44886021748E+00  0.67242726310E+01  0.51100000000E-03 0.  1.
        -11    1    3    3    0    0  0.58340267922E+00  0.17078066258E+02  0.32606642344E+01  0.17396339767E+02  0.51100000000E-03 0. -1.
        -12    1    3    3    0    0  0.80717951092E+01  0.13819510676E+02  0.17434962327E+02  0.23666657198E+02  0.00000000000E+00 0.  1.
</event>
<event>
 7    1  0.1899036E-009  0.4778727E+02  0.7816164E-02  0.1312668E+00
        -11   -1    0    0    0    0  0.00000000000E+00  0.00000000000E+00  0.45593999997E+02  0.45594000000E+02  0.51100000000E-03 0.  1.
         11   -1    0    0    0    0 -0.00000000000E+00 -0.00000000000E+00 -0.45593999997E+02  0.45594000000E+02  0.51100000000E-03 0. -1.
    9900012    2    1    2    0    0  0.42165071577E+01  0.19345227192E+02 -0.38621322796E+02  0.47787270487E+02  0.19999997460E+02 0.  0.
        -12    1    1    2    0    0 -0.42165071577E+01 -0.19345227192E+02  0.38621322796E+02  0.43400729513E+02  0.00000000000E+00 0.  1.
         11    1    3    3    0    0 -0.37741709521E+00  0.60721919838E+01 -0.24150742813E+02  0.24905267271E+02  0.51100000000E-03 0. -1.
        -11    1    3    3    0    0  0.56414240612E+01  0.14117772949E+01 -0.45668400080E+01  0.73942415763E+01  0.51100000000E-03 0.  1.
         12    1    3    3    0    0 -0.10474998082E+01  0.11861257913E+02 -0.99037399752E+01  0.15487761640E+02  0.00000000000E+00 0. -1.
</event>
<event>
 7    1  0.1899036E-009  0.4778727E+02  0.7816164E-02  0.1312668E+00
        -11   -1    0    0    0    0  0.00000000000E+00  0.00000000000E+00  0.45593999997E+02  0.45594000000E+02  0.51100000000E-03 0.  1.
         11   -1    0    0    0    0 -0.00000000000E+00 -0.00000000000E+00 -0.45593999997E+02  0.45594000000E+02  0.51100000000E-03 0. -1.
    9900012    2    1    2    0    0  0.18151115779E+02  0.24076894650E+02 -0.31216396361E+02  0.47787271184E+02  0.20000000635E+02 0.  0.
        -12    1    1    2    0    0 -0.18151115779E+02 -0.24076894650E+02  0.31216396361E+02  0.43400728816E+02  0.00000000000E+00 0.  1.
         11    1    3    3    0    0  0.18261942367E+02  0.12823785993E+02 -0.16775353458E+02  0.27917029034E+02  0.51100000000E-03 0. -1.
        -11    1    3    3    0    0 -0.98238072982E+00  0.13375302374E+01  0.65819520047E+00  0.17852955547E+01  0.51100000000E-03 0.  1.
        -12    1    3    3    0    0  0.87155414171E+00  0.99155784204E+01 -0.15099238103E+02  0.18084946595E+02  0.00000000000E+00 0.  1.
</event>
<event>
 7    1  0.1899036E-009  0.4778726E+02  0.7816164E-02  0.1312668E+00
        -11   -1    0    0    0    0  0.00000000000E+00  0.00000000000E+00  0.45593999997E+02  0.45594000000E+02  0.51100000000E-03 0. -1.
         11   -1    0    0    0    0 -0.00000000000E+00 -0.00000000000E+00 -0.45593999997E+02  0.45594000000E+02  0.51100000000E-03 0.  1.
    9900012    2    1    2    0    0 -0.28874376942E+02 -0.32396316736E+02  0.61126344585E+00  0.47787255480E+02  0.19999929035E+02 0.  0.
        -12    1    1    2    0    0  0.28874376942E+02  0.32396316736E+02 -0.61126344585E+00  0.43400744520E+02  0.00000000000E+00 0.  1.
         11    1    3    3    0    0 -0.19294797533E+02 -0.77744306976E+01  0.10584495132E+00  0.20802456295E+02  0.51100000000E-03 0. -1.
        -11    1    3    3    0    0 -0.27127678097E+00 -0.50894949101E+01 -0.13380457313E+01  0.52694322438E+01  0.51100000000E-03 0.  1.
         12    1    3    3    0    0 -0.93083026286E+01 -0.19532391129E+02  0.18434642258E+01  0.21715366941E+02  0.00000000000E+00 0. -1.
</event>
<event>
 7    1  0.1899036E-009  0.4778728E+02  0.7816164E-02  0.1312668E+00
        -11   -1    0    0    0    0  0.00000000000E+00  0.00000000000E+00  0.45593999997E+02  0.45594000000E+02  0.51100000000E-03 0. -1.
         11   -1    0    0    0    0 -0.00000000000E+00 -0.00000000000E+00 -0.45593999997E+02  0.45594000000E+02  0.51100000000E-03 0.  1.
    9900012    2    1    2    0    0 -0.40169194894E+02 -0.95117904976E+01  0.13400908707E+02  0.47787277297E+02  0.20000028510E+02 0.  0.
        -12    1    1    2    0    0  0.40169194894E+02  0.95117904976E+01 -0.13400908707E+02  0.43400722703E+02  0.00000000000E+00 0.  1.
         11    1    3    3    0    0 -0.44183388661E+01 -0.55153420670E+01  0.41223521757E+01  0.81813509993E+01  0.51100000000E-03 0. -1.
        -11    1    3    3    0    0 -0.15876516623E+01  0.26975001895E+01  0.27911867043E+01  0.41937892833E+01  0.51100000000E-03 0.  1.
        -12    1    3    3    0    0 -0.34163204366E+02 -0.66939486202E+01  0.64873698269E+01  0.35412137015E+02  0.00000000000E+00 0.  1.
</event>
<event>
 7    1  0.1899036E-009  0.4778727E+02  0.7816164E-02  0.1312668E+00
        -11   -1    0    0    0    0  0.00000000000E+00  0.00000000000E+00  0.45593999997E+02  0.45594000000E+02  0.51100000000E-03 0.  1.
         11   -1    0    0    0    0 -0.00000000000E+00 -0.00000000000E+00 -0.45593999997E+02  0.45594000000E+02  0.51100000000E-03 0. -1.
    9900012    2    1    2    0    0  0.95265274947E+01 -0.41344510547E+02 -0.91378358772E+01  0.47787270479E+02  0.19999997420E+02 0.  0.
        -12    1    1    2    0    0 -0.95265274947E+01  0.41344510547E+02  0.91378358772E+01  0.43400729521E+02  0.00000000000E+00 0.  1.
         11    1    3    3    0    0  0.51535644980E+01 -0.48126011147E+01  0.11228604690E+01  0.71401101125E+01  0.51100000000E-03 0. -1.
        -11    1    3    3    0    0  0.21436658242E+01 -0.84608152101E+00  0.17873749100E+01  0.29164818594E+01  0.51100000000E-03 0.  1.
         12    1    3    3    0    0  0.22292971725E+01 -0.35685827911E+02 -0.12048071256E+02  0.37730678507E+02  0.00000000000E+00 0. -1.
</event>
<event>
 7    1  0.1899036E-009  0.4778727E+02  0.7816164E-02  0.1312668E+00
        -11   -1    0    0    0    0  0.00000000000E+00  0.00000000000E+00  0.45593999997E+02  0.45594000000E+02  0.51100000000E-03 0.  1.
         11   -1    0    0    0    0 -0.00000000000E+00 -0.00000000000E+00 -0.45593999997E+02  0.45594000000E+02  0.51100000000E-03 0. -1.
    9900012    2    1    2    0    0  0.12575485244E+02 -0.11932597254E+02 -0.39788110991E+02  0.47787268640E+02  0.19999989037E+02 0.  0.
        -12    1    1    2    0    0 -0.12575485244E+02  0.11932597254E+02  0.39788110991E+02  0.43400731360E+02  0.00000000000E+00 0.  1.
         11    1    3    3    0    0  0.55352736146E+01  0.33322046193E+01 -0.16848713031E+02  0.18044998550E+02  0.51100000000E-03 0. -1.
        -11    1    3    3    0    0  0.55610792058E+01 -0.29269757133E+01 -0.99331183756E+01  0.11754132451E+02  0.51100000000E-03 0.  1.
        -12    1    3    3    0    0  0.14791324233E+01 -0.12337826160E+02 -0.13006279585E+02  0.17988137639E+02  0.00000000000E+00 0.  1.
</event>
<event>
 7    1  0.1899036E-009  0.4778727E+02  0.7816164E-02  0.1312668E+00
        -11   -1    0    0    0    0  0.00000000000E+00  0.00000000000E+00  0.45593999997E+02  0.45594000000E+02  0.51100000000E-03 0.  1.
         11   -1    0    0    0    0 -0.00000000000E+00 -0.00000000000E+00 -0.45593999997E+02  0.45594000000E+02  0.51100000000E-03 0. -1.
    9900012    2    1    2    0    0 -0.32986365754E+02 -0.62262331774E+01 -0.27509218543E+02  0.47787269475E+02  0.19999992845E+02 0.  0.
        -12    1    1    2    0    0  0.32986365754E+02  0.62262331774E+01  0.27509218543E+02  0.43400730525E+02  0.00000000000E+00 0.  1.
         11    1    3    3    0    0  0.12300675388E+01 -0.26934760514E+01 -0.28022798831E+01  0.40768434105E+01  0.51100000000E-03 0. -1.
        -11    1    3    3    0    0 -0.79427107896E+01 -0.25437321143E+01 -0.11695856304E+01  0.84217075801E+01  0.51100000000E-03 0.  1.
         12    1    3    3    0    0 -0.26273722503E+02 -0.98902501173E+00 -0.23537353030E+02  0.35288718485E+02  0.00000000000E+00 0. -1.
</event>
<event>
 7    1  0.1899036E-009  0.4778727E+02  0.7816164E-02  0.1312668E+00
        -11   -1    0    0    0    0  0.00000000000E+00  0.00000000000E+00  0.45593999997E+02  0.45594000000E+02  0.51100000000E-03 0.  1.
         11   -1    0    0    0    0 -0.00000000000E+00 -0.00000000000E+00 -0.45593999997E+02  0.45594000000E+02  0.51100000000E-03 0. -1.
    9900012    2    1    2    0    0 -0.17609704710E+02 -0.16244422965E+02 -0.36188957128E+02  0.47787267339E+02  0.19999983106E+02 0.  0.
        -12    1    1    2    0    0  0.17609704710E+02  0.16244422965E+02  0.36188957128E+02  0.43400732661E+02  0.00000000000E+00 0.  1.
         11    1    3    3    0    0 -0.93451524292E+01 -0.67311898440E+01 -0.45255834638E+01  0.12374235192E+02  0.51100000000E-03 0. -1.
        -11    1    3    3    0    0  0.42079493557E+00 -0.64554364573E+01 -0.10493391174E+02  0.12327245712E+02  0.51100000000E-03 0.  1.
        -12    1    3    3    0    0 -0.86853472166E+01 -0.30577966640E+01 -0.21169982490E+02  0.23085786435E+02  0.00000000000E+00 0.  1.
</event>
<event>
 7    1  0.1899036E-009  0.4778727E+02  0.7816164E-02  0.1312668E+00
        -11   -1    0    0    0    0  0.00000000000E+00  0.00000000000E+00  0.45593999997E+02  0.45594000000E+02  0.51100000000E-03 0.  1.
         11   -1    0    0    0    0 -0.00000000000E+00 -0.00000000000E+00 -0.45593999997E+02  0.45594000000E+02  0.51100000000E-03 0. -1.
    9900012    2    1    2    0    0  0.28618144757E+02  0.87615174068E+01 -0.31430255622E+02  0.47787269994E+02  0.19999995209E+02 0.  0.
        -12    1    1    2    0    0 -0.28618144757E+02 -0.87615174068E+01  0.31430255622E+02  0.43400730006E+02  0.00000000000E+00 0.  1.
         11    1    3    3    0    0  0.12019395436E+02  0.80792509697E+01 -0.15646559378E+02  0.21320295108E+02  0.51100000000E-03 0. -1.
        -11    1    3    3    0    0  0.10186361591E+02 -0.19846840521E+01 -0.16492539237E+02  0.19486015088E+02  0.51100000000E-03 0.  1.
         12    1    3    3    0    0  0.64123877296E+01  0.26669504892E+01  0.70884299274E+00  0.69809597975E+01  0.00000000000E+00 0. -1.
</event>
<event>
 7    1  0.1899036E-009  0.4778727E+02  0.7816164E-02  0.1312668E+00
        -11   -1    0    0    0    0  0.00000000000E+00  0.00000000000E+00  0.45593999997E+02  0.45594000000E+02  0.51100000000E-03 0.  1.
         11   -1    0    0    0    0 -0.00000000000E+00 -0.00000000000E+00 -0.45593999997E+02  0.45594000000E+02  0.51100000000E-03 0. -1.
    9900012    2    1    2    0    0  0.14938830785E+02 -0.61828531503E+01 -0.40276881466E+02  0.47787268221E+02  0.19999987126E+02 0.  0.
        -12    1    1    2    0    0 -0.14938830785E+02  0.61828531503E+01  0.40276881466E+02  0.43400731779E+02  0.00000000000E+00 0.  1.
         11    1    3    3    0    0 -0.16956428383E+01  0.31579415272E+01 -0.63415460057E+01  0.72844358277E+01  0.51100000000E-03 0. -1.
        -11    1    3    3    0    0  0.12446924240E+02 -0.13151415576E+01 -0.23961347628E+02  0.27033344239E+02  0.51100000000E-03 0.  1.
        -12    1    3    3    0    0  0.41875493841E+01 -0.80256531200E+01 -0.99739878329E+01  0.13469488154E+02  0.00000000000E+00 0.  1.
</event>
<event>
 7    1  0.1899036E-009  0.4778727E+02  0.7816164E-02  0.1312668E+00
        -11   -1    0    0    0    0  0.00000000000E+00  0.00000000000E+00  0.45593999997E+02  0.45594000000E+02  0.51100000000E-03 0. -1.
         11   -1    0    0    0    0 -0.00000000000E+00 -0.00000000000E+00 -0.45593999997E+02  0.45594000000E+02  0.51100000000E-03 0.  1.
    9900012    2    1    2    0    0  0.13703603416E+02 -0.40416665631E+02  0.78947696704E+01  0.47787274252E+02  0.20000014625E+02 0.  0.
        -12    1    1    2    0    0 -0.13703603416E+02  0.40416665631E+02 -0.78947696704E+01  0.43400725748E+02  0.00000000000E+00 0.  1.
         11    1    3    3    0    0  0.14735966182E+01 -0.24568139951E+02  0.18139226511E+01  0.24679045835E+02  0.51100000000E-03 0. -1.
        -11    1    3    3    0    0  0.58755858562E+01 -0.12840136622E+02  0.74197223737E+01  0.15951297690E+02  0.51100000000E-03 0.  1.
        -12    1    3    3    0    0  0.63544209416E+01 -0.30083890572E+01 -0.13388753544E+01  0.71569307274E+01  0.00000000000E+00 0.  1.
</event>
<event>
 7    1  0.1899036E-009  0.4778728E+02  0.7816164E-02  0.1312668E+00
        -11   -1    0    0    0    0  0.00000000000E+00  0.00000000000E+00  0.45593999997E+02  0.45594000000E+02  0.51100000000E-03 0.  1.
         11   -1    0    0    0    0 -0.00000000000E+00 -0.00000000000E+00 -0.45593999997E+02  0.45594000000E+02  0.51100000000E-03 0. -1.
    9900012    2    1    2    0    0 -0.35500898262E+01 -0.43252904798E+02  0.45377366141E+00  0.47787276253E+02  0.20000023748E+02 0.  0.
        -12    1    1    2    0    0  0.35500898262E+01  0.43252904798E+02 -0.45377366141E+00  0.43400723747E+02  0.00000000000E+00 0.  1.
         11    1    3    3    0    0 -0.31371996058E+01 -0.10822892405E+02  0.36097763883E+01  0.11832476800E+02  0.51100000000E-03 0. -1.
        -11    1    3    3    0    0  0.55415400735E+01 -0.25953938926E+02 -0.48964410565E+01  0.26986862498E+02  0.51100000000E-03 0.  1.
        -12    1    3    3    0    0 -0.59544302938E+01 -0.64760734662E+01  0.17404383296E+01  0.89679369558E+01  0.00000000000E+00 0.  1.
</event>
<event>
 7    1  0.1899036E-009  0.4778730E+02  0.7816164E-02  0.1312668E+00
        -11   -1    0    0    0    0  0.00000000000E+00  0.00000000000E+00  0.45593999997E+02  0.45594000000E+02  0.51100000000E-03 0.  1.
         11   -1    0    0    0    0 -0.00000000000E+00 -0.00000000000E+00 -0.45593999997E+02  0.45594000000E+02  0.51100000000E-03 0. -1.
    9900012    2    1    2    0    0 -0.32776338918E+02  0.19295925716E+02  0.20904536582E+02  0.47787299639E+02  0.20000130375E+02 0.  0.
        -12    1    1    2    0    0  0.32776338918E+02 -0.19295925716E+02 -0.20904536582E+02  0.43400700361E+02  0.00000000000E+00 0.  1.
         11    1    3    3    0    0 -0.14345719217E+02  0.15440823747E+02  0.79063899774E+01  0.22510657488E+02  0.51100000000E-03 0. -1.
        -11    1    3    3    0    0  0.82307313313E+00 -0.13549579056E+01  0.18130134310E+01  0.24083974486E+01  0.51100000000E-03 0.  1.
        -12    1    3    3    0    0 -0.19253692835E+02  0.52100598743E+01  0.11185133174E+02  0.22868244702E+02  0.00000000000E+00 0.  1.
</event>
<event>
 7    1  0.1899036E-009  0.4778727E+02  0.7816164E-02  0.1312668E+00
        -11   -1    0    0    0    0  0.00000000000E+00  0.00000000000E+00  0.45593999997E+02  0.45594000000E+02  0.51100000000E-03 0.  1.
         11   -1    0    0    0    0 -0.00000000000E+00 -0.00000000000E+00 -0.45593999997E+02  0.45594000000E+02  0.51100000000E-03 0. -1.
    9900012    2    1    2    0    0 -0.25143162986E+02  0.22546208270E+02  0.27260105784E+02  0.47787268213E+02  0.19999987090E+02 0.  0.
        -12    1    1    2    0    0  0.25143162986E+02 -0.22546208270E+02 -0.27260105784E+02  0.43400731787E+02  0.00000000000E+00 0.  1.
         11    1    3    3    0    0 -0.97749312488E+01  0.16326133493E+02  0.14530629110E+02  0.23942245057E+02  0.51100000000E-03 0. -1.
        -11    1    3    3    0    0 -0.86023246151E+01  0.66623198012E+01  0.18662491377E+01  0.11039446545E+02  0.51100000000E-03 0.  1.
         12    1    3    3    0    0 -0.67659071218E+01 -0.44224502405E+00  0.10863227536E+02  0.12805576611E+02  0.00000000000E+00 0. -1.
</event>
<event>
 7    1  0.1899036E-009  0.4778727E+02  0.7816164E-02  0.1312668E+00
        -11   -1    0    0    0    0  0.00000000000E+00  0.00000000000E+00  0.45593999997E+02  0.45594000000E+02  0.51100000000E-03 0.  1.
         11   -1    0    0    0    0 -0.00000000000E+00 -0.00000000000E+00 -0.45593999997E+02  0.45594000000E+02  0.51100000000E-03 0. -1.
    9900012    2    1    2    0    0 -0.37767994654E+02 -0.85545105042E+01 -0.19596482310E+02  0.47787272021E+02  0.20000004455E+02 0.  0.
        -12    1    1    2    0    0  0.37767994654E+02  0.85545105042E+01  0.19596482310E+02  0.43400727979E+02  0.00000000000E+00 0.  1.
         11    1    3    3    0    0 -0.28178431301E+02 -0.27256228611E+01 -0.10268646555E+02  0.30114749092E+02  0.51100000000E-03 0. -1.
        -11    1    3    3    0    0 -0.10453263889E+02 -0.76613120506E+01 -0.84005920530E+01  0.15444622862E+02  0.51100000000E-03 0.  1.
        -12    1    3    3    0    0  0.86370053560E+00  0.18324244075E+01 -0.92724370239E+00  0.22279000669E+01  0.00000000000E+00 0.  1.
</event>
<event>
 7    1  0.1899036E-009  0.4778727E+02  0.7816164E-02  0.1312668E+00
        -11   -1    0    0    0    0  0.00000000000E+00  0.00000000000E+00  0.45593999997E+02  0.45594000000E+02  0.51100000000E-03 0.  1.
         11   -1    0    0    0    0 -0.00000000000E+00 -0.00000000000E+00 -0.45593999997E+02  0.45594000000E+02  0.51100000000E-03 0. -1.
    9900012    2    1    2    0    0  0.30323233106E+02  0.45887942715E+00 -0.31046964337E+02  0.47787273844E+02  0.20000012765E+02 0.  0.
        -12    1    1    2    0    0 -0.30323233106E+02 -0.45887942715E+00  0.31046964337E+02  0.43400726156E+02  0.00000000000E+00 0.  1.
         11    1    3    3    0    0  0.33747855784E+01  0.29059815607E+01 -0.87222070155E+01  0.97934060476E+01  0.51100000000E-03 0.  1.
        -11    1    3    3    0    0  0.28242023993E+02 -0.39796298321E+01 -0.19582759167E+02  0.34596731488E+02  0.51100000000E-03 0. -1.
         12    1    3    3    0    0 -0.12935764655E+01  0.15325276986E+01 -0.27419981546E+01  0.33971363085E+01  0.00000000000E+00 0. -1.
</event>
<event>
 7    1  0.1899036E-009  0.4778726E+02  0.7816164E-02  0.1312668E+00
        -11   -1    0    0    0    0  0.00000000000E+00  0.00000000000E+00  0.45593999997E+02  0.45594000000E+02  0.51100000000E-03 0.  1.
         11   -1    0    0    0    0 -0.00000000000E+00 -0.00000000000E+00 -0.45593999997E+02  0.45594000000E+02  0.51100000000E-03 0. -1.
    9900012    2    1    2    0    0 -0.60187375558E+01  0.39643063351E+02 -0.16608017465E+02  0.47787263627E+02  0.19999966182E+02 0.  0.
        -12    1    1    2    0    0  0.60187375558E+01 -0.39643063351E+02  0.16608017465E+02  0.43400736373E+02  0.00000000000E+00 0.  1.
         11    1    3    3    0    0  0.44549446623E+01  0.86319928069E+01 -0.28014928638E+01  0.10109707923E+02  0.51100000000E-03 0. -1.
        -11    1    3    3    0    0  0.79658362141E+00  0.17232490979E+02 -0.64736852690E+01  0.18425577115E+02  0.51100000000E-03 0.  1.
        -12    1    3    3    0    0 -0.11270265840E+02  0.13778579565E+02 -0.73328393321E+01  0.19251978589E+02  0.00000000000E+00 0.  1.
</event>
<event>
 7    1  0.1899036E-009  0.4778727E+02  0.7816164E-02  0.1312668E+00
        -11   -1    0    0    0    0  0.00000000000E+00  0.00000000000E+00  0.45593999997E+02  0.45594000000E+02  0.51100000000E-03 0.  1.
         11   -1    0    0    0    0 -0.00000000000E+00 -0.00000000000E+00 -0.45593999997E+02  0.45594000000E+02  0.51100000000E-03 0. -1.
    9900012    2    1    2    0    0 -0.26093598983E+01 -0.42006839357E+02 -0.10594348357E+02  0.47787268106E+02  0.19999986603E+02 0.  0.
        -12    1    1    2    0    0  0.26093598983E+01  0.42006839357E+02  0.10594348357E+02  0.43400731894E+02  0.00000000000E+00 0.  1.
         11    1    3    3    0    0 -0.86343106000E+01 -0.90698110218E+01 -0.36986519462E+01  0.13057289841E+02  0.51100000000E-03 0. -1.
        -11    1    3    3    0    0  0.38010661401E+01 -0.68356997512E+01 -0.21034408188E+01  0.80993430863E+01  0.51100000000E-03 0.  1.
         12    1    3    3    0    0  0.22238845616E+01 -0.26101328584E+02 -0.47922555920E+01  0.26630635179E+02  0.00000000000E+00 0. -1.
</event>
<event>
 7    1  0.1899036E-009  0.4778727E+02  0.7816164E-02  0.1312668E+00
        -11   -1    0    0    0    0  0.00000000000E+00  0.00000000000E+00  0.45593999997E+02  0.45594000000E+02  0.51100000000E-03 0.  1.
         11   -1    0    0    0    0 -0.00000000000E+00 -0.00000000000E+00 -0.45593999997E+02  0.45594000000E+02  0.51100000000E-03 0. -1.
    9900012    2    1    2    0    0 -0.22929932534E+02 -0.36490105944E+02 -0.51296626249E+01  0.47787273319E+02  0.20000010369E+02 0.  0.
        -12    1    1    2    0    0  0.22929932534E+02  0.36490105944E+02  0.51296626249E+01  0.43400726681E+02  0.00000000000E+00 0.  1.
         11    1    3    3    0    0 -0.88670781344E+01 -0.15582230193E+02 -0.93892916001E+01  0.20238324274E+02  0.51100000000E-03 0. -1.
        -11    1    3    3    0    0  0.44128053889E+00 -0.14809291787E+01 -0.19830450650E+01  0.25140301783E+01  0.51100000000E-03 0.  1.
        -12    1    3    3    0    0 -0.14504134939E+02 -0.19426946573E+02  0.62426740402E+01  0.25034918866E+02  0.00000000000E+00 0.  1.
</event>
<event>
 7    1  0.1899036E-009  0.4778727E+02  0.7816164E-02  0.1312668E+00
        -11   -1    0    0    0    0  0.00000000000E+00  0.00000000000E+00  0.45593999997E+02  0.45594000000E+02  0.51100000000E-03 0.  1.
         11   -1    0    0    0    0 -0.00000000000E+00 -0.00000000000E+00 -0.45593999997E+02  0.45594000000E+02  0.51100000000E-03 0. -1.
    9900012    2    1    2    0    0 -0.16543116366E+02 -0.28410969391E+02 -0.28333120536E+02  0.47787267286E+02  0.19999982864E+02 0.  0.
        -12    1    1    2    0    0  0.16543116366E+02  0.28410969391E+02  0.28333120536E+02  0.43400732714E+02  0.00000000000E+00 0.  1.
         11    1    3    3    0    0 -0.69816722388E+00 -0.15794909212E+01 -0.75688273039E+01  0.77633353696E+01  0.51100000000E-03 0. -1.
        -11    1    3    3    0    0 -0.87039648731E+01 -0.52209172035E+01 -0.16098229696E+01  0.10276600178E+02  0.51100000000E-03 0.  1.
         12    1    3    3    0    0 -0.71409842691E+01 -0.21610561266E+02 -0.19154470262E+02  0.29747331739E+02  0.00000000000E+00 0. -1.
</event>
<event>
 7    1  0.1899036E-009  0.4778727E+02  0.7816164E-02  0.1312668E+00
        -11   -1    0    0    0    0  0.00000000000E+00  0.00000000000E+00  0.45593999997E+02  0.45594000000E+02  0.51100000000E-03 0.  1.
         11   -1    0    0    0    0 -0.00000000000E+00 -0.00000000000E+00 -0.45593999997E+02  0.45594000000E+02  0.51100000000E-03 0. -1.
    9900012    2    1    2    0    0 -0.42352718490E+02 -0.12424756279E+01  0.93982567688E+01  0.47787265681E+02  0.19999975545E+02 0.  0.
        -12    1    1    2    0    0  0.42352718490E+02  0.12424756279E+01 -0.93982567688E+01  0.43400734319E+02  0.00000000000E+00 0.  1.
         11    1    3    3    0    0  0.11873669129E+00 -0.72338835075E+00  0.10227078177E+01  0.12583006991E+01  0.51100000000E-03 0. -1.
        -11    1    3    3    0    0 -0.24637925750E+02 -0.25794518389E+01 -0.34793736386E+01  0.25015735012E+02  0.51100000000E-03 0.  1.
         12    1    3    3    0    0 -0.17833529431E+02  0.20603645618E+01  0.11854922590E+02  0.21513229969E+02  0.00000000000E+00 0. -1.
</event>
<event>
 7    1  0.1899036E-009  0.4778729E+02  0.7816164E-02  0.1312668E+00
        -11   -1    0    0    0    0  0.00000000000E+00  0.00000000000E+00  0.45593999997E+02  0.45594000000E+02  0.51100000000E-03 0. -1.
         11   -1    0    0    0    0 -0.00000000000E+00 -0.00000000000E+00 -0.45593999997E+02  0.45594000000E+02  0.51100000000E-03 0.  1.
    9900012    2    1    2    0    0  0.16202218122E+02  0.39307754181E+02  0.87184059989E+01  0.47787285559E+02  0.20000066178E+02 0.  0.
        -12    1    1    2    0    0 -0.16202218122E+02 -0.39307754181E+02 -0.87184059989E+01  0.43400714441E+02  0.00000000000E+00 0.  1.
         11    1    3    3    0    0  0.87107115864E+01  0.30196244147E+02  0.99445756778E+01  0.32963377294E+02  0.51100000000E-03 0.  1.
        -11    1    3    3    0    0  0.32659778730E+01  0.41224770920E+01  0.38737790939E+01  0.65320435983E+01  0.51100000000E-03 0. -1.
        -12    1    3    3    0    0  0.42255286625E+01  0.49890329415E+01 -0.50999487729E+01  0.82918646669E+01  0.00000000000E+00 0.  1.
</event>
<event>
 7    1  0.1899036E-009  0.4778727E+02  0.7816164E-02  0.1312668E+00
        -11   -1    0    0    0    0  0.00000000000E+00  0.00000000000E+00  0.45593999997E+02  0.45594000000E+02  0.51100000000E-03 0.  1.
         11   -1    0    0    0    0 -0.00000000000E+00 -0.00000000000E+00 -0.45593999997E+02  0.45594000000E+02  0.51100000000E-03 0. -1.
    9900012    2    1    2    0    0 -0.45443243854E+00  0.22386221924E+02 -0.37178943674E+02  0.47787270817E+02  0.19999998964E+02 0.  0.
        -12    1    1    2    0    0  0.45443243854E+00 -0.22386221924E+02  0.37178943674E+02  0.43400729183E+02  0.00000000000E+00 0.  1.
         11    1    3    3    0    0 -0.25993551792E+01  0.72592994383E+01 -0.33218210417E+01  0.83957471959E+01  0.51100000000E-03 0.  1.
        -11    1    3    3    0    0  0.33485990879E+01 -0.12498386823E+01 -0.79811526138E+01  0.87449419604E+01  0.51100000000E-03 0. -1.
        -12    1    3    3    0    0 -0.12036763472E+01  0.16376761168E+02 -0.25875970019E+02  0.30646581661E+02  0.00000000000E+00 0.  1.
</event>
<event>
 7    1  0.1899036E-009  0.4778728E+02  0.7816164E-02  0.1312668E+00
        -11   -1    0    0    0    0  0.00000000000E+00  0.00000000000E+00  0.45593999997E+02  0.45594000000E+02  0.51100000000E-03 0.  1.
         11   -1    0    0    0    0 -0.00000000000E+00 -0.00000000000E+00 -0.45593999997E+02  0.45594000000E+02  0.51100000000E-03 0. -1.
    9900012    2    1    2    0    0  0.81843457309E+01 -0.14477520648E+02 -0.40087909760E+02  0.47787278484E+02  0.20000033921E+02 0.  0.
        -12    1    1    2    0    0 -0.81843457309E+01  0.14477520648E+02  0.40087909760E+02  0.43400721516E+02  0.00000000000E+00 0.  1.
         11    1    3    3    0    0  0.97031616167E+01 -0.11602217889E+02 -0.21488979376E+02  0.26278109524E+02  0.51100000000E-03 0. -1.
        -11    1    3    3    0    0 -0.33472875184E+01 -0.59402525509E+01 -0.91681014931E+01  0.11425629932E+02  0.51100000000E-03 0.  1.
         12    1    3    3    0    0  0.18284716326E+01  0.30649497922E+01 -0.94308288914E+01  0.10083539028E+02  0.00000000000E+00 0. -1.
</event>
<event>
 7    1  0.1899036E-009  0.4778728E+02  0.7816164E-02  0.1312668E+00
        -11   -1    0    0    0    0  0.00000000000E+00  0.00000000000E+00  0.45593999997E+02  0.45594000000E+02  0.51100000000E-03 0.  1.
         11   -1    0    0    0    0 -0.00000000000E+00 -0.00000000000E+00 -0.45593999997E+02  0.45594000000E+02  0.51100000000E-03 0. -1.
    9900012    2    1    2    0    0 -0.36570366371E+02  0.18152263485E+02  0.14721613742E+02  0.47787282526E+02  0.20000052349E+02 0.  0.
        -12    1    1    2    0    0  0.36570366371E+02 -0.18152263485E+02 -0.14721613742E+02  0.43400717474E+02  0.00000000000E+00 0.  1.
         11    1    3    3    0    0 -0.20606998083E+01  0.42955962398E+00  0.66979336769E+01  0.70209202368E+01  0.51100000000E-03 0. -1.
        -11    1    3    3    0    0 -0.12149380219E+02  0.10643537548E+02  0.59213616923E+00  0.16163011995E+02  0.51100000000E-03 0.  1.
         12    1    3    3    0    0 -0.22360286343E+02  0.70791663132E+01  0.74315438954E+01  0.24603350294E+02  0.00000000000E+00 0. -1.
</event>
<event>
 7    1  0.1899036E-009  0.4778727E+02  0.7816164E-02  0.1312668E+00
        -11   -1    0    0    0    0  0.00000000000E+00  0.00000000000E+00  0.45593999997E+02  0.45594000000E+02  0.51100000000E-03 0.  1.
         11   -1    0    0    0    0 -0.00000000000E+00 -0.00000000000E+00 -0.45593999997E+02  0.45594000000E+02  0.51100000000E-03 0. -1.
    9900012    2    1    2    0    0 -0.32943714741E+02  0.22479481968E+02 -0.17117470165E+02  0.47787271488E+02  0.20000002024E+02 0.  0.
        -12    1    1    2    0    0  0.32943714741E+02 -0.22479481968E+02  0.17117470165E+02  0.43400728512E+02  0.00000000000E+00 0.  1.
         11    1    3    3    0    0 -0.79646997395E+01  0.10761494932E+01 -0.48718977786E+01  0.93984002840E+01  0.51100000000E-03 0. -1.
        -11    1    3    3    0    0 -0.11174542795E+02  0.47043330720E+01 -0.11498674988E+02  0.16709897758E+02  0.51100000000E-03 0.  1.
         12    1    3    3    0    0 -0.13804472207E+02  0.16698999403E+02 -0.74689739747E+00  0.21678973447E+02  0.00000000000E+00 0. -1.
</event>
<event>
 7    1  0.1899036E-009  0.4778727E+02  0.7816164E-02  0.1312668E+00
        -11   -1    0    0    0    0  0.00000000000E+00  0.00000000000E+00  0.45593999997E+02  0.45594000000E+02  0.51100000000E-03 0. -1.
         11   -1    0    0    0    0 -0.00000000000E+00 -0.00000000000E+00 -0.45593999997E+02  0.45594000000E+02  0.51100000000E-03 0.  1.
    9900012    2    1    2    0    0 -0.41625252930E+02 -0.72953528962E+01 -0.98863337780E+01  0.47787269004E+02  0.19999990699E+02 0.  0.
        -12    1    1    2    0    0  0.41625252930E+02  0.72953528962E+01  0.98863337780E+01  0.43400730996E+02  0.00000000000E+00 0.  1.
         11    1    3    3    0    0 -0.20053244000E+02 -0.95093663596E+01 -0.52885057492E+01  0.22815103261E+02  0.51100000000E-03 0. -1.
        -11    1    3    3    0    0  0.12930166183E+01 -0.70478211137E+00 -0.27509954933E-01  0.14728770684E+01  0.51100000000E-03 0.  1.
         12    1    3    3    0    0 -0.22865025548E+02  0.29187955748E+01 -0.45703180738E+01  0.23499288675E+02  0.00000000000E+00 0. -1.
</event>
<event>
 7    1  0.1899036E-009  0.4778727E+02  0.7816164E-02  0.1312668E+00
        -11   -1    0    0    0    0  0.00000000000E+00  0.00000000000E+00  0.45593999997E+02  0.45594000000E+02  0.51100000000E-03 0. -1.
         11   -1    0    0    0    0 -0.00000000000E+00 -0.00000000000E+00 -0.45593999997E+02  0.45594000000E+02  0.51100000000E-03 0.  1.
    9900012    2    1    2    0    0  0.35493648314E+02  0.19864629850E+02  0.15140039927E+02  0.47787269607E+02  0.19999993444E+02 0.  0.
        -12    1    1    2    0    0 -0.35493648314E+02 -0.19864629850E+02 -0.15140039927E+02  0.43400730393E+02  0.00000000000E+00 0.  1.
         11    1    3    3    0    0  0.88855195869E+01  0.12185338074E+00 -0.32214465797E+00  0.88921923066E+01  0.51100000000E-03 0. -1.
        -11    1    3    3    0    0  0.10646949209E+02  0.76607285960E+01 -0.74596831482E+00  0.13137760809E+02  0.51100000000E-03 0.  1.
        -12    1    3    3    0    0  0.15961179518E+02  0.12082047873E+02  0.16208152900E+02  0.25757316491E+02  0.00000000000E+00 0.  1.
</event>
<event>
 7    1  0.1899036E-009  0.4778725E+02  0.7816164E-02  0.1312668E+00
        -11   -1    0    0    0    0  0.00000000000E+00  0.00000000000E+00  0.45593999997E+02  0.45594000000E+02  0.51100000000E-03 0.  1.
         11   -1    0    0    0    0 -0.00000000000E+00 -0.00000000000E+00 -0.45593999997E+02  0.45594000000E+02  0.51100000000E-03 0. -1.
    9900012    2    1    2    0    0 -0.22745953884E+02  0.27951372818E+02 -0.24186092317E+02  0.47787254360E+02  0.19999923931E+02 0.  0.
        -12    1    1    2    0    0  0.22745953884E+02 -0.27951372818E+02  0.24186092317E+02  0.43400745640E+02  0.00000000000E+00 0.  1.
         11    1    3    3    0    0 -0.67572172300E+00  0.37210832892E+01  0.86152763220E+00  0.38788259582E+01  0.51100000000E-03 0. -1.
        -11    1    3    3    0    0 -0.48573851055E+01  0.16355591233E+02 -0.10481472560E+02  0.20024006140E+02  0.51100000000E-03 0.  1.
         12    1    3    3    0    0 -0.17212847055E+02  0.78746982964E+01 -0.14566147390E+02  0.23884422262E+02  0.00000000000E+00 0. -1.
</event>
<event>
 7    1  0.1899036E-009  0.4778727E+02  0.7816164E-02  0.1312668E+00
        -11   -1    0    0    0    0  0.00000000000E+00  0.00000000000E+00  0.45593999997E+02  0.45594000000E+02  0.51100000000E-03 0.  1.
         11   -1    0    0    0    0 -0.00000000000E+00 -0.00000000000E+00 -0.45593999997E+02  0.45594000000E+02  0.51100000000E-03 0. -1.
    9900012    2    1    2    0    0  0.24997184475E+02 -0.31407320474E+02 -0.16502861223E+02  0.47787269135E+02  0.19999991294E+02 0.  0.
        -12    1    1    2    0    0 -0.24997184475E+02  0.31407320474E+02  0.16502861223E+02  0.43400730865E+02  0.00000000000E+00 0.  1.
         11    1    3    3    0    0  0.14924888243E+01 -0.47377380338E+00 -0.24669020420E+01  0.29219155452E+01  0.51100000000E-03 0. -1.
        -11    1    3    3    0    0 -0.14498361154E-02  0.10224992646E+01  0.18650617515E+01  0.21269608473E+01  0.51100000000E-03 0.  1.
         12    1    3    3    0    0  0.23506145487E+02 -0.31956045936E+02 -0.15901020933E+02  0.42738392742E+02  0.00000000000E+00 0. -1.
</event>
<event>
 7    1  0.1899036E-009  0.4778727E+02  0.7816164E-02  0.1312668E+00
        -11   -1    0    0    0    0  0.00000000000E+00  0.00000000000E+00  0.45593999997E+02  0.45594000000E+02  0.51100000000E-03 0.  1.
         11   -1    0    0    0    0 -0.00000000000E+00 -0.00000000000E+00 -0.45593999997E+02  0.45594000000E+02  0.51100000000E-03 0. -1.
    9900012    2    1    2    0    0  0.15124180812E+02 -0.29256918110E+02 -0.28265087934E+02  0.47787270761E+02  0.19999998707E+02 0.  0.
        -12    1    1    2    0    0 -0.15124180812E+02  0.29256918110E+02  0.28265087934E+02  0.43400729239E+02  0.00000000000E+00 0.  1.
         11    1    3    3    0    0  0.58159775019E+01 -0.23719827503E+02 -0.20287283755E+02  0.31749483358E+02  0.51100000000E-03 0. -1.
        -11    1    3    3    0    0  0.24994037611E+01 -0.43724517073E+00 -0.70351877317E+01  0.74787745776E+01  0.51100000000E-03 0.  1.
        -12    1    3    3    0    0  0.68087995493E+01 -0.50998454366E+01 -0.94261644726E+00  0.85590128254E+01  0.00000000000E+00 0.  1.
</event>
<event>
 7    1  0.1899036E-009  0.4778728E+02  0.7816164E-02  0.1312668E+00
        -11   -1    0    0    0    0  0.00000000000E+00  0.00000000000E+00  0.45593999997E+02  0.45594000000E+02  0.51100000000E-03 0. -1.
         11   -1    0    0    0    0 -0.00000000000E+00 -0.00000000000E+00 -0.45593999997E+02  0.45594000000E+02  0.51100000000E-03 0.  1.
    9900012    2    1    2    0    0 -0.38149579821E+01 -0.19474319286E+02  0.38598183908E+02  0.47787276307E+02  0.20000023996E+02 0.  0.
        -12    1    1    2    0    0  0.38149579821E+01  0.19474319286E+02 -0.38598183908E+02  0.43400723693E+02  0.00000000000E+00 0.  1.
         11    1    3    3    0    0  0.31422802022E+01 -0.10851810293E+02  0.10579035269E+02  0.15477457769E+02  0.51100000000E-03 0. -1.
        -11    1    3    3    0    0 -0.28830241767E+01  0.93779478218E+00  0.74361485691E+00  0.31215782504E+01  0.51100000000E-03 0.  1.
         12    1    3    3    0    0 -0.40742140076E+01 -0.95603037758E+01  0.27275533781E+02  0.29188240288E+02  0.00000000000E+00 0. -1.
</event>
<event>
 7    1  0.1899036E-009  0.4778727E+02  0.7816164E-02  0.1312668E+00
        -11   -1    0    0    0    0  0.00000000000E+00  0.00000000000E+00  0.45593999997E+02  0.45594000000E+02  0.51100000000E-03 0. -1.
         11   -1    0    0    0    0 -0.00000000000E+00 -0.00000000000E+00 -0.45593999997E+02  0.45594000000E+02  0.51100000000E-03 0.  1.
    9900012    2    1    2    0    0  0.43416559351E+01 -0.19648145182E+02  0.38454172957E+02  0.47787274163E+02  0.20000014221E+02 0.  0.
        -12    1    1    2    0    0 -0.43416559351E+01  0.19648145182E+02 -0.38454172957E+02  0.43400725837E+02  0.00000000000E+00 0.  1.
         11    1    3    3    0    0 -0.42151516727E+00 -0.25299076625E+01  0.57328215620E+01  0.62803941867E+01  0.51100000000E-03 0. -1.
        -11    1    3    3    0    0  0.66335570616E+01 -0.59602490863E+01  0.27752559604E+02  0.29150183761E+02  0.51100000000E-03 0.  1.
         12    1    3    3    0    0 -0.18703859592E+01 -0.11157988434E+02  0.49687917909E+01  0.12356696216E+02  0.00000000000E+00 0. -1.
</event>
<event>
 7    1  0.1899036E-009  0.4778727E+02  0.7816164E-02  0.1312668E+00
        -11   -1    0    0    0    0  0.00000000000E+00  0.00000000000E+00  0.45593999997E+02  0.45594000000E+02  0.51100000000E-03 0.  1.
         11   -1    0    0    0    0 -0.00000000000E+00 -0.00000000000E+00 -0.45593999997E+02  0.45594000000E+02  0.51100000000E-03 0. -1.
    9900012    2    1    2    0    0 -0.71093284959E+01 -0.99627380579E+01 -0.41639215630E+02  0.47787274435E+02  0.20000015461E+02 0.  0.
        -12    1    1    2    0    0  0.71093284959E+01  0.99627380579E+01  0.41639215630E+02  0.43400725565E+02  0.00000000000E+00 0.  1.
         11    1    3    3    0    0 -0.62198649883E+01 -0.85798291518E+00 -0.76280700506E+01  0.98797929185E+01  0.51100000000E-03 0. -1.
        -11    1    3    3    0    0 -0.19162764199E+01  0.32545505496E+01 -0.43668403362E+01  0.57735179380E+01  0.51100000000E-03 0.  1.
         12    1    3    3    0    0  0.10268129123E+01 -0.12359305692E+02 -0.29644305243E+02  0.32133963579E+02  0.00000000000E+00 0. -1.
</event>
<event>
 7    1  0.1899036E-009  0.4778727E+02  0.7816164E-02  0.1312668E+00
        -11   -1    0    0    0    0  0.00000000000E+00  0.00000000000E+00  0.45593999997E+02  0.45594000000E+02  0.51100000000E-03 0.  1.
         11   -1    0    0    0    0 -0.00000000000E+00 -0.00000000000E+00 -0.45593999997E+02  0.45594000000E+02  0.51100000000E-03 0. -1.
    9900012    2    1    2    0    0 -0.14854037562E+02 -0.65273669006E+01 -0.40253873281E+02  0.47787271151E+02  0.20000000484E+02 0.  0.
        -12    1    1    2    0    0  0.14854037562E+02  0.65273669006E+01  0.40253873281E+02  0.43400728849E+02  0.00000000000E+00 0.  1.
         11    1    3    3    0    0 -0.89280830199E+01  0.15767415900E+01 -0.99159298326E+01  0.13435864139E+02  0.51100000000E-03 0. -1.
        -11    1    3    3    0    0 -0.84656483815E+00 -0.62744291558E+01 -0.40523455078E+01  0.75170897050E+01  0.51100000000E-03 0.  1.
         12    1    3    3    0    0 -0.50793897042E+01 -0.18296793348E+01 -0.26285597940E+02  0.26834317307E+02  0.00000000000E+00 0. -1.
</event>
<event>
 7    1  0.1899036E-009  0.4778727E+02  0.7816164E-02  0.1312668E+00
        -11   -1    0    0    0    0  0.00000000000E+00  0.00000000000E+00  0.45593999997E+02  0.45594000000E+02  0.51100000000E-03 0.  1.
         11   -1    0    0    0    0 -0.00000000000E+00 -0.00000000000E+00 -0.45593999997E+02  0.45594000000E+02  0.51100000000E-03 0. -1.
    9900012    2    1    2    0    0 -0.58541724351E+00 -0.16689012149E+02 -0.40059421720E+02  0.47787272951E+02  0.20000008691E+02 0.  0.
        -12    1    1    2    0    0  0.58541724351E+00  0.16689012149E+02  0.40059421720E+02  0.43400727049E+02  0.00000000000E+00 0.  1.
         11    1    3    3    0    0 -0.66564594715E+01 -0.57700431014E+01 -0.22727178991E+02  0.24374710568E+02  0.51100000000E-03 0. -1.
        -11    1    3    3    0    0  0.42060004796E+01 -0.69266229178E+01 -0.17189356489E+02  0.19003750205E+02  0.51100000000E-03 0.  1.
        -12    1    3    3    0    0  0.18650417484E+01 -0.39923461298E+01 -0.14288623980E+00  0.44088121780E+01  0.00000000000E+00 0.  1.
</event>
<event>
 7    1  0.1899036E-009  0.4778727E+02  0.7816164E-02  0.1312668E+00
        -11   -1    0    0    0    0  0.00000000000E+00  0.00000000000E+00  0.45593999997E+02  0.45594000000E+02  0.51100000000E-03 0.  1.
         11   -1    0    0    0    0 -0.00000000000E+00 -0.00000000000E+00 -0.45593999997E+02  0.45594000000E+02  0.51100000000E-03 0. -1.
    9900012    2    1    2    0    0 -0.10640144939E+02  0.15293706745E+02 -0.39198381731E+02  0.47787270967E+02  0.19999999645E+02 0.  0.
        -12    1    1    2    0    0  0.10640144939E+02 -0.15293706745E+02  0.39198381731E+02  0.43400729033E+02  0.00000000000E+00 0.  1.
         11    1    3    3    0    0 -0.31679938049E+01  0.14544675322E+02 -0.35981527771E+02  0.38939107668E+02  0.51100000000E-03 0. -1.
        -11    1    3    3    0    0 -0.19180876610E+01  0.84143265843E+00  0.51404959386E+00  0.21566910859E+01  0.51100000000E-03 0.  1.
         12    1    3    3    0    0 -0.55540634730E+01 -0.92401235527E-01 -0.37309035536E+01  0.66914722129E+01  0.00000000000E+00 0. -1.
</event>
<event>
 7    1  0.1899036E-009  0.4778727E+02  0.7816164E-02  0.1312668E+00
        -11   -1    0    0    0    0  0.00000000000E+00  0.00000000000E+00  0.45593999997E+02  0.45594000000E+02  0.51100000000E-03 0.  1.
         11   -1    0    0    0    0 -0.00000000000E+00 -0.00000000000E+00 -0.45593999997E+02  0.45594000000E+02  0.51100000000E-03 0. -1.
    9900012    2    1    2    0    0 -0.32952748055E+02  0.27828987378E+02  0.48256413499E+01  0.47787274692E+02  0.20000016631E+02 0.  0.
        -12    1    1    2    0    0  0.32952748055E+02 -0.27828987378E+02 -0.48256413499E+01  0.43400725308E+02  0.00000000000E+00 0.  1.
         11    1    3    3    0    0 -0.21393211264E+02  0.21771088847E+02 -0.50558167389E-01  0.30522980755E+02  0.51100000000E-03 0. -1.
        -11    1    3    3    0    0 -0.72627754712E+01  0.84205621580E+01  0.13010013421E+01  0.11195819727E+02  0.51100000000E-03 0.  1.
        -12    1    3    3    0    0 -0.42967613191E+01 -0.23626636272E+01  0.35751981753E+01  0.60684742103E+01  0.00000000000E+00 0.  1.
</event>
<event>
 7    1  0.1899036E-009  0.4778728E+02  0.7816164E-02  0.1312668E+00
        -11   -1    0    0    0    0  0.00000000000E+00  0.00000000000E+00  0.45593999997E+02  0.45594000000E+02  0.51100000000E-03 0.  1.
         11   -1    0    0    0    0 -0.00000000000E+00 -0.00000000000E+00 -0.45593999997E+02  0.45594000000E+02  0.51100000000E-03 0. -1.
    9900012    2    1    2    0    0  0.34404754827E+02  0.26456294924E+02  0.50127368642E-02  0.47787277415E+02  0.20000029044E+02 0.  0.
        -12    1    1    2    0    0 -0.34404754827E+02 -0.26456294924E+02 -0.50127368641E-02  0.43400722585E+02  0.00000000000E+00 0.  1.
         11    1    3    3    0    0  0.27292096869E+01  0.65391560380E+01  0.34391230244E+01  0.78763389110E+01  0.51100000000E-03 0. -1.
        -11    1    3    3    0    0  0.66595049531E+01  0.38555371547E+01  0.47923013309E+01  0.90653364681E+01  0.51100000000E-03 0.  1.
         12    1    3    3    0    0  0.25016040187E+02  0.16061601731E+02 -0.82264116184E+01  0.30845602035E+02  0.00000000000E+00 0. -1.
</event>
<event>
 7    1  0.1899036E-009  0.4778724E+02  0.7816164E-02  0.1312668E+00
        -11   -1    0    0    0    0  0.00000000000E+00  0.00000000000E+00  0.45593999997E+02  0.45594000000E+02  0.51100000000E-03 0. -1.
         11   -1    0    0    0    0 -0.00000000000E+00 -0.00000000000E+00 -0.45593999997E+02  0.45594000000E+02  0.51100000000E-03 0.  1.
    9900012    2    1    2    0    0  0.20188878300E+02  0.38212022397E+02  0.39845315930E+01  0.47787240160E+02  0.19999859186E+02 0.  0.
        -12    1    1    2    0    0 -0.20188878300E+02 -0.38212022397E+02 -0.39845315930E+01  0.43400759840E+02  0.00000000000E+00 0.  1.
         11    1    3    3    0    0  0.10227685385E+02  0.18593678985E+02 -0.40331164705E+01  0.21600844318E+02  0.51100000000E-03 0. -1.
        -11    1    3    3    0    0 -0.86493801421E+00  0.10731106440E+02  0.20400770611E+01  0.10957494142E+02  0.51100000000E-03 0.  1.
         12    1    3    3    0    0  0.10826130930E+02  0.88872369709E+01  0.59775710024E+01  0.15228901700E+02  0.00000000000E+00 0. -1.
</event>
<event>
 7    1  0.1899036E-009  0.4778727E+02  0.7816164E-02  0.1312668E+00
        -11   -1    0    0    0    0  0.00000000000E+00  0.00000000000E+00  0.45593999997E+02  0.45594000000E+02  0.51100000000E-03 0.  1.
         11   -1    0    0    0    0 -0.00000000000E+00 -0.00000000000E+00 -0.45593999997E+02  0.45594000000E+02  0.51100000000E-03 0. -1.
    9900012    2    1    2    0    0  0.35052829906E+02 -0.23700462109E+02 -0.96545587720E+01  0.47787270816E+02  0.19999998958E+02 0.  0.
        -12    1    1    2    0    0 -0.35052829906E+02  0.23700462109E+02  0.96545587720E+01  0.43400729184E+02  0.00000000000E+00 0.  1.
         11    1    3    3    0    0  0.43675206647E+01 -0.49466733980E+01  0.14197428283E+01  0.67498506963E+01  0.51100000000E-03 0. -1.
        -11    1    3    3    0    0  0.85801032616E+00 -0.17795699069E+01  0.32867764460E+01  0.38348338218E+01  0.51100000000E-03 0.  1.
         12    1    3    3    0    0  0.29827298915E+02 -0.16974218804E+02 -0.14361078046E+02  0.37202586298E+02  0.00000000000E+00 0. -1.
</event>
<event>
 7    1  0.1899036E-009  0.4778728E+02  0.7816164E-02  0.1312668E+00
        -11   -1    0    0    0    0  0.00000000000E+00  0.00000000000E+00  0.45593999997E+02  0.45594000000E+02  0.51100000000E-03 0.  1.
         11   -1    0    0    0    0 -0.00000000000E+00 -0.00000000000E+00 -0.45593999997E+02  0.45594000000E+02  0.51100000000E-03 0. -1.
    9900012    2    1    2    0    0  0.18340623827E+02  0.13707842425E+02 -0.36869212925E+02  0.47787282402E+02  0.20000051782E+02 0.  0.
        -12    1    1    2    0    0 -0.18340623827E+02 -0.13707842425E+02  0.36869212925E+02  0.43400717598E+02  0.00000000000E+00 0.  1.
         11    1    3    3    0    0  0.33130569109E+00  0.10116089228E+02 -0.21231403254E+02  0.23520576292E+02  0.51100000000E-03 0. -1.
        -11    1    3    3    0    0  0.24777849111E+01  0.64056685993E+00 -0.10876555696E+01  0.27807802622E+01  0.51100000000E-03 0.  1.
         12    1    3    3    0    0  0.15531533225E+02  0.29511863374E+01 -0.14550154102E+02  0.21485925847E+02  0.00000000000E+00 0. -1.
</event>
<event>
 7    1  0.1899036E-009  0.4778727E+02  0.7816164E-02  0.1312668E+00
        -11   -1    0    0    0    0  0.00000000000E+00  0.00000000000E+00  0.45593999997E+02  0.45594000000E+02  0.51100000000E-03 0.  1.
         11   -1    0    0    0    0 -0.00000000000E+00 -0.00000000000E+00 -0.45593999997E+02  0.45594000000E+02  0.51100000000E-03 0. -1.
    9900012    2    1    2    0    0 -0.33182985668E+02  0.10157326677E+02  0.26064180764E+02  0.47787270260E+02  0.19999996423E+02 0.  0.
        -12    1    1    2    0    0  0.33182985668E+02 -0.10157326677E+02 -0.26064180764E+02  0.43400729740E+02  0.00000000000E+00 0.  1.
         11    1    3    3    0    0 -0.14819168643E+02  0.24535559547E+01  0.16167711338E+01  0.15107668425E+02  0.51100000000E-03 0. -1.
        -11    1    3    3    0    0  0.22342616315E+00  0.15527106736E+01  0.43402959873E+01  0.46150838784E+01  0.51100000000E-03 0.  1.
         12    1    3    3    0    0 -0.18587243189E+02  0.61510600490E+01  0.20107113643E+02  0.28064517956E+02  0.00000000000E+00 0. -1.
</event>
<event>
 7    1  0.1899036E-009  0.4778727E+02  0.7816164E-02  0.1312668E+00
        -11   -1    0    0    0    0  0.00000000000E+00  0.00000000000E+00  0.45593999997E+02  0.45594000000E+02  0.51100000000E-03 0.  1.
         11   -1    0    0    0    0 -0.00000000000E+00 -0.00000000000E+00 -0.45593999997E+02  0.45594000000E+02  0.51100000000E-03 0. -1.
    9900012    2    1    2    0    0 -0.28215631093E+02 -0.32314055107E+02 -0.65805203514E+01  0.47787271394E+02  0.20000001594E+02 0.  0.
        -12    1    1    2    0    0  0.28215631093E+02  0.32314055107E+02  0.65805203514E+01  0.43400728606E+02  0.00000000000E+00 0.  1.
         11    1    3    3    0    0 -0.54058671453E+01 -0.12746921908E+02 -0.74287594924E+01  0.15712857334E+02  0.51100000000E-03 0.  1.
        -11    1    3    3    0    0 -0.10999131288E+02 -0.13560540593E+02 -0.40911900689E+01  0.17933404214E+02  0.51100000000E-03 0. -1.
        -12    1    3    3    0    0 -0.11810632660E+02 -0.60065926057E+01  0.49394292100E+01  0.14141009847E+02  0.00000000000E+00 0.  1.
</event>
<event>
 7    1  0.1899036E-009  0.4778727E+02  0.7816164E-02  0.1312668E+00
        -11   -1    0    0    0    0  0.00000000000E+00  0.00000000000E+00  0.45593999997E+02  0.45594000000E+02  0.51100000000E-03 0. -1.
         11   -1    0    0    0    0 -0.00000000000E+00 -0.00000000000E+00 -0.45593999997E+02  0.45594000000E+02  0.51100000000E-03 0.  1.
    9900012    2    1    2    0    0  0.27210741319E+02 -0.26452287133E+02  0.21058853244E+02  0.47787271462E+02  0.20000001902E+02 0.  0.
        -12    1    1    2    0    0 -0.27210741319E+02  0.26452287133E+02 -0.21058853244E+02  0.43400728538E+02  0.00000000000E+00 0.  1.
         11    1    3    3    0    0  0.42890283831E+01  0.45550906926E-01  0.31321416052E+01  0.53111345918E+01  0.51100000000E-03 0. -1.
        -11    1    3    3    0    0  0.33213279766E+01 -0.14129650412E+02  0.27507216953E+01  0.14773107676E+02  0.51100000000E-03 0.  1.
         12    1    3    3    0    0  0.19600384959E+02 -0.12368187628E+02  0.15175989944E+02  0.27703029194E+02  0.00000000000E+00 0. -1.
</event>
<event>
 7    1  0.1899036E-009  0.4778726E+02  0.7816164E-02  0.1312668E+00
        -11   -1    0    0    0    0  0.00000000000E+00  0.00000000000E+00  0.45593999997E+02  0.45594000000E+02  0.51100000000E-03 0.  1.
         11   -1    0    0    0    0 -0.00000000000E+00 -0.00000000000E+00 -0.45593999997E+02  0.45594000000E+02  0.51100000000E-03 0. -1.
    9900012    2    1    2    0    0 -0.22031507870E+01 -0.42469881761E+02  0.86648461335E+01  0.47787259353E+02  0.19999946694E+02 0.  0.
        -12    1    1    2    0    0  0.22031507870E+01  0.42469881761E+02 -0.86648461335E+01  0.43400740647E+02  0.00000000000E+00 0.  1.
         11    1    3    3    0    0 -0.18809018201E+01  0.13674724625E+01 -0.82345385467E+00  0.24669513786E+01  0.51100000000E-03 0.  1.
        -11    1    3    3    0    0 -0.27947837640E+01 -0.13899805596E+02  0.44596548386E+01  0.14862837328E+02  0.51100000000E-03 0. -1.
        -12    1    3    3    0    0  0.24725347971E+01 -0.29937548627E+02  0.50286451496E+01  0.30457470646E+02  0.00000000000E+00 0.  1.
</event>
<event>
 7    1  0.1899036E-009  0.4778727E+02  0.7816164E-02  0.1312668E+00
        -11   -1    0    0    0    0  0.00000000000E+00  0.00000000000E+00  0.45593999997E+02  0.45594000000E+02  0.51100000000E-03 0.  1.
         11   -1    0    0    0    0 -0.00000000000E+00 -0.00000000000E+00 -0.45593999997E+02  0.45594000000E+02  0.51100000000E-03 0. -1.
    9900012    2    1    2    0    0 -0.21306913922E+02  0.33894319366E+02 -0.16757505207E+02  0.47787269051E+02  0.19999990910E+02 0.  0.
        -12    1    1    2    0    0  0.21306913922E+02 -0.33894319366E+02  0.16757505207E+02  0.43400730949E+02  0.00000000000E+00 0.  1.
         11    1    3    3    0    0  0.77714868493E+00  0.39390185199E+01 -0.21547134922E+01  0.45566015267E+01  0.51100000000E-03 0. -1.
        -11    1    3    3    0    0 -0.43197329314E+01  0.15235202843E+02  0.16809296055E+00  0.15836658542E+02  0.51100000000E-03 0.  1.
         12    1    3    3    0    0 -0.17764329675E+02  0.14720098004E+02 -0.14770884675E+02  0.27394008982E+02  0.00000000000E+00 0. -1.
</event>
<event>
 7    1  0.1899036E-009  0.4778727E+02  0.7816164E-02  0.1312668E+00
        -11   -1    0    0    0    0  0.00000000000E+00  0.00000000000E+00  0.45593999997E+02  0.45594000000E+02  0.51100000000E-03 0.  1.
         11   -1    0    0    0    0 -0.00000000000E+00 -0.00000000000E+00 -0.45593999997E+02  0.45594000000E+02  0.51100000000E-03 0. -1.
    9900012    2    1    2    0    0  0.41872542983E+02  0.11155627480E+02 -0.24218404539E+01  0.47787271993E+02  0.20000004325E+02 0.  0.
        -12    1    1    2    0    0 -0.41872542983E+02 -0.11155627480E+02  0.24218404539E+01  0.43400728007E+02  0.00000000000E+00 0.  1.
         11    1    3    3    0    0  0.32733735616E+02  0.23365704638E+01 -0.17584088556E+01  0.32864099118E+02  0.51100000000E-03 0. -1.
        -11    1    3    3    0    0  0.55506601505E+01  0.13863480092E+01 -0.28403345126E+01  0.63874321377E+01  0.51100000000E-03 0.  1.
        -12    1    3    3    0    0  0.35881472170E+01  0.74327090071E+01  0.21769029143E+01  0.85357407373E+01  0.00000000000E+00 0.  1.
</event>
<event>
 7    1  0.1899036E-009  0.4778727E+02  0.7816164E-02  0.1312668E+00
        -11   -1    0    0    0    0  0.00000000000E+00  0.00000000000E+00  0.45593999997E+02  0.45594000000E+02  0.51100000000E-03 0. -1.
         11   -1    0    0    0    0 -0.00000000000E+00 -0.00000000000E+00 -0.45593999997E+02  0.45594000000E+02  0.51100000000E-03 0.  1.
    9900012    2    1    2    0    0 -0.17998919756E+02  0.99938912595E+01  0.38207121266E+02  0.47787273159E+02  0.20000009640E+02 0.  0.
        -12    1    1    2    0    0  0.17998919756E+02 -0.99938912595E+01 -0.38207121266E+02  0.43400726841E+02  0.00000000000E+00 0.  1.
         11    1    3    3    0    0 -0.39348858287E+01 -0.41936392027E+01  0.12943760237E+02  0.14163716517E+02  0.51100000000E-03 0. -1.
        -11    1    3    3    0    0 -0.94406483121E+01  0.36527617856E+01  0.81167088903E+01  0.12974955595E+02  0.51100000000E-03 0.  1.
         12    1    3    3    0    0 -0.46233856150E+01  0.10534768677E+02  0.17146652139E+02  0.20648601047E+02  0.00000000000E+00 0. -1.
</event>
<event>
 7    1  0.1899036E-009  0.4778727E+02  0.7816164E-02  0.1312668E+00
        -11   -1    0    0    0    0  0.00000000000E+00  0.00000000000E+00  0.45593999997E+02  0.45594000000E+02  0.51100000000E-03 0.  1.
         11   -1    0    0    0    0 -0.00000000000E+00 -0.00000000000E+00 -0.45593999997E+02  0.45594000000E+02  0.51100000000E-03 0. -1.
    9900012    2    1    2    0    0  0.70830003038E+01  0.68252100506E+01 -0.42271394871E+02  0.47787271782E+02  0.20000003362E+02 0.  0.
        -12    1    1    2    0    0 -0.70830003038E+01 -0.68252100506E+01  0.42271394871E+02  0.43400728218E+02  0.00000000000E+00 0.  1.
         11    1    3    3    0    0 -0.29397938584E+01 -0.10256482272E+01 -0.15215352978E+02  0.15530657060E+02  0.51100000000E-03 0.  1.
        -11    1    3    3    0    0  0.50372442479E+01  0.50813096104E+01 -0.33979941160E+01  0.79208523053E+01  0.51100000000E-03 0. -1.
         12    1    3    3    0    0  0.49855499143E+01  0.27695486675E+01 -0.23658047777E+02  0.24335762417E+02  0.00000000000E+00 0. -1.
</event>
<event>
 7    1  0.1899036E-009  0.4778727E+02  0.7816164E-02  0.1312668E+00
        -11   -1    0    0    0    0  0.00000000000E+00  0.00000000000E+00  0.45593999997E+02  0.45594000000E+02  0.51100000000E-03 0.  1.
         11   -1    0    0    0    0 -0.00000000000E+00 -0.00000000000E+00 -0.45593999997E+02  0.45594000000E+02  0.51100000000E-03 0. -1.
    9900012    2    1    2    0    0  0.38063498155E+02  0.80852024092E+01 -0.19220385859E+02  0.47787267030E+02  0.19999981696E+02 0.  0.
        -12    1    1    2    0    0 -0.38063498155E+02 -0.80852024092E+01  0.19220385859E+02  0.43400732970E+02  0.00000000000E+00 0.  1.
         11    1    3    3    0    0  0.24392770778E+02 -0.31687225567E+01 -0.14216373053E+02  0.28410444064E+02  0.51100000000E-03 0. -1.
        -11    1    3    3    0    0  0.79390898329E+01  0.36545179620E+01 -0.26508343712E+00  0.87438503188E+01  0.51100000000E-03 0.  1.
        -12    1    3    3    0    0  0.57316375438E+01  0.75994070039E+01 -0.47389293687E+01  0.10632972647E+02  0.00000000000E+00 0.  1.
</event>
<event>
 7    1  0.1899036E-009  0.4778727E+02  0.7816164E-02  0.1312668E+00
        -11   -1    0    0    0    0  0.00000000000E+00  0.00000000000E+00  0.45593999997E+02  0.45594000000E+02  0.51100000000E-03 0. -1.
         11   -1    0    0    0    0 -0.00000000000E+00 -0.00000000000E+00 -0.45593999997E+02  0.45594000000E+02  0.51100000000E-03 0.  1.
    9900012    2    1    2    0    0  0.30919379489E+02 -0.24135596678E+02  0.18576552294E+02  0.47787270166E+02  0.19999995993E+02 0.  0.
        -12    1    1    2    0    0 -0.30919379489E+02  0.24135596678E+02 -0.18576552294E+02  0.43400729834E+02  0.00000000000E+00 0.  1.
         11    1    3    3    0    0  0.11482062429E+01  0.23226870924E+00  0.57379260431E+01  0.58562890866E+01  0.51100000000E-03 0. -1.
        -11    1    3    3    0    0  0.10800989658E+02 -0.50049428344E+01 -0.76482755016E-01  0.11904481519E+02  0.51100000000E-03 0.  1.
         12    1    3    3    0    0  0.18970183589E+02 -0.19362922553E+02  0.12915109006E+02  0.30026499560E+02  0.00000000000E+00 0. -1.
</event>
<event>
 7    1  0.1899036E-009  0.4778726E+02  0.7816164E-02  0.1312668E+00
        -11   -1    0    0    0    0  0.00000000000E+00  0.00000000000E+00  0.45593999997E+02  0.45594000000E+02  0.51100000000E-03 0.  1.
         11   -1    0    0    0    0 -0.00000000000E+00 -0.00000000000E+00 -0.45593999997E+02  0.45594000000E+02  0.51100000000E-03 0. -1.
    9900012    2    1    2    0    0 -0.32960840821E+02  0.13208312735E+01 -0.28203944606E+02  0.47787261364E+02  0.19999955861E+02 0.  0.
        -12    1    1    2    0    0  0.32960840821E+02 -0.13208312735E+01  0.28203944606E+02  0.43400738636E+02  0.00000000000E+00 0.  1.
         11    1    3    3    0    0 -0.27081482801E+01  0.93038539457E+00 -0.39551844078E+01  0.48829466565E+01  0.51100000000E-03 0. -1.
        -11    1    3    3    0    0 -0.30647889020E+02 -0.28326677591E+01 -0.17477386034E+02  0.35394577705E+02  0.51100000000E-03 0.  1.
         12    1    3    3    0    0  0.39519647979E+00  0.32231136381E+01 -0.67713741637E+01  0.75097370025E+01  0.00000000000E+00 0. -1.
</event>
<event>
 7    1  0.1899036E-009  0.4778726E+02  0.7816164E-02  0.1312668E+00
        -11   -1    0    0    0    0  0.00000000000E+00  0.00000000000E+00  0.45593999997E+02  0.45594000000E+02  0.51100000000E-03 0.  1.
         11   -1    0    0    0    0 -0.00000000000E+00 -0.00000000000E+00 -0.45593999997E+02  0.45594000000E+02  0.51100000000E-03 0. -1.
    9900012    2    1    2    0    0  0.19160541830E+02  0.21189662715E+02 -0.32672560003E+02  0.47787258689E+02  0.19999943666E+02 0.  0.
        -12    1    1    2    0    0 -0.19160541830E+02 -0.21189662715E+02  0.32672560003E+02  0.43400741311E+02  0.00000000000E+00 0.  1.
         11    1    3    3    0    0  0.10313203761E+02  0.15954689492E+02 -0.27168644945E+02  0.33151916340E+02  0.51100000000E-03 0. -1.
        -11    1    3    3    0    0  0.92744812821E+01  0.40446409607E+01 -0.72729358852E+01  0.12460767240E+02  0.51100000000E-03 0.  1.
        -12    1    3    3    0    0 -0.42714321292E+00  0.11903322626E+01  0.17690208271E+01  0.21745751094E+01  0.00000000000E+00 0.  1.
</event>
<event>
 7    1  0.1899036E-009  0.4778727E+02  0.7816164E-02  0.1312668E+00
        -11   -1    0    0    0    0  0.00000000000E+00  0.00000000000E+00  0.45593999997E+02  0.45594000000E+02  0.51100000000E-03 0.  1.
         11   -1    0    0    0    0 -0.00000000000E+00 -0.00000000000E+00 -0.45593999997E+02  0.45594000000E+02  0.51100000000E-03 0. -1.
    9900012    2    1    2    0    0 -0.20307631156E+02  0.94877546835E+01 -0.37164578307E+02  0.47787271286E+02  0.20000001104E+02 0.  0.
        -12    1    1    2    0    0  0.20307631156E+02 -0.94877546835E+01  0.37164578307E+02  0.43400728714E+02  0.00000000000E+00 0.  1.
         11    1    3    3    0    0 -0.60149285849E+01 -0.32774696562E+01 -0.69088220313E+01  0.97289770968E+01  0.51100000000E-03 0. -1.
        -11    1    3    3    0    0  0.72099821212E-01  0.64235445507E+01 -0.43263731867E+01  0.77449743829E+01  0.51100000000E-03 0.  1.
         12    1    3    3    0    0 -0.14364802392E+02  0.63416797890E+01 -0.25929383089E+02  0.30313319807E+02  0.00000000000E+00 0. -1.
</event>
<event>
 7    1  0.1899036E-009  0.4778727E+02  0.7816164E-02  0.1312668E+00
        -11   -1    0    0    0    0  0.00000000000E+00  0.00000000000E+00  0.45593999997E+02  0.45594000000E+02  0.51100000000E-03 0. -1.
         11   -1    0    0    0    0 -0.00000000000E+00 -0.00000000000E+00 -0.45593999997E+02  0.45594000000E+02  0.51100000000E-03 0.  1.
    9900012    2    1    2    0    0  0.12790038537E+02 -0.40083393770E+02  0.10647046741E+02  0.47787272515E+02  0.20000006704E+02 0.  0.
        -12    1    1    2    0    0 -0.12790038537E+02  0.40083393770E+02 -0.10647046741E+02  0.43400727485E+02  0.00000000000E+00 0.  1.
         11    1    3    3    0    0  0.74274015711E+01 -0.14131479096E+02  0.69930006478E+01  0.17428914305E+02  0.51100000000E-03 0. -1.
        -11    1    3    3    0    0  0.14364717889E+01 -0.14316175102E+02  0.89933993838E+01  0.16967544120E+02  0.51100000000E-03 0.  1.
        -12    1    3    3    0    0  0.39261651773E+01 -0.11635739573E+02 -0.53393532907E+01  0.13390814089E+02  0.00000000000E+00 0.  1.
</event>
<event>
 7    1  0.1899036E-009  0.4778726E+02  0.7816164E-02  0.1312668E+00
        -11   -1    0    0    0    0  0.00000000000E+00  0.00000000000E+00  0.45593999997E+02  0.45594000000E+02  0.51100000000E-03 0.  1.
         11   -1    0    0    0    0 -0.00000000000E+00 -0.00000000000E+00 -0.45593999997E+02  0.45594000000E+02  0.51100000000E-03 0. -1.
    9900012    2    1    2    0    0  0.25081433132E+00  0.27959252348E+02 -0.33193998121E+02  0.47787260249E+02  0.19999950778E+02 0.  0.
        -12    1    1    2    0    0 -0.25081433132E+00 -0.27959252348E+02  0.33193998121E+02  0.43400739751E+02  0.00000000000E+00 0.  1.
         11    1    3    3    0    0 -0.28987813131E+01  0.22053237447E+02 -0.14374036061E+02  0.26483223519E+02  0.51100000000E-03 0.  1.
        -11    1    3    3    0    0  0.23329222606E+01  0.76749432069E+01 -0.15566362468E+02  0.17511679538E+02  0.51100000000E-03 0. -1.
        -12    1    3    3    0    0  0.81667338388E+00 -0.17689283059E+01 -0.32535995925E+01  0.37923571925E+01  0.00000000000E+00 0.  1.
</event>
<event>
 7    1  0.1899036E-009  0.4778727E+02  0.7816164E-02  0.1312668E+00
        -11   -1    0    0    0    0  0.00000000000E+00  0.00000000000E+00  0.45593999997E+02  0.45594000000E+02  0.51100000000E-03 0. -1.
         11   -1    0    0    0    0 -0.00000000000E+00 -0.00000000000E+00 -0.45593999997E+02  0.45594000000E+02  0.51100000000E-03 0.  1.
    9900012    2    1    2    0    0  0.93318473073E+01  0.35339238651E+02  0.23402519436E+02  0.47787273295E+02  0.20000010262E+02 0.  0.
        -12    1    1    2    0    0 -0.93318473073E+01 -0.35339238651E+02 -0.23402519436E+02  0.43400726705E+02  0.00000000000E+00 0.  1.
         11    1    3    3    0    0  0.20431180758E+01  0.21237649100E+02  0.13652548040E+02  0.25329906021E+02  0.51100000000E-03 0. -1.
        -11    1    3    3    0    0 -0.17606432678E+01 -0.64193054821E+00  0.36700877874E+01  0.41208596401E+01  0.51100000000E-03 0.  1.
         12    1    3    3    0    0  0.90493724993E+01  0.14743520099E+02  0.60798836085E+01  0.18336507634E+02  0.00000000000E+00 0. -1.
</event>
<event>
 7    1  0.1899036E-009  0.4778728E+02  0.7816164E-02  0.1312668E+00
        -11   -1    0    0    0    0  0.00000000000E+00  0.00000000000E+00  0.45593999997E+02  0.45594000000E+02  0.51100000000E-03 0.  1.
         11   -1    0    0    0    0 -0.00000000000E+00 -0.00000000000E+00 -0.45593999997E+02  0.45594000000E+02  0.51100000000E-03 0. -1.
    9900012    2    1    2    0    0 -0.12817235203E+01 -0.43067784443E+02 -0.52101729499E+01  0.47787276801E+02  0.20000026246E+02 0.  0.
        -12    1    1    2    0    0  0.12817235203E+01  0.43067784443E+02  0.52101729499E+01  0.43400723199E+02  0.00000000000E+00 0.  1.
         11    1    3    3    0    0  0.30650945323E+01 -0.74976978655E+01 -0.44134498732E+01  0.92243600222E+01  0.51100000000E-03 0. -1.
        -11    1    3    3    0    0 -0.76891750481E+01 -0.93929326957E+01 -0.91171037353E+00  0.12172995260E+02  0.51100000000E-03 0.  1.
        -12    1    3    3    0    0  0.33423569955E+01 -0.26177153882E+02  0.11498729684E+00  0.26389921518E+02  0.00000000000E+00 0.  1.
</event>
<event>
 7    1  0.1899036E-009  0.4778727E+02  0.7816164E-02  0.1312668E+00
        -11   -1    0    0    0    0  0.00000000000E+00  0.00000000000E+00  0.45593999997E+02  0.45594000000E+02  0.51100000000E-03 0. -1.
         11   -1    0    0    0    0 -0.00000000000E+00 -0.00000000000E+00 -0.45593999997E+02  0.45594000000E+02  0.51100000000E-03 0.  1.
    9900012    2    1    2    0    0 -0.12673171793E+02 -0.78533150563E+01  0.40759534001E+02  0.47787268984E+02  0.19999990608E+02 0.  0.
        -12    1    1    2    0    0  0.12673171793E+02  0.78533150563E+01 -0.40759534001E+02  0.43400731016E+02  0.00000000000E+00 0.  1.
         11    1    3    3    0    0 -0.82314952501E+01  0.70691982639E+00  0.12381928634E+02  0.14885207645E+02  0.51100000000E-03 0. -1.
        -11    1    3    3    0    0 -0.66036625050E+01 -0.10692125684E+02  0.26508685055E+02  0.29336671483E+02  0.51100000000E-03 0.  1.
        -12    1    3    3    0    0  0.21619859618E+01  0.21318908014E+01  0.18689203128E+01  0.35653898558E+01  0.00000000000E+00 0.  1.
</event>
<event>
 7    1  0.1899036E-009  0.4778727E+02  0.7816164E-02  0.1312668E+00
        -11   -1    0    0    0    0  0.00000000000E+00  0.00000000000E+00  0.45593999997E+02  0.45594000000E+02  0.51100000000E-03 0.  1.
         11   -1    0    0    0    0 -0.00000000000E+00 -0.00000000000E+00 -0.45593999997E+02  0.45594000000E+02  0.51100000000E-03 0. -1.
    9900012    2    1    2    0    0 -0.13825890286E+02  0.21732654364E+02 -0.34930788523E+02  0.47787268500E+02  0.19999988400E+02 0.  0.
        -12    1    1    2    0    0  0.13825890286E+02 -0.21732654364E+02  0.34930788523E+02  0.43400731500E+02  0.00000000000E+00 0.  1.
         11    1    3    3    0    0 -0.76307506617E+01  0.23856251726E+02 -0.23690475803E+02  0.34475900947E+02  0.51100000000E-03 0. -1.
        -11    1    3    3    0    0 -0.13268032153E+01 -0.25569259579E+00 -0.49994570597E+01  0.51788373819E+01  0.51100000000E-03 0.  1.
         12    1    3    3    0    0 -0.48683364094E+01 -0.18679047668E+01 -0.62408556599E+01  0.81325301709E+01  0.00000000000E+00 0. -1.
</event>
<event>
 7    1  0.1899036E-009  0.4778727E+02  0.7816164E-02  0.1312668E+00
        -11   -1    0    0    0    0  0.00000000000E+00  0.00000000000E+00  0.45593999997E+02  0.45594000000E+02  0.51100000000E-03 0.  1.
         11   -1    0    0    0    0 -0.00000000000E+00 -0.00000000000E+00 -0.45593999997E+02  0.45594000000E+02  0.51100000000E-03 0. -1.
    9900012    2    1    2    0    0 -0.30370667756E+02  0.30030805003E+02 -0.77068969920E+01  0.47787274542E+02  0.20000015947E+02 0.  0.
        -12    1    1    2    0    0  0.30370667756E+02 -0.30030805003E+02  0.77068969920E+01  0.43400725458E+02  0.00000000000E+00 0.  1.
         11    1    3    3    0    0 -0.12811409634E+02  0.21697019930E+02 -0.70821370760E+01  0.26173451368E+02  0.51100000000E-03 0. -1.
        -11    1    3    3    0    0 -0.31614793210E+01  0.52907874603E+01 -0.27431793270E+01  0.67462890932E+01  0.51100000000E-03 0.  1.
        -12    1    3    3    0    0 -0.14397778800E+02  0.30429976118E+01  0.21184194110E+01  0.14867534081E+02  0.00000000000E+00 0.  1.
</event>
<event>
 7    1  0.1899036E-009  0.4778727E+02  0.7816164E-02  0.1312668E+00
        -11   -1    0    0    0    0  0.00000000000E+00  0.00000000000E+00  0.45593999997E+02  0.45594000000E+02  0.51100000000E-03 0.  1.
         11   -1    0    0    0    0 -0.00000000000E+00 -0.00000000000E+00 -0.45593999997E+02  0.45594000000E+02  0.51100000000E-03 0. -1.
    9900012    2    1    2    0    0 -0.11352669518E+02 -0.37116110900E+02 -0.19419949091E+02  0.47787271708E+02  0.20000003026E+02 0.  0.
        -12    1    1    2    0    0  0.11352669518E+02  0.37116110900E+02  0.19419949091E+02  0.43400728292E+02  0.00000000000E+00 0.  1.
         11    1    3    3    0    0 -0.75653004819E+01 -0.24122361068E+02 -0.10773860458E+02  0.27480868696E+02  0.51100000000E-03 0. -1.
        -11    1    3    3    0    0 -0.70729147393E+01 -0.11847901808E+02 -0.94636897872E+01  0.16732014965E+02  0.51100000000E-03 0.  1.
        -12    1    3    3    0    0  0.32855457028E+01 -0.11458480248E+01  0.81760115360E+00  0.35743880465E+01  0.00000000000E+00 0.  1.
</event>
<event>
 7    1  0.1966228E-009  0.4778727E+02  0.7816164E-02  0.1312668E+00
        -11   -1    0    0    0    0  0.00000000000E+00  0.00000000000E+00  0.45593999997E+02  0.45594000000E+02  0.51100000000E-03 0. -1.
         11   -1    0    0    0    0 -0.00000000000E+00 -0.00000000000E+00 -0.45593999997E+02  0.45594000000E+02  0.51100000000E-03 0.  1.
    9900012    2    1    2    0    0  0.15895672220E+02  0.39839163183E+02  0.66175723315E+01  0.47787267494E+02  0.19999983814E+02 0.  0.
        -12    1    1    2    0    0 -0.15895672220E+02 -0.39839163183E+02 -0.66175723315E+01  0.43400732506E+02  0.00000000000E+00 0.  1.
         11    1    3    3    0    0  0.68289314156E+01  0.84808568315E+01  0.30439191590E+01  0.11305957765E+02  0.51100000000E-03 0. -1.
        -11    1    3    3    0    0  0.31229262809E+01  0.29939355427E+02  0.19840454411E+01  0.30167103084E+02  0.51100000000E-03 0.  1.
        -12    1    3    3    0    0  0.59438145233E+01  0.14189509249E+01  0.15896077314E+01  0.63142066449E+01  0.00000000000E+00 0.  1.
</event>
<event>
 7    1  0.1958146E-009  0.4778728E+02  0.7816164E-02  0.1312668E+00
        -11   -1    0    0    0    0  0.00000000000E+00  0.00000000000E+00  0.45593999997E+02  0.45594000000E+02  0.51100000000E-03 0.  1.
         11   -1    0    0    0    0 -0.00000000000E+00 -0.00000000000E+00 -0.45593999997E+02  0.45594000000E+02  0.51100000000E-03 0. -1.
    9900012    2    1    2    0    0 -0.35917584950E+02 -0.13358856435E+00 -0.24362514815E+02  0.47787275551E+02  0.20000020549E+02 0.  0.
        -12    1    1    2    0    0  0.35917584950E+02  0.13358856435E+00  0.24362514815E+02  0.43400724449E+02  0.00000000000E+00 0.  1.
         11    1    3    3    0    0 -0.12536159145E+02 -0.15467047649E+01 -0.63666924583E+01  0.14145047008E+02  0.51100000000E-03 0. -1.
        -11    1    3    3    0    0  0.22709773349E+01 -0.11945211734E+00 -0.33937896482E+01  0.40852680820E+01  0.51100000000E-03 0.  1.
        -12    1    3    3    0    0 -0.25652403140E+02  0.15325683179E+01 -0.14602032708E+02  0.29556960462E+02  0.00000000000E+00 0.  1.
</event>
<event>
 7    1  0.1899036E-009  0.4778727E+02  0.7816164E-02  0.1312668E+00
        -11   -1    0    0    0    0  0.00000000000E+00  0.00000000000E+00  0.45593999997E+02  0.45594000000E+02  0.51100000000E-03 0.  1.
         11   -1    0    0    0    0 -0.00000000000E+00 -0.00000000000E+00 -0.45593999997E+02  0.45594000000E+02  0.51100000000E-03 0. -1.
    9900012    2    1    2    0    0  0.11488927501E+02  0.18573811475E+02 -0.37505217809E+02  0.47787270850E+02  0.19999999113E+02 0.  0.
        -12    1    1    2    0    0 -0.11488927501E+02 -0.18573811475E+02  0.37505217809E+02  0.43400729150E+02  0.00000000000E+00 0.  1.
         11    1    3    3    0    0  0.15263243156E+02  0.71224373168E+01 -0.24781171008E+02  0.29963346638E+02  0.51100000000E-03 0. -1.
        -11    1    3    3    0    0 -0.12406514778E+01  0.29973744839E+01 -0.15795462202E+01  0.36081070396E+01  0.51100000000E-03 0.  1.
         12    1    3    3    0    0 -0.25336641776E+01  0.84539996747E+01 -0.11144500581E+02  0.14215817172E+02  0.00000000000E+00 0. -1.
</event>
<event>
 7    1  0.1899036E-009  0.4778727E+02  0.7816164E-02  0.1312668E+00
        -11   -1    0    0    0    0  0.00000000000E+00  0.00000000000E+00  0.45593999997E+02  0.45594000000E+02  0.51100000000E-03 0.  1.
         11   -1    0    0    0    0 -0.00000000000E+00 -0.00000000000E+00 -0.45593999997E+02  0.45594000000E+02  0.51100000000E-03 0. -1.
    9900012    2    1    2    0    0 -0.38542400325E+02  0.19938875341E+02 -0.74006305439E+00  0.47787273439E+02  0.20000010918E+02 0.  0.
        -12    1    1    2    0    0  0.38542400325E+02 -0.19938875341E+02  0.74006305439E+00  0.43400726561E+02  0.00000000000E+00 0.  1.
         11    1    3    3    0    0 -0.26938110208E+02  0.10477017082E+02 -0.21309377493E+01  0.28982245677E+02  0.51100000000E-03 0. -1.
        -11    1    3    3    0    0 -0.47406427336E+01  0.10702373943E+02  0.16741051108E+01  0.11824429361E+02  0.51100000000E-03 0.  1.
         12    1    3    3    0    0 -0.68636473837E+01 -0.12405156837E+01 -0.28323041588E+00  0.69805984011E+01  0.00000000000E+00 0. -1.
</event>
<event>
 7    1  0.1899036E-009  0.4778727E+02  0.7816164E-02  0.1312668E+00
        -11   -1    0    0    0    0  0.00000000000E+00  0.00000000000E+00  0.45593999997E+02  0.45594000000E+02  0.51100000000E-03 0. -1.
         11   -1    0    0    0    0 -0.00000000000E+00 -0.00000000000E+00 -0.45593999997E+02  0.45594000000E+02  0.51100000000E-03 0.  1.
    9900012    2    1    2    0    0  0.27438027869E+02 -0.25867073046E+02  0.21486571152E+02  0.47787267505E+02  0.19999983860E+02 0.  0.
        -12    1    1    2    0    0 -0.27438027869E+02  0.25867073046E+02 -0.21486571152E+02  0.43400732495E+02  0.00000000000E+00 0.  1.
         11    1    3    3    0    0  0.28766470405E+01 -0.57941914238E+01  0.11230606578E+01  0.65657458034E+01  0.51100000000E-03 0. -1.
        -11    1    3    3    0    0  0.20308692076E+02 -0.17436438805E+02  0.80830490608E+01  0.27960830718E+02  0.51100000000E-03 0.  1.
         12    1    3    3    0    0  0.42526887527E+01 -0.26364428164E+01  0.12280461433E+02  0.13260690984E+02  0.00000000000E+00 0. -1.
</event>
<event>
 7    1  0.2295857E-009  0.4778727E+02  0.7816164E-02  0.1312668E+00
        -11   -1    0    0    0    0  0.00000000000E+00  0.00000000000E+00  0.45593999997E+02  0.45594000000E+02  0.51100000000E-03 0.  1.
         11   -1    0    0    0    0 -0.00000000000E+00 -0.00000000000E+00 -0.45593999997E+02  0.45594000000E+02  0.51100000000E-03 0. -1.
    9900012    2    1    2    0    0 -0.24129745199E+02  0.14002511805E+02 -0.33246177267E+02  0.47787271399E+02  0.20000001615E+02 0.  0.
        -12    1    1    2    0    0  0.24129745199E+02 -0.14002511805E+02  0.33246177267E+02  0.43400728601E+02  0.00000000000E+00 0.  1.
         11    1    3    3    0    0 -0.15989883983E+02  0.80151456851E+01 -0.26755248917E+02  0.32183261100E+02  0.51100000000E-03 0. -1.
        -11    1    3    3    0    0  0.13304247832E+01 -0.13487132987E+01 -0.21422732016E+01  0.28597888728E+01  0.51100000000E-03 0.  1.
        -12    1    3    3    0    0 -0.94702859998E+01  0.73360794188E+01 -0.43486551489E+01  0.12744221426E+02  0.00000000000E+00 0.  1.
</event>
<event>
 7    1  0.1899036E-009  0.4778729E+02  0.7816164E-02  0.1312668E+00
        -11   -1    0    0    0    0  0.00000000000E+00  0.00000000000E+00  0.45593999997E+02  0.45594000000E+02  0.51100000000E-03 0.  1.
         11   -1    0    0    0    0 -0.00000000000E+00 -0.00000000000E+00 -0.45593999997E+02  0.45594000000E+02  0.51100000000E-03 0. -1.
    9900012    2    1    2    0    0 -0.28714793386E+02  0.30468683847E+02 -0.11434227462E+02  0.47787290187E+02  0.20000087280E+02 0.  0.
        -12    1    1    2    0    0  0.28714793386E+02 -0.30468683847E+02  0.11434227462E+02  0.43400709813E+02  0.00000000000E+00 0.  1.
         11    1    3    3    0    0 -0.22695847623E+02  0.22407130367E+02 -0.45543256812E+01  0.32216810414E+02  0.51100000000E-03 0. -1.
        -11    1    3    3    0    0  0.12437722741E+01  0.49699592099E+01 -0.36117526625E-01  0.51233552243E+01  0.51100000000E-03 0.  1.
        -12    1    3    3    0    0 -0.72627180370E+01  0.30915942708E+01 -0.68437842538E+01  0.10447124549E+02  0.00000000000E+00 0.  1.
</event>
<event>
 7    1  0.1899036E-009  0.4778727E+02  0.7816164E-02  0.1312668E+00
        -11   -1    0    0    0    0  0.00000000000E+00  0.00000000000E+00  0.45593999997E+02  0.45594000000E+02  0.51100000000E-03 0. -1.
         11   -1    0    0    0    0 -0.00000000000E+00 -0.00000000000E+00 -0.45593999997E+02  0.45594000000E+02  0.51100000000E-03 0.  1.
    9900012    2    1    2    0    0  0.31829520315E+02 -0.13314291523E+02  0.26329350153E+02  0.47787269572E+02  0.19999993285E+02 0.  0.
        -12    1    1    2    0    0 -0.31829520315E+02  0.13314291523E+02 -0.26329350153E+02  0.43400730428E+02  0.00000000000E+00 0.  1.
         11    1    3    3    0    0  0.14420655746E+02 -0.58408572811E+01  0.14735944433E+02  0.21429395337E+02  0.51100000000E-03 0. -1.
        -11    1    3    3    0    0  0.88335461173E+01 -0.99492097006E+01  0.23541344010E+01  0.13511486214E+02  0.51100000000E-03 0.  1.
        -12    1    3    3    0    0  0.85753184518E+01  0.24757754584E+01  0.92392713188E+01  0.12846388020E+02  0.00000000000E+00 0.  1.
</event>
<event>
 7    1  0.1899036E-009  0.4778728E+02  0.7816164E-02  0.1312668E+00
        -11   -1    0    0    0    0  0.00000000000E+00  0.00000000000E+00  0.45593999997E+02  0.45594000000E+02  0.51100000000E-03 0. -1.
         11   -1    0    0    0    0 -0.00000000000E+00 -0.00000000000E+00 -0.45593999997E+02  0.45594000000E+02  0.51100000000E-03 0.  1.
    9900012    2    1    2    0    0  0.34265004173E+02  0.22969420991E+02  0.13488437110E+02  0.47787277111E+02  0.20000027660E+02 0.  0.
        -12    1    1    2    0    0 -0.34265004173E+02 -0.22969420991E+02 -0.13488437110E+02  0.43400722889E+02  0.00000000000E+00 0.  1.
         11    1    3    3    0    0  0.19366224507E+02  0.15881992222E+02  0.10768427254E+02  0.27262563239E+02  0.51100000000E-03 0. -1.
        -11    1    3    3    0    0  0.12490151996E+02  0.77293564869E+01 -0.23499408051E+01  0.14875115820E+02  0.51100000000E-03 0.  1.
         12    1    3    3    0    0  0.24086276694E+01 -0.64192771777E+00  0.50699506612E+01  0.56495980523E+01  0.00000000000E+00 0. -1.
</event>
<event>
 7    1  0.1899036E-009  0.4778727E+02  0.7816164E-02  0.1312668E+00
        -11   -1    0    0    0    0  0.00000000000E+00  0.00000000000E+00  0.45593999997E+02  0.45594000000E+02  0.51100000000E-03 0.  1.
         11   -1    0    0    0    0 -0.00000000000E+00 -0.00000000000E+00 -0.45593999997E+02  0.45594000000E+02  0.51100000000E-03 0. -1.
    9900012    2    1    2    0    0  0.38805796463E+02  0.11556236994E+02  0.15626482417E+02  0.47787269530E+02  0.19999993095E+02 0.  0.
        -12    1    1    2    0    0 -0.38805796463E+02 -0.11556236994E+02 -0.15626482417E+02  0.43400730470E+02  0.00000000000E+00 0.  1.
         11    1    3    3    0    0  0.11869658064E+02 -0.11541516300E+00  0.92016700855E+01  0.15019082390E+02  0.51100000000E-03 0. -1.
        -11    1    3    3    0    0  0.12983323306E+01  0.17336648274E+01 -0.30009368232E+01  0.37009299713E+01  0.51100000000E-03 0.  1.
         12    1    3    3    0    0  0.25637806068E+02  0.99379873292E+01  0.94257491550E+01  0.29067257168E+02  0.00000000000E+00 0. -1.
</event>
<event>
 7    1  0.1899036E-009  0.4778727E+02  0.7816164E-02  0.1312668E+00
        -11   -1    0    0    0    0  0.00000000000E+00  0.00000000000E+00  0.45593999997E+02  0.45594000000E+02  0.51100000000E-03 0. -1.
         11   -1    0    0    0    0 -0.00000000000E+00 -0.00000000000E+00 -0.45593999997E+02  0.45594000000E+02  0.51100000000E-03 0.  1.
    9900012    2    1    2    0    0 -0.55505851172E+01 -0.30608463001E+02  0.30264441062E+02  0.47787269646E+02  0.19999993625E+02 0.  0.
        -12    1    1    2    0    0  0.55505851172E+01  0.30608463001E+02 -0.30264441062E+02  0.43400730354E+02  0.00000000000E+00 0.  1.
         11    1    3    3    0    0  0.43088815783E+01 -0.18670084603E+02  0.11904916698E+02  0.22558048705E+02  0.51100000000E-03 0. -1.
        -11    1    3    3    0    0 -0.10771248237E+01 -0.20058133354E+01  0.82440309646E+01  0.85526330348E+01  0.51100000000E-03 0.  1.
        -12    1    3    3    0    0 -0.87823418718E+01 -0.99325650635E+01  0.10115493399E+02  0.16676587906E+02  0.00000000000E+00 0.  1.
</event>
<event>
 7    1  0.1899036E-009  0.4778727E+02  0.7816164E-02  0.1312668E+00
        -11   -1    0    0    0    0  0.00000000000E+00  0.00000000000E+00  0.45593999997E+02  0.45594000000E+02  0.51100000000E-03 0.  1.
         11   -1    0    0    0    0 -0.00000000000E+00 -0.00000000000E+00 -0.45593999997E+02  0.45594000000E+02  0.51100000000E-03 0. -1.
    9900012    2    1    2    0    0  0.33984377718E+02  0.33399026105E+01 -0.26786760270E+02  0.47787269544E+02  0.19999993158E+02 0.  0.
        -12    1    1    2    0    0 -0.33984377718E+02 -0.33399026105E+01  0.26786760270E+02  0.43400730456E+02  0.00000000000E+00 0.  1.
         11    1    3    3    0    0  0.23142848384E+02 -0.30844755908E+01 -0.18455464327E+02  0.29760873387E+02  0.51100000000E-03 0.  1.
        -11    1    3    3    0    0  0.72275056383E+01 -0.11990670451E+01 -0.53756950679E+01  0.90869520332E+01  0.51100000000E-03 0. -1.
        -12    1    3    3    0    0  0.36140236964E+01  0.76234452464E+01 -0.29556008758E+01  0.89394441237E+01  0.00000000000E+00 0.  1.
</event>
<event>
 7    1  0.1899036E-009  0.4778728E+02  0.7816164E-02  0.1312668E+00
        -11   -1    0    0    0    0  0.00000000000E+00  0.00000000000E+00  0.45593999997E+02  0.45594000000E+02  0.51100000000E-03 0.  1.
         11   -1    0    0    0    0 -0.00000000000E+00 -0.00000000000E+00 -0.45593999997E+02  0.45594000000E+02  0.51100000000E-03 0. -1.
    9900012    2    1    2    0    0  0.19910906289E+02 -0.16679849612E+02 -0.34770109864E+02  0.47787284426E+02  0.20000061014E+02 0.  0.
        -12    1    1    2    0    0 -0.19910906289E+02  0.16679849612E+02  0.34770109864E+02  0.43400715574E+02  0.00000000000E+00 0.  1.
         11    1    3    3    0    0  0.14912770274E+02 -0.12191358618E+02 -0.21051440442E+02  0.28533893655E+02  0.51100000000E-03 0. -1.
        -11    1    3    3    0    0 -0.16955979573E+01 -0.39561091930E+01 -0.11340489884E+02  0.12129821245E+02  0.51100000000E-03 0.  1.
         12    1    3    3    0    0  0.66937339719E+01 -0.53238180164E+00 -0.23781795385E+01  0.71235695257E+01  0.00000000000E+00 0. -1.
</event>
<event>
 7    1  0.1899036E-009  0.4778727E+02  0.7816164E-02  0.1312668E+00
        -11   -1    0    0    0    0  0.00000000000E+00  0.00000000000E+00  0.45593999997E+02  0.45594000000E+02  0.51100000000E-03 0.  1.
         11   -1    0    0    0    0 -0.00000000000E+00 -0.00000000000E+00 -0.45593999997E+02  0.45594000000E+02  0.51100000000E-03 0. -1.
    9900012    2    1    2    0    0 -0.28796286645E+02  0.18922777486E+02 -0.26387985524E+02  0.47787269449E+02  0.19999992726E+02 0.  0.
        -12    1    1    2    0    0  0.28796286645E+02 -0.18922777486E+02  0.26387985524E+02  0.43400730551E+02  0.00000000000E+00 0.  1.
         11    1    3    3    0    0 -0.15130348748E+02  0.55797950697E+01 -0.15032826369E+02  0.22046483510E+02  0.51100000000E-03 0. -1.
        -11    1    3    3    0    0 -0.69378158884E+01  0.25878708549E+01  0.16354977976E+01  0.75832195122E+01  0.51100000000E-03 0.  1.
         12    1    3    3    0    0 -0.67281220080E+01  0.10755111562E+02 -0.12990656953E+02  0.18157566427E+02  0.00000000000E+00 0. -1.
</event>
<event>
 7    1  0.1899036E-009  0.4778725E+02  0.7816164E-02  0.1312668E+00
        -11   -1    0    0    0    0  0.00000000000E+00  0.00000000000E+00  0.45593999997E+02  0.45594000000E+02  0.51100000000E-03 0. -1.
         11   -1    0    0    0    0 -0.00000000000E+00 -0.00000000000E+00 -0.45593999997E+02  0.45594000000E+02  0.51100000000E-03 0.  1.
    9900012    2    1    2    0    0  0.37654486626E+02  0.21380914780E+02 -0.29361266556E+01  0.47787254389E+02  0.19999924059E+02 0.  0.
        -12    1    1    2    0    0 -0.37654486626E+02 -0.21380914780E+02  0.29361266556E+01  0.43400745611E+02  0.00000000000E+00 0.  1.
         11    1    3    3    0    0  0.85247851520E+01  0.40656147277E+00  0.42548126816E+01  0.95362825742E+01  0.51100000000E-03 0. -1.
        -11    1    3    3    0    0  0.14555583690E+01  0.45464723741E+01  0.13369208315E+01  0.49574609212E+01  0.51100000000E-03 0.  1.
         12    1    3    3    0    0  0.27674143105E+02  0.16427880933E+02 -0.85278601687E+01  0.33293510893E+02  0.00000000000E+00 0. -1.
</event>
<event>
 7    1  0.1899036E-009  0.4778727E+02  0.7816164E-02  0.1312668E+00
        -11   -1    0    0    0    0  0.00000000000E+00  0.00000000000E+00  0.45593999997E+02  0.45594000000E+02  0.51100000000E-03 0.  1.
         11   -1    0    0    0    0 -0.00000000000E+00 -0.00000000000E+00 -0.45593999997E+02  0.45594000000E+02  0.51100000000E-03 0. -1.
    9900012    2    1    2    0    0  0.10464210775E+01  0.31106436835E+02 -0.30247612642E+02  0.47787268668E+02  0.19999989164E+02 0.  0.
        -12    1    1    2    0    0 -0.10464210775E+01 -0.31106436835E+02  0.30247612642E+02  0.43400731332E+02  0.00000000000E+00 0.  1.
         11    1    3    3    0    0  0.11409273075E+01  0.19350745148E+01  0.16152246450E+01  0.27667994892E+01  0.51100000000E-03 0. -1.
        -11    1    3    3    0    0  0.44994465932E+01  0.22272986685E+02 -0.18525250355E+02  0.29317500857E+02  0.51100000000E-03 0.  1.
        -12    1    3    3    0    0 -0.45939528232E+01  0.68983756352E+01 -0.13337586932E+02  0.15702968322E+02  0.00000000000E+00 0.  1.
</event>
<event>
 7    1  0.1899036E-009  0.4778727E+02  0.7816164E-02  0.1312668E+00
        -11   -1    0    0    0    0  0.00000000000E+00  0.00000000000E+00  0.45593999997E+02  0.45594000000E+02  0.51100000000E-03 0. -1.
         11   -1    0    0    0    0 -0.00000000000E+00 -0.00000000000E+00 -0.45593999997E+02  0.45594000000E+02  0.51100000000E-03 0.  1.
    9900012    2    1    2    0    0  0.13980884769E+01  0.42953915636E+02  0.60522452438E+01  0.47787271984E+02  0.20000004282E+02 0.  0.
        -12    1    1    2    0    0 -0.13980884769E+01 -0.42953915636E+02 -0.60522452438E+01  0.43400728016E+02  0.00000000000E+00 0.  1.
         11    1    3    3    0    0  0.18096237914E+01  0.38034581626E+02  0.18965136525E+01  0.38124806911E+02  0.51100000000E-03 0. -1.
        -11    1    3    3    0    0  0.17928484859E+01  0.68515993326E+00 -0.13716607545E+01  0.23590683149E+01  0.51100000000E-03 0.  1.
         12    1    3    3    0    0 -0.22043838004E+01  0.42341740768E+01  0.55273923458E+01  0.73033967574E+01  0.00000000000E+00 0. -1.
</event>
<event>
 7    1  0.1899036E-009  0.4778727E+02  0.7816164E-02  0.1312668E+00
        -11   -1    0    0    0    0  0.00000000000E+00  0.00000000000E+00  0.45593999997E+02  0.45594000000E+02  0.51100000000E-03 0. -1.
         11   -1    0    0    0    0 -0.00000000000E+00 -0.00000000000E+00 -0.45593999997E+02  0.45594000000E+02  0.51100000000E-03 0.  1.
    9900012    2    1    2    0    0 -0.20965407064E+01  0.39486335630E+02  0.17890134002E+02  0.47787273290E+02  0.20000010236E+02 0.  0.
        -12    1    1    2    0    0  0.20965407064E+01 -0.39486335630E+02 -0.17890134002E+02  0.43400726710E+02  0.00000000000E+00 0.  1.
         11    1    3    3    0    0  0.41698329222E+00  0.23153333317E+02  0.60123745339E+01  0.23924869206E+02  0.51100000000E-03 0. -1.
        -11    1    3    3    0    0  0.36382999232E+01  0.46662994265E+00  0.18149291593E+01  0.40925466336E+01  0.51100000000E-03 0.  1.
         12    1    3    3    0    0 -0.61518239218E+01  0.15866372370E+02  0.10062830309E+02  0.19769857450E+02  0.00000000000E+00 0. -1.
</event>
<event>
 7    1  0.1899036E-009  0.4778727E+02  0.7816164E-02  0.1312668E+00
        -11   -1    0    0    0    0  0.00000000000E+00  0.00000000000E+00  0.45593999997E+02  0.45594000000E+02  0.51100000000E-03 0.  1.
         11   -1    0    0    0    0 -0.00000000000E+00 -0.00000000000E+00 -0.45593999997E+02  0.45594000000E+02  0.51100000000E-03 0. -1.
    9900012    2    1    2    0    0  0.75158022133E+01  0.29301758257E+02 -0.31121424060E+02  0.47787270105E+02  0.19999995719E+02 0.  0.
        -12    1    1    2    0    0 -0.75158022133E+01 -0.29301758257E+02  0.31121424060E+02  0.43400729895E+02  0.00000000000E+00 0.  1.
         11    1    3    3    0    0 -0.59969873674E+00  0.96729359696E+01 -0.37122281983E+01  0.10378148549E+02  0.51100000000E-03 0. -1.
        -11    1    3    3    0    0  0.71830907490E+01  0.18935055073E+02 -0.29041471178E+02  0.35405368968E+02  0.51100000000E-03 0.  1.
        -12    1    3    3    0    0  0.93241020106E+00  0.69376721425E+00  0.16322753157E+01  0.20037525887E+01  0.00000000000E+00 0.  1.
</event>
<event>
 7    1  0.1899036E-009  0.4778727E+02  0.7816164E-02  0.1312668E+00
        -11   -1    0    0    0    0  0.00000000000E+00  0.00000000000E+00  0.45593999997E+02  0.45594000000E+02  0.51100000000E-03 0.  1.
         11   -1    0    0    0    0 -0.00000000000E+00 -0.00000000000E+00 -0.45593999997E+02  0.45594000000E+02  0.51100000000E-03 0. -1.
    9900012    2    1    2    0    0  0.43014488736E+02 -0.30625617271E+01  0.48987482476E+01  0.47787271205E+02  0.20000000733E+02 0.  0.
        -12    1    1    2    0    0 -0.43014488736E+02  0.30625617271E+01 -0.48987482476E+01  0.43400728795E+02  0.00000000000E+00 0.  1.
         11    1    3    3    0    0  0.19281471258E+02 -0.53545160111E+00 -0.89858402476E+00  0.19309823816E+02  0.51100000000E-03 0. -1.
        -11    1    3    3    0    0  0.17738789736E+02 -0.22350386916E+01 -0.26925118538E+01  0.18080643783E+02  0.51100000000E-03 0.  1.
        -12    1    3    3    0    0  0.59942277410E+01 -0.29207143438E+00  0.84898441262E+01  0.10396803606E+02  0.00000000000E+00 0.  1.
</event>
<event>
 7    1  0.1899036E-009  0.4778727E+02  0.7816164E-02  0.1312668E+00
        -11   -1    0    0    0    0  0.00000000000E+00  0.00000000000E+00  0.45593999997E+02  0.45594000000E+02  0.51100000000E-03 0.  1.
         11   -1    0    0    0    0 -0.00000000000E+00 -0.00000000000E+00 -0.45593999997E+02  0.45594000000E+02  0.51100000000E-03 0. -1.
    9900012    2    1    2    0    0 -0.52657524854E+01  0.53384471440E+01 -0.42748054829E+02  0.47787270066E+02  0.19999995539E+02 0.  0.
        -12    1    1    2    0    0  0.52657524854E+01 -0.53384471440E+01  0.42748054829E+02  0.43400729934E+02  0.00000000000E+00 0.  1.
         11    1    3    3    0    0  0.31923976857E+01 -0.17678040750E+01 -0.71289944495E+01  0.80086888036E+01  0.51100000000E-03 0. -1.
        -11    1    3    3    0    0  0.14076360942E+01  0.54637748121E+01 -0.49018498693E+01  0.74741157988E+01  0.51100000000E-03 0.  1.
         12    1    3    3    0    0 -0.98657862653E+01  0.16424764069E+01 -0.30717210510E+02  0.32304465464E+02  0.00000000000E+00 0. -1.
</event>
<event>
 7    1  0.1899036E-009  0.4778727E+02  0.7816164E-02  0.1312668E+00
        -11   -1    0    0    0    0  0.00000000000E+00  0.00000000000E+00  0.45593999997E+02  0.45594000000E+02  0.51100000000E-03 0.  1.
         11   -1    0    0    0    0 -0.00000000000E+00 -0.00000000000E+00 -0.45593999997E+02  0.45594000000E+02  0.51100000000E-03 0. -1.
    9900012    2    1    2    0    0  0.24185057047E+01  0.31396353197E+02 -0.29867086405E+02  0.47787274036E+02  0.20000013638E+02 0.  0.
        -12    1    1    2    0    0 -0.24185057047E+01 -0.31396353197E+02  0.29867086405E+02  0.43400725964E+02  0.00000000000E+00 0.  1.
         11    1    3    3    0    0  0.56021399176E+01  0.10053711036E+02 -0.14677146401E+02  0.18651533555E+02  0.51100000000E-03 0. -1.
        -11    1    3    3    0    0  0.37983094066E+01  0.62474246104E+01 -0.12140066155E+01  0.74115640005E+01  0.51100000000E-03 0.  1.
        -12    1    3    3    0    0 -0.69819436195E+01  0.15095217551E+02 -0.13975933389E+02  0.21724176479E+02  0.00000000000E+00 0.  1.
</event>
<event>
 7    1  0.1899036E-009  0.4778728E+02  0.7816164E-02  0.1312668E+00
        -11   -1    0    0    0    0  0.00000000000E+00  0.00000000000E+00  0.45593999997E+02  0.45594000000E+02  0.51100000000E-03 0.  1.
         11   -1    0    0    0    0 -0.00000000000E+00 -0.00000000000E+00 -0.45593999997E+02  0.45594000000E+02  0.51100000000E-03 0. -1.
    9900012    2    1    2    0    0 -0.32574365667E+02 -0.18332822521E+02 -0.22055406416E+02  0.47787278435E+02  0.20000033697E+02 0.  0.
        -12    1    1    2    0    0  0.32574365667E+02  0.18332822521E+02  0.22055406416E+02  0.43400721565E+02  0.00000000000E+00 0.  1.
         11    1    3    3    0    0 -0.87752797419E+01 -0.99422368656E+01 -0.48353887946E+01  0.14115048477E+02  0.51100000000E-03 0. -1.
        -11    1    3    3    0    0 -0.26868729289E+00 -0.51789809386E+01 -0.32166307345E+01  0.61025199685E+01  0.51100000000E-03 0.  1.
        -12    1    3    3    0    0 -0.23530398632E+02 -0.32116047169E+01 -0.14003386887E+02  0.27569709990E+02  0.00000000000E+00 0.  1.
</event>
<event>
 7    1  0.1899036E-009  0.4778727E+02  0.7816164E-02  0.1312668E+00
        -11   -1    0    0    0    0  0.00000000000E+00  0.00000000000E+00  0.45593999997E+02  0.45594000000E+02  0.51100000000E-03 0.  1.
         11   -1    0    0    0    0 -0.00000000000E+00 -0.00000000000E+00 -0.45593999997E+02  0.45594000000E+02  0.51100000000E-03 0. -1.
    9900012    2    1    2    0    0 -0.10730987212E+02 -0.23791854569E+00 -0.42052497784E+02  0.47787271185E+02  0.20000000643E+02 0.  0.
        -12    1    1    2    0    0  0.10730987212E+02  0.23791854569E+00  0.42052497784E+02  0.43400728815E+02  0.00000000000E+00 0.  1.
         11    1    3    3    0    0 -0.87511138232E+01 -0.64030347781E+01 -0.13449656220E+02  0.17276402988E+02  0.51100000000E-03 0. -1.
        -11    1    3    3    0    0  0.18663503002E+01  0.18635697800E+01 -0.20560291832E+01  0.33441608860E+01  0.51100000000E-03 0.  1.
         12    1    3    3    0    0 -0.38462236886E+01  0.43015464524E+01 -0.26546812381E+02  0.27166707311E+02  0.00000000000E+00 0. -1.
</event>
<event>
 7    1  0.1899036E-009  0.4778728E+02  0.7816164E-02  0.1312668E+00
        -11   -1    0    0    0    0  0.00000000000E+00  0.00000000000E+00  0.45593999997E+02  0.45594000000E+02  0.51100000000E-03 0.  1.
         11   -1    0    0    0    0 -0.00000000000E+00 -0.00000000000E+00 -0.45593999997E+02  0.45594000000E+02  0.51100000000E-03 0. -1.
    9900012    2    1    2    0    0  0.20928218726E+01  0.13143703089E+02 -0.41309634887E+02  0.47787276863E+02  0.20000026531E+02 0.  0.
        -12    1    1    2    0    0 -0.20928218726E+01 -0.13143703089E+02  0.41309634887E+02  0.43400723137E+02  0.00000000000E+00 0.  1.
         11    1    3    3    0    0  0.17393001409E+01  0.11667033875E+02 -0.16558967838E+02  0.20330869645E+02  0.51100000000E-03 0. -1.
        -11    1    3    3    0    0  0.36098650104E+01  0.37440948756E+01 -0.46777366063E+01  0.69950405181E+01  0.51100000000E-03 0.  1.
        -12    1    3    3    0    0 -0.32563432787E+01 -0.22674256609E+01 -0.20072930442E+02  0.20461366700E+02  0.00000000000E+00 0.  1.
</event>
<event>
 7    1  0.1899036E-009  0.4778722E+02  0.7816164E-02  0.1312668E+00
        -11   -1    0    0    0    0  0.00000000000E+00  0.00000000000E+00  0.45593999997E+02  0.45594000000E+02  0.51100000000E-03 0.  1.
         11   -1    0    0    0    0 -0.00000000000E+00 -0.00000000000E+00 -0.45593999997E+02  0.45594000000E+02  0.51100000000E-03 0. -1.
    9900012    2    1    2    0    0  0.28883804779E+02  0.32257831818E+02 -0.29641107434E+01  0.47787218387E+02  0.19999759914E+02 0.  0.
        -12    1    1    2    0    0 -0.28883804779E+02 -0.32257831818E+02  0.29641107434E+01  0.43400781613E+02  0.00000000000E+00 0.  1.
         11    1    3    3    0    0  0.38178178314E+01  0.10185447910E+02  0.10536552658E+01  0.10928370043E+02  0.51100000000E-03 0. -1.
        -11    1    3    3    0    0  0.77150679385E+01 -0.91988509402E+00  0.40882866432E-01  0.77698219769E+01  0.51100000000E-03 0.  1.
        -12    1    3    3    0    0  0.17350919009E+02  0.22992269002E+02 -0.40586488756E+01  0.29089026368E+02  0.00000000000E+00 0.  1.
</event>
<event>
 7    1  0.1899036E-009  0.4778727E+02  0.7816164E-02  0.1312668E+00
        -11   -1    0    0    0    0  0.00000000000E+00  0.00000000000E+00  0.45593999997E+02  0.45594000000E+02  0.51100000000E-03 0.  1.
         11   -1    0    0    0    0 -0.00000000000E+00 -0.00000000000E+00 -0.45593999997E+02  0.45594000000E+02  0.51100000000E-03 0. -1.
    9900012    2    1    2    0    0  0.24344748902E+02  0.10039156308E+02 -0.34498866653E+02  0.47787271218E+02  0.20000000790E+02 0.  0.
        -12    1    1    2    0    0 -0.24344748902E+02 -0.10039156308E+02  0.34498866653E+02  0.43400728782E+02  0.00000000000E+00 0.  1.
         11    1    3    3    0    0  0.92242293073E+01  0.75510098549E+01 -0.45760942017E+01  0.12768899504E+02  0.51100000000E-03 0. -1.
        -11    1    3    3    0    0 -0.74593713186E+00 -0.18052665265E-01 -0.69315401428E+01  0.69715849788E+01  0.51100000000E-03 0.  1.
         12    1    3    3    0    0  0.15866456727E+02  0.25061991185E+01 -0.22991232309E+02  0.28046786735E+02  0.00000000000E+00 0. -1.
</event>
<event>
 7    1  0.1899036E-009  0.4778727E+02  0.7816164E-02  0.1312668E+00
        -11   -1    0    0    0    0  0.00000000000E+00  0.00000000000E+00  0.45593999997E+02  0.45594000000E+02  0.51100000000E-03 0.  1.
         11   -1    0    0    0    0 -0.00000000000E+00 -0.00000000000E+00 -0.45593999997E+02  0.45594000000E+02  0.51100000000E-03 0. -1.
    9900012    2    1    2    0    0  0.26634734255E+02 -0.20316818460E+02  0.27594223956E+02  0.47787269858E+02  0.19999994588E+02 0.  0.
        -12    1    1    2    0    0 -0.26634734255E+02  0.20316818460E+02 -0.27594223956E+02  0.43400730142E+02  0.00000000000E+00 0.  1.
         11    1    3    3    0    0  0.12615047214E+02 -0.12137746006E+02  0.11061717862E+02  0.20708111856E+02  0.51100000000E-03 0. -1.
        -11    1    3    3    0    0 -0.25917844320E+01 -0.10576783821E+01  0.47201610184E+01  0.54878001424E+01  0.51100000000E-03 0.  1.
         12    1    3    3    0    0  0.16611471473E+02 -0.71213940723E+01  0.11812345076E+02  0.21591357859E+02  0.00000000000E+00 0. -1.
</event>
<event>
 7    1  0.1899036E-009  0.4778727E+02  0.7816164E-02  0.1312668E+00
        -11   -1    0    0    0    0  0.00000000000E+00  0.00000000000E+00  0.45593999997E+02  0.45594000000E+02  0.51100000000E-03 0.  1.
         11   -1    0    0    0    0 -0.00000000000E+00 -0.00000000000E+00 -0.45593999997E+02  0.45594000000E+02  0.51100000000E-03 0. -1.
    9900012    2    1    2    0    0 -0.24408772381E+01  0.47748882510E+01 -0.43068153424E+02  0.47787270987E+02  0.19999999740E+02 0.  0.
        -12    1    1    2    0    0  0.24408772381E+01 -0.47748882510E+01  0.43068153424E+02  0.43400729013E+02  0.00000000000E+00 0.  1.
         11    1    3    3    0    0  0.42440316896E+00 -0.24203974672E+01 -0.77689860757E+01  0.81483487195E+01  0.51100000000E-03 0. -1.
        -11    1    3    3    0    0  0.45511481976E+01  0.20400731546E+01 -0.26720810687E+02  0.27182284165E+02  0.51100000000E-03 0.  1.
         12    1    3    3    0    0 -0.74164286047E+01  0.51552125636E+01 -0.85783566607E+01  0.12456638103E+02  0.00000000000E+00 0. -1.
</event>
<event>
 7    1  0.1899036E-009  0.4778727E+02  0.7816164E-02  0.1312668E+00
        -11   -1    0    0    0    0  0.00000000000E+00  0.00000000000E+00  0.45593999997E+02  0.45594000000E+02  0.51100000000E-03 0.  1.
         11   -1    0    0    0    0 -0.00000000000E+00 -0.00000000000E+00 -0.45593999997E+02  0.45594000000E+02  0.51100000000E-03 0. -1.
    9900012    2    1    2    0    0  0.28113115904E+01 -0.21023992622E+02 -0.37864385653E+02  0.47787269136E+02  0.19999991299E+02 0.  0.
        -12    1    1    2    0    0 -0.28113115904E+01  0.21023992622E+02  0.37864385653E+02  0.43400730864E+02  0.00000000000E+00 0.  1.
         11    1    3    3    0    0 -0.32287963177E+01 -0.53282346043E+01 -0.17096286653E+02  0.18196104728E+02  0.51100000000E-03 0. -1.
        -11    1    3    3    0    0 -0.10816955630E+01 -0.94673092611E+01 -0.39925017142E+01  0.10331509093E+02  0.51100000000E-03 0.  1.
         12    1    3    3    0    0  0.71218034711E+01 -0.62284487570E+01 -0.16775597285E+02  0.19259655316E+02  0.00000000000E+00 0. -1.
</event>
<event>
 7    1  0.3038012E-009  0.4778726E+02  0.7816164E-02  0.1312668E+00
        -11   -1    0    0    0    0  0.00000000000E+00  0.00000000000E+00  0.45593999997E+02  0.45594000000E+02  0.51100000000E-03 0. -1.
         11   -1    0    0    0    0 -0.00000000000E+00 -0.00000000000E+00 -0.45593999997E+02  0.45594000000E+02  0.51100000000E-03 0.  1.
    9900012    2    1    2    0    0 -0.12753077529E+02  0.91641981286E+01  0.40459863590E+02  0.47787261809E+02  0.19999957893E+02 0.  0.
        -12    1    1    2    0    0  0.12753077529E+02 -0.91641981286E+01 -0.40459863590E+02  0.43400738191E+02  0.00000000000E+00 0.  1.
         11    1    3    3    0    0 -0.11158089922E+02  0.59548563111E+01  0.29549013522E+02  0.32141989434E+02  0.51100000000E-03 0. -1.
        -11    1    3    3    0    0  0.23485994633E+01  0.63650293075E-01  0.10299220004E+02  0.10563801576E+02  0.51100000000E-03 0.  1.
        -12    1    3    3    0    0 -0.39435870701E+01  0.31456915244E+01  0.61163006435E+00  0.50814707990E+01  0.00000000000E+00 0.  1.
</event>
<event>
 7    1  0.1899036E-009  0.4778727E+02  0.7816164E-02  0.1312668E+00
        -11   -1    0    0    0    0  0.00000000000E+00  0.00000000000E+00  0.45593999997E+02  0.45594000000E+02  0.51100000000E-03 0.  1.
         11   -1    0    0    0    0 -0.00000000000E+00 -0.00000000000E+00 -0.45593999997E+02  0.45594000000E+02  0.51100000000E-03 0. -1.
    9900012    2    1    2    0    0  0.18533714749E+01  0.37169427106E+02 -0.22329840957E+02  0.47787273112E+02  0.20000009429E+02 0.  0.
        -12    1    1    2    0    0 -0.18533714749E+01 -0.37169427106E+02  0.22329840957E+02  0.43400726888E+02  0.00000000000E+00 0.  1.
         11    1    3    3    0    0  0.42535297550E+01  0.69190405692E+01 -0.71447414071E+01  0.10817253247E+02  0.51100000000E-03 0.  1.
        -11    1    3    3    0    0  0.49542483171E+01  0.40588572306E+01 -0.40318440954E+01  0.75680027403E+01  0.51100000000E-03 0. -1.
         12    1    3    3    0    0 -0.73544065973E+01  0.26191529306E+02 -0.11153255455E+02  0.29402017125E+02  0.00000000000E+00 0. -1.
</event>
<event>
 7    1  0.1899036E-009  0.4778728E+02  0.7816164E-02  0.1312668E+00
        -11   -1    0    0    0    0  0.00000000000E+00  0.00000000000E+00  0.45593999997E+02  0.45594000000E+02  0.51100000000E-03 0.  1.
         11   -1    0    0    0    0 -0.00000000000E+00 -0.00000000000E+00 -0.45593999997E+02  0.45594000000E+02  0.51100000000E-03 0. -1.
    9900012    2    1    2    0    0  0.86441057687E+01  0.14141538558E+01 -0.42507673896E+02  0.47787277244E+02  0.20000028268E+02 0.  0.
        -12    1    1    2    0    0 -0.86441057687E+01 -0.14141538558E+01  0.42507673896E+02  0.43400722756E+02  0.00000000000E+00 0.  1.
         11    1    3    3    0    0  0.21172601386E+01 -0.44058670217E+01 -0.12682158521E+02  0.13591600337E+02  0.51100000000E-03 0. -1.
        -11    1    3    3    0    0  0.53149221175E+01 -0.41017438181E+01 -0.11221273620E+02  0.13076302282E+02  0.51100000000E-03 0.  1.
        -12    1    3    3    0    0  0.12119235126E+01  0.99217646956E+01 -0.18604241755E+02  0.21119374625E+02  0.00000000000E+00 0.  1.
</event>
<event>
 7    1  0.1899036E-009  0.4778725E+02  0.7816164E-02  0.1312668E+00
        -11   -1    0    0    0    0  0.00000000000E+00  0.00000000000E+00  0.45593999997E+02  0.45594000000E+02  0.51100000000E-03 0.  1.
         11   -1    0    0    0    0 -0.00000000000E+00 -0.00000000000E+00 -0.45593999997E+02  0.45594000000E+02  0.51100000000E-03 0. -1.
    9900012    2    1    2    0    0  0.22360138821E+02  0.79880809037E+01 -0.36329601017E+02  0.47787249376E+02  0.19999901207E+02 0.  0.
        -12    1    1    2    0    0 -0.22360138821E+02 -0.79880809037E+01  0.36329601017E+02  0.43400750624E+02  0.00000000000E+00 0.  1.
         11    1    3    3    0    0  0.47590736678E+01  0.91981597940E+01 -0.83986033860E+01  0.13333846589E+02  0.51100000000E-03 0. -1.
        -11    1    3    3    0    0  0.64702279071E+00 -0.46410162034E-01  0.82609667406E+00  0.10503467860E+01  0.51100000000E-03 0.  1.
        -12    1    3    3    0    0  0.16954042363E+02 -0.11636687283E+01 -0.28757094305E+02  0.33403056001E+02  0.00000000000E+00 0.  1.
</event>
<event>
 7    1  0.1899036E-009  0.4778729E+02  0.7816164E-02  0.1312668E+00
        -11   -1    0    0    0    0  0.00000000000E+00  0.00000000000E+00  0.45593999997E+02  0.45594000000E+02  0.51100000000E-03 0.  1.
         11   -1    0    0    0    0 -0.00000000000E+00 -0.00000000000E+00 -0.45593999997E+02  0.45594000000E+02  0.51100000000E-03 0. -1.
    9900012    2    1    2    0    0 -0.43042656567E+02 -0.46128951536E+01  0.31101214831E+01  0.47787286392E+02  0.20000069974E+02 0.  0.
        -12    1    1    2    0    0  0.43042656567E+02  0.46128951536E+01 -0.31101214831E+01  0.43400713608E+02  0.00000000000E+00 0.  1.
         11    1    3    3    0    0 -0.17178208531E+02  0.54989846218E+01 -0.44583453358E+01  0.18579734218E+02  0.51100000000E-03 0. -1.
        -11    1    3    3    0    0 -0.17244938237E+01  0.27111500156E+00  0.13416383426E+01  0.22016757244E+01  0.51100000000E-03 0.  1.
        -12    1    3    3    0    0 -0.24139954212E+02 -0.10382994777E+02  0.62268284764E+01  0.27005876449E+02  0.00000000000E+00 0.  1.
</event>
<event>
 7    1  0.1899036E-009  0.4778727E+02  0.7816164E-02  0.1312668E+00
        -11   -1    0    0    0    0  0.00000000000E+00  0.00000000000E+00  0.45593999997E+02  0.45594000000E+02  0.51100000000E-03 0.  1.
         11   -1    0    0    0    0 -0.00000000000E+00 -0.00000000000E+00 -0.45593999997E+02  0.45594000000E+02  0.51100000000E-03 0. -1.
    9900012    2    1    2    0    0  0.37937529145E+02 -0.19084128680E+02 -0.89534031377E+01  0.47787268292E+02  0.19999987449E+02 0.  0.
        -12    1    1    2    0    0 -0.37937529145E+02  0.19084128680E+02  0.89534031377E+01  0.43400731708E+02  0.00000000000E+00 0.  1.
         11    1    3    3    0    0  0.22247323709E+02 -0.17500951000E+02 -0.77068267632E+01  0.29336357599E+02  0.51100000000E-03 0. -1.
        -11    1    3    3    0    0  0.14415209353E+02 -0.11774096079E+01 -0.43235462079E+01  0.15095615461E+02  0.51100000000E-03 0.  1.
        -12    1    3    3    0    0  0.12749960830E+01 -0.40576807137E+00  0.30769698334E+01  0.33552952322E+01  0.00000000000E+00 0.  1.
</event>
<event>
 7    1  0.1899036E-009  0.4778727E+02  0.7816164E-02  0.1312668E+00
        -11   -1    0    0    0    0  0.00000000000E+00  0.00000000000E+00  0.45593999997E+02  0.45594000000E+02  0.51100000000E-03 0.  1.
         11   -1    0    0    0    0 -0.00000000000E+00 -0.00000000000E+00 -0.45593999997E+02  0.45594000000E+02  0.51100000000E-03 0. -1.
    9900012    2    1    2    0    0  0.35533433785E+02  0.14152797274E+02 -0.20510887369E+02  0.47787273188E+02  0.20000009772E+02 0.  0.
        -12    1    1    2    0    0 -0.35533433785E+02 -0.14152797274E+02  0.20510887369E+02  0.43400726812E+02  0.00000000000E+00 0.  1.
         11    1    3    3    0    0  0.19903628054E+02  0.82554384793E+01 -0.14535747555E+02  0.25992203282E+02  0.51100000000E-03 0. -1.
        -11    1    3    3    0    0  0.15128785770E+02  0.90674043510E+01 -0.42146485577E+01  0.18134531790E+02  0.51100000000E-03 0.  1.
        -12    1    3    3    0    0  0.50101996064E+00 -0.31700455565E+01 -0.17604912557E+01  0.36605381152E+01  0.00000000000E+00 0.  1.
</event>
<event>
 7    1  0.1899036E-009  0.4778727E+02  0.7816164E-02  0.1312668E+00
        -11   -1    0    0    0    0  0.00000000000E+00  0.00000000000E+00  0.45593999997E+02  0.45594000000E+02  0.51100000000E-03 0.  1.
         11   -1    0    0    0    0 -0.00000000000E+00 -0.00000000000E+00 -0.45593999997E+02  0.45594000000E+02  0.51100000000E-03 0. -1.
    9900012    2    1    2    0    0 -0.32718314733E+02  0.21465805611E+02 -0.18771101209E+02  0.47787272240E+02  0.20000005451E+02 0.  0.
        -12    1    1    2    0    0  0.32718314733E+02 -0.21465805611E+02  0.18771101209E+02  0.43400727760E+02  0.00000000000E+00 0.  1.
         11    1    3    3    0    0 -0.25282771708E+02  0.82117900828E+01 -0.15953863680E+02  0.31002867741E+02  0.51100000000E-03 0. -1.
        -11    1    3    3    0    0  0.12294696437E+01  0.15130489894E+01 -0.20674262565E+00  0.19605243236E+01  0.51100000000E-03 0.  1.
        -12    1    3    3    0    0 -0.86650126687E+01  0.11740966538E+02 -0.26104949038E+01  0.14823880175E+02  0.00000000000E+00 0.  1.
</event>
<event>
 7    1  0.1899036E-009  0.4778727E+02  0.7816164E-02  0.1312668E+00
        -11   -1    0    0    0    0  0.00000000000E+00  0.00000000000E+00  0.45593999997E+02  0.45594000000E+02  0.51100000000E-03 0.  1.
         11   -1    0    0    0    0 -0.00000000000E+00 -0.00000000000E+00 -0.45593999997E+02  0.45594000000E+02  0.51100000000E-03 0. -1.
    9900012    2    1    2    0    0 -0.68562467132E+01  0.30083122294E+02 -0.30522466346E+02  0.47787270538E+02  0.19999997692E+02 0.  0.
        -12    1    1    2    0    0  0.68562467132E+01 -0.30083122294E+02  0.30522466346E+02  0.43400729462E+02  0.00000000000E+00 0.  1.
         11    1    3    3    0    0 -0.29380374620E+01  0.11696659024E+02 -0.87206025000E+01  0.14882634333E+02  0.51100000000E-03 0. -1.
        -11    1    3    3    0    0 -0.22719700065E+01 -0.25856230160E+01 -0.45092553187E+01  0.56728015902E+01  0.51100000000E-03 0.  1.
        -12    1    3    3    0    0 -0.16462392447E+01  0.20972086286E+02 -0.17292608527E+02  0.27231834615E+02  0.00000000000E+00 0.  1.
</event>
<event>
 7    1  0.1899036E-009  0.4778726E+02  0.7816164E-02  0.1312668E+00
        -11   -1    0    0    0    0  0.00000000000E+00  0.00000000000E+00  0.45593999997E+02  0.45594000000E+02  0.51100000000E-03 0.  1.
         11   -1    0    0    0    0 -0.00000000000E+00 -0.00000000000E+00 -0.45593999997E+02  0.45594000000E+02  0.51100000000E-03 0. -1.
    9900012    2    1    2    0    0 -0.42921720613E+02 -0.55450987144E+01 -0.32560851939E+01  0.47787259097E+02  0.19999945525E+02 0.  0.
        -12    1    1    2    0    0  0.42921720613E+02  0.55450987144E+01  0.32560851939E+01  0.43400740903E+02  0.00000000000E+00 0.  1.
         11    1    3    3    0    0 -0.57653554026E+01 -0.37013465836E+01 -0.23157818734E+01  0.72320215290E+01  0.51100000000E-03 0. -1.
        -11    1    3    3    0    0 -0.19613834743E+02  0.60440676471E+01  0.34867617821E+01  0.20818039654E+02  0.51100000000E-03 0.  1.
        -12    1    3    3    0    0 -0.17542530468E+02 -0.78878197778E+01 -0.44270651026E+01  0.19737197914E+02  0.00000000000E+00 0.  1.
</event>
<event>
 7    1  0.1899036E-009  0.4778727E+02  0.7816164E-02  0.1312668E+00
        -11   -1    0    0    0    0  0.00000000000E+00  0.00000000000E+00  0.45593999997E+02  0.45594000000E+02  0.51100000000E-03 0.  1.
         11   -1    0    0    0    0 -0.00000000000E+00 -0.00000000000E+00 -0.45593999997E+02  0.45594000000E+02  0.51100000000E-03 0. -1.
    9900012    2    1    2    0    0  0.31313612450E+02 -0.82190516179E+01 -0.28905500346E+02  0.47787273227E+02  0.20000009951E+02 0.  0.
        -12    1    1    2    0    0 -0.31313612450E+02  0.82190516179E+01  0.28905500346E+02  0.43400726773E+02  0.00000000000E+00 0.  1.
         11    1    3    3    0    0  0.11427018377E+02  0.13005088568E+01 -0.86695619206E+01  0.14402408702E+02  0.51100000000E-03 0. -1.
        -11    1    3    3    0    0  0.16607071572E+02 -0.50725157607E+01 -0.64343214679E+01  0.18518254112E+02  0.51100000000E-03 0.  1.
        -12    1    3    3    0    0  0.32795225010E+01 -0.44470447140E+01 -0.13801616958E+02  0.14866610413E+02  0.00000000000E+00 0.  1.
</event>
<event>
 7    1  0.1899036E-009  0.4778723E+02  0.7816164E-02  0.1312668E+00
        -11   -1    0    0    0    0  0.00000000000E+00  0.00000000000E+00  0.45593999997E+02  0.45594000000E+02  0.51100000000E-03 0.  1.
         11   -1    0    0    0    0 -0.00000000000E+00 -0.00000000000E+00 -0.45593999997E+02  0.45594000000E+02  0.51100000000E-03 0. -1.
    9900012    2    1    2    0    0  0.26327528157E+02 -0.16257444666E+02 -0.30433257784E+02  0.47787234739E+02  0.19999834468E+02 0.  0.
        -12    1    1    2    0    0 -0.26327528157E+02  0.16257444666E+02  0.30433257784E+02  0.43400765261E+02  0.00000000000E+00 0.  1.
         11    1    3    3    0    0  0.75525602548E+01 -0.72153115637E+01 -0.16228552162E+02  0.19299424678E+02  0.51100000000E-03 0. -1.
        -11    1    3    3    0    0  0.19875056719E+02 -0.53278201633E+01 -0.13327827099E+02  0.24516005440E+02  0.51100000000E-03 0.  1.
        -12    1    3    3    0    0 -0.11000888161E+01 -0.37143129386E+01 -0.87687852259E+00  0.39718046217E+01  0.00000000000E+00 0.  1.
</event>
<event>
 7    1  0.1899036E-009  0.4778726E+02  0.7816164E-02  0.1312668E+00
        -11   -1    0    0    0    0  0.00000000000E+00  0.00000000000E+00  0.45593999997E+02  0.45594000000E+02  0.51100000000E-03 0.  1.
         11   -1    0    0    0    0 -0.00000000000E+00 -0.00000000000E+00 -0.45593999997E+02  0.45594000000E+02  0.51100000000E-03 0. -1.
    9900012    2    1    2    0    0 -0.12195824731E+02 -0.14128771087E+02 -0.39182441463E+02  0.47787262307E+02  0.19999960163E+02 0.  0.
        -12    1    1    2    0    0  0.12195824731E+02  0.14128771087E+02  0.39182441463E+02  0.43400737693E+02  0.00000000000E+00 0.  1.
         11    1    3    3    0    0 -0.57588759884E+01 -0.86210947970E+01 -0.15594736276E+02  0.18726551416E+02  0.51100000000E-03 0. -1.
        -11    1    3    3    0    0 -0.19229467101E+01 -0.12504876910E+01  0.18063170922E+01  0.29196275814E+01  0.51100000000E-03 0.  1.
        -12    1    3    3    0    0 -0.45140020325E+01 -0.42571885993E+01 -0.25394022279E+02  0.26141083310E+02  0.00000000000E+00 0.  1.
</event>
<event>
 7    1  0.1899036E-009  0.4778727E+02  0.7816164E-02  0.1312668E+00
        -11   -1    0    0    0    0  0.00000000000E+00  0.00000000000E+00  0.45593999997E+02  0.45594000000E+02  0.51100000000E-03 0.  1.
         11   -1    0    0    0    0 -0.00000000000E+00 -0.00000000000E+00 -0.45593999997E+02  0.45594000000E+02  0.51100000000E-03 0. -1.
    9900012    2    1    2    0    0 -0.40804122772E+02  0.51819110183E+01 -0.13848994358E+02  0.47787270954E+02  0.19999999586E+02 0.  0.
        -12    1    1    2    0    0  0.40804122772E+02 -0.51819110183E+01  0.13848994358E+02  0.43400729046E+02  0.00000000000E+00 0.  1.
         11    1    3    3    0    0 -0.84293550507E-01 -0.13184209108E+00 -0.24794659206E+01  0.24843991733E+01  0.51100000000E-03 0. -1.
        -11    1    3    3    0    0 -0.40375587019E+02  0.69983324854E+01 -0.83374209151E+01  0.41817188720E+02  0.51100000000E-03 0.  1.
        -12    1    3    3    0    0 -0.34424220296E+00 -0.16845793760E+01 -0.30321075221E+01  0.34856830599E+01  0.00000000000E+00 0.  1.
</event>
<event>
 7    1  0.1899036E-009  0.4778727E+02  0.7816164E-02  0.1312668E+00
        -11   -1    0    0    0    0  0.00000000000E+00  0.00000000000E+00  0.45593999997E+02  0.45594000000E+02  0.51100000000E-03 0.  1.
         11   -1    0    0    0    0 -0.00000000000E+00 -0.00000000000E+00 -0.45593999997E+02  0.45594000000E+02  0.51100000000E-03 0. -1.
    9900012    2    1    2    0    0  0.14733502678E+02  0.11490953540E+02 -0.39172759614E+02  0.47787271778E+02  0.20000003343E+02 0.  0.
        -12    1    1    2    0    0 -0.14733502678E+02 -0.11490953540E+02  0.39172759614E+02  0.43400728222E+02  0.00000000000E+00 0.  1.
         11    1    3    3    0    0  0.11757816298E+02  0.12082834191E+02 -0.32564239696E+02  0.36669753659E+02  0.51100000000E-03 0. -1.
        -11    1    3    3    0    0  0.48599996671E+01 -0.31092382029E+01 -0.38650100957E+01  0.69444411055E+01  0.51100000000E-03 0.  1.
        -12    1    3    3    0    0 -0.18843132874E+01  0.25173575521E+01 -0.27435098229E+01  0.41730770133E+01  0.00000000000E+00 0.  1.
</event>
<event>
 7    1  0.1899036E-009  0.4778727E+02  0.7816164E-02  0.1312668E+00
        -11   -1    0    0    0    0  0.00000000000E+00  0.00000000000E+00  0.45593999997E+02  0.45594000000E+02  0.51100000000E-03 0.  1.
         11   -1    0    0    0    0 -0.00000000000E+00 -0.00000000000E+00 -0.45593999997E+02  0.45594000000E+02  0.51100000000E-03 0. -1.
    9900012    2    1    2    0    0  0.30503588666E+02 -0.16616459725E+02 -0.26020144640E+02  0.47787267490E+02  0.19999983794E+02 0.  0.
        -12    1    1    2    0    0 -0.30503588666E+02  0.16616459725E+02  0.26020144640E+02  0.43400732510E+02  0.00000000000E+00 0.  1.
         11    1    3    3    0    0  0.99582949872E+01 -0.11662636006E+02 -0.11193384241E+02  0.18986220495E+02  0.51100000000E-03 0. -1.
        -11    1    3    3    0    0  0.18600880855E+02 -0.41499158839E+01 -0.17169878299E+02  0.25651886704E+02  0.51100000000E-03 0.  1.
        -12    1    3    3    0    0  0.19444128246E+01 -0.80390783470E+00  0.23431179004E+01  0.31491602903E+01  0.00000000000E+00 0.  1.
</event>
<event>
 7    1  0.1899036E-009  0.4778727E+02  0.7816164E-02  0.1312668E+00
        -11   -1    0    0    0    0  0.00000000000E+00  0.00000000000E+00  0.45593999997E+02  0.45594000000E+02  0.51100000000E-03 0.  1.
         11   -1    0    0    0    0 -0.00000000000E+00 -0.00000000000E+00 -0.45593999997E+02  0.45594000000E+02  0.51100000000E-03 0. -1.
    9900012    2    1    2    0    0  0.16415258032E+02 -0.30161839456E+02 -0.26541030832E+02  0.47787267595E+02  0.19999984274E+02 0.  0.
        -12    1    1    2    0    0 -0.16415258032E+02  0.30161839456E+02  0.26541030832E+02  0.43400732405E+02  0.00000000000E+00 0.  1.
         11    1    3    3    0    0 -0.20870269104E+01 -0.30538911195E+01 -0.93104525969E+00  0.38142860186E+01  0.51100000000E-03 0. -1.
        -11    1    3    3    0    0  0.11216285968E+02 -0.87787501442E+01 -0.17706390269E+02  0.22724167347E+02  0.51100000000E-03 0.  1.
         12    1    3    3    0    0  0.72859989737E+01 -0.18329198192E+02 -0.79035953039E+01  0.21248814229E+02  0.00000000000E+00 0. -1.
</event>
<event>
 7    1  0.1899036E-009  0.4778727E+02  0.7816164E-02  0.1312668E+00
        -11   -1    0    0    0    0  0.00000000000E+00  0.00000000000E+00  0.45593999997E+02  0.45594000000E+02  0.51100000000E-03 0.  1.
         11   -1    0    0    0    0 -0.00000000000E+00 -0.00000000000E+00 -0.45593999997E+02  0.45594000000E+02  0.51100000000E-03 0. -1.
    9900012    2    1    2    0    0 -0.28063679582E+02  0.28039159763E+02 -0.17602802956E+02  0.47787271160E+02  0.20000000527E+02 0.  0.
        -12    1    1    2    0    0  0.28063679582E+02 -0.28039159763E+02  0.17602802956E+02  0.43400728840E+02  0.00000000000E+00 0.  1.
         11    1    3    3    0    0 -0.14366531864E+02  0.16080611692E+02 -0.14956490204E+02  0.26242711554E+02  0.51100000000E-03 0. -1.
        -11    1    3    3    0    0 -0.15684843782E+02  0.11060777263E+02 -0.25517684416E+01  0.19361473099E+02  0.51100000000E-03 0.  1.
         12    1    3    3    0    0  0.19876960646E+01  0.89777080819E+00 -0.94544310126E-01  0.21830865068E+01  0.00000000000E+00 0. -1.
</event>
<event>
 7    1  0.1899036E-009  0.4778727E+02  0.7816164E-02  0.1312668E+00
        -11   -1    0    0    0    0  0.00000000000E+00  0.00000000000E+00  0.45593999997E+02  0.45594000000E+02  0.51100000000E-03 0. -1.
         11   -1    0    0    0    0 -0.00000000000E+00 -0.00000000000E+00 -0.45593999997E+02  0.45594000000E+02  0.51100000000E-03 0.  1.
    9900012    2    1    2    0    0  0.15532380306E+02  0.22355385508E+02  0.33802439768E+02  0.47787273815E+02  0.20000012630E+02 0.  0.
        -12    1    1    2    0    0 -0.15532380306E+02 -0.22355385508E+02 -0.33802439768E+02  0.43400726185E+02  0.00000000000E+00 0.  1.
         11    1    3    3    0    0  0.30856946861E+01  0.40653382439E+01  0.12182259913E+02  0.13208177149E+02  0.51100000000E-03 0.  1.
        -11    1    3    3    0    0  0.51269466745E+01  0.42476911160E+01 -0.12374145703E+01  0.67719758638E+01  0.51100000000E-03 0. -1.
         12    1    3    3    0    0  0.73197389453E+01  0.14042356148E+02  0.22857594425E+02  0.27807120802E+02  0.00000000000E+00 0. -1.
</event>
<event>
 7    1  0.1899036E-009  0.4778724E+02  0.7816164E-02  0.1312668E+00
        -11   -1    0    0    0    0  0.00000000000E+00  0.00000000000E+00  0.45593999997E+02  0.45594000000E+02  0.51100000000E-03 0. -1.
         11   -1    0    0    0    0 -0.00000000000E+00 -0.00000000000E+00 -0.45593999997E+02  0.45594000000E+02  0.51100000000E-03 0.  1.
    9900012    2    1    2    0    0 -0.20364332725E+02  0.31115746155E+02  0.22377010336E+02  0.47787236209E+02  0.19999841169E+02 0.  0.
        -12    1    1    2    0    0  0.20364332725E+02 -0.31115746155E+02 -0.22377010336E+02  0.43400763791E+02  0.00000000000E+00 0.  1.
         11    1    3    3    0    0 -0.76983630176E-01  0.45364166358E+01  0.71432788072E+01  0.84623539722E+01  0.51100000000E-03 0. -1.
        -11    1    3    3    0    0  0.17187206561E+01  0.63348759600E-01  0.13010690593E+01  0.21565701280E+01  0.51100000000E-03 0.  1.
         12    1    3    3    0    0 -0.22006069751E+02  0.26515980760E+02  0.13932662469E+02  0.37168312108E+02  0.00000000000E+00 0. -1.
</event>
<event>
 7    1  0.1899036E-009  0.4778727E+02  0.7816164E-02  0.1312668E+00
        -11   -1    0    0    0    0  0.00000000000E+00  0.00000000000E+00  0.45593999997E+02  0.45594000000E+02  0.51100000000E-03 0.  1.
         11   -1    0    0    0    0 -0.00000000000E+00 -0.00000000000E+00 -0.45593999997E+02  0.45594000000E+02  0.51100000000E-03 0. -1.
    9900012    2    1    2    0    0 -0.11317740737E+02  0.25012754753E+02 -0.33613904771E+02  0.47787265563E+02  0.19999975006E+02 0.  0.
        -12    1    1    2    0    0  0.11317740737E+02 -0.25012754753E+02  0.33613904771E+02  0.43400734437E+02  0.00000000000E+00 0.  1.
         11    1    3    3    0    0 -0.11299298941E+02  0.15462039486E+02 -0.29722915316E+02  0.35358174681E+02  0.51100000000E-03 0. -1.
        -11    1    3    3    0    0  0.16823274806E+01  0.69728315086E+01 -0.54128771920E+01  0.89860917398E+01  0.51100000000E-03 0.  1.
        -12    1    3    3    0    0 -0.17007692764E+01  0.25778837589E+01  0.15218877371E+01  0.34429991418E+01  0.00000000000E+00 0.  1.
</event>
<event>
 7    1  0.1899036E-009  0.4778727E+02  0.7816164E-02  0.1312668E+00
        -11   -1    0    0    0    0  0.00000000000E+00  0.00000000000E+00  0.45593999997E+02  0.45594000000E+02  0.51100000000E-03 0. -1.
         11   -1    0    0    0    0 -0.00000000000E+00 -0.00000000000E+00 -0.45593999997E+02  0.45594000000E+02  0.51100000000E-03 0.  1.
    9900012    2    1    2    0    0 -0.99019926009E+01 -0.41401861681E+02  0.84533651369E+01  0.47787274312E+02  0.20000014899E+02 0.  0.
        -12    1    1    2    0    0  0.99019926009E+01  0.41401861681E+02 -0.84533651369E+01  0.43400725688E+02  0.00000000000E+00 0.  1.
         11    1    3    3    0    0 -0.12553217182E+01 -0.17142598594E+02  0.82183479957E+01  0.19052185261E+02  0.51100000000E-03 0. -1.
        -11    1    3    3    0    0 -0.69165583639E+01 -0.32306128418E+01 -0.18048533092E-01  0.76338695918E+01  0.51100000000E-03 0.  1.
         12    1    3    3    0    0 -0.17301125189E+01 -0.21028650245E+02  0.25306567424E+00  0.21101219459E+02  0.00000000000E+00 0. -1.
</event>
<event>
 7    1  0.1899036E-009  0.4778727E+02  0.7816164E-02  0.1312668E+00
        -11   -1    0    0    0    0  0.00000000000E+00  0.00000000000E+00  0.45593999997E+02  0.45594000000E+02  0.51100000000E-03 0.  1.
         11   -1    0    0    0    0 -0.00000000000E+00 -0.00000000000E+00 -0.45593999997E+02  0.45594000000E+02  0.51100000000E-03 0. -1.
    9900012    2    1    2    0    0 -0.24185079352E+01 -0.85129927730E+01 -0.42488857983E+02  0.47787270982E+02  0.19999999714E+02 0.  0.
        -12    1    1    2    0    0  0.24185079352E+01  0.85129927730E+01  0.42488857983E+02  0.43400729018E+02  0.00000000000E+00 0.  1.
         11    1    3    3    0    0 -0.10583741626E+01  0.35666936696E+01 -0.11973488502E+02  0.12538177171E+02  0.51100000000E-03 0. -1.
        -11    1    3    3    0    0  0.21223527163E+01  0.20873518987E+01 -0.65103969385E+01  0.71586791770E+01  0.51100000000E-03 0.  1.
        -12    1    3    3    0    0 -0.34824864889E+01 -0.14167038341E+02 -0.24004972543E+02  0.28090414634E+02  0.00000000000E+00 0.  1.
</event>
<event>
 7    1  0.1899036E-009  0.4778727E+02  0.7816164E-02  0.1312668E+00
        -11   -1    0    0    0    0  0.00000000000E+00  0.00000000000E+00  0.45593999997E+02  0.45594000000E+02  0.51100000000E-03 0.  1.
         11   -1    0    0    0    0 -0.00000000000E+00 -0.00000000000E+00 -0.45593999997E+02  0.45594000000E+02  0.51100000000E-03 0. -1.
    9900012    2    1    2    0    0 -0.15932777605E+01 -0.45683801054E+01 -0.43130205657E+02  0.47787271080E+02  0.20000000161E+02 0.  0.
        -12    1    1    2    0    0  0.15932777605E+01  0.45683801054E+01  0.43130205657E+02  0.43400728920E+02  0.00000000000E+00 0.  1.
         11    1    3    3    0    0  0.60442628566E+00  0.45923604585E+01 -0.12226851892E+02  0.13074823638E+02  0.51100000000E-03 0. -1.
        -11    1    3    3    0    0 -0.54180442846E+01  0.27531524292E+00 -0.14904351288E+02  0.15860980106E+02  0.51100000000E-03 0.  1.
         12    1    3    3    0    0  0.32203402384E+01 -0.94360558068E+01 -0.15999002477E+02  0.18851467335E+02  0.00000000000E+00 0. -1.
</event>
<event>
 7    1  0.1899036E-009  0.4778727E+02  0.7816164E-02  0.1312668E+00
        -11   -1    0    0    0    0  0.00000000000E+00  0.00000000000E+00  0.45593999997E+02  0.45594000000E+02  0.51100000000E-03 0.  1.
         11   -1    0    0    0    0 -0.00000000000E+00 -0.00000000000E+00 -0.45593999997E+02  0.45594000000E+02  0.51100000000E-03 0. -1.
    9900012    2    1    2    0    0 -0.22793341925E+02 -0.10233165705E+02 -0.35487587429E+02  0.47787274453E+02  0.20000015542E+02 0.  0.
        -12    1    1    2    0    0  0.22793341925E+02  0.10233165705E+02  0.35487587429E+02  0.43400725547E+02  0.00000000000E+00 0.  1.
         11    1    3    3    0    0 -0.76903777081E+01 -0.23268107172E+01 -0.21856569028E+02  0.23286596302E+02  0.51100000000E-03 0. -1.
        -11    1    3    3    0    0 -0.14329109302E+02 -0.23563797297E+01 -0.11429874796E+02  0.18480203920E+02  0.51100000000E-03 0.  1.
        -12    1    3    3    0    0 -0.77385491538E+00 -0.55499752581E+01 -0.22011436042E+01  0.60204742306E+01  0.00000000000E+00 0.  1.
</event>
<event>
 7    1  0.1899036E-009  0.4778727E+02  0.7816164E-02  0.1312668E+00
        -11   -1    0    0    0    0  0.00000000000E+00  0.00000000000E+00  0.45593999997E+02  0.45594000000E+02  0.51100000000E-03 0.  1.
         11   -1    0    0    0    0 -0.00000000000E+00 -0.00000000000E+00 -0.45593999997E+02  0.45594000000E+02  0.51100000000E-03 0. -1.
    9900012    2    1    2    0    0  0.17192871674E+02 -0.24440098284E+02 -0.31475547178E+02  0.47787270620E+02  0.19999998064E+02 0.  0.
        -12    1    1    2    0    0 -0.17192871674E+02  0.24440098284E+02  0.31475547178E+02  0.43400729380E+02  0.00000000000E+00 0.  1.
         11    1    3    3    0    0 -0.20139175739E+01 -0.28874346647E+01 -0.49721103441E+01  0.60922101468E+01  0.51100000000E-03 0. -1.
        -11    1    3    3    0    0  0.37466885824E+01  0.18056960249E+01 -0.29775218199E+01  0.51150610863E+01  0.51100000000E-03 0.  1.
         12    1    3    3    0    0  0.15460100665E+02 -0.23358359644E+02 -0.23525915015E+02  0.36579999387E+02  0.00000000000E+00 0. -1.
</event>
<event>
 7    1  0.1899036E-009  0.4778727E+02  0.7816164E-02  0.1312668E+00
        -11   -1    0    0    0    0  0.00000000000E+00  0.00000000000E+00  0.45593999997E+02  0.45594000000E+02  0.51100000000E-03 0.  1.
         11   -1    0    0    0    0 -0.00000000000E+00 -0.00000000000E+00 -0.45593999997E+02  0.45594000000E+02  0.51100000000E-03 0. -1.
    9900012    2    1    2    0    0 -0.22700266844E+02  0.42292802471E+01 -0.36748255340E+02  0.47787271933E+02  0.20000004050E+02 0.  0.
        -12    1    1    2    0    0  0.22700266844E+02 -0.42292802471E+01  0.36748255340E+02  0.43400728067E+02  0.00000000000E+00 0.  1.
         11    1    3    3    0    0 -0.50485685526E+01 -0.50362928165E+01 -0.51604712104E+01  0.88024288204E+01  0.51100000000E-03 0. -1.
        -11    1    3    3    0    0 -0.27297688079E+01  0.61374558775E+01 -0.15109238778E+02  0.16535086910E+02  0.51100000000E-03 0.  1.
         12    1    3    3    0    0 -0.14921929484E+02  0.31281171861E+01 -0.16478545352E+02  0.22449756203E+02  0.00000000000E+00 0. -1.
</event>
<event>
 7    1  0.1899036E-009  0.4778727E+02  0.7816164E-02  0.1312668E+00
        -11   -1    0    0    0    0  0.00000000000E+00  0.00000000000E+00  0.45593999997E+02  0.45594000000E+02  0.51100000000E-03 0.  1.
         11   -1    0    0    0    0 -0.00000000000E+00 -0.00000000000E+00 -0.45593999997E+02  0.45594000000E+02  0.51100000000E-03 0. -1.
    9900012    2    1    2    0    0 -0.25685839321E+02  0.33257219281E+02 -0.10854415212E+02  0.47787270680E+02  0.19999998337E+02 0.  0.
        -12    1    1    2    0    0  0.25685839321E+02 -0.33257219281E+02  0.10854415212E+02  0.43400729320E+02  0.00000000000E+00 0.  1.
         11    1    3    3    0    0 -0.12654076865E+01  0.90960804045E+01 -0.54425340975E+01  0.10675257046E+02  0.51100000000E-03 0. -1.
        -11    1    3    3    0    0 -0.18077218278E+02  0.16076705139E+02 -0.95844025937E+01  0.26021280563E+02  0.51100000000E-03 0.  1.
        -12    1    3    3    0    0 -0.63432133570E+01  0.80844337369E+01  0.41725214795E+01  0.11090733070E+02  0.00000000000E+00 0.  1.
</event>
<event>
 7    1  0.1899036E-009  0.4778727E+02  0.7816164E-02  0.1312668E+00
        -11   -1    0    0    0    0  0.00000000000E+00  0.00000000000E+00  0.45593999997E+02  0.45594000000E+02  0.51100000000E-03 0.  1.
         11   -1    0    0    0    0 -0.00000000000E+00 -0.00000000000E+00 -0.45593999997E+02  0.45594000000E+02  0.51100000000E-03 0. -1.
    9900012    2    1    2    0    0  0.39664625970E+02 -0.14901480650E+02  0.93960950092E+01  0.47787270970E+02  0.19999999662E+02 0.  0.
        -12    1    1    2    0    0 -0.39664625970E+02  0.14901480650E+02 -0.93960950092E+01  0.43400729030E+02  0.00000000000E+00 0.  1.
         11    1    3    3    0    0  0.92401476358E+00  0.27204032060E+01  0.71499181600E-01  0.28739361998E+01  0.51100000000E-03 0. -1.
        -11    1    3    3    0    0  0.13133494225E+02 -0.11029123046E+02  0.64184652201E+01  0.18311933862E+02  0.51100000000E-03 0.  1.
         12    1    3    3    0    0  0.25607116981E+02 -0.65927608103E+01  0.29061306074E+01  0.26601400909E+02  0.00000000000E+00 0. -1.
</event>
<event>
 7    1  0.1899036E-009  0.4778727E+02  0.7816164E-02  0.1312668E+00
        -11   -1    0    0    0    0  0.00000000000E+00  0.00000000000E+00  0.45593999997E+02  0.45594000000E+02  0.51100000000E-03 0.  1.
         11   -1    0    0    0    0 -0.00000000000E+00 -0.00000000000E+00 -0.45593999997E+02  0.45594000000E+02  0.51100000000E-03 0. -1.
    9900012    2    1    2    0    0 -0.11390765863E+02 -0.40333305188E+02 -0.11273790101E+02  0.47787269619E+02  0.19999993501E+02 0.  0.
        -12    1    1    2    0    0  0.11390765863E+02  0.40333305188E+02  0.11273790101E+02  0.43400730381E+02  0.00000000000E+00 0.  1.
         11    1    3    3    0    0  0.28360047788E+00 -0.59323117395E+01 -0.57294147288E+01  0.82522085044E+01  0.51100000000E-03 0. -1.
        -11    1    3    3    0    0 -0.32261954662E+01 -0.11520964192E+02  0.49955508561E+01  0.12965202726E+02  0.51100000000E-03 0.  1.
         12    1    3    3    0    0 -0.84481708746E+01 -0.22880029257E+02 -0.10539926228E+02  0.26569858389E+02  0.00000000000E+00 0. -1.
</event>
<event>
 7    1  0.1899036E-009  0.4778727E+02  0.7816164E-02  0.1312668E+00
        -11   -1    0    0    0    0  0.00000000000E+00  0.00000000000E+00  0.45593999997E+02  0.45594000000E+02  0.51100000000E-03 0.  1.
         11   -1    0    0    0    0 -0.00000000000E+00 -0.00000000000E+00 -0.45593999997E+02  0.45594000000E+02  0.51100000000E-03 0. -1.
    9900012    2    1    2    0    0 -0.28383818997E+01 -0.17788348439E+02 -0.39485963869E+02  0.47787273109E+02  0.20000009412E+02 0.  0.
        -12    1    1    2    0    0  0.28383818997E+01  0.17788348439E+02  0.39485963869E+02  0.43400726891E+02  0.00000000000E+00 0.  1.
         11    1    3    3    0    0 -0.10902459089E+01  0.26899382238E+01 -0.32341178073E+01  0.43455634896E+01  0.51100000000E-03 0. -1.
        -11    1    3    3    0    0 -0.22166942711E+01  0.86465412560E+00 -0.56377791304E+01  0.61193066627E+01  0.51100000000E-03 0.  1.
         12    1    3    3    0    0  0.46855828041E+00 -0.21342940788E+02 -0.30614066932E+02  0.37322402957E+02  0.00000000000E+00 0. -1.
</event>
<event>
 7    1  0.1899036E-009  0.4778727E+02  0.7816164E-02  0.1312668E+00
        -11   -1    0    0    0    0  0.00000000000E+00  0.00000000000E+00  0.45593999997E+02  0.45594000000E+02  0.51100000000E-03 0. -1.
         11   -1    0    0    0    0 -0.00000000000E+00 -0.00000000000E+00 -0.45593999997E+02  0.45594000000E+02  0.51100000000E-03 0.  1.
    9900012    2    1    2    0    0 -0.36431440720E+01 -0.13597481620E+02  0.41054342657E+02  0.47787273553E+02  0.20000011438E+02 0.  0.
        -12    1    1    2    0    0  0.36431440720E+01  0.13597481620E+02 -0.41054342657E+02  0.43400726447E+02  0.00000000000E+00 0.  1.
         11    1    3    3    0    0  0.36971169837E+01 -0.53205583087E+01  0.17390761467E+02  0.18558437417E+02  0.51100000000E-03 0. -1.
        -11    1    3    3    0    0  0.15868544956E+01 -0.25609341778E+01  0.15657969379E+02  0.15945171570E+02  0.51100000000E-03 0.  1.
        -12    1    3    3    0    0 -0.89271155513E+01 -0.57159891338E+01  0.80056118110E+01  0.13283664566E+02  0.00000000000E+00 0.  1.
</event>
<event>
 7    1  0.1899036E-009  0.4778727E+02  0.7816164E-02  0.1312668E+00
        -11   -1    0    0    0    0  0.00000000000E+00  0.00000000000E+00  0.45593999997E+02  0.45594000000E+02  0.51100000000E-03 0.  1.
         11   -1    0    0    0    0 -0.00000000000E+00 -0.00000000000E+00 -0.45593999997E+02  0.45594000000E+02  0.51100000000E-03 0. -1.
    9900012    2    1    2    0    0 -0.50824199937E+01  0.18142043475E+01 -0.43063922687E+02  0.47787265357E+02  0.19999974068E+02 0.  0.
        -12    1    1    2    0    0  0.50824199937E+01 -0.18142043475E+01  0.43063922687E+02  0.43400734643E+02  0.00000000000E+00 0.  1.
         11    1    3    3    0    0 -0.20337656951E+01  0.73693272288E+01 -0.29451266952E+02  0.30427295510E+02  0.51100000000E-03 0. -1.
        -11    1    3    3    0    0 -0.32759709379E+01 -0.32998208952E+00 -0.61496854535E+00  0.33494865783E+01  0.51100000000E-03 0.  1.
        -12    1    3    3    0    0  0.22731663929E+00 -0.52251407917E+01 -0.12997687189E+02  0.14010483268E+02  0.00000000000E+00 0.  1.
</event>
<event>
 7    1  0.1899036E-009  0.4778727E+02  0.7816164E-02  0.1312668E+00
        -11   -1    0    0    0    0  0.00000000000E+00  0.00000000000E+00  0.45593999997E+02  0.45594000000E+02  0.51100000000E-03 0.  1.
         11   -1    0    0    0    0 -0.00000000000E+00 -0.00000000000E+00 -0.45593999997E+02  0.45594000000E+02  0.51100000000E-03 0. -1.
    9900012    2    1    2    0    0  0.14058472567E+02  0.25357960206E+02 -0.32294837000E+02  0.47787270817E+02  0.19999998964E+02 0.  0.
        -12    1    1    2    0    0 -0.14058472567E+02 -0.25357960206E+02  0.32294837000E+02  0.43400729183E+02  0.00000000000E+00 0.  1.
         11    1    3    3    0    0  0.11412349483E+01 -0.12105249498E+01 -0.90518930208E+00  0.18939788265E+01  0.51100000000E-03 0. -1.
        -11    1    3    3    0    0  0.48535782929E+01  0.23297413921E+02 -0.27483931745E+02  0.36355098983E+02  0.51100000000E-03 0.  1.
        -12    1    3    3    0    0  0.80636593257E+01  0.32710712351E+01 -0.39057159528E+01  0.95381930076E+01  0.00000000000E+00 0.  1.
</event>
<event>
 7    1  0.1899036E-009  0.4778729E+02  0.7816164E-02  0.1312668E+00
        -11   -1    0    0    0    0  0.00000000000E+00  0.00000000000E+00  0.45593999997E+02  0.45594000000E+02  0.51100000000E-03 0. -1.
         11   -1    0    0    0    0 -0.00000000000E+00 -0.00000000000E+00 -0.45593999997E+02  0.45594000000E+02  0.51100000000E-03 0.  1.
    9900012    2    1    2    0    0 -0.24925941838E+02  0.30609968735E+02  0.18037429794E+02  0.47787289913E+02  0.20000086030E+02 0.  0.
        -12    1    1    2    0    0  0.24925941838E+02 -0.30609968735E+02 -0.18037429794E+02  0.43400710087E+02  0.00000000000E+00 0.  1.
         11    1    3    3    0    0 -0.21724874023E+01 -0.77046108146E+00  0.39749912520E+01  0.45949828624E+01  0.51100000000E-03 0. -1.
        -11    1    3    3    0    0  0.64313339318E+00  0.31011795035E+01  0.40627720427E+01  0.51514126030E+01  0.51100000000E-03 0.  1.
         12    1    3    3    0    0 -0.23396587829E+02  0.28279250313E+02  0.99996664988E+01  0.38040894448E+02  0.00000000000E+00 0. -1.
</event>
<event>
 7    1  0.1899036E-009  0.4778727E+02  0.7816164E-02  0.1312668E+00
        -11   -1    0    0    0    0  0.00000000000E+00  0.00000000000E+00  0.45593999997E+02  0.45594000000E+02  0.51100000000E-03 0.  1.
         11   -1    0    0    0    0 -0.00000000000E+00 -0.00000000000E+00 -0.45593999997E+02  0.45594000000E+02  0.51100000000E-03 0. -1.
    9900012    2    1    2    0    0 -0.39048410449E+02 -0.18465526743E+02 -0.42271757357E+01  0.47787273610E+02  0.20000011696E+02 0.  0.
        -12    1    1    2    0    0  0.39048410449E+02  0.18465526743E+02  0.42271757357E+01  0.43400726390E+02  0.00000000000E+00 0.  1.
         11    1    3    3    0    0 -0.13762650209E+02 -0.95095107448E+01 -0.63370970228E+01  0.17888547575E+02  0.51100000000E-03 0. -1.
        -11    1    3    3    0    0 -0.12016588109E+02 -0.47790733792E+01 -0.54875758758E+01  0.14048182139E+02  0.51100000000E-03 0.  1.
        -12    1    3    3    0    0 -0.13269172130E+02 -0.41769426188E+01  0.75974971629E+01  0.15850543896E+02  0.00000000000E+00 0.  1.
</event>
<event>
 7    1  0.1899036E-009  0.4778726E+02  0.7816164E-02  0.1312668E+00
        -11   -1    0    0    0    0  0.00000000000E+00  0.00000000000E+00  0.45593999997E+02  0.45594000000E+02  0.51100000000E-03 0.  1.
         11   -1    0    0    0    0 -0.00000000000E+00 -0.00000000000E+00 -0.45593999997E+02  0.45594000000E+02  0.51100000000E-03 0. -1.
    9900012    2    1    2    0    0 -0.39188053904E+01 -0.27375400189E+02 -0.33449288376E+02  0.47787257333E+02  0.19999937485E+02 0.  0.
        -12    1    1    2    0    0  0.39188053904E+01  0.27375400189E+02  0.33449288376E+02  0.43400742667E+02  0.00000000000E+00 0.  1.
         11    1    3    3    0    0  0.15088625189E+01 -0.75323846003E+01 -0.11777181722E+02  0.14061134145E+02  0.51100000000E-03 0. -1.
        -11    1    3    3    0    0 -0.10375948867E+02 -0.86172918465E+01 -0.12715970037E+02  0.18536826263E+02  0.51100000000E-03 0.  1.
        -12    1    3    3    0    0  0.49482809581E+01 -0.11225723742E+02 -0.89561366159E+01  0.15189296924E+02  0.00000000000E+00 0.  1.
</event>
<event>
 7    1  0.1899036E-009  0.4778727E+02  0.7816164E-02  0.1312668E+00
        -11   -1    0    0    0    0  0.00000000000E+00  0.00000000000E+00  0.45593999997E+02  0.45594000000E+02  0.51100000000E-03 0.  1.
         11   -1    0    0    0    0 -0.00000000000E+00 -0.00000000000E+00 -0.45593999997E+02  0.45594000000E+02  0.51100000000E-03 0. -1.
    9900012    2    1    2    0    0  0.31734207549E+02  0.28236945378E+02  0.89016105539E+01  0.47787266325E+02  0.19999978484E+02 0.  0.
        -12    1    1    2    0    0 -0.31734207549E+02 -0.28236945378E+02 -0.89016105539E+01  0.43400733675E+02  0.00000000000E+00 0.  1.
         11    1    3    3    0    0 -0.16585726709E+01  0.68751858043E+00  0.13560268795E+01  0.22499676136E+01  0.51100000000E-03 0. -1.
        -11    1    3    3    0    0  0.17799225518E+02  0.21925234677E+02  0.61454444400E+01  0.28901467649E+02  0.51100000000E-03 0.  1.
         12    1    3    3    0    0  0.15593554702E+02  0.56241921212E+01  0.14001392343E+01  0.16635831063E+02  0.00000000000E+00 0. -1.
</event>
<event>
 7    1  0.1899036E-009  0.4778727E+02  0.7816164E-02  0.1312668E+00
        -11   -1    0    0    0    0  0.00000000000E+00  0.00000000000E+00  0.45593999997E+02  0.45594000000E+02  0.51100000000E-03 0.  1.
         11   -1    0    0    0    0 -0.00000000000E+00 -0.00000000000E+00 -0.45593999997E+02  0.45594000000E+02  0.51100000000E-03 0. -1.
    9900012    2    1    2    0    0  0.75587563123E+01 -0.22649851912E+02 -0.36241864894E+02  0.47787270056E+02  0.19999995495E+02 0.  0.
        -12    1    1    2    0    0 -0.75587563123E+01  0.22649851912E+02  0.36241864894E+02  0.43400729944E+02  0.00000000000E+00 0.  1.
         11    1    3    3    0    0  0.17026077930E+01 -0.11691522170E+01 -0.13297967468E+01  0.24564506615E+01  0.51100000000E-03 0. -1.
        -11    1    3    3    0    0  0.25879996464E+01 -0.16317074840E+02 -0.92151737679E+01  0.18917296354E+02  0.51100000000E-03 0.  1.
         12    1    3    3    0    0  0.32681488730E+01 -0.51636248552E+01 -0.25696894380E+02  0.26413523041E+02  0.00000000000E+00 0. -1.
</event>
<event>
 7    1  0.1899036E-009  0.4778727E+02  0.7816164E-02  0.1312668E+00
        -11   -1    0    0    0    0  0.00000000000E+00  0.00000000000E+00  0.45593999997E+02  0.45594000000E+02  0.51100000000E-03 0.  1.
         11   -1    0    0    0    0 -0.00000000000E+00 -0.00000000000E+00 -0.45593999997E+02  0.45594000000E+02  0.51100000000E-03 0. -1.
    9900012    2    1    2    0    0 -0.10441419332E+02  0.39672536884E+01 -0.41938776140E+02  0.47787270932E+02  0.19999999487E+02 0.  0.
        -12    1    1    2    0    0  0.10441419332E+02 -0.39672536884E+01  0.41938776140E+02  0.43400729068E+02  0.00000000000E+00 0.  1.
         11    1    3    3    0    0 -0.32851403920E+01  0.21785650858E+01 -0.21451523242E+02  0.21810688730E+02  0.51100000000E-03 0. -1.
        -11    1    3    3    0    0 -0.78215940669E+01  0.57635181696E+01 -0.72033086662E+01  0.12094756361E+02  0.51100000000E-03 0.  1.
        -12    1    3    3    0    0  0.66531512643E+00 -0.39748295670E+01 -0.13283944232E+02  0.13881825841E+02  0.00000000000E+00 0.  1.
</event>
<event>
 7    1  0.1899036E-009  0.4778727E+02  0.7816164E-02  0.1312668E+00
        -11   -1    0    0    0    0  0.00000000000E+00  0.00000000000E+00  0.45593999997E+02  0.45594000000E+02  0.51100000000E-03 0.  1.
         11   -1    0    0    0    0 -0.00000000000E+00 -0.00000000000E+00 -0.45593999997E+02  0.45594000000E+02  0.51100000000E-03 0. -1.
    9900012    2    1    2    0    0  0.33034629036E+02  0.12879513474E+02 -0.25029070551E+02  0.47787274712E+02  0.20000016723E+02 0.  0.
        -12    1    1    2    0    0 -0.33034629036E+02 -0.12879513474E+02  0.25029070551E+02  0.43400725288E+02  0.00000000000E+00 0.  1.
         11    1    3    3    0    0  0.71266689949E+01 -0.13856983250E+01 -0.68231620297E+01  0.99631878009E+01  0.51100000000E-03 0. -1.
        -11    1    3    3    0    0  0.67788195112E+01  0.94777485565E+01 -0.10731689408E+01  0.11701786338E+02  0.51100000000E-03 0.  1.
         12    1    3    3    0    0  0.19129140530E+02  0.47874632423E+01 -0.17132739580E+02  0.26122300573E+02  0.00000000000E+00 0. -1.
</event>
<event>
 7    1  0.1899036E-009  0.4778727E+02  0.7816164E-02  0.1312668E+00
        -11   -1    0    0    0    0  0.00000000000E+00  0.00000000000E+00  0.45593999997E+02  0.45594000000E+02  0.51100000000E-03 0. -1.
         11   -1    0    0    0    0 -0.00000000000E+00 -0.00000000000E+00 -0.45593999997E+02  0.45594000000E+02  0.51100000000E-03 0.  1.
    9900012    2    1    2    0    0  0.40074308873E+02  0.96889323615E+01  0.13557193723E+02  0.47787272545E+02  0.20000006843E+02 0.  0.
        -12    1    1    2    0    0 -0.40074308873E+02 -0.96889323615E+01 -0.13557193723E+02  0.43400727455E+02  0.00000000000E+00 0.  1.
         11    1    3    3    0    0  0.99263370896E+01  0.21384164916E+01  0.90859215522E+01  0.13625672968E+02  0.51100000000E-03 0.  1.
        -11    1    3    3    0    0  0.19207041279E+02  0.72183867762E+01  0.88843522228E+01  0.22359500375E+02  0.51100000000E-03 0. -1.
         12    1    3    3    0    0  0.10940930505E+02  0.33212909374E+00 -0.44130800522E+01  0.11802099203E+02  0.00000000000E+00 0. -1.
</event>
<event>
 7    1  0.1899036E-009  0.4778727E+02  0.7816164E-02  0.1312668E+00
        -11   -1    0    0    0    0  0.00000000000E+00  0.00000000000E+00  0.45593999997E+02  0.45594000000E+02  0.51100000000E-03 0.  1.
         11   -1    0    0    0    0 -0.00000000000E+00 -0.00000000000E+00 -0.45593999997E+02  0.45594000000E+02  0.51100000000E-03 0. -1.
    9900012    2    1    2    0    0  0.16661454813E+02  0.26300637639E+02 -0.30237324938E+02  0.47787269175E+02  0.19999991478E+02 0.  0.
        -12    1    1    2    0    0 -0.16661454813E+02 -0.26300637639E+02  0.30237324938E+02  0.43400730825E+02  0.00000000000E+00 0.  1.
         11    1    3    3    0    0  0.11961608383E+02  0.14504355848E+02 -0.14427556089E+02  0.23698328815E+02  0.51100000000E-03 0. -1.
        -11    1    3    3    0    0 -0.23990021261E+01  0.10577703094E+02 -0.80920521095E+01  0.13532343535E+02  0.51100000000E-03 0.  1.
         12    1    3    3    0    0  0.70988485563E+01  0.12185786980E+01 -0.77177167390E+01  0.10556596825E+02  0.00000000000E+00 0. -1.
</event>
<event>
 7    1  0.1899036E-009  0.4778727E+02  0.7816164E-02  0.1312668E+00
        -11   -1    0    0    0    0  0.00000000000E+00  0.00000000000E+00  0.45593999997E+02  0.45594000000E+02  0.51100000000E-03 0.  1.
         11   -1    0    0    0    0 -0.00000000000E+00 -0.00000000000E+00 -0.45593999997E+02  0.45594000000E+02  0.51100000000E-03 0. -1.
    9900012    2    1    2    0    0  0.16097689931E+02  0.21109776065E+02 -0.34334602098E+02  0.47787272266E+02  0.20000005569E+02 0.  0.
        -12    1    1    2    0    0 -0.16097689931E+02 -0.21109776065E+02  0.34334602098E+02  0.43400727734E+02  0.00000000000E+00 0.  1.
         11    1    3    3    0    0  0.71356827562E+01  0.12172100633E+02 -0.11253946821E+02  0.18047972782E+02  0.51100000000E-03 0. -1.
        -11    1    3    3    0    0  0.83314959018E+01  0.34433589954E+01 -0.22426202181E+02  0.24170334910E+02  0.51100000000E-03 0.  1.
         12    1    3    3    0    0  0.63051127272E+00  0.54943164365E+01 -0.65445309544E+00  0.55689645738E+01  0.00000000000E+00 0. -1.
</event>
<event>
 7    1  0.1899036E-009  0.4778728E+02  0.7816164E-02  0.1312668E+00
        -11   -1    0    0    0    0  0.00000000000E+00  0.00000000000E+00  0.45593999997E+02  0.45594000000E+02  0.51100000000E-03 0. -1.
         11   -1    0    0    0    0 -0.00000000000E+00 -0.00000000000E+00 -0.45593999997E+02  0.45594000000E+02  0.51100000000E-03 0.  1.
    9900012    2    1    2    0    0  0.24926622622E+02 -0.35381197607E+02  0.32337202764E+01  0.47787278735E+02  0.20000035065E+02 0.  0.
        -12    1    1    2    0    0 -0.24926622622E+02  0.35381197607E+02 -0.32337202764E+01  0.43400721265E+02  0.00000000000E+00 0.  1.
         11    1    3    3    0    0 -0.45454215016E+00  0.76222457829E+00  0.12014811893E+01  0.14937041820E+01  0.51100000000E-03 0. -1.
        -11    1    3    3    0    0  0.96336213021E-01 -0.29573451629E+01 -0.30675966420E+01  0.42620793631E+01  0.51100000000E-03 0.  1.
         12    1    3    3    0    0  0.25284828559E+02 -0.33186077023E+02  0.50998357291E+01  0.42031495190E+02  0.00000000000E+00 0. -1.
</event>
<event>
 7    1  0.1899036E-009  0.4778727E+02  0.7816164E-02  0.1312668E+00
        -11   -1    0    0    0    0  0.00000000000E+00  0.00000000000E+00  0.45593999997E+02  0.45594000000E+02  0.51100000000E-03 0.  1.
         11   -1    0    0    0    0 -0.00000000000E+00 -0.00000000000E+00 -0.45593999997E+02  0.45594000000E+02  0.51100000000E-03 0. -1.
    9900012    2    1    2    0    0  0.44486235998E+01 -0.29726186248E+02  0.31307932861E+02  0.47787273499E+02  0.20000011192E+02 0.  0.
        -12    1    1    2    0    0 -0.44486235998E+01  0.29726186248E+02 -0.31307932861E+02  0.43400726501E+02  0.00000000000E+00 0.  1.
         11    1    3    3    0    0  0.77997792261E+01 -0.25382113149E+02  0.28854182927E+02  0.39212907269E+02  0.51100000000E-03 0. -1.
        -11    1    3    3    0    0  0.11543538161E+01 -0.27310546328E+01  0.23572440811E+01  0.37878479456E+01  0.51100000000E-03 0.  1.
        -12    1    3    3    0    0 -0.45055094425E+01 -0.16130184657E+01  0.96505853618E-01  0.47865182844E+01  0.00000000000E+00 0.  1.
</event>
<event>
 7    1  0.1899036E-009  0.4778727E+02  0.7816164E-02  0.1312668E+00
        -11   -1    0    0    0    0  0.00000000000E+00  0.00000000000E+00  0.45593999997E+02  0.45594000000E+02  0.51100000000E-03 0.  1.
         11   -1    0    0    0    0 -0.00000000000E+00 -0.00000000000E+00 -0.45593999997E+02  0.45594000000E+02  0.51100000000E-03 0. -1.
    9900012    2    1    2    0    0  0.31700831357E+02  0.23970555464E+02 -0.17438270066E+02  0.47787268429E+02  0.19999988075E+02 0.  0.
        -12    1    1    2    0    0 -0.31700831357E+02 -0.23970555464E+02  0.17438270066E+02  0.43400731571E+02  0.00000000000E+00 0.  1.
         11    1    3    3    0    0  0.71186198265E+01 -0.17216723255E+01 -0.38321671212E+01  0.82658580278E+01  0.51100000000E-03 0. -1.
        -11    1    3    3    0    0  0.31901717376E+01  0.24109500664E+01  0.17590361606E+01  0.43685334397E+01  0.51100000000E-03 0.  1.
         12    1    3    3    0    0  0.21392039793E+02  0.23281277723E+02 -0.15365139106E+02  0.35152876961E+02  0.00000000000E+00 0. -1.
</event>
<event>
 7    1  0.1899036E-009  0.4778725E+02  0.7816164E-02  0.1312668E+00
        -11   -1    0    0    0    0  0.00000000000E+00  0.00000000000E+00  0.45593999997E+02  0.45594000000E+02  0.51100000000E-03 0.  1.
         11   -1    0    0    0    0 -0.00000000000E+00 -0.00000000000E+00 -0.45593999997E+02  0.45594000000E+02  0.51100000000E-03 0. -1.
    9900012    2    1    2    0    0 -0.19986849407E+02  0.73066971567E+01 -0.37825434399E+02  0.47787245859E+02  0.19999885167E+02 0.  0.
        -12    1    1    2    0    0  0.19986849407E+02 -0.73066971567E+01  0.37825434399E+02  0.43400754141E+02  0.00000000000E+00 0.  1.
         11    1    3    3    0    0 -0.71326839470E+01  0.91060537488E+01 -0.16300573434E+02  0.19987598398E+02  0.51100000000E-03 0. -1.
        -11    1    3    3    0    0 -0.12870053385E+02  0.76464514645E+00 -0.10940347866E+02  0.16908996659E+02  0.51100000000E-03 0.  1.
        -12    1    3    3    0    0  0.15887925008E-01 -0.25640017386E+01 -0.10584513099E+02  0.10890650801E+02  0.00000000000E+00 0.  1.
</event>
<event>
 7    1  0.1899036E-009  0.4778727E+02  0.7816164E-02  0.1312668E+00
        -11   -1    0    0    0    0  0.00000000000E+00  0.00000000000E+00  0.45593999997E+02  0.45594000000E+02  0.51100000000E-03 0.  1.
         11   -1    0    0    0    0 -0.00000000000E+00 -0.00000000000E+00 -0.45593999997E+02  0.45594000000E+02  0.51100000000E-03 0. -1.
    9900012    2    1    2    0    0  0.41717165907E+02 -0.81750939571E+01  0.87446570411E+01  0.47787272825E+02  0.20000008121E+02 0.  0.
        -12    1    1    2    0    0 -0.41717165907E+02  0.81750939571E+01 -0.87446570411E+01  0.43400727175E+02  0.00000000000E+00 0.  1.
         11    1    3    3    0    0  0.24030338799E+02 -0.16470650482E+00  0.21507515219E+01  0.24126956779E+02  0.51100000000E-03 0. -1.
        -11    1    3    3    0    0  0.11263544224E+02  0.78453183480E+00  0.78722085281E+00  0.11318243487E+02  0.51100000000E-03 0.  1.
        -12    1    3    3    0    0  0.64232828839E+01 -0.87949192871E+01  0.58066846664E+01  0.12342072560E+02  0.00000000000E+00 0.  1.
</event>
<event>
 7    1  0.1899036E-009  0.4778727E+02  0.7816164E-02  0.1312668E+00
        -11   -1    0    0    0    0  0.00000000000E+00  0.00000000000E+00  0.45593999997E+02  0.45594000000E+02  0.51100000000E-03 0. -1.
         11   -1    0    0    0    0 -0.00000000000E+00 -0.00000000000E+00 -0.45593999997E+02  0.45594000000E+02  0.51100000000E-03 0.  1.
    9900012    2    1    2    0    0 -0.21338581922E+02  0.35797448781E+01  0.37622779838E+02  0.47787271728E+02  0.20000003117E+02 0.  0.
        -12    1    1    2    0    0  0.21338581922E+02 -0.35797448781E+01 -0.37622779838E+02  0.43400728272E+02  0.00000000000E+00 0.  1.
         11    1    3    3    0    0 -0.17623740733E+02  0.66936600906E+01  0.33688692849E+02  0.38604784016E+02  0.51100000000E-03 0. -1.
        -11    1    3    3    0    0  0.45415451476E+00  0.11551517924E+01 -0.87509958223E+00  0.15186940201E+01  0.51100000000E-03 0.  1.
        -12    1    3    3    0    0 -0.41689957036E+01 -0.42690670049E+01  0.48091865710E+01  0.76637936914E+01  0.00000000000E+00 0.  1.
</event>
<event>
 7    1  0.1899036E-009  0.4778726E+02  0.7816164E-02  0.1312668E+00
        -11   -1    0    0    0    0  0.00000000000E+00  0.00000000000E+00  0.45593999997E+02  0.45594000000E+02  0.51100000000E-03 0.  1.
         11   -1    0    0    0    0 -0.00000000000E+00 -0.00000000000E+00 -0.45593999997E+02  0.45594000000E+02  0.51100000000E-03 0. -1.
    9900012    2    1    2    0    0  0.20493698328E+02 -0.90562196038E+01 -0.37170114259E+02  0.47787260621E+02  0.19999952475E+02 0.  0.
        -12    1    1    2    0    0 -0.20493698328E+02  0.90562196038E+01  0.37170114259E+02  0.43400739379E+02  0.00000000000E+00 0.  1.
         11    1    3    3    0    0  0.11330097484E+02 -0.19573239479E+01 -0.17991672018E+02  0.21351873181E+02  0.51100000000E-03 0. -1.
        -11    1    3    3    0    0  0.28766867251E+01 -0.10566605984E+02 -0.10496343312E+02  0.15169103854E+02  0.51100000000E-03 0.  1.
         12    1    3    3    0    0  0.62869141183E+01  0.34677103286E+01 -0.86820989280E+01  0.11266283586E+02  0.00000000000E+00 0. -1.
</event>
<event>
 7    1  0.1899036E-009  0.4778728E+02  0.7816164E-02  0.1312668E+00
        -11   -1    0    0    0    0  0.00000000000E+00  0.00000000000E+00  0.45593999997E+02  0.45594000000E+02  0.51100000000E-03 0.  1.
         11   -1    0    0    0    0 -0.00000000000E+00 -0.00000000000E+00 -0.45593999997E+02  0.45594000000E+02  0.51100000000E-03 0. -1.
    9900012    2    1    2    0    0  0.28773023644E+02  0.13390003560E+02 -0.29604791035E+02  0.47787277227E+02  0.20000028190E+02 0.  0.
        -12    1    1    2    0    0 -0.28773023644E+02 -0.13390003560E+02  0.29604791035E+02  0.43400722773E+02  0.00000000000E+00 0.  1.
         11    1    3    3    0    0  0.15584710873E+02  0.13792150493E+02 -0.18817325501E+02  0.28057055574E+02  0.51100000000E-03 0. -1.
        -11    1    3    3    0    0  0.12396212852E+02  0.77823385770E+00 -0.43851433121E+01  0.13171986302E+02  0.51100000000E-03 0.  1.
        -12    1    3    3    0    0  0.79209991978E+00 -0.11803807905E+01 -0.64023222213E+01  0.65582353510E+01  0.00000000000E+00 0.  1.
</event>
<event>
 7    1  0.1899036E-009  0.4778729E+02  0.7816164E-02  0.1312668E+00
        -11   -1    0    0    0    0  0.00000000000E+00  0.00000000000E+00  0.45593999997E+02  0.45594000000E+02  0.51100000000E-03 0.  1.
         11   -1    0    0    0    0 -0.00000000000E+00 -0.00000000000E+00 -0.45593999997E+02  0.45594000000E+02  0.51100000000E-03 0. -1.
    9900012    2    1    2    0    0 -0.60480501570E+01  0.12887389491E+00 -0.42977042291E+02  0.47787289369E+02  0.20000083551E+02 0.  0.
        -12    1    1    2    0    0  0.60480501570E+01 -0.12887389491E+00  0.42977042291E+02  0.43400710631E+02  0.00000000000E+00 0.  1.
         11    1    3    3    0    0 -0.18864660664E+01  0.28104708888E+01 -0.15130810508E+02  0.15504803376E+02  0.51100000000E-03 0. -1.
        -11    1    3    3    0    0  0.33688225882E+01 -0.66712767260E+01 -0.16301932597E+02  0.17933429830E+02  0.51100000000E-03 0.  1.
        -12    1    3    3    0    0 -0.75304066788E+01  0.39896797321E+01 -0.11544299186E+02  0.14349056164E+02  0.00000000000E+00 0.  1.
</event>
<event>
 7    1  0.1899036E-009  0.4778727E+02  0.7816164E-02  0.1312668E+00
        -11   -1    0    0    0    0  0.00000000000E+00  0.00000000000E+00  0.45593999997E+02  0.45594000000E+02  0.51100000000E-03 0.  1.
         11   -1    0    0    0    0 -0.00000000000E+00 -0.00000000000E+00 -0.45593999997E+02  0.45594000000E+02  0.51100000000E-03 0. -1.
    9900012    2    1    2    0    0  0.32095082735E+02  0.27674904478E+02  0.93610175896E+01  0.47787270468E+02  0.19999997371E+02 0.  0.
        -12    1    1    2    0    0 -0.32095082735E+02 -0.27674904478E+02 -0.93610175896E+01  0.43400729532E+02  0.00000000000E+00 0.  1.
         11    1    3    3    0    0  0.56451005774E+01  0.62235364288E+01  0.67833991026E+01  0.10798799464E+02  0.51100000000E-03 0.  1.
        -11    1    3    3    0    0  0.97508843283E+01  0.75124837343E+01 -0.58906732236E+01  0.13646141884E+02  0.51100000000E-03 0. -1.
         12    1    3    3    0    0  0.16699097829E+02  0.13938884315E+02  0.84682917106E+01  0.23342329120E+02  0.00000000000E+00 0. -1.
</event>
<event>
 7    1  0.1899036E-009  0.4778727E+02  0.7816164E-02  0.1312668E+00
        -11   -1    0    0    0    0  0.00000000000E+00  0.00000000000E+00  0.45593999997E+02  0.45594000000E+02  0.51100000000E-03 0.  1.
         11   -1    0    0    0    0 -0.00000000000E+00 -0.00000000000E+00 -0.45593999997E+02  0.45594000000E+02  0.51100000000E-03 0. -1.
    9900012    2    1    2    0    0 -0.34877654610E+02 -0.31636866111E+01 -0.25635199479E+02  0.47787272398E+02  0.20000006171E+02 0.  0.
        -12    1    1    2    0    0  0.34877654610E+02  0.31636866111E+01  0.25635199479E+02  0.43400727602E+02  0.00000000000E+00 0.  1.
         11    1    3    3    0    0 -0.20639795014E+02 -0.10110664192E+02 -0.14584496128E+02  0.27220106469E+02  0.51100000000E-03 0. -1.
        -11    1    3    3    0    0 -0.35514414012E+01  0.17759374512E+01  0.50161272178E+00  0.40022875259E+01  0.51100000000E-03 0.  1.
         12    1    3    3    0    0 -0.10686418194E+02  0.51710401294E+01 -0.11552316073E+02  0.16564878403E+02  0.00000000000E+00 0. -1.
</event>
<event>
 7    1  0.1899036E-009  0.4778726E+02  0.7816164E-02  0.1312668E+00
        -11   -1    0    0    0    0  0.00000000000E+00  0.00000000000E+00  0.45593999997E+02  0.45594000000E+02  0.51100000000E-03 0. -1.
         11   -1    0    0    0    0 -0.00000000000E+00 -0.00000000000E+00 -0.45593999997E+02  0.45594000000E+02  0.51100000000E-03 0.  1.
    9900012    2    1    2    0    0 -0.50859534839E+01  0.42028404298E+02  0.95587842024E+01  0.47787262148E+02  0.19999959438E+02 0.  0.
        -12    1    1    2    0    0  0.50859534839E+01 -0.42028404298E+02 -0.95587842024E+01  0.43400737852E+02  0.00000000000E+00 0.  1.
         11    1    3    3    0    0 -0.51440043632E+01  0.81066301585E+01  0.45919850612E+01  0.10642582416E+02  0.51100000000E-03 0. -1.
        -11    1    3    3    0    0  0.32788174888E+01  0.31925009353E+02  0.69951843239E+01  0.32846452934E+02  0.51100000000E-03 0.  1.
        -12    1    3    3    0    0 -0.32207666094E+01  0.19967647859E+01 -0.20283851827E+01  0.42982267986E+01  0.00000000000E+00 0.  1.
</event>
<event>
 7    1  0.1899036E-009  0.4778727E+02  0.7816164E-02  0.1312668E+00
        -11   -1    0    0    0    0  0.00000000000E+00  0.00000000000E+00  0.45593999997E+02  0.45594000000E+02  0.51100000000E-03 0.  1.
         11   -1    0    0    0    0 -0.00000000000E+00 -0.00000000000E+00 -0.45593999997E+02  0.45594000000E+02  0.51100000000E-03 0. -1.
    9900012    2    1    2    0    0 -0.24794518562E+02 -0.83112820121E+01 -0.34637808778E+02  0.47787270094E+02  0.19999995668E+02 0.  0.
        -12    1    1    2    0    0  0.24794518562E+02  0.83112820121E+01  0.34637808778E+02  0.43400729906E+02  0.00000000000E+00 0.  1.
         11    1    3    3    0    0 -0.32437877746E+01  0.43098798269E+01 -0.65189388240E+01  0.84613111810E+01  0.51100000000E-03 0. -1.
        -11    1    3    3    0    0 -0.67329798206E+01 -0.60251524768E+01 -0.31836424005E+01  0.95797212292E+01  0.51100000000E-03 0.  1.
         12    1    3    3    0    0 -0.14817750967E+02 -0.65960093622E+01 -0.24935227553E+02  0.29746237684E+02  0.00000000000E+00 0. -1.
</event>
<event>
 7    1  0.1899036E-009  0.4778727E+02  0.7816164E-02  0.1312668E+00
        -11   -1    0    0    0    0  0.00000000000E+00  0.00000000000E+00  0.45593999997E+02  0.45594000000E+02  0.51100000000E-03 0.  1.
         11   -1    0    0    0    0 -0.00000000000E+00 -0.00000000000E+00 -0.45593999997E+02  0.45594000000E+02  0.51100000000E-03 0. -1.
    9900012    2    1    2    0    0 -0.15559557664E+02 -0.93946588517E+01 -0.39411471449E+02  0.47787268078E+02  0.19999986474E+02 0.  0.
        -12    1    1    2    0    0  0.15559557664E+02  0.93946588517E+01  0.39411471449E+02  0.43400731922E+02  0.00000000000E+00 0.  1.
         11    1    3    3    0    0 -0.11594485987E+02 -0.82587837441E+01 -0.22454475975E+02  0.26586521130E+02  0.51100000000E-03 0. -1.
        -11    1    3    3    0    0 -0.30738958241E+01 -0.12630645512E+01  0.80221929430E+00  0.34187312932E+01  0.51100000000E-03 0.  1.
         12    1    3    3    0    0 -0.89117585237E+00  0.12718944363E+00 -0.17759214768E+02  0.17782015655E+02  0.00000000000E+00 0. -1.
</event>
<event>
 7    1  0.1899036E-009  0.4778729E+02  0.7816164E-02  0.1312668E+00
        -11   -1    0    0    0    0  0.00000000000E+00  0.00000000000E+00  0.45593999997E+02  0.45594000000E+02  0.51100000000E-03 0.  1.
         11   -1    0    0    0    0 -0.00000000000E+00 -0.00000000000E+00 -0.45593999997E+02  0.45594000000E+02  0.51100000000E-03 0. -1.
    9900012    2    1    2    0    0 -0.82413594547E+01  0.37051912856E+02 -0.21044170220E+02  0.47787293183E+02  0.20000100939E+02 0.  0.
        -12    1    1    2    0    0  0.82413594547E+01 -0.37051912856E+02  0.21044170220E+02  0.43400706817E+02  0.00000000000E+00 0.  1.
         11    1    3    3    0    0 -0.11964123691E+02  0.12163147388E+02 -0.11881963522E+02  0.20790946767E+02  0.51100000000E-03 0.  1.
        -11    1    3    3    0    0  0.34948944250E-01  0.11491034460E+02 -0.38335077084E+01  0.12113664846E+02  0.51100000000E-03 0. -1.
        -12    1    3    3    0    0  0.36878152920E+01  0.13397731009E+02 -0.53286989896E+01  0.14882681571E+02  0.00000000000E+00 0.  1.
</event>
<event>
 7    1  0.1899036E-009  0.4778727E+02  0.7816164E-02  0.1312668E+00
        -11   -1    0    0    0    0  0.00000000000E+00  0.00000000000E+00  0.45593999997E+02  0.45594000000E+02  0.51100000000E-03 0.  1.
         11   -1    0    0    0    0 -0.00000000000E+00 -0.00000000000E+00 -0.45593999997E+02  0.45594000000E+02  0.51100000000E-03 0. -1.
    9900012    2    1    2    0    0  0.34606921943E+01 -0.25523769524E+02 -0.34931131034E+02  0.47787272857E+02  0.20000008266E+02 0.  0.
        -12    1    1    2    0    0 -0.34606921943E+01  0.25523769524E+02  0.34931131034E+02  0.43400727143E+02  0.00000000000E+00 0.  1.
         11    1    3    3    0    0  0.42388690903E+01 -0.75436831916E+01 -0.33046333660E+01  0.92626005638E+01  0.51100000000E-03 0. -1.
        -11    1    3    3    0    0  0.72657256501E+00 -0.43373377996E+01 -0.40135931332E+00  0.44160498683E+01  0.51100000000E-03 0.  1.
        -12    1    3    3    0    0 -0.15047494610E+01 -0.13642748533E+02 -0.31225138355E+02  0.34108622425E+02  0.00000000000E+00 0.  1.
</event>
<event>
 7    1  0.1899036E-009  0.4778727E+02  0.7816164E-02  0.1312668E+00
        -11   -1    0    0    0    0  0.00000000000E+00  0.00000000000E+00  0.45593999997E+02  0.45594000000E+02  0.51100000000E-03 0.  1.
         11   -1    0    0    0    0 -0.00000000000E+00 -0.00000000000E+00 -0.45593999997E+02  0.45594000000E+02  0.51100000000E-03 0. -1.
    9900012    2    1    2    0    0  0.18211752591E+02 -0.39103717844E+02  0.47806573508E+01  0.47787269979E+02  0.19999995143E+02 0.  0.
        -12    1    1    2    0    0 -0.18211752591E+02  0.39103717844E+02 -0.47806573508E+01  0.43400730021E+02  0.00000000000E+00 0.  1.
         11    1    3    3    0    0  0.71613933881E+01 -0.13570060051E+02  0.48112978282E+01  0.16080443778E+02  0.51100000000E-03 0. -1.
        -11    1    3    3    0    0  0.48897937059E+01 -0.95177955424E+01  0.73971975772E+01  0.13008345273E+02  0.51100000000E-03 0.  1.
         12    1    3    3    0    0  0.61605654973E+01 -0.16015862250E+02 -0.74278380546E+01  0.18698480928E+02  0.00000000000E+00 0. -1.
</event>
<event>
 7    1  0.1899036E-009  0.4778727E+02  0.7816164E-02  0.1312668E+00
        -11   -1    0    0    0    0  0.00000000000E+00  0.00000000000E+00  0.45593999997E+02  0.45594000000E+02  0.51100000000E-03 0.  1.
         11   -1    0    0    0    0 -0.00000000000E+00 -0.00000000000E+00 -0.45593999997E+02  0.45594000000E+02  0.51100000000E-03 0. -1.
    9900012    2    1    2    0    0  0.26684003640E+02 -0.81026254770E+01 -0.33255593466E+02  0.47787273202E+02  0.20000009835E+02 0.  0.
        -12    1    1    2    0    0 -0.26684003640E+02  0.81026254770E+01  0.33255593466E+02  0.43400726798E+02  0.00000000000E+00 0.  1.
         11    1    3    3    0    0  0.27871965591E+01  0.19727054980E+01  0.82440857450E+00  0.35127882657E+01  0.51100000000E-03 0. -1.
        -11    1    3    3    0    0  0.50431994468E+01 -0.76447818533E+01 -0.12817708772E+02  0.15753418952E+02  0.51100000000E-03 0.  1.
         12    1    3    3    0    0  0.18853607634E+02 -0.24305491217E+01 -0.21262293268E+02  0.28521065984E+02  0.00000000000E+00 0. -1.
</event>
<event>
 7    1  0.1899036E-009  0.4778727E+02  0.7816164E-02  0.1312668E+00
        -11   -1    0    0    0    0  0.00000000000E+00  0.00000000000E+00  0.45593999997E+02  0.45594000000E+02  0.51100000000E-03 0. -1.
         11   -1    0    0    0    0 -0.00000000000E+00 -0.00000000000E+00 -0.45593999997E+02  0.45594000000E+02  0.51100000000E-03 0.  1.
    9900012    2    1    2    0    0  0.12519204580E+02  0.14398358403E+02  0.38981797464E+02  0.47787265657E+02  0.19999975436E+02 0.  0.
        -12    1    1    2    0    0 -0.12519204580E+02 -0.14398358403E+02 -0.38981797464E+02  0.43400734343E+02  0.00000000000E+00 0.  1.
         11    1    3    3    0    0 -0.23260425976E+01  0.64962429941E+01  0.61024747670E+01  0.92115061606E+01  0.51100000000E-03 0.  1.
        -11    1    3    3    0    0  0.90628374465E+01  0.99664835038E+01  0.18025485181E+02  0.22502976076E+02  0.51100000000E-03 0. -1.
         12    1    3    3    0    0  0.57824097308E+01 -0.20643680950E+01  0.14853837516E+02  0.16072783420E+02  0.00000000000E+00 0. -1.
</event>
<event>
 7    1  0.1899036E-009  0.4778727E+02  0.7816164E-02  0.1312668E+00
        -11   -1    0    0    0    0  0.00000000000E+00  0.00000000000E+00  0.45593999997E+02  0.45594000000E+02  0.51100000000E-03 0. -1.
         11   -1    0    0    0    0 -0.00000000000E+00 -0.00000000000E+00 -0.45593999997E+02  0.45594000000E+02  0.51100000000E-03 0.  1.
    9900012    2    1    2    0    0 -0.35008351476E+02  0.14618168867E+02  0.21079554000E+02  0.47787272691E+02  0.20000007508E+02 0.  0.
        -12    1    1    2    0    0  0.35008351476E+02 -0.14618168867E+02 -0.21079554000E+02  0.43400727309E+02  0.00000000000E+00 0.  1.
         11    1    3    3    0    0 -0.25851642873E+02  0.97092930618E+01  0.15955702436E+02  0.31892981226E+02  0.51100000000E-03 0. -1.
        -11    1    3    3    0    0 -0.30984772671E+01 -0.68770913165E+00  0.67762616883E+01  0.74827286436E+01  0.51100000000E-03 0.  1.
         12    1    3    3    0    0 -0.60582313360E+01  0.55965849369E+01 -0.16524101246E+01  0.84115628212E+01  0.00000000000E+00 0. -1.
</event>
<event>
 7    1  0.1899036E-009  0.4778727E+02  0.7816164E-02  0.1312668E+00
        -11   -1    0    0    0    0  0.00000000000E+00  0.00000000000E+00  0.45593999997E+02  0.45594000000E+02  0.51100000000E-03 0. -1.
         11   -1    0    0    0    0 -0.00000000000E+00 -0.00000000000E+00 -0.45593999997E+02  0.45594000000E+02  0.51100000000E-03 0.  1.
    9900012    2    1    2    0    0 -0.26007228791E+02 -0.14821291422E+02  0.31425730777E+02  0.47787272084E+02  0.20000004740E+02 0.  0.
        -12    1    1    2    0    0  0.26007228791E+02  0.14821291422E+02 -0.31425730777E+02  0.43400727916E+02  0.00000000000E+00 0.  1.
         11    1    3    3    0    0 -0.10316257590E+01 -0.32574388267E+00 -0.15028797424E+01  0.18517582361E+01  0.51100000000E-03 0.  1.
        -11    1    3    3    0    0 -0.24125694951E+02 -0.94496687210E+01  0.22487318723E+02  0.34307796481E+02  0.51100000000E-03 0. -1.
         12    1    3    3    0    0 -0.84990808114E+00 -0.50458788186E+01  0.10441291796E+02  0.11627717367E+02  0.00000000000E+00 0. -1.
</event>
<event>
 7    1  0.1899036E-009  0.4778723E+02  0.7816164E-02  0.1312668E+00
        -11   -1    0    0    0    0  0.00000000000E+00  0.00000000000E+00  0.45593999997E+02  0.45594000000E+02  0.51100000000E-03 0. -1.
         11   -1    0    0    0    0 -0.00000000000E+00 -0.00000000000E+00 -0.45593999997E+02  0.45594000000E+02  0.51100000000E-03 0.  1.
    9900012    2    1    2    0    0 -0.33171859701E+02  0.27986159075E+02 -0.17107776358E+00  0.47787232226E+02  0.19999823009E+02 0.  0.
        -12    1    1    2    0    0  0.33171859701E+02 -0.27986159075E+02  0.17107776358E+00  0.43400767774E+02  0.00000000000E+00 0.  1.
         11    1    3    3    0    0 -0.11102498632E+02  0.14803531419E+02  0.36855670915E+01  0.18867787983E+02  0.51100000000E-03 0.  1.
        -11    1    3    3    0    0  0.34176371535E+00 -0.11739858902E+01 -0.18646183309E+01  0.22297639087E+01  0.51100000000E-03 0. -1.
         12    1    3    3    0    0 -0.22411124785E+02  0.14356613547E+02 -0.19920265242E+01  0.26689680334E+02  0.00000000000E+00 0. -1.
</event>
<event>
 7    1  0.1899036E-009  0.4778727E+02  0.7816164E-02  0.1312668E+00
        -11   -1    0    0    0    0  0.00000000000E+00  0.00000000000E+00  0.45593999997E+02  0.45594000000E+02  0.51100000000E-03 0.  1.
         11   -1    0    0    0    0 -0.00000000000E+00 -0.00000000000E+00 -0.45593999997E+02  0.45594000000E+02  0.51100000000E-03 0. -1.
    9900012    2    1    2    0    0 -0.29778508450E+02 -0.42655702503E+01 -0.31283682273E+02  0.47787269227E+02  0.19999991714E+02 0.  0.
        -12    1    1    2    0    0  0.29778508450E+02  0.42655702503E+01  0.31283682273E+02  0.43400730773E+02  0.00000000000E+00 0.  1.
         11    1    3    3    0    0 -0.93807677265E+01 -0.63322445901E+01 -0.89420127114E+01  0.14424136587E+02  0.51100000000E-03 0. -1.
        -11    1    3    3    0    0 -0.25942977141E+01  0.10295728230E+01 -0.12872194037E+02  0.13171324170E+02  0.51100000000E-03 0.  1.
        -12    1    3    3    0    0 -0.17803443010E+02  0.10371015168E+01 -0.94694755248E+01  0.20191808470E+02  0.00000000000E+00 0.  1.
</event>
<event>
 7    1  0.1899036E-009  0.4778727E+02  0.7816164E-02  0.1312668E+00
        -11   -1    0    0    0    0  0.00000000000E+00  0.00000000000E+00  0.45593999997E+02  0.45594000000E+02  0.51100000000E-03 0. -1.
         11   -1    0    0    0    0 -0.00000000000E+00 -0.00000000000E+00 -0.45593999997E+02  0.45594000000E+02  0.51100000000E-03 0.  1.
    9900012    2    1    2    0    0 -0.42391236156E+02 -0.83111131282E+01 -0.41870991021E+01  0.47787270707E+02  0.19999998463E+02 0.  0.
        -12    1    1    2    0    0  0.42391236156E+02  0.83111131282E+01  0.41870991021E+01  0.43400729293E+02  0.00000000000E+00 0.  1.
         11    1    3    3    0    0 -0.45084394203E+01  0.78624915073E+00  0.43228482966E+01  0.62953340968E+01  0.51100000000E-03 0. -1.
        -11    1    3    3    0    0 -0.75676410162E+01 -0.47116744799E+01 -0.60269226030E+01  0.10760709237E+02  0.51100000000E-03 0.  1.
         12    1    3    3    0    0 -0.30315155719E+02 -0.43856877990E+01 -0.24830247957E+01  0.30731227374E+02  0.00000000000E+00 0. -1.
</event>
<event>
 7    1  0.1899036E-009  0.4778727E+02  0.7816164E-02  0.1312668E+00
        -11   -1    0    0    0    0  0.00000000000E+00  0.00000000000E+00  0.45593999997E+02  0.45594000000E+02  0.51100000000E-03 0.  1.
         11   -1    0    0    0    0 -0.00000000000E+00 -0.00000000000E+00 -0.45593999997E+02  0.45594000000E+02  0.51100000000E-03 0. -1.
    9900012    2    1    2    0    0 -0.50303753910E+01 -0.35326846316E+02 -0.24704907254E+02  0.47787272014E+02  0.20000004422E+02 0.  0.
        -12    1    1    2    0    0  0.50303753910E+01  0.35326846316E+02  0.24704907254E+02  0.43400727986E+02  0.00000000000E+00 0.  1.
         11    1    3    3    0    0 -0.27514236836E+01 -0.28092201326E+01  0.17105953664E+01  0.42881449146E+01  0.51100000000E-03 0. -1.
        -11    1    3    3    0    0 -0.11215181858E+00 -0.10984886349E+01  0.11870607292E+01  0.16212244593E+01  0.51100000000E-03 0.  1.
         12    1    3    3    0    0 -0.21667998889E+01 -0.31419137549E+02 -0.27602563350E+02  0.41877902640E+02  0.00000000000E+00 0. -1.
</event>
<event>
 7    1  0.1899036E-009  0.4778727E+02  0.7816164E-02  0.1312668E+00
        -11   -1    0    0    0    0  0.00000000000E+00  0.00000000000E+00  0.45593999997E+02  0.45594000000E+02  0.51100000000E-03 0.  1.
         11   -1    0    0    0    0 -0.00000000000E+00 -0.00000000000E+00 -0.45593999997E+02  0.45594000000E+02  0.51100000000E-03 0. -1.
    9900012    2    1    2    0    0  0.39753450870E+02 -0.11537868292E+02  0.13044691260E+02  0.47787271540E+02  0.20000002258E+02 0.  0.
        -12    1    1    2    0    0 -0.39753450870E+02  0.11537868292E+02 -0.13044691260E+02  0.43400728460E+02  0.00000000000E+00 0.  1.
         11    1    3    3    0    0  0.13071273437E+02 -0.58964338443E+01  0.10273156951E+01  0.14376421639E+02  0.51100000000E-03 0. -1.
        -11    1    3    3    0    0  0.18141618107E+02  0.62211404693E+00  0.10777100619E+01  0.18184245727E+02  0.51100000000E-03 0.  1.
        -12    1    3    3    0    0  0.85405593271E+01 -0.62635484946E+01  0.10939665503E+02  0.15226604174E+02  0.00000000000E+00 0.  1.
</event>
<event>
 7    1  0.1899036E-009  0.4778727E+02  0.7816164E-02  0.1312668E+00
        -11   -1    0    0    0    0  0.00000000000E+00  0.00000000000E+00  0.45593999997E+02  0.45594000000E+02  0.51100000000E-03 0. -1.
         11   -1    0    0    0    0 -0.00000000000E+00 -0.00000000000E+00 -0.45593999997E+02  0.45594000000E+02  0.51100000000E-03 0.  1.
    9900012    2    1    2    0    0  0.33670366865E+01  0.41575922223E+02 -0.11988701085E+02  0.47787271913E+02  0.20000003961E+02 0.  0.
        -12    1    1    2    0    0 -0.33670366865E+01 -0.41575922223E+02  0.11988701085E+02  0.43400728087E+02  0.00000000000E+00 0.  1.
         11    1    3    3    0    0  0.37870031608E+01  0.37712888751E+02 -0.11108102935E+02  0.39496750778E+02  0.51100000000E-03 0. -1.
        -11    1    3    3    0    0 -0.36572796615E+01  0.27819603080E+01 -0.14751294998E+01  0.48260755257E+01  0.51100000000E-03 0.  1.
        -12    1    3    3    0    0  0.32373131872E+01  0.10810731637E+01  0.59453134989E+00  0.34644456098E+01  0.00000000000E+00 0.  1.
</event>
<event>
 7    1  0.1933472E-009  0.4778727E+02  0.7816164E-02  0.1312668E+00
        -11   -1    0    0    0    0  0.00000000000E+00  0.00000000000E+00  0.45593999997E+02  0.45594000000E+02  0.51100000000E-03 0. -1.
         11   -1    0    0    0    0 -0.00000000000E+00 -0.00000000000E+00 -0.45593999997E+02  0.45594000000E+02  0.51100000000E-03 0.  1.
    9900012    2    1    2    0    0 -0.33674270212E+02  0.27123250223E+02 -0.37411096861E+01  0.47787273294E+02  0.20000010256E+02 0.  0.
        -12    1    1    2    0    0  0.33674270212E+02 -0.27123250223E+02  0.37411096861E+01  0.43400726706E+02  0.00000000000E+00 0.  1.
         11    1    3    3    0    0 -0.12521756323E+02  0.17201702589E+02 -0.62742122048E+01  0.22182396002E+02  0.51100000000E-03 0. -1.
        -11    1    3    3    0    0 -0.18619061811E+02  0.11846077592E+02  0.33481456304E+01  0.22320598031E+02  0.51100000000E-03 0.  1.
        -12    1    3    3    0    0 -0.25334520774E+01 -0.19245299575E+01 -0.81504311169E+00  0.32842792603E+01  0.00000000000E+00 0.  1.
</event>
<event>
 7    1  0.1899036E-009  0.4778727E+02  0.7816164E-02  0.1312668E+00
        -11   -1    0    0    0    0  0.00000000000E+00  0.00000000000E+00  0.45593999997E+02  0.45594000000E+02  0.51100000000E-03 0. -1.
         11   -1    0    0    0    0 -0.00000000000E+00 -0.00000000000E+00 -0.45593999997E+02  0.45594000000E+02  0.51100000000E-03 0.  1.
    9900012    2    1    2    0    0  0.13395488416E+02  0.26359317124E+02  0.31770590075E+02  0.47787273015E+02  0.20000008983E+02 0.  0.
        -12    1    1    2    0    0 -0.13395488416E+02 -0.26359317124E+02 -0.31770590075E+02  0.43400726985E+02  0.00000000000E+00 0.  1.
         11    1    3    3    0    0  0.15776382255E+02  0.14089946119E+02  0.25306126300E+02  0.32982129211E+02  0.51100000000E-03 0. -1.
        -11    1    3    3    0    0  0.12428074295E+01  0.35206493407E+01  0.27330224750E+01  0.46269811105E+01  0.51100000000E-03 0.  1.
         12    1    3    3    0    0 -0.36237012684E+01  0.87487216644E+01  0.37314412994E+01  0.10178162693E+02  0.00000000000E+00 0. -1.
</event>
<event>
 7    1  0.1899036E-009  0.4778727E+02  0.7816164E-02  0.1312668E+00
        -11   -1    0    0    0    0  0.00000000000E+00  0.00000000000E+00  0.45593999997E+02  0.45594000000E+02  0.51100000000E-03 0.  1.
         11   -1    0    0    0    0 -0.00000000000E+00 -0.00000000000E+00 -0.45593999997E+02  0.45594000000E+02  0.51100000000E-03 0. -1.
    9900012    2    1    2    0    0  0.81061527541E+01  0.27462234039E+02 -0.32615019970E+02  0.47787267996E+02  0.19999986100E+02 0.  0.
        -12    1    1    2    0    0 -0.81061527541E+01 -0.27462234039E+02  0.32615019970E+02  0.43400732004E+02  0.00000000000E+00 0.  1.
         11    1    3    3    0    0  0.36629817556E+01  0.14973993143E+02 -0.75549155876E+01  0.17167255336E+02  0.51100000000E-03 0. -1.
        -11    1    3    3    0    0 -0.17098119314E+01  0.10933167027E+02 -0.17973752464E+02  0.21107187780E+02  0.51100000000E-03 0.  1.
        -12    1    3    3    0    0  0.61529829300E+01  0.15550738683E+01 -0.70863519182E+01  0.95128248791E+01  0.00000000000E+00 0.  1.
</event>
<event>
 7    1  0.1899036E-009  0.4778727E+02  0.7816164E-02  0.1312668E+00
        -11   -1    0    0    0    0  0.00000000000E+00  0.00000000000E+00  0.45593999997E+02  0.45594000000E+02  0.51100000000E-03 0. -1.
         11   -1    0    0    0    0 -0.00000000000E+00 -0.00000000000E+00 -0.45593999997E+02  0.45594000000E+02  0.51100000000E-03 0.  1.
    9900012    2    1    2    0    0 -0.39172418562E+02 -0.15745840892E+02 -0.10060487983E+02  0.47787270745E+02  0.19999998635E+02 0.  0.
        -12    1    1    2    0    0  0.39172418562E+02  0.15745840892E+02  0.10060487983E+02  0.43400729255E+02  0.00000000000E+00 0.  1.
         11    1    3    3    0    0 -0.17892973050E+02  0.23643796681E+00 -0.15004778142E+01  0.17957333360E+02  0.51100000000E-03 0. -1.
        -11    1    3    3    0    0  0.17530421723E+00 -0.25937282481E+01 -0.29380852840E+01  0.39230731819E+01  0.51100000000E-03 0.  1.
        -12    1    3    3    0    0 -0.21454749729E+02 -0.13388550611E+02 -0.56219248848E+01  0.25906864203E+02  0.00000000000E+00 0.  1.
</event>
<event>
 7    1  0.1899036E-009  0.4778727E+02  0.7816164E-02  0.1312668E+00
        -11   -1    0    0    0    0  0.00000000000E+00  0.00000000000E+00  0.45593999997E+02  0.45594000000E+02  0.51100000000E-03 0.  1.
         11   -1    0    0    0    0 -0.00000000000E+00 -0.00000000000E+00 -0.45593999997E+02  0.45594000000E+02  0.51100000000E-03 0. -1.
    9900012    2    1    2    0    0  0.36442117810E+02 -0.20597598239E+02 -0.11460118936E+02  0.47787270401E+02  0.19999997069E+02 0.  0.
        -12    1    1    2    0    0 -0.36442117810E+02  0.20597598239E+02  0.11460118936E+02  0.43400729599E+02  0.00000000000E+00 0.  1.
         11    1    3    3    0    0  0.18295610199E+02 -0.10028683451E+02  0.29409708817E+01  0.21070195877E+02  0.51100000000E-03 0. -1.
        -11    1    3    3    0    0 -0.54747254691E+00 -0.69617924813E+00 -0.20489170747E+01  0.22321409399E+01  0.51100000000E-03 0.  1.
         12    1    3    3    0    0  0.18693980158E+02 -0.98727355402E+01 -0.12352172743E+02  0.24484933585E+02  0.00000000000E+00 0. -1.
</event>
<event>
 7    1  0.1899036E-009  0.4778732E+02  0.7816164E-02  0.1312668E+00
        -11   -1    0    0    0    0  0.00000000000E+00  0.00000000000E+00  0.45593999997E+02  0.45594000000E+02  0.51100000000E-03 0.  1.
         11   -1    0    0    0    0 -0.00000000000E+00 -0.00000000000E+00 -0.45593999997E+02  0.45594000000E+02  0.51100000000E-03 0. -1.
    9900012    2    1    2    0    0 -0.29688275580E+01 -0.21012020844E+02 -0.37858945629E+02  0.47787323495E+02  0.20000239140E+02 0.  0.
        -12    1    1    2    0    0  0.29688275580E+01  0.21012020844E+02  0.37858945629E+02  0.43400676505E+02  0.00000000000E+00 0.  1.
         11    1    3    3    0    0  0.51148395659E+00 -0.90633928451E+01 -0.12022433322E+02  0.15064714034E+02  0.51100000000E-03 0. -1.
        -11    1    3    3    0    0 -0.36259014650E+01 -0.14221126478E+02 -0.12754512515E+02  0.19443898516E+02  0.51100000000E-03 0.  1.
         12    1    3    3    0    0  0.14558995037E+00  0.22724984796E+01 -0.13081999793E+02  0.13278710945E+02  0.00000000000E+00 0. -1.
</event>
<event>
 7    1  0.1899036E-009  0.4778726E+02  0.7816164E-02  0.1312668E+00
        -11   -1    0    0    0    0  0.00000000000E+00  0.00000000000E+00  0.45593999997E+02  0.45594000000E+02  0.51100000000E-03 0.  1.
         11   -1    0    0    0    0 -0.00000000000E+00 -0.00000000000E+00 -0.45593999997E+02  0.45594000000E+02  0.51100000000E-03 0. -1.
    9900012    2    1    2    0    0  0.20966651967E+02 -0.15487070266E+02 -0.34701219945E+02  0.47787256852E+02  0.19999935291E+02 0.  0.
        -12    1    1    2    0    0 -0.20966651967E+02  0.15487070266E+02  0.34701219945E+02  0.43400743148E+02  0.00000000000E+00 0.  1.
         11    1    3    3    0    0  0.18154930474E+02 -0.35358466655E+01 -0.20400815768E+02  0.27537192966E+02  0.51100000000E-03 0. -1.
        -11    1    3    3    0    0 -0.16142610121E+01 -0.48221349879E+00 -0.35075363823E+01  0.38911669468E+01  0.51100000000E-03 0.  1.
        -12    1    3    3    0    0  0.44259825049E+01 -0.11469010102E+02 -0.10792867794E+02  0.16358896939E+02  0.00000000000E+00 0.  1.
</event>
<event>
 7    1  0.1899036E-009  0.4778727E+02  0.7816164E-02  0.1312668E+00
        -11   -1    0    0    0    0  0.00000000000E+00  0.00000000000E+00  0.45593999997E+02  0.45594000000E+02  0.51100000000E-03 0. -1.
         11   -1    0    0    0    0 -0.00000000000E+00 -0.00000000000E+00 -0.45593999997E+02  0.45594000000E+02  0.51100000000E-03 0.  1.
    9900012    2    1    2    0    0  0.10107997683E+02  0.38779160950E+02  0.16662183418E+02  0.47787270773E+02  0.19999998763E+02 0.  0.
        -12    1    1    2    0    0 -0.10107997683E+02 -0.38779160950E+02 -0.16662183418E+02  0.43400729227E+02  0.00000000000E+00 0.  1.
         11    1    3    3    0    0 -0.49927387172E+00  0.12823268192E+02  0.43508900103E+01  0.13550488023E+02  0.51100000000E-03 0. -1.
        -11    1    3    3    0    0  0.37670071929E+01  0.22358747753E+02  0.42489829345E+01  0.23068545696E+02  0.51100000000E-03 0.  1.
         12    1    3    3    0    0  0.68402643618E+01  0.35971450049E+01  0.80623104734E+01  0.11168237054E+02  0.00000000000E+00 0. -1.
</event>
<event>
 7    1  0.1899036E-009  0.4778727E+02  0.7816164E-02  0.1312668E+00
        -11   -1    0    0    0    0  0.00000000000E+00  0.00000000000E+00  0.45593999997E+02  0.45594000000E+02  0.51100000000E-03 0.  1.
         11   -1    0    0    0    0 -0.00000000000E+00 -0.00000000000E+00 -0.45593999997E+02  0.45594000000E+02  0.51100000000E-03 0. -1.
    9900012    2    1    2    0    0  0.67427970817E+01  0.22979494068E+02 -0.36195312287E+02  0.47787273144E+02  0.20000009573E+02 0.  0.
        -12    1    1    2    0    0 -0.67427970817E+01 -0.22979494068E+02  0.36195312287E+02  0.43400726856E+02  0.00000000000E+00 0.  1.
         11    1    3    3    0    0 -0.33845856883E+01  0.72822185923E+01 -0.10807644836E+02  0.13464446333E+02  0.51100000000E-03 0. -1.
        -11    1    3    3    0    0 -0.11609691432E+01 -0.16815371500E+01 -0.42796807466E+01  0.47424765779E+01  0.51100000000E-03 0.  1.
         12    1    3    3    0    0  0.11288351913E+02  0.17378812626E+02 -0.21107986704E+02  0.29580350233E+02  0.00000000000E+00 0. -1.
</event>
<event>
 7    1  0.1899036E-009  0.4778728E+02  0.7816164E-02  0.1312668E+00
        -11   -1    0    0    0    0  0.00000000000E+00  0.00000000000E+00  0.45593999997E+02  0.45594000000E+02  0.51100000000E-03 0.  1.
         11   -1    0    0    0    0 -0.00000000000E+00 -0.00000000000E+00 -0.45593999997E+02  0.45594000000E+02  0.51100000000E-03 0. -1.
    9900012    2    1    2    0    0 -0.27698555813E+02 -0.29074330757E+02 -0.16464982454E+02  0.47787281684E+02  0.20000048512E+02 0.  0.
        -12    1    1    2    0    0  0.27698555813E+02  0.29074330757E+02  0.16464982454E+02  0.43400718316E+02  0.00000000000E+00 0.  1.
         11    1    3    3    0    0  0.46490674087E+00 -0.19976848695E+01 -0.49082357725E+01  0.53195546594E+01  0.51100000000E-03 0. -1.
        -11    1    3    3    0    0 -0.90707123323E+01 -0.15927943429E+02 -0.22049099955E+01  0.18461820940E+02  0.51100000000E-03 0.  1.
         12    1    3    3    0    0 -0.19092750222E+02 -0.11148702458E+02 -0.93518366863E+01  0.24005906085E+02  0.00000000000E+00 0. -1.
</event>
<event>
 7    1  0.1899036E-009  0.4778727E+02  0.7816164E-02  0.1312668E+00
        -11   -1    0    0    0    0  0.00000000000E+00  0.00000000000E+00  0.45593999997E+02  0.45594000000E+02  0.51100000000E-03 0. -1.
         11   -1    0    0    0    0 -0.00000000000E+00 -0.00000000000E+00 -0.45593999997E+02  0.45594000000E+02  0.51100000000E-03 0.  1.
    9900012    2    1    2    0    0 -0.43388595337E+02 -0.78408339202E+00 -0.66199651963E+00  0.47787271533E+02  0.20000002226E+02 0.  0.
        -12    1    1    2    0    0  0.43388595337E+02  0.78408339202E+00  0.66199651963E+00  0.43400728467E+02  0.00000000000E+00 0.  1.
         11    1    3    3    0    0 -0.16915872526E+02  0.69040084802E+01  0.26292953601E+01  0.18458745103E+02  0.51100000000E-03 0. -1.
        -11    1    3    3    0    0 -0.57668945793E+01 -0.49188234853E+01  0.18766923459E+01  0.78085768224E+01  0.51100000000E-03 0.  1.
        -12    1    3    3    0    0 -0.20705828231E+02 -0.27692683869E+01 -0.51679842256E+01  0.21519949607E+02  0.00000000000E+00 0.  1.
</event>
<event>
 7    1  0.1899036E-009  0.4778728E+02  0.7816164E-02  0.1312668E+00
        -11   -1    0    0    0    0  0.00000000000E+00  0.00000000000E+00  0.45593999997E+02  0.45594000000E+02  0.51100000000E-03 0. -1.
         11   -1    0    0    0    0 -0.00000000000E+00 -0.00000000000E+00 -0.45593999997E+02  0.45594000000E+02  0.51100000000E-03 0.  1.
    9900012    2    1    2    0    0  0.28936579407E+02  0.19834905353E+01  0.32285644777E+02  0.47787277412E+02  0.20000029034E+02 0.  0.
        -12    1    1    2    0    0 -0.28936579407E+02 -0.19834905353E+01 -0.32285644777E+02  0.43400722588E+02  0.00000000000E+00 0.  1.
         11    1    3    3    0    0  0.15693404744E+02  0.28226604628E+00  0.15512654471E+02  0.22068191488E+02  0.51100000000E-03 0. -1.
        -11    1    3    3    0    0  0.87565314990E+00  0.62078877113E+01  0.44515496205E+01  0.76890137573E+01  0.51100000000E-03 0.  1.
        -12    1    3    3    0    0  0.12367521513E+02 -0.45066632223E+01  0.12321440686E+02  0.18030072167E+02  0.00000000000E+00 0.  1.
</event>
<event>
 7    1  0.1899036E-009  0.4778727E+02  0.7816164E-02  0.1312668E+00
        -11   -1    0    0    0    0  0.00000000000E+00  0.00000000000E+00  0.45593999997E+02  0.45594000000E+02  0.51100000000E-03 0. -1.
         11   -1    0    0    0    0 -0.00000000000E+00 -0.00000000000E+00 -0.45593999997E+02  0.45594000000E+02  0.51100000000E-03 0.  1.
    9900012    2    1    2    0    0 -0.98194176441E+01  0.41728288249E+02  0.67788212971E+01  0.47787269347E+02  0.19999992260E+02 0.  0.
        -12    1    1    2    0    0  0.98194176441E+01 -0.41728288249E+02 -0.67788212971E+01  0.43400730653E+02  0.00000000000E+00 0.  1.
         11    1    3    3    0    0 -0.12058121538E+02  0.24256159842E+02  0.39448316264E+01  0.27373733435E+02  0.51100000000E-03 0. -1.
        -11    1    3    3    0    0 -0.31132128053E+01  0.30138140215E+01  0.24796980691E+01  0.49924013964E+01  0.51100000000E-03 0.  1.
        -12    1    3    3    0    0  0.53519166995E+01  0.14458314385E+02  0.35429160159E+00  0.15421134516E+02  0.00000000000E+00 0.  1.
</event>
<event>
 7    1  0.1899036E-009  0.4778726E+02  0.7816164E-02  0.1312668E+00
        -11   -1    0    0    0    0  0.00000000000E+00  0.00000000000E+00  0.45593999997E+02  0.45594000000E+02  0.51100000000E-03 0.  1.
         11   -1    0    0    0    0 -0.00000000000E+00 -0.00000000000E+00 -0.45593999997E+02  0.45594000000E+02  0.51100000000E-03 0. -1.
    9900012    2    1    2    0    0 -0.35740767187E+02  0.24337265147E+02 -0.37308430306E+01  0.47787261485E+02  0.19999956415E+02 0.  0.
        -12    1    1    2    0    0  0.35740767187E+02 -0.24337265147E+02  0.37308430306E+01  0.43400738515E+02  0.00000000000E+00 0.  1.
         11    1    3    3    0    0 -0.10429127360E+01 -0.26679351788E+00  0.20957863159E+01  0.23560913180E+01  0.51100000000E-03 0.  1.
        -11    1    3    3    0    0 -0.18249581152E+02  0.14627467936E+02 -0.10495594907E+02  0.25635279268E+02  0.51100000000E-03 0. -1.
         12    1    3    3    0    0 -0.16448273299E+02  0.99765907293E+01  0.46689655603E+01  0.19795890899E+02  0.00000000000E+00 0. -1.
</event>
<event>
 7    1  0.1899036E-009  0.4778728E+02  0.7816164E-02  0.1312668E+00
        -11   -1    0    0    0    0  0.00000000000E+00  0.00000000000E+00  0.45593999997E+02  0.45594000000E+02  0.51100000000E-03 0.  1.
         11   -1    0    0    0    0 -0.00000000000E+00 -0.00000000000E+00 -0.45593999997E+02  0.45594000000E+02  0.51100000000E-03 0. -1.
    9900012    2    1    2    0    0 -0.26518199199E+02  0.31684222902E+02  0.13286003485E+02  0.47787276984E+02  0.20000027082E+02 0.  0.
        -12    1    1    2    0    0  0.26518199199E+02 -0.31684222902E+02 -0.13286003485E+02  0.43400723016E+02  0.00000000000E+00 0.  1.
         11    1    3    3    0    0 -0.40888530818E+01 -0.13398634508E+01  0.11665548037E+00  0.43043654995E+01  0.51100000000E-03 0. -1.
        -11    1    3    3    0    0 -0.40883504984E+01  0.66990520131E+01  0.75886189507E+01  0.10916915568E+02  0.51100000000E-03 0.  1.
         12    1    3    3    0    0 -0.18340995619E+02  0.26325034340E+02  0.55807290544E+01  0.32565995917E+02  0.00000000000E+00 0. -1.
</event>
<event>
 7    1  0.1899036E-009  0.4778728E+02  0.7816164E-02  0.1312668E+00
        -11   -1    0    0    0    0  0.00000000000E+00  0.00000000000E+00  0.45593999997E+02  0.45594000000E+02  0.51100000000E-03 0.  1.
         11   -1    0    0    0    0 -0.00000000000E+00 -0.00000000000E+00 -0.45593999997E+02  0.45594000000E+02  0.51100000000E-03 0. -1.
    9900012    2    1    2    0    0 -0.16413377955E+01  0.36763306424E+02 -0.23008438429E+02  0.47787275030E+02  0.20000018171E+02 0.  0.
        -12    1    1    2    0    0  0.16413377955E+01 -0.36763306424E+02  0.23008438429E+02  0.43400724970E+02  0.00000000000E+00 0.  1.
         11    1    3    3    0    0 -0.28907623417E+01  0.13318167043E+02 -0.16990338336E+01  0.13733783038E+02  0.51100000000E-03 0. -1.
        -11    1    3    3    0    0  0.28975191667E+01  0.13971375394E+02 -0.19667520337E+02  0.24298277803E+02  0.51100000000E-03 0.  1.
        -12    1    3    3    0    0 -0.16480946205E+01  0.94737639866E+01 -0.16418842586E+01  0.97552141888E+01  0.00000000000E+00 0.  1.
</event>
<event>
 7    1  0.1899036E-009  0.4778727E+02  0.7816164E-02  0.1312668E+00
        -11   -1    0    0    0    0  0.00000000000E+00  0.00000000000E+00  0.45593999997E+02  0.45594000000E+02  0.51100000000E-03 0.  1.
         11   -1    0    0    0    0 -0.00000000000E+00 -0.00000000000E+00 -0.45593999997E+02  0.45594000000E+02  0.51100000000E-03 0. -1.
    9900012    2    1    2    0    0 -0.15802408655E+02  0.10230165567E+02 -0.39105634817E+02  0.47787273263E+02  0.20000010117E+02 0.  0.
        -12    1    1    2    0    0  0.15802408655E+02 -0.10230165567E+02  0.39105634817E+02  0.43400726737E+02  0.00000000000E+00 0.  1.
         11    1    3    3    0    0  0.48300988629E+00  0.48723643896E+01 -0.83395108398E+01  0.96706088021E+01  0.51100000000E-03 0. -1.
        -11    1    3    3    0    0 -0.84818568494E+01 -0.11663753832E+00 -0.34013960906E+01  0.91392010349E+01  0.51100000000E-03 0.  1.
         12    1    3    3    0    0 -0.78035616919E+01  0.54744387153E+01 -0.27364727887E+02  0.28977463426E+02  0.00000000000E+00 0. -1.
</event>
<event>
 7    1  0.1899036E-009  0.4778726E+02  0.7816164E-02  0.1312668E+00
        -11   -1    0    0    0    0  0.00000000000E+00  0.00000000000E+00  0.45593999997E+02  0.45594000000E+02  0.51100000000E-03 0. -1.
         11   -1    0    0    0    0 -0.00000000000E+00 -0.00000000000E+00 -0.45593999997E+02  0.45594000000E+02  0.51100000000E-03 0.  1.
    9900012    2    1    2    0    0  0.32319990576E+02  0.27856962414E+02  0.79392542562E+01  0.47787263786E+02  0.19999966906E+02 0.  0.
        -12    1    1    2    0    0 -0.32319990576E+02 -0.27856962414E+02 -0.79392542562E+01  0.43400736214E+02  0.00000000000E+00 0.  1.
         11    1    3    3    0    0  0.16475343468E+02  0.11088250390E+02  0.65723746060E+01  0.20918469048E+02  0.51100000000E-03 0. -1.
        -11    1    3    3    0    0  0.28777163720E+01  0.64201517153E+01 -0.54833202247E+01  0.89200000287E+01  0.51100000000E-03 0.  1.
        -12    1    3    3    0    0  0.12966930736E+02  0.10348560309E+02  0.68501998749E+01  0.17948794709E+02  0.00000000000E+00 0.  1.
</event>
<event>
 7    1  0.1899036E-009  0.4778728E+02  0.7816164E-02  0.1312668E+00
        -11   -1    0    0    0    0  0.00000000000E+00  0.00000000000E+00  0.45593999997E+02  0.45594000000E+02  0.51100000000E-03 0. -1.
         11   -1    0    0    0    0 -0.00000000000E+00 -0.00000000000E+00 -0.45593999997E+02  0.45594000000E+02  0.51100000000E-03 0.  1.
    9900012    2    1    2    0    0  0.20645483128E+02 -0.12133007011E+02  0.36196367245E+02  0.47787276107E+02  0.20000023082E+02 0.  0.
        -12    1    1    2    0    0 -0.20645483128E+02  0.12133007011E+02 -0.36196367245E+02  0.43400723893E+02  0.00000000000E+00 0.  1.
         11    1    3    3    0    0  0.12794328352E-01 -0.39101762623E+01  0.48687219348E+01  0.62445252531E+01  0.51100000000E-03 0. -1.
        -11    1    3    3    0    0  0.17968855858E+02 -0.62506346251E+00  0.15307900227E+02  0.23613604019E+02  0.51100000000E-03 0.  1.
        -12    1    3    3    0    0  0.26638329414E+01 -0.75977672857E+01  0.16019745084E+02  0.17929146835E+02  0.00000000000E+00 0.  1.
</event>
<event>
 7    1  0.1899036E-009  0.4778727E+02  0.7816164E-02  0.1312668E+00
        -11   -1    0    0    0    0  0.00000000000E+00  0.00000000000E+00  0.45593999997E+02  0.45594000000E+02  0.51100000000E-03 0.  1.
         11   -1    0    0    0    0 -0.00000000000E+00 -0.00000000000E+00 -0.45593999997E+02  0.45594000000E+02  0.51100000000E-03 0. -1.
    9900012    2    1    2    0    0 -0.34891964491E+01  0.41224575066E+02 -0.13114230419E+02  0.47787272809E+02  0.20000008046E+02 0.  0.
        -12    1    1    2    0    0  0.34891964491E+01 -0.41224575066E+02  0.13114230419E+02  0.43400727191E+02  0.00000000000E+00 0.  1.
         11    1    3    3    0    0  0.42895731072E+01  0.12087730065E+02 -0.27013962000E+01  0.13107677035E+02  0.51100000000E-03 0. -1.
        -11    1    3    3    0    0  0.29148111578E+01  0.27234319679E+01  0.77919730991E+00  0.40645238932E+01  0.51100000000E-03 0.  1.
         12    1    3    3    0    0 -0.10693580714E+02  0.26413413032E+02 -0.11192031529E+02  0.30615071881E+02  0.00000000000E+00 0. -1.
</event>
<event>
 7    1  0.1899036E-009  0.4778727E+02  0.7816164E-02  0.1312668E+00
        -11   -1    0    0    0    0  0.00000000000E+00  0.00000000000E+00  0.45593999997E+02  0.45594000000E+02  0.51100000000E-03 0.  1.
         11   -1    0    0    0    0 -0.00000000000E+00 -0.00000000000E+00 -0.45593999997E+02  0.45594000000E+02  0.51100000000E-03 0. -1.
    9900012    2    1    2    0    0  0.17667772911E+02 -0.36794303293E+02 -0.14753051335E+02  0.47787268691E+02  0.19999989270E+02 0.  0.
        -12    1    1    2    0    0 -0.17667772911E+02  0.36794303293E+02  0.14753051335E+02  0.43400731309E+02  0.00000000000E+00 0.  1.
         11    1    3    3    0    0  0.10504439374E+02 -0.18961312692E+02 -0.74093981313E+01  0.22907941997E+02  0.51100000000E-03 0. -1.
        -11    1    3    3    0    0  0.13306745149E+01  0.10396675528E+01 -0.46449976994E+01  0.49424292785E+01  0.51100000000E-03 0.  1.
        -12    1    3    3    0    0  0.58326590214E+01 -0.18872658154E+02 -0.26986555043E+01  0.19936897416E+02  0.00000000000E+00 0.  1.
</event>
<event>
 7    1  0.1899036E-009  0.4778728E+02  0.7816164E-02  0.1312668E+00
        -11   -1    0    0    0    0  0.00000000000E+00  0.00000000000E+00  0.45593999997E+02  0.45594000000E+02  0.51100000000E-03 0. -1.
         11   -1    0    0    0    0 -0.00000000000E+00 -0.00000000000E+00 -0.45593999997E+02  0.45594000000E+02  0.51100000000E-03 0.  1.
    9900012    2    1    2    0    0  0.33322415114E+02 -0.17975367102E+02  0.21216156743E+02  0.47787280208E+02  0.20000041782E+02 0.  0.
        -12    1    1    2    0    0 -0.33322415114E+02  0.17975367102E+02 -0.21216156743E+02  0.43400719792E+02  0.00000000000E+00 0.  1.
         11    1    3    3    0    0  0.71943521223E+01 -0.24028033456E+01  0.10959493453E+02  0.13328265580E+02  0.51100000000E-03 0. -1.
        -11    1    3    3    0    0  0.16944808226E+02 -0.28583640356E+01  0.46378152693E+01  0.17799047769E+02  0.51100000000E-03 0.  1.
         12    1    3    3    0    0  0.91832547664E+01 -0.12714199721E+02  0.56188480205E+01  0.16659966859E+02  0.00000000000E+00 0. -1.
</event>
<event>
 7    1  0.1899036E-009  0.4778727E+02  0.7816164E-02  0.1312668E+00
        -11   -1    0    0    0    0  0.00000000000E+00  0.00000000000E+00  0.45593999997E+02  0.45594000000E+02  0.51100000000E-03 0.  1.
         11   -1    0    0    0    0 -0.00000000000E+00 -0.00000000000E+00 -0.45593999997E+02  0.45594000000E+02  0.51100000000E-03 0. -1.
    9900012    2    1    2    0    0  0.28919191640E+02  0.18276315352E+01 -0.32310421651E+02  0.47787271557E+02  0.20000002337E+02 0.  0.
        -12    1    1    2    0    0 -0.28919191640E+02 -0.18276315352E+01  0.32310421651E+02  0.43400728443E+02  0.00000000000E+00 0.  1.
         11    1    3    3    0    0  0.23708880772E+02  0.83806485395E+01 -0.25169190532E+02  0.35578567280E+02  0.51100000000E-03 0. -1.
        -11    1    3    3    0    0 -0.10727550117E+01 -0.56290550258E+00 -0.70082408202E+00  0.13995787134E+01  0.51100000000E-03 0.  1.
         12    1    3    3    0    0  0.62830658797E+01 -0.59901115018E+01 -0.64404070367E+01  0.10809125564E+02  0.00000000000E+00 0. -1.
</event>
<event>
 7    1  0.1899036E-009  0.4778727E+02  0.7816164E-02  0.1312668E+00
        -11   -1    0    0    0    0  0.00000000000E+00  0.00000000000E+00  0.45593999997E+02  0.45594000000E+02  0.51100000000E-03 0.  1.
         11   -1    0    0    0    0 -0.00000000000E+00 -0.00000000000E+00 -0.45593999997E+02  0.45594000000E+02  0.51100000000E-03 0. -1.
    9900012    2    1    2    0    0  0.88960474670E+01 -0.21934271380E+02 -0.36378170715E+02  0.47787271595E+02  0.20000002510E+02 0.  0.
        -12    1    1    2    0    0 -0.88960474670E+01  0.21934271380E+02  0.36378170715E+02  0.43400728405E+02  0.00000000000E+00 0.  1.
         11    1    3    3    0    0  0.14166504892E+01 -0.23558114469E+01 -0.33369890057E+01  0.43234525633E+01  0.51100000000E-03 0. -1.
        -11    1    3    3    0    0 -0.31227462387E+01 -0.16659337902E+02 -0.16921030174E+02  0.23950080288E+02  0.51100000000E-03 0.  1.
        -12    1    3    3    0    0  0.10602143217E+02 -0.29191220314E+01 -0.16120151536E+02  0.19513738744E+02  0.00000000000E+00 0.  1.
</event>
<event>
 7    1  0.1899036E-009  0.4778727E+02  0.7816164E-02  0.1312668E+00
        -11   -1    0    0    0    0  0.00000000000E+00  0.00000000000E+00  0.45593999997E+02  0.45594000000E+02  0.51100000000E-03 0.  1.
         11   -1    0    0    0    0 -0.00000000000E+00 -0.00000000000E+00 -0.45593999997E+02  0.45594000000E+02  0.51100000000E-03 0. -1.
    9900012    2    1    2    0    0  0.22062646507E+02 -0.22832326498E+01 -0.37304826773E+02  0.47787267025E+02  0.19999981675E+02 0.  0.
        -12    1    1    2    0    0 -0.22062646507E+02  0.22832326498E+01  0.37304826773E+02  0.43400732975E+02  0.00000000000E+00 0.  1.
         11    1    3    3    0    0  0.12043012827E+02  0.33446161357E+01 -0.17626268999E+02  0.21608007176E+02  0.51100000000E-03 0. -1.
        -11    1    3    3    0    0  0.84274094804E+01  0.58987294997E+00 -0.17445817250E+02  0.19383645695E+02  0.51100000000E-03 0.  1.
        -12    1    3    3    0    0  0.15922241993E+01 -0.62177217355E+01 -0.22327405235E+01  0.67956141537E+01  0.00000000000E+00 0.  1.
</event>
<event>
 7    1  0.1899036E-009  0.4778727E+02  0.7816164E-02  0.1312668E+00
        -11   -1    0    0    0    0  0.00000000000E+00  0.00000000000E+00  0.45593999997E+02  0.45594000000E+02  0.51100000000E-03 0.  1.
         11   -1    0    0    0    0 -0.00000000000E+00 -0.00000000000E+00 -0.45593999997E+02  0.45594000000E+02  0.51100000000E-03 0. -1.
    9900012    2    1    2    0    0 -0.41329954789E+02  0.10262713685E+02  0.83746484960E+01  0.47787271982E+02  0.20000004275E+02 0.  0.
        -12    1    1    2    0    0  0.41329954789E+02 -0.10262713685E+02 -0.83746484960E+01  0.43400728018E+02  0.00000000000E+00 0.  1.
         11    1    3    3    0    0 -0.25536158599E+02  0.47663324543E+01  0.45523885970E+01  0.26373046151E+02  0.51100000000E-03 0. -1.
        -11    1    3    3    0    0 -0.44373297606E+01 -0.18542047895E+01 -0.35784179222E+01  0.59944178944E+01  0.51100000000E-03 0.  1.
        -12    1    3    3    0    0 -0.11356466429E+02  0.73505860203E+01  0.74006778212E+01  0.15419807937E+02  0.00000000000E+00 0.  1.
</event>
<event>
 7    1  0.1899036E-009  0.4778727E+02  0.7816164E-02  0.1312668E+00
        -11   -1    0    0    0    0  0.00000000000E+00  0.00000000000E+00  0.45593999997E+02  0.45594000000E+02  0.51100000000E-03 0.  1.
         11   -1    0    0    0    0 -0.00000000000E+00 -0.00000000000E+00 -0.45593999997E+02  0.45594000000E+02  0.51100000000E-03 0. -1.
    9900012    2    1    2    0    0 -0.49306897497E+01 -0.29380932740E+02 -0.31560616498E+02  0.47787269317E+02  0.19999992124E+02 0.  0.
        -12    1    1    2    0    0  0.49306897497E+01  0.29380932740E+02  0.31560616498E+02  0.43400730683E+02  0.00000000000E+00 0.  1.
         11    1    3    3    0    0 -0.70772690493E+01 -0.21762311419E+02 -0.23726983222E+02  0.32964460690E+02  0.51100000000E-03 0. -1.
        -11    1    3    3    0    0  0.75256202394E+00 -0.87659448620E+01 -0.24330192157E+01  0.91284019241E+01  0.51100000000E-03 0.  1.
         12    1    3    3    0    0  0.13940172756E+01  0.11473235407E+01 -0.54006140602E+01  0.56944067030E+01  0.00000000000E+00 0. -1.
</event>
<event>
 7    1  0.2791605E-009  0.4778727E+02  0.7816164E-02  0.1312668E+00
        -11   -1    0    0    0    0  0.00000000000E+00  0.00000000000E+00  0.45593999997E+02  0.45594000000E+02  0.51100000000E-03 0. -1.
         11   -1    0    0    0    0 -0.00000000000E+00 -0.00000000000E+00 -0.45593999997E+02  0.45594000000E+02  0.51100000000E-03 0.  1.
    9900012    2    1    2    0    0 -0.15784228735E+02  0.93223034003E+01  0.39339242079E+02  0.47787272071E+02  0.20000004680E+02 0.  0.
        -12    1    1    2    0    0  0.15784228735E+02 -0.93223034003E+01 -0.39339242079E+02  0.43400727929E+02  0.00000000000E+00 0.  1.
         11    1    3    3    0    0 -0.69856201151E+01  0.47385453418E+01  0.12363495533E+02  0.14970261267E+02  0.51100000000E-03 0. -1.
        -11    1    3    3    0    0  0.82676996962E+00 -0.13796525261E+01 -0.14834142321E+01  0.21880374129E+01  0.51100000000E-03 0.  1.
        -12    1    3    3    0    0 -0.96253785896E+01  0.59634105845E+01  0.28459160777E+02  0.30628973390E+02  0.00000000000E+00 0.  1.
</event>
<event>
 7    1  0.1899036E-009  0.4778727E+02  0.7816164E-02  0.1312668E+00
        -11   -1    0    0    0    0  0.00000000000E+00  0.00000000000E+00  0.45593999997E+02  0.45594000000E+02  0.51100000000E-03 0. -1.
         11   -1    0    0    0    0 -0.00000000000E+00 -0.00000000000E+00 -0.45593999997E+02  0.45594000000E+02  0.51100000000E-03 0.  1.
    9900012    2    1    2    0    0 -0.34531336646E+01  0.41265989611E+02 -0.12992980356E+02  0.47787267642E+02  0.19999984488E+02 0.  0.
        -12    1    1    2    0    0  0.34531336646E+01 -0.41265989611E+02  0.12992980356E+02  0.43400732358E+02  0.00000000000E+00 0.  1.
         11    1    3    3    0    0 -0.40688464032E+01  0.19522919255E+02  0.19394358592E+01  0.20036499171E+02  0.51100000000E-03 0. -1.
        -11    1    3    3    0    0  0.25619319188E+00  0.15835544165E+01 -0.50456475752E+01  0.52945102942E+01  0.51100000000E-03 0.  1.
        -12    1    3    3    0    0  0.35951954672E+00  0.20159515939E+02 -0.98867686396E+01  0.22456258177E+02  0.00000000000E+00 0.  1.
</event>
<event>
 7    1  0.1899036E-009  0.4778727E+02  0.7816164E-02  0.1312668E+00
        -11   -1    0    0    0    0  0.00000000000E+00  0.00000000000E+00  0.45593999997E+02  0.45594000000E+02  0.51100000000E-03 0.  1.
         11   -1    0    0    0    0 -0.00000000000E+00 -0.00000000000E+00 -0.45593999997E+02  0.45594000000E+02  0.51100000000E-03 0. -1.
    9900012    2    1    2    0    0  0.19712004369E+02  0.35053897097E+02 -0.16318222060E+02  0.47787272021E+02  0.20000004451E+02 0.  0.
        -12    1    1    2    0    0 -0.19712004369E+02 -0.35053897097E+02  0.16318222060E+02  0.43400727979E+02  0.00000000000E+00 0.  1.
         11    1    3    3    0    0  0.46781354111E+01  0.15899128924E+02 -0.95958815133E+01  0.19150670843E+02  0.51100000000E-03 0. -1.
        -11    1    3    3    0    0  0.91905673566E+01  0.13533134445E+02  0.22845004541E+01  0.16517602697E+02  0.51100000000E-03 0.  1.
         12    1    3    3    0    0  0.58433016011E+01  0.56216337283E+01 -0.90068410007E+01  0.12118998481E+02  0.00000000000E+00 0. -1.
</event>
<event>
 7    1  0.1899036E-009  0.4778727E+02  0.7816164E-02  0.1312668E+00
        -11   -1    0    0    0    0  0.00000000000E+00  0.00000000000E+00  0.45593999997E+02  0.45594000000E+02  0.51100000000E-03 0.  1.
         11   -1    0    0    0    0 -0.00000000000E+00 -0.00000000000E+00 -0.45593999997E+02  0.45594000000E+02  0.51100000000E-03 0. -1.
    9900012    2    1    2    0    0  0.60506482174E+00  0.15893479317E+02 -0.40381366499E+02  0.47787267880E+02  0.19999985572E+02 0.  0.
        -12    1    1    2    0    0 -0.60506482174E+00 -0.15893479317E+02  0.40381366499E+02  0.43400732120E+02  0.00000000000E+00 0.  1.
         11    1    3    3    0    0 -0.48156610524E+01  0.10412650280E+01 -0.59933599007E+01  0.77585557542E+01  0.51100000000E-03 0.  1.
        -11    1    3    3    0    0  0.32532563809E+01  0.12277898120E+02 -0.34392984984E+02  0.36663440587E+02  0.51100000000E-03 0. -1.
         12    1    3    3    0    0  0.21674694933E+01  0.25743161690E+01  0.49783859657E-02  0.33652715383E+01  0.00000000000E+00 0. -1.
</event>
<event>
 7    1  0.1899036E-009  0.4778728E+02  0.7816164E-02  0.1312668E+00
        -11   -1    0    0    0    0  0.00000000000E+00  0.00000000000E+00  0.45593999997E+02  0.45594000000E+02  0.51100000000E-03 0. -1.
         11   -1    0    0    0    0 -0.00000000000E+00 -0.00000000000E+00 -0.45593999997E+02  0.45594000000E+02  0.51100000000E-03 0.  1.
    9900012    2    1    2    0    0  0.34385221027E+02  0.20315715021E+02  0.16986785920E+02  0.47787278834E+02  0.20000035513E+02 0.  0.
        -12    1    1    2    0    0 -0.34385221027E+02 -0.20315715021E+02 -0.16986785920E+02  0.43400721166E+02  0.00000000000E+00 0.  1.
         11    1    3    3    0    0  0.16599299790E+02  0.42628220415E+01  0.10396733134E+02  0.20044961097E+02  0.51100000000E-03 0. -1.
        -11    1    3    3    0    0  0.17178204161E+01 -0.56801670140E+00 -0.23414576767E+01  0.29590495548E+01  0.51100000000E-03 0.  1.
         12    1    3    3    0    0  0.16068100821E+02  0.16620909681E+02  0.89315104634E+01  0.24783268182E+02  0.00000000000E+00 0. -1.
</event>
<event>
 7    1  0.1899036E-009  0.4778726E+02  0.7816164E-02  0.1312668E+00
        -11   -1    0    0    0    0  0.00000000000E+00  0.00000000000E+00  0.45593999997E+02  0.45594000000E+02  0.51100000000E-03 0.  1.
         11   -1    0    0    0    0 -0.00000000000E+00 -0.00000000000E+00 -0.45593999997E+02  0.45594000000E+02  0.51100000000E-03 0. -1.
    9900012    2    1    2    0    0  0.33641522420E+02 -0.50341927244E+01 -0.26954201898E+02  0.47787261215E+02  0.19999955184E+02 0.  0.
        -12    1    1    2    0    0 -0.33641522420E+02  0.50341927244E+01  0.26954201898E+02  0.43400738785E+02  0.00000000000E+00 0.  1.
         11    1    3    3    0    0  0.21127735463E+02 -0.19404098031E+01 -0.14796254194E+02  0.25866494436E+02  0.51100000000E-03 0. -1.
        -11    1    3    3    0    0  0.67245731616E+01 -0.48900466895E+01  0.23412386137E-01  0.83146250205E+01  0.51100000000E-03 0.  1.
        -12    1    3    3    0    0  0.57892137953E+01  0.17962637682E+01 -0.12181360091E+02  0.13606141759E+02  0.00000000000E+00 0.  1.
</event>
<event>
 7    1  0.1899036E-009  0.4778729E+02  0.7816164E-02  0.1312668E+00
        -11   -1    0    0    0    0  0.00000000000E+00  0.00000000000E+00  0.45593999997E+02  0.45594000000E+02  0.51100000000E-03 0. -1.
         11   -1    0    0    0    0 -0.00000000000E+00 -0.00000000000E+00 -0.45593999997E+02  0.45594000000E+02  0.51100000000E-03 0.  1.
    9900012    2    1    2    0    0  0.20394698364E+02 -0.38265368913E+02 -0.18546385651E+01  0.47787287291E+02  0.20000074076E+02 0.  0.
        -12    1    1    2    0    0 -0.20394698364E+02  0.38265368913E+02  0.18546385651E+01  0.43400712709E+02  0.00000000000E+00 0.  1.
         11    1    3    3    0    0  0.51284423321E+01 -0.19011512005E+01  0.16997275678E+01  0.57275099918E+01  0.51100000000E-03 0. -1.
        -11    1    3    3    0    0  0.56870023942E+01 -0.47040824956E+01  0.36088096430E+01  0.82154668558E+01  0.51100000000E-03 0.  1.
         12    1    3    3    0    0  0.95792536379E+01 -0.31660135217E+02 -0.71631757759E+01  0.33844310444E+02  0.00000000000E+00 0. -1.
</event>
<event>
 7    1  0.1899036E-009  0.4778732E+02  0.7816164E-02  0.1312668E+00
        -11   -1    0    0    0    0  0.00000000000E+00  0.00000000000E+00  0.45593999997E+02  0.45594000000E+02  0.51100000000E-03 0.  1.
         11   -1    0    0    0    0 -0.00000000000E+00 -0.00000000000E+00 -0.45593999997E+02  0.45594000000E+02  0.51100000000E-03 0. -1.
    9900012    2    1    2    0    0 -0.70945807722E+01  0.39979793049E+02 -0.15326518602E+02  0.47787319118E+02  0.20000219187E+02 0.  0.
        -12    1    1    2    0    0  0.70945807722E+01 -0.39979793049E+02  0.15326518602E+02  0.43400680882E+02  0.00000000000E+00 0.  1.
         11    1    3    3    0    0  0.27735396778E+00  0.45972745724E+01 -0.55080595477E+01  0.71798731855E+01  0.51100000000E-03 0. -1.
        -11    1    3    3    0    0 -0.61727744870E+01  0.11960425150E+02  0.31287088700E+01  0.13818239182E+02  0.51100000000E-03 0.  1.
        -12    1    3    3    0    0 -0.11991602530E+01  0.23422093326E+02 -0.12947167924E+02  0.26789206751E+02  0.00000000000E+00 0.  1.
</event>
<event>
 7    1  0.1899036E-009  0.4778727E+02  0.7816164E-02  0.1312668E+00
        -11   -1    0    0    0    0  0.00000000000E+00  0.00000000000E+00  0.45593999997E+02  0.45594000000E+02  0.51100000000E-03 0.  1.
         11   -1    0    0    0    0 -0.00000000000E+00 -0.00000000000E+00 -0.45593999997E+02  0.45594000000E+02  0.51100000000E-03 0. -1.
    9900012    2    1    2    0    0 -0.83617753235E+01  0.26684666812E+02 -0.33190847705E+02  0.47787273038E+02  0.20000009089E+02 0.  0.
        -12    1    1    2    0    0  0.83617753235E+01 -0.26684666812E+02  0.33190847705E+02  0.43400726962E+02  0.00000000000E+00 0.  1.
         11    1    3    3    0    0 -0.74258815181E+01  0.53443965176E+01 -0.54616901263E+01  0.10655343718E+02  0.51100000000E-03 0.  1.
        -11    1    3    3    0    0 -0.39387962901E+01  0.14066469714E+02 -0.24707179698E+02  0.28702341635E+02  0.51100000000E-03 0. -1.
        -12    1    3    3    0    0  0.30029024847E+01  0.72738005810E+01 -0.30219778805E+01  0.84295876847E+01  0.00000000000E+00 0.  1.
</event>
<event>
 7    1  0.1899036E-009  0.4778727E+02  0.7816164E-02  0.1312668E+00
        -11   -1    0    0    0    0  0.00000000000E+00  0.00000000000E+00  0.45593999997E+02  0.45594000000E+02  0.51100000000E-03 0.  1.
         11   -1    0    0    0    0 -0.00000000000E+00 -0.00000000000E+00 -0.45593999997E+02  0.45594000000E+02  0.51100000000E-03 0. -1.
    9900012    2    1    2    0    0  0.12907187848E+02 -0.22581731313E+02 -0.34743245452E+02  0.47787271990E+02  0.20000004313E+02 0.  0.
        -12    1    1    2    0    0 -0.12907187848E+02  0.22581731313E+02  0.34743245452E+02  0.43400728010E+02  0.00000000000E+00 0.  1.
         11    1    3    3    0    0  0.15697306409E+02 -0.10356471414E+02 -0.23456912618E+02  0.30064741451E+02  0.51100000000E-03 0. -1.
        -11    1    3    3    0    0 -0.22690382161E+01 -0.11662696118E+01 -0.26752623345E+01  0.36967212571E+01  0.51100000000E-03 0.  1.
         12    1    3    3    0    0 -0.52108034453E+00 -0.11058990287E+02 -0.86110704988E+01  0.14025809283E+02  0.00000000000E+00 0. -1.
</event>
<event>
 7    1  0.1899036E-009  0.4778727E+02  0.7816164E-02  0.1312668E+00
        -11   -1    0    0    0    0  0.00000000000E+00  0.00000000000E+00  0.45593999997E+02  0.45594000000E+02  0.51100000000E-03 0. -1.
         11   -1    0    0    0    0 -0.00000000000E+00 -0.00000000000E+00 -0.45593999997E+02  0.45594000000E+02  0.51100000000E-03 0.  1.
    9900012    2    1    2    0    0 -0.28445267149E+02  0.50180036807E+00  0.32775569036E+02  0.47787274748E+02  0.20000016885E+02 0.  0.
        -12    1    1    2    0    0  0.28445267149E+02 -0.50180036807E+00 -0.32775569036E+02  0.43400725252E+02  0.00000000000E+00 0.  1.
         11    1    3    3    0    0 -0.10371234328E+02  0.13901145387E+01  0.19890382642E+02  0.22474924735E+02  0.51100000000E-03 0. -1.
        -11    1    3    3    0    0 -0.10164026113E+02 -0.64915091996E+01  0.78404672556E+01  0.14384715693E+02  0.51100000000E-03 0.  1.
        -12    1    3    3    0    0 -0.79100067078E+01  0.56031950289E+01  0.50447191377E+01  0.10927634320E+02  0.00000000000E+00 0.  1.
</event>
<event>
 7    1  0.1899036E-009  0.4778727E+02  0.7816164E-02  0.1312668E+00
        -11   -1    0    0    0    0  0.00000000000E+00  0.00000000000E+00  0.45593999997E+02  0.45594000000E+02  0.51100000000E-03 0.  1.
         11   -1    0    0    0    0 -0.00000000000E+00 -0.00000000000E+00 -0.45593999997E+02  0.45594000000E+02  0.51100000000E-03 0. -1.
    9900012    2    1    2    0    0  0.13261846113E+02  0.23835937757E+02 -0.33757884037E+02  0.47787271599E+02  0.20000002526E+02 0.  0.
        -12    1    1    2    0    0 -0.13261846113E+02 -0.23835937757E+02  0.33757884037E+02  0.43400728401E+02  0.00000000000E+00 0.  1.
         11    1    3    3    0    0  0.64353267055E+01  0.10257655158E+01 -0.71919930731E+01  0.97051733279E+01  0.51100000000E-03 0.  1.
        -11    1    3    3    0    0  0.48876248592E+00  0.13286759563E+02 -0.60829093897E+01  0.14621171477E+02  0.51100000000E-03 0. -1.
         12    1    3    3    0    0  0.63377569212E+01  0.95234126789E+01 -0.20482981575E+02  0.23460926794E+02  0.00000000000E+00 0. -1.
</event>
<event>
 7    1  0.1899036E-009  0.4778728E+02  0.7816164E-02  0.1312668E+00
        -11   -1    0    0    0    0  0.00000000000E+00  0.00000000000E+00  0.45593999997E+02  0.45594000000E+02  0.51100000000E-03 0.  1.
         11   -1    0    0    0    0 -0.00000000000E+00 -0.00000000000E+00 -0.45593999997E+02  0.45594000000E+02  0.51100000000E-03 0. -1.
    9900012    2    1    2    0    0 -0.15402521254E+02  0.30547784116E+02 -0.26706133181E+02  0.47787281978E+02  0.20000049849E+02 0.  0.
        -12    1    1    2    0    0  0.15402521254E+02 -0.30547784116E+02  0.26706133181E+02  0.43400718022E+02  0.00000000000E+00 0.  1.
         11    1    3    3    0    0  0.92754137532E+00  0.18446077284E+01 -0.70183257146E+01  0.73157232569E+01  0.51100000000E-03 0. -1.
        -11    1    3    3    0    0 -0.87411092899E+01  0.58140666304E+01 -0.23134756808E+01  0.10750001506E+02  0.51100000000E-03 0.  1.
         12    1    3    3    0    0 -0.75889533395E+01  0.22889109757E+02 -0.17374331786E+02  0.29721557214E+02  0.00000000000E+00 0. -1.
</event>
<event>
 7    1  0.1899036E-009  0.4778728E+02  0.7816164E-02  0.1312668E+00
        -11   -1    0    0    0    0  0.00000000000E+00  0.00000000000E+00  0.45593999997E+02  0.45594000000E+02  0.51100000000E-03 0.  1.
         11   -1    0    0    0    0 -0.00000000000E+00 -0.00000000000E+00 -0.45593999997E+02  0.45594000000E+02  0.51100000000E-03 0. -1.
    9900012    2    1    2    0    0 -0.55124967571E+01 -0.23298083085E+02 -0.36199922923E+02  0.47787277477E+02  0.20000029327E+02 0.  0.
        -12    1    1    2    0    0  0.55124967571E+01  0.23298083085E+02  0.36199922923E+02  0.43400722523E+02  0.00000000000E+00 0.  1.
         11    1    3    3    0    0  0.12906264514E+01 -0.67152077287E+00 -0.86226827516E+01  0.87445591588E+01  0.51100000000E-03 0. -1.
        -11    1    3    3    0    0  0.17167983589E+01 -0.28771317706E+01  0.79083283330E+00  0.34424846640E+01  0.51100000000E-03 0.  1.
         12    1    3    3    0    0 -0.85199215674E+01 -0.19749430541E+02 -0.28368073005E+02  0.35600233654E+02  0.00000000000E+00 0. -1.
</event>
<event>
 7    1  0.1899036E-009  0.4778728E+02  0.7816164E-02  0.1312668E+00
        -11   -1    0    0    0    0  0.00000000000E+00  0.00000000000E+00  0.45593999997E+02  0.45594000000E+02  0.51100000000E-03 0.  1.
         11   -1    0    0    0    0 -0.00000000000E+00 -0.00000000000E+00 -0.45593999997E+02  0.45594000000E+02  0.51100000000E-03 0. -1.
    9900012    2    1    2    0    0 -0.57621280635E+01  0.43006586342E+02  0.92420232539E+00  0.47787277212E+02  0.20000028119E+02 0.  0.
        -12    1    1    2    0    0  0.57621280635E+01 -0.43006586342E+02 -0.92420232539E+00  0.43400722788E+02  0.00000000000E+00 0.  1.
         11    1    3    3    0    0 -0.12381607413E+01  0.45922120914E+01  0.12893757871E+01  0.49278741964E+01  0.51100000000E-03 0. -1.
        -11    1    3    3    0    0 -0.46142632431E+01  0.54010246252E+00  0.16535457344E+01  0.49312624858E+01  0.51100000000E-03 0.  1.
        -12    1    3    3    0    0  0.90295920911E-01  0.37874271788E+02 -0.20187191961E+01  0.37928140529E+02  0.00000000000E+00 0.  1.
</event>
<event>
 7    1  0.1899036E-009  0.4778727E+02  0.7816164E-02  0.1312668E+00
        -11   -1    0    0    0    0  0.00000000000E+00  0.00000000000E+00  0.45593999997E+02  0.45594000000E+02  0.51100000000E-03 0.  1.
         11   -1    0    0    0    0 -0.00000000000E+00 -0.00000000000E+00 -0.45593999997E+02  0.45594000000E+02  0.51100000000E-03 0. -1.
    9900012    2    1    2    0    0 -0.72255569994E+01 -0.10672197103E+02 -0.41442960188E+02  0.47787269429E+02  0.19999992634E+02 0.  0.
        -12    1    1    2    0    0  0.72255569994E+01  0.10672197103E+02  0.41442960188E+02  0.43400730571E+02  0.00000000000E+00 0.  1.
         11    1    3    3    0    0 -0.28332136211E+01  0.78477454422E+00 -0.27825796890E+02  0.27980670888E+02  0.51100000000E-03 0.  1.
        -11    1    3    3    0    0 -0.17030927395E+01 -0.74445881660E+01 -0.12803758988E+02  0.14908342038E+02  0.51100000000E-03 0. -1.
        -12    1    3    3    0    0 -0.26892506388E+01 -0.40123834809E+01 -0.81340430980E+00  0.48982565028E+01  0.00000000000E+00 0.  1.
</event>
<event>
 7    1  0.1899036E-009  0.4778728E+02  0.7816164E-02  0.1312668E+00
        -11   -1    0    0    0    0  0.00000000000E+00  0.00000000000E+00  0.45593999997E+02  0.45594000000E+02  0.51100000000E-03 0. -1.
         11   -1    0    0    0    0 -0.00000000000E+00 -0.00000000000E+00 -0.45593999997E+02  0.45594000000E+02  0.51100000000E-03 0.  1.
    9900012    2    1    2    0    0  0.25691464404E+02 -0.32056471761E+02 -0.13998361121E+02  0.47787276053E+02  0.20000022838E+02 0.  0.
        -12    1    1    2    0    0 -0.25691464404E+02  0.32056471761E+02  0.13998361121E+02  0.43400723947E+02  0.00000000000E+00 0.  1.
         11    1    3    3    0    0  0.70954615269E+01 -0.16878567264E+02 -0.21921082107E+01  0.18440090722E+02  0.51100000000E-03 0. -1.
        -11    1    3    3    0    0  0.11838613137E+02 -0.14493332636E+02 -0.12523086096E+02  0.22517485151E+02  0.51100000000E-03 0.  1.
         12    1    3    3    0    0  0.67573897407E+01 -0.68457186128E+00  0.71683318521E+00  0.68297001805E+01  0.00000000000E+00 0. -1.
</event>
<event>
 7    1  0.1899036E-009  0.4778727E+02  0.7816164E-02  0.1312668E+00
        -11   -1    0    0    0    0  0.00000000000E+00  0.00000000000E+00  0.45593999997E+02  0.45594000000E+02  0.51100000000E-03 0. -1.
         11   -1    0    0    0    0 -0.00000000000E+00 -0.00000000000E+00 -0.45593999997E+02  0.45594000000E+02  0.51100000000E-03 0.  1.
    9900012    2    1    2    0    0  0.15225188967E+02 -0.29226269726E+02  0.28242556020E+02  0.47787271991E+02  0.20000004317E+02 0.  0.
        -12    1    1    2    0    0 -0.15225188967E+02  0.29226269726E+02 -0.28242556020E+02  0.43400728009E+02  0.00000000000E+00 0.  1.
         11    1    3    3    0    0 -0.64499367437E+00 -0.80333324410E+01  0.40349359672E+01  0.90128328215E+01  0.51100000000E-03 0. -1.
        -11    1    3    3    0    0  0.15769159575E+02 -0.12247874731E+02  0.10925047803E+02  0.22760349269E+02  0.51100000000E-03 0.  1.
        -12    1    3    3    0    0  0.10102306635E+00 -0.89450625539E+01  0.13282572250E+02  0.16014089900E+02  0.00000000000E+00 0.  1.
</event>
<event>
 7    1  0.1899036E-009  0.4778727E+02  0.7816164E-02  0.1312668E+00
        -11   -1    0    0    0    0  0.00000000000E+00  0.00000000000E+00  0.45593999997E+02  0.45594000000E+02  0.51100000000E-03 0. -1.
         11   -1    0    0    0    0 -0.00000000000E+00 -0.00000000000E+00 -0.45593999997E+02  0.45594000000E+02  0.51100000000E-03 0.  1.
    9900012    2    1    2    0    0 -0.10775577842E+02  0.26805262316E+02  0.32388087285E+02  0.47787270010E+02  0.19999995286E+02 0.  0.
        -12    1    1    2    0    0  0.10775577842E+02 -0.26805262316E+02 -0.32388087285E+02  0.43400729990E+02  0.00000000000E+00 0.  1.
         11    1    3    3    0    0 -0.18749752182E+01  0.49579441220E+01  0.38410628227E+01  0.65460297780E+01  0.51100000000E-03 0. -1.
        -11    1    3    3    0    0 -0.20748398977E+01  0.50825040964E+01 -0.19090114885E+01  0.58121539566E+01  0.51100000000E-03 0.  1.
         12    1    3    3    0    0 -0.68257627259E+01  0.16764814098E+02  0.30456035951E+02  0.35429086276E+02  0.00000000000E+00 0. -1.
</event>
<event>
 7    1  0.1899036E-009  0.4778727E+02  0.7816164E-02  0.1312668E+00
        -11   -1    0    0    0    0  0.00000000000E+00  0.00000000000E+00  0.45593999997E+02  0.45594000000E+02  0.51100000000E-03 0.  1.
         11   -1    0    0    0    0 -0.00000000000E+00 -0.00000000000E+00 -0.45593999997E+02  0.45594000000E+02  0.51100000000E-03 0. -1.
    9900012    2    1    2    0    0  0.14679117612E+02  0.31776302083E+01 -0.40719153368E+02  0.47787270989E+02  0.19999999749E+02 0.  0.
        -12    1    1    2    0    0 -0.14679117612E+02 -0.31776302083E+01  0.40719153368E+02  0.43400729011E+02  0.00000000000E+00 0.  1.
         11    1    3    3    0    0  0.15139029087E+02  0.17983241685E+01 -0.18122843613E+02  0.23682517442E+02  0.51100000000E-03 0. -1.
        -11    1    3    3    0    0 -0.42331086146E+00 -0.32081068403E+01 -0.52943974613E+01  0.62049807674E+01  0.51100000000E-03 0.  1.
        -12    1    3    3    0    0 -0.36600613693E-01  0.45874128801E+01 -0.17301912294E+02  0.17899772780E+02  0.00000000000E+00 0.  1.
</event>
<event>
 7    1  0.1899036E-009  0.4778727E+02  0.7816164E-02  0.1312668E+00
        -11   -1    0    0    0    0  0.00000000000E+00  0.00000000000E+00  0.45593999997E+02  0.45594000000E+02  0.51100000000E-03 0. -1.
         11   -1    0    0    0    0 -0.00000000000E+00 -0.00000000000E+00 -0.45593999997E+02  0.45594000000E+02  0.51100000000E-03 0.  1.
    9900012    2    1    2    0    0  0.14782056333E+02  0.23385996469E+02  0.33439638604E+02  0.47787269013E+02  0.19999990736E+02 0.  0.
        -12    1    1    2    0    0 -0.14782056333E+02 -0.23385996469E+02 -0.33439638604E+02  0.43400730987E+02  0.00000000000E+00 0.  1.
         11    1    3    3    0    0 -0.13842021192E+00  0.69308875340E+01  0.16413533734E+02  0.17817419904E+02  0.51100000000E-03 0. -1.
        -11    1    3    3    0    0  0.24975183241E+01  0.95427980776E+01  0.38580900658E+01  0.10591857823E+02  0.51100000000E-03 0.  1.
         12    1    3    3    0    0  0.12422958221E+02  0.69123108579E+01  0.13168014804E+02  0.19377991285E+02  0.00000000000E+00 0. -1.
</event>
<event>
 7    1  0.1899036E-009  0.4778727E+02  0.7816164E-02  0.1312668E+00
        -11   -1    0    0    0    0  0.00000000000E+00  0.00000000000E+00  0.45593999997E+02  0.45594000000E+02  0.51100000000E-03 0.  1.
         11   -1    0    0    0    0 -0.00000000000E+00 -0.00000000000E+00 -0.45593999997E+02  0.45594000000E+02  0.51100000000E-03 0. -1.
    9900012    2    1    2    0    0  0.18409119541E+01 -0.25502350015E+02 -0.35069425711E+02  0.47787269213E+02  0.19999991651E+02 0.  0.
        -12    1    1    2    0    0 -0.18409119541E+01  0.25502350015E+02  0.35069425711E+02  0.43400730787E+02  0.00000000000E+00 0.  1.
         11    1    3    3    0    0 -0.28794175932E+01 -0.40089717729E+01 -0.79004523169E+01  0.93155808958E+01  0.51100000000E-03 0.  1.
        -11    1    3    3    0    0  0.67138723797E+01 -0.22308017366E+02 -0.19115152771E+02  0.30134909770E+02  0.51100000000E-03 0. -1.
         12    1    3    3    0    0 -0.19935428324E+01  0.81463912331E+00 -0.80538206232E+01  0.83367785479E+01  0.00000000000E+00 0. -1.
</event>
<event>
 7    1  0.3385009E-009  0.4778730E+02  0.7816164E-02  0.1312668E+00
        -11   -1    0    0    0    0  0.00000000000E+00  0.00000000000E+00  0.45593999997E+02  0.45594000000E+02  0.51100000000E-03 0. -1.
         11   -1    0    0    0    0 -0.00000000000E+00 -0.00000000000E+00 -0.45593999997E+02  0.45594000000E+02  0.51100000000E-03 0.  1.
    9900012    2    1    2    0    0 -0.15552600910E+02  0.18685848057E+02  0.35952417445E+02  0.47787301471E+02  0.20000138726E+02 0.  0.
        -12    1    1    2    0    0  0.15552600910E+02 -0.18685848057E+02 -0.35952417445E+02  0.43400698529E+02  0.00000000000E+00 0.  1.
         11    1    3    3    0    0 -0.79878919799E+01  0.11305225313E+02  0.20247026205E+02  0.24526650975E+02  0.51100000000E-03 0. -1.
        -11    1    3    3    0    0  0.21512082010E+01  0.62935244718E+01  0.31819139533E+01  0.73729725124E+01  0.51100000000E-03 0.  1.
        -12    1    3    3    0    0 -0.97159171309E+01  0.10870982723E+01  0.12523477287E+02  0.15887677983E+02  0.00000000000E+00 0.  1.
</event>
<event>
 7    1  0.1899036E-009  0.4778728E+02  0.7816164E-02  0.1312668E+00
        -11   -1    0    0    0    0  0.00000000000E+00  0.00000000000E+00  0.45593999997E+02  0.45594000000E+02  0.51100000000E-03 0.  1.
         11   -1    0    0    0    0 -0.00000000000E+00 -0.00000000000E+00 -0.45593999997E+02  0.45594000000E+02  0.51100000000E-03 0. -1.
    9900012    2    1    2    0    0 -0.43171268931E+02 -0.32105246637E+01 -0.30914215329E+01  0.47787276310E+02  0.20000024007E+02 0.  0.
        -12    1    1    2    0    0  0.43171268931E+02  0.32105246637E+01  0.30914215329E+01  0.43400723690E+02  0.00000000000E+00 0.  1.
         11    1    3    3    0    0  0.88633060952E+00 -0.94146784681E+00 -0.67139104780E+00  0.14569522491E+01  0.51100000000E-03 0.  1.
        -11    1    3    3    0    0 -0.29493281232E+02 -0.80364124959E+01 -0.24381106493E+01  0.30665647676E+02  0.51100000000E-03 0. -1.
         12    1    3    3    0    0 -0.14564318309E+02  0.57673556790E+01  0.18080164237E-01  0.15664676384E+02  0.00000000000E+00 0. -1.
</event>
<event>
 7    1  0.1899036E-009  0.4778727E+02  0.7816164E-02  0.1312668E+00
        -11   -1    0    0    0    0  0.00000000000E+00  0.00000000000E+00  0.45593999997E+02  0.45594000000E+02  0.51100000000E-03 0. -1.
         11   -1    0    0    0    0 -0.00000000000E+00 -0.00000000000E+00 -0.45593999997E+02  0.45594000000E+02  0.51100000000E-03 0.  1.
    9900012    2    1    2    0    0  0.29948618399E+02 -0.30418449343E+02  0.78371966268E+01  0.47787268953E+02  0.19999990464E+02 0.  0.
        -12    1    1    2    0    0 -0.29948618399E+02  0.30418449343E+02 -0.78371966268E+01  0.43400731047E+02  0.00000000000E+00 0.  1.
         11    1    3    3    0    0  0.14176248401E+01 -0.81194374154E-01  0.72173305399E+00  0.15928438643E+01  0.51100000000E-03 0.  1.
        -11    1    3    3    0    0  0.18609026001E+02 -0.16574353776E+02  0.13162427100E+02  0.28182521875E+02  0.51100000000E-03 0. -1.
         12    1    3    3    0    0  0.99219675578E+01 -0.13762901193E+02 -0.60469635277E+01  0.18011903213E+02  0.00000000000E+00 0. -1.
</event>
<event>
 7    1  0.1899036E-009  0.4778727E+02  0.7816164E-02  0.1312668E+00
        -11   -1    0    0    0    0  0.00000000000E+00  0.00000000000E+00  0.45593999997E+02  0.45594000000E+02  0.51100000000E-03 0.  1.
         11   -1    0    0    0    0 -0.00000000000E+00 -0.00000000000E+00 -0.45593999997E+02  0.45594000000E+02  0.51100000000E-03 0. -1.
    9900012    2    1    2    0    0  0.18732780739E+02  0.10543008162E+02 -0.37703467911E+02  0.47787267427E+02  0.19999983508E+02 0.  0.
        -12    1    1    2    0    0 -0.18732780739E+02 -0.10543008162E+02  0.37703467911E+02  0.43400732573E+02  0.00000000000E+00 0.  1.
         11    1    3    3    0    0  0.14284292152E+02  0.28112785419E+01 -0.94956905957E+01  0.17381381691E+02  0.51100000000E-03 0.  1.
        -11    1    3    3    0    0  0.52164952921E+01  0.64545942591E+01 -0.15243255887E+02  0.17355992062E+02  0.51100000000E-03 0. -1.
         12    1    3    3    0    0 -0.76800670530E+00  0.12771353607E+01 -0.12964521429E+02  0.13049893674E+02  0.00000000000E+00 0. -1.
</event>
<event>
 7    1  0.1899036E-009  0.4778727E+02  0.7816164E-02  0.1312668E+00
        -11   -1    0    0    0    0  0.00000000000E+00  0.00000000000E+00  0.45593999997E+02  0.45594000000E+02  0.51100000000E-03 0.  1.
         11   -1    0    0    0    0 -0.00000000000E+00 -0.00000000000E+00 -0.45593999997E+02  0.45594000000E+02  0.51100000000E-03 0. -1.
    9900012    2    1    2    0    0  0.11048522770E+02  0.41067923570E+02 -0.86590277358E+01  0.47787274625E+02  0.20000016326E+02 0.  0.
        -12    1    1    2    0    0 -0.11048522770E+02 -0.41067923570E+02  0.86590277358E+01  0.43400725375E+02  0.00000000000E+00 0.  1.
         11    1    3    3    0    0 -0.10217878403E+01  0.14541922631E+02 -0.50959168492E+01  0.15442795505E+02  0.51100000000E-03 0. -1.
        -11    1    3    3    0    0  0.18514581927E+01  0.54500205176E+01  0.47783034469E+01  0.74808291768E+01  0.51100000000E-03 0.  1.
         12    1    3    3    0    0  0.10218852418E+02  0.21075980421E+02 -0.83414143335E+01  0.24863649943E+02  0.00000000000E+00 0. -1.
</event>
<event>
 7    1  0.1899036E-009  0.4778727E+02  0.7816164E-02  0.1312668E+00
        -11   -1    0    0    0    0  0.00000000000E+00  0.00000000000E+00  0.45593999997E+02  0.45594000000E+02  0.51100000000E-03 0. -1.
         11   -1    0    0    0    0 -0.00000000000E+00 -0.00000000000E+00 -0.45593999997E+02  0.45594000000E+02  0.51100000000E-03 0.  1.
    9900012    2    1    2    0    0  0.29153179748E+02 -0.30096817833E+02 -0.11309162851E+02  0.47787268468E+02  0.19999988255E+02 0.  0.
        -12    1    1    2    0    0 -0.29153179748E+02  0.30096817833E+02  0.11309162851E+02  0.43400731532E+02  0.00000000000E+00 0.  1.
         11    1    3    3    0    0  0.19844496809E+01 -0.18155119765E+01  0.25424989006E+01  0.37011383645E+01  0.51100000000E-03 0. -1.
        -11    1    3    3    0    0  0.25970560036E+02 -0.25303484877E+02 -0.75833942278E+01  0.37043814650E+02  0.51100000000E-03 0.  1.
        -12    1    3    3    0    0  0.11981700311E+01 -0.29778209793E+01 -0.62682675236E+01  0.70423154542E+01  0.00000000000E+00 0.  1.
</event>
<event>
 7    1  0.1899036E-009  0.4778727E+02  0.7816164E-02  0.1312668E+00
        -11   -1    0    0    0    0  0.00000000000E+00  0.00000000000E+00  0.45593999997E+02  0.45594000000E+02  0.51100000000E-03 0. -1.
         11   -1    0    0    0    0 -0.00000000000E+00 -0.00000000000E+00 -0.45593999997E+02  0.45594000000E+02  0.51100000000E-03 0.  1.
    9900012    2    1    2    0    0 -0.18220774662E+02 -0.39251150768E+02 -0.33126754046E+01  0.47787270925E+02  0.19999999455E+02 0.  0.
        -12    1    1    2    0    0  0.18220774662E+02  0.39251150768E+02  0.33126754046E+01  0.43400729075E+02  0.00000000000E+00 0.  1.
         11    1    3    3    0    0 -0.92553477621E+01 -0.29880561901E+02 -0.78108162606E+01  0.32241561573E+02  0.51100000000E-03 0. -1.
        -11    1    3    3    0    0 -0.46006648426E+01 -0.14744399572E+01 -0.10637607196E+01  0.49468856173E+01  0.51100000000E-03 0.  1.
         12    1    3    3    0    0 -0.43647620577E+01 -0.78961489095E+01  0.55619015755E+01  0.10598823735E+02  0.00000000000E+00 0. -1.
</event>
<event>
 7    1  0.2379842E-009  0.4778726E+02  0.7816164E-02  0.1312668E+00
        -11   -1    0    0    0    0  0.00000000000E+00  0.00000000000E+00  0.45593999997E+02  0.45594000000E+02  0.51100000000E-03 0.  1.
         11   -1    0    0    0    0 -0.00000000000E+00 -0.00000000000E+00 -0.45593999997E+02  0.45594000000E+02  0.51100000000E-03 0. -1.
    9900012    2    1    2    0    0  0.77448133780E+01 -0.42290881392E+02 -0.59264826652E+01  0.47787262910E+02  0.19999962914E+02 0.  0.
        -12    1    1    2    0    0 -0.77448133780E+01  0.42290881392E+02  0.59264826652E+01  0.43400737090E+02  0.00000000000E+00 0.  1.
         11    1    3    3    0    0  0.47087412563E+01 -0.29552615164E+02 -0.74371656112E+01  0.30835705599E+02  0.51100000000E-03 0. -1.
        -11    1    3    3    0    0  0.69065105166E+01 -0.62051109319E+01  0.60692596258E+00  0.93043886730E+01  0.51100000000E-03 0.  1.
        -12    1    3    3    0    0 -0.38704383949E+01 -0.65331552961E+01  0.90375698351E+00  0.76471686379E+01  0.00000000000E+00 0.  1.
</event>
<event>
 7    1  0.1899036E-009  0.4778727E+02  0.7816164E-02  0.1312668E+00
        -11   -1    0    0    0    0  0.00000000000E+00  0.00000000000E+00  0.45593999997E+02  0.45594000000E+02  0.51100000000E-03 0.  1.
         11   -1    0    0    0    0 -0.00000000000E+00 -0.00000000000E+00 -0.45593999997E+02  0.45594000000E+02  0.51100000000E-03 0. -1.
    9900012    2    1    2    0    0  0.20408090980E+02 -0.16230843527E+02 -0.34694273649E+02  0.47787273242E+02  0.20000010020E+02 0.  0.
        -12    1    1    2    0    0 -0.20408090980E+02  0.16230843527E+02  0.34694273649E+02  0.43400726758E+02  0.00000000000E+00 0.  1.
         11    1    3    3    0    0  0.15195281687E+02 -0.74962565609E+01 -0.18966404595E+02  0.25432556920E+02  0.51100000000E-03 0. -1.
        -11    1    3    3    0    0  0.21246073750E+01 -0.21464924444E+01  0.17022968674E+01  0.34668719615E+01  0.51100000000E-03 0.  1.
         12    1    3    3    0    0  0.30882019184E+01 -0.65880945219E+01 -0.17430165922E+02  0.18887844361E+02  0.00000000000E+00 0. -1.
</event>
<event>
 7    1  0.1899036E-009  0.4778729E+02  0.7816164E-02  0.1312668E+00
        -11   -1    0    0    0    0  0.00000000000E+00  0.00000000000E+00  0.45593999997E+02  0.45594000000E+02  0.51100000000E-03 0.  1.
         11   -1    0    0    0    0 -0.00000000000E+00 -0.00000000000E+00 -0.45593999997E+02  0.45594000000E+02  0.51100000000E-03 0. -1.
    9900012    2    1    2    0    0 -0.61751965133E+01  0.35893924098E+01 -0.42808935015E+02  0.47787289096E+02  0.20000082306E+02 0.  0.
        -12    1    1    2    0    0  0.61751965133E+01 -0.35893924098E+01  0.42808935015E+02  0.43400710904E+02  0.00000000000E+00 0.  1.
         11    1    3    3    0    0 -0.33763592760E+01  0.37721000483E+01 -0.29260267119E+02  0.29694978916E+02  0.51100000000E-03 0. -1.
        -11    1    3    3    0    0 -0.29565640268E+01 -0.38344657849E+00 -0.15672320720E+02  0.15953367642E+02  0.51100000000E-03 0.  1.
        -12    1    3    3    0    0  0.15772678948E+00  0.20073894004E+00  0.21236528239E+01  0.21389425375E+01  0.00000000000E+00 0.  1.
</event>
<event>
 7    1  0.1899036E-009  0.4778727E+02  0.7816164E-02  0.1312668E+00
        -11   -1    0    0    0    0  0.00000000000E+00  0.00000000000E+00  0.45593999997E+02  0.45594000000E+02  0.51100000000E-03 0.  1.
         11   -1    0    0    0    0 -0.00000000000E+00 -0.00000000000E+00 -0.45593999997E+02  0.45594000000E+02  0.51100000000E-03 0. -1.
    9900012    2    1    2    0    0 -0.31120166771E+01 -0.14679150241E+02 -0.40724209512E+02  0.47787270283E+02  0.19999996529E+02 0.  0.
        -12    1    1    2    0    0  0.31120166771E+01  0.14679150241E+02  0.40724209512E+02  0.43400729717E+02  0.00000000000E+00 0.  1.
         11    1    3    3    0    0  0.38869702535E+01 -0.56808788333E+01 -0.19398447165E+02  0.20583504919E+02  0.51100000000E-03 0. -1.
        -11    1    3    3    0    0 -0.95510799183E+01 -0.10255408158E+02 -0.17089046612E+02  0.22100498603E+02  0.51100000000E-03 0.  1.
        -12    1    3    3    0    0  0.25520929876E+01  0.12571367504E+01 -0.42367157344E+01  0.51032667617E+01  0.00000000000E+00 0.  1.
</event>
<event>
 7    1  0.1899036E-009  0.4778727E+02  0.7816164E-02  0.1312668E+00
        -11   -1    0    0    0    0  0.00000000000E+00  0.00000000000E+00  0.45593999997E+02  0.45594000000E+02  0.51100000000E-03 0. -1.
         11   -1    0    0    0    0 -0.00000000000E+00 -0.00000000000E+00 -0.45593999997E+02  0.45594000000E+02  0.51100000000E-03 0.  1.
    9900012    2    1    2    0    0  0.33946763996E+02 -0.20165832345E+02  0.18016090615E+02  0.47787273036E+02  0.20000009081E+02 0.  0.
        -12    1    1    2    0    0 -0.33946763996E+02  0.20165832345E+02 -0.18016090615E+02  0.43400726964E+02  0.00000000000E+00 0.  1.
         11    1    3    3    0    0  0.12401606765E+01  0.10782193225E+01  0.44842732243E+00  0.17034208921E+01  0.51100000000E-03 0. -1.
        -11    1    3    3    0    0  0.63779348069E+01 -0.85572336683E-01  0.93553993871E+01  0.11322935705E+02  0.51100000000E-03 0.  1.
         12    1    3    3    0    0  0.26328668512E+02 -0.21158479331E+02  0.82122639056E+01  0.34760916439E+02  0.00000000000E+00 0. -1.
</event>
<event>
 7    1  0.1899036E-009  0.4778727E+02  0.7816164E-02  0.1312668E+00
        -11   -1    0    0    0    0  0.00000000000E+00  0.00000000000E+00  0.45593999997E+02  0.45594000000E+02  0.51100000000E-03 0.  1.
         11   -1    0    0    0    0 -0.00000000000E+00 -0.00000000000E+00 -0.45593999997E+02  0.45594000000E+02  0.51100000000E-03 0. -1.
    9900012    2    1    2    0    0  0.31501113915E+02 -0.13693026619E+02 -0.26529308235E+02  0.47787270152E+02  0.19999995932E+02 0.  0.
        -12    1    1    2    0    0 -0.31501113915E+02  0.13693026619E+02  0.26529308235E+02  0.43400729848E+02  0.00000000000E+00 0.  1.
         11    1    3    3    0    0  0.86170080345E+01 -0.34808823326E+00 -0.93470290924E+01  0.12717741387E+02  0.51100000000E-03 0. -1.
        -11    1    3    3    0    0  0.45663504985E+01 -0.26732860566E+01  0.27568111029E+01  0.59664078752E+01  0.51100000000E-03 0.  1.
        -12    1    3    3    0    0  0.18317755382E+02 -0.10671652329E+02 -0.19939090246E+02  0.29103120889E+02  0.00000000000E+00 0.  1.
</event>
<event>
 7    1  0.1899036E-009  0.4778728E+02  0.7816164E-02  0.1312668E+00
        -11   -1    0    0    0    0  0.00000000000E+00  0.00000000000E+00  0.45593999997E+02  0.45594000000E+02  0.51100000000E-03 0.  1.
         11   -1    0    0    0    0 -0.00000000000E+00 -0.00000000000E+00 -0.45593999997E+02  0.45594000000E+02  0.51100000000E-03 0. -1.
    9900012    2    1    2    0    0 -0.32041664766E+02 -0.18937096574E+02 -0.22323549945E+02  0.47787276622E+02  0.20000025428E+02 0.  0.
        -12    1    1    2    0    0  0.32041664766E+02  0.18937096574E+02  0.22323549945E+02  0.43400723378E+02  0.00000000000E+00 0.  1.
         11    1    3    3    0    0 -0.15604090054E+02 -0.16990479234E+02 -0.78509211117E+01  0.24368031795E+02  0.51100000000E-03 0. -1.
        -11    1    3    3    0    0 -0.14212296924E+02 -0.15748420185E+01 -0.76160911137E+01  0.16201060316E+02  0.51100000000E-03 0.  1.
        -12    1    3    3    0    0 -0.22252777871E+01 -0.37177532206E+00 -0.68565377199E+01  0.72181845102E+01  0.00000000000E+00 0.  1.
</event>
<event>
 7    1  0.1899036E-009  0.4778727E+02  0.7816164E-02  0.1312668E+00
        -11   -1    0    0    0    0  0.00000000000E+00  0.00000000000E+00  0.45593999997E+02  0.45594000000E+02  0.51100000000E-03 0.  1.
         11   -1    0    0    0    0 -0.00000000000E+00 -0.00000000000E+00 -0.45593999997E+02  0.45594000000E+02  0.51100000000E-03 0. -1.
    9900012    2    1    2    0    0  0.19880633263E+02  0.14010729783E+02 -0.35945555372E+02  0.47787273290E+02  0.20000010237E+02 0.  0.
        -12    1    1    2    0    0 -0.19880633263E+02 -0.14010729783E+02  0.35945555372E+02  0.43400726710E+02  0.00000000000E+00 0.  1.
         11    1    3    3    0    0  0.11731338665E+02  0.16172974159E+02 -0.18732128223E+02  0.27387625455E+02  0.51100000000E-03 0. -1.
        -11    1    3    3    0    0  0.88838417983E+01 -0.10611787438E+01 -0.11695904903E+02  0.14725587839E+02  0.51100000000E-03 0.  1.
        -12    1    3    3    0    0 -0.73454720045E+00 -0.11010656319E+01 -0.55175222449E+01  0.56740599960E+01  0.00000000000E+00 0.  1.
</event>
<event>
 7    1  0.1899036E-009  0.4778727E+02  0.7816164E-02  0.1312668E+00
        -11   -1    0    0    0    0  0.00000000000E+00  0.00000000000E+00  0.45593999997E+02  0.45594000000E+02  0.51100000000E-03 0. -1.
         11   -1    0    0    0    0 -0.00000000000E+00 -0.00000000000E+00 -0.45593999997E+02  0.45594000000E+02  0.51100000000E-03 0.  1.
    9900012    2    1    2    0    0 -0.62570021821E+01 -0.42667190048E+02  0.48973381363E+01  0.47787273005E+02  0.20000008937E+02 0.  0.
        -12    1    1    2    0    0  0.62570021821E+01  0.42667190048E+02 -0.48973381363E+01  0.43400726995E+02  0.00000000000E+00 0.  1.
         11    1    3    3    0    0 -0.54149825819E+01 -0.17157191225E+02 -0.41829410400E+01  0.18471281577E+02  0.51100000000E-03 0. -1.
        -11    1    3    3    0    0  0.29426985201E+01 -0.13895814315E+01 -0.34758712276E-01  0.32544768495E+01  0.51100000000E-03 0.  1.
        -12    1    3    3    0    0 -0.37847181203E+01 -0.24120417392E+02  0.91150378886E+01  0.26061514578E+02  0.00000000000E+00 0.  1.
</event>
<event>
 7    1  0.1899036E-009  0.4778727E+02  0.7816164E-02  0.1312668E+00
        -11   -1    0    0    0    0  0.00000000000E+00  0.00000000000E+00  0.45593999997E+02  0.45594000000E+02  0.51100000000E-03 0. -1.
         11   -1    0    0    0    0 -0.00000000000E+00 -0.00000000000E+00 -0.45593999997E+02  0.45594000000E+02  0.51100000000E-03 0.  1.
    9900012    2    1    2    0    0 -0.17853731053E+02  0.27473727826E+02  0.28461579520E+02  0.47787274869E+02  0.20000017437E+02 0.  0.
        -12    1    1    2    0    0  0.17853731053E+02 -0.27473727826E+02 -0.28461579520E+02  0.43400725131E+02  0.00000000000E+00 0.  1.
         11    1    3    3    0    0 -0.19317736622E+01  0.14815495204E+00  0.13275589383E+01  0.23486405361E+01  0.51100000000E-03 0. -1.
        -11    1    3    3    0    0 -0.17790872805E+02  0.14681847569E+02  0.13395311718E+02  0.26674073170E+02  0.51100000000E-03 0.  1.
         12    1    3    3    0    0  0.18689154136E+01  0.12643725304E+02  0.13738708863E+02  0.18764561163E+02  0.00000000000E+00 0. -1.
</event>
<event>
 7    1  0.1899036E-009  0.4778727E+02  0.7816164E-02  0.1312668E+00
        -11   -1    0    0    0    0  0.00000000000E+00  0.00000000000E+00  0.45593999997E+02  0.45594000000E+02  0.51100000000E-03 0. -1.
         11   -1    0    0    0    0 -0.00000000000E+00 -0.00000000000E+00 -0.45593999997E+02  0.45594000000E+02  0.51100000000E-03 0.  1.
    9900012    2    1    2    0    0  0.79880062768E+01  0.33857386520E+02  0.25951734876E+02  0.47787269484E+02  0.19999992886E+02 0.  0.
        -12    1    1    2    0    0 -0.79880062768E+01 -0.33857386520E+02 -0.25951734876E+02  0.43400730516E+02  0.00000000000E+00 0.  1.
         11    1    3    3    0    0  0.28102522134E+00 -0.35266270360E+00 -0.12064530233E+00  0.46679942977E+00  0.51100000000E-03 0. -1.
        -11    1    3    3    0    0 -0.48402055700E+01  0.72394019612E+01  0.10827839758E+02  0.13895274190E+02  0.51100000000E-03 0.  1.
         12    1    3    3    0    0  0.12547186625E+02  0.26970647263E+02  0.15244540420E+02  0.33425195865E+02  0.00000000000E+00 0. -1.
</event>
<event>
 7    1  0.1899036E-009  0.4778727E+02  0.7816164E-02  0.1312668E+00
        -11   -1    0    0    0    0  0.00000000000E+00  0.00000000000E+00  0.45593999997E+02  0.45594000000E+02  0.51100000000E-03 0.  1.
         11   -1    0    0    0    0 -0.00000000000E+00 -0.00000000000E+00 -0.45593999997E+02  0.45594000000E+02  0.51100000000E-03 0. -1.
    9900012    2    1    2    0    0  0.10089057968E+02 -0.24401855091E+02 -0.34443924334E+02  0.47787267908E+02  0.19999985701E+02 0.  0.
        -12    1    1    2    0    0 -0.10089057968E+02  0.24401855091E+02  0.34443924334E+02  0.43400732092E+02  0.00000000000E+00 0.  1.
         11    1    3    3    0    0  0.27989700997E+01 -0.10820543240E+02 -0.12186901903E+02  0.16535990078E+02  0.51100000000E-03 0. -1.
        -11    1    3    3    0    0  0.10290151854E+01  0.33842708351E+01 -0.58354726319E+01  0.68238480665E+01  0.51100000000E-03 0.  1.
        -12    1    3    3    0    0  0.62610726832E+01 -0.16965582687E+02 -0.16421549799E+02  0.24427429764E+02  0.00000000000E+00 0.  1.
</event>
<event>
 7    1  0.1899036E-009  0.4778727E+02  0.7816164E-02  0.1312668E+00
        -11   -1    0    0    0    0  0.00000000000E+00  0.00000000000E+00  0.45593999997E+02  0.45594000000E+02  0.51100000000E-03 0. -1.
         11   -1    0    0    0    0 -0.00000000000E+00 -0.00000000000E+00 -0.45593999997E+02  0.45594000000E+02  0.51100000000E-03 0.  1.
    9900012    2    1    2    0    0  0.12457446912E+02 -0.15723901317E+02  0.38486287959E+02  0.47787269395E+02  0.19999992479E+02 0.  0.
        -12    1    1    2    0    0 -0.12457446912E+02  0.15723901317E+02 -0.38486287959E+02  0.43400730605E+02  0.00000000000E+00 0.  1.
         11    1    3    3    0    0 -0.17081913906E+01  0.55533875693E+00  0.12437946653E+01  0.21847984787E+01  0.51100000000E-03 0.  1.
        -11    1    3    3    0    0  0.16771095734E+02 -0.13157302752E+02  0.25845838903E+02  0.33502114212E+02  0.51100000000E-03 0. -1.
         12    1    3    3    0    0 -0.26054574305E+01 -0.31219373219E+01  0.11396654391E+02  0.12100356705E+02  0.00000000000E+00 0. -1.
</event>
<event>
 7    1  0.1899036E-009  0.4778727E+02  0.7816164E-02  0.1312668E+00
        -11   -1    0    0    0    0  0.00000000000E+00  0.00000000000E+00  0.45593999997E+02  0.45594000000E+02  0.51100000000E-03 0.  1.
         11   -1    0    0    0    0 -0.00000000000E+00 -0.00000000000E+00 -0.45593999997E+02  0.45594000000E+02  0.51100000000E-03 0. -1.
    9900012    2    1    2    0    0  0.57406579765E+01  0.35734436197E+02 -0.23952412100E+02  0.47787272705E+02  0.20000007570E+02 0.  0.
        -12    1    1    2    0    0 -0.57406579765E+01 -0.35734436197E+02  0.23952412100E+02  0.43400727295E+02  0.00000000000E+00 0.  1.
         11    1    3    3    0    0  0.56390210542E+01  0.18654988624E+02 -0.18790420293E+02  0.27071886784E+02  0.51100000000E-03 0. -1.
        -11    1    3    3    0    0  0.10319037793E+01 -0.12598739874E+01  0.42857402638E-01  0.16290932729E+01  0.51100000000E-03 0.  1.
        -12    1    3    3    0    0 -0.93026685706E+00  0.18339321561E+02 -0.52048492097E+01  0.19086292647E+02  0.00000000000E+00 0.  1.
</event>
<event>
 7    1  0.1899036E-009  0.4778727E+02  0.7816164E-02  0.1312668E+00
        -11   -1    0    0    0    0  0.00000000000E+00  0.00000000000E+00  0.45593999997E+02  0.45594000000E+02  0.51100000000E-03 0.  1.
         11   -1    0    0    0    0 -0.00000000000E+00 -0.00000000000E+00 -0.45593999997E+02  0.45594000000E+02  0.51100000000E-03 0. -1.
    9900012    2    1    2    0    0  0.69418049915E+01  0.10748732152E+02 -0.41471670008E+02  0.47787270597E+02  0.19999997961E+02 0.  0.
        -12    1    1    2    0    0 -0.69418049915E+01 -0.10748732152E+02  0.41471670008E+02  0.43400729403E+02  0.00000000000E+00 0.  1.
         11    1    3    3    0    0 -0.29562631719E+01  0.10022931528E+02 -0.24915600364E+02  0.27018249205E+02  0.51100000000E-03 0. -1.
        -11    1    3    3    0    0 -0.14773426805E+00 -0.18846559111E+01 -0.12172335310E+01  0.22484241253E+01  0.51100000000E-03 0.  1.
        -12    1    3    3    0    0  0.10045802431E+02  0.26104565352E+01 -0.15338836113E+02  0.18520597267E+02  0.00000000000E+00 0.  1.
</event>
<event>
 7    1  0.1899036E-009  0.4778727E+02  0.7816164E-02  0.1312668E+00
        -11   -1    0    0    0    0  0.00000000000E+00  0.00000000000E+00  0.45593999997E+02  0.45594000000E+02  0.51100000000E-03 0.  1.
         11   -1    0    0    0    0 -0.00000000000E+00 -0.00000000000E+00 -0.45593999997E+02  0.45594000000E+02  0.51100000000E-03 0. -1.
    9900012    2    1    2    0    0  0.73655003920E+01 -0.14280686378E+02 -0.40316679435E+02  0.47787271433E+02  0.20000001773E+02 0.  0.
        -12    1    1    2    0    0 -0.73655003920E+01  0.14280686378E+02  0.40316679435E+02  0.43400728567E+02  0.00000000000E+00 0.  1.
         11    1    3    3    0    0  0.11105138265E+02 -0.10076495549E+02 -0.17542895597E+02  0.23078410791E+02  0.51100000000E-03 0. -1.
        -11    1    3    3    0    0  0.19552998145E+01 -0.22863492572E+01 -0.40546431265E+01  0.50488336708E+01  0.51100000000E-03 0.  1.
        -12    1    3    3    0    0 -0.56949376874E+01 -0.19178415710E+01 -0.18719140711E+02  0.19660026972E+02  0.00000000000E+00 0.  1.
</event>
<event>
 7    1  0.1899036E-009  0.4778727E+02  0.7816164E-02  0.1312668E+00
        -11   -1    0    0    0    0  0.00000000000E+00  0.00000000000E+00  0.45593999997E+02  0.45594000000E+02  0.51100000000E-03 0.  1.
         11   -1    0    0    0    0 -0.00000000000E+00 -0.00000000000E+00 -0.45593999997E+02  0.45594000000E+02  0.51100000000E-03 0. -1.
    9900012    2    1    2    0    0 -0.11659519467E+01  0.37375123047E+02 -0.22030979606E+02  0.47787270408E+02  0.19999997098E+02 0.  0.
        -12    1    1    2    0    0  0.11659519467E+01 -0.37375123047E+02  0.22030979606E+02  0.43400729592E+02  0.00000000000E+00 0.  1.
         11    1    3    3    0    0 -0.32158712680E+00  0.33339784256E+01 -0.58818450005E+01  0.67686727867E+01  0.51100000000E-03 0. -1.
        -11    1    3    3    0    0  0.77834854734E+00  0.12616596909E+02  0.21181950847E+01  0.12816828574E+02  0.51100000000E-03 0.  1.
        -12    1    3    3    0    0 -0.16227133672E+01  0.21424547713E+02 -0.18267329691E+02  0.28201769047E+02  0.00000000000E+00 0.  1.
</event>
<event>
 7    1  0.1899036E-009  0.4778727E+02  0.7816164E-02  0.1312668E+00
        -11   -1    0    0    0    0  0.00000000000E+00  0.00000000000E+00  0.45593999997E+02  0.45594000000E+02  0.51100000000E-03 0. -1.
         11   -1    0    0    0    0 -0.00000000000E+00 -0.00000000000E+00 -0.45593999997E+02  0.45594000000E+02  0.51100000000E-03 0.  1.
    9900012    2    1    2    0    0  0.28768303071E+02 -0.30127311686E+02 -0.12180030768E+02  0.47787270507E+02  0.19999997550E+02 0.  0.
        -12    1    1    2    0    0 -0.28768303071E+02  0.30127311686E+02  0.12180030768E+02  0.43400729493E+02  0.00000000000E+00 0.  1.
         11    1    3    3    0    0  0.97023513500E+01 -0.29334620812E+01  0.10867975879E+01  0.10194211630E+02  0.51100000000E-03 0. -1.
        -11    1    3    3    0    0  0.10019550875E+02 -0.10443647369E+02 -0.11478881424E+02  0.18472300591E+02  0.51100000000E-03 0.  1.
         12    1    3    3    0    0  0.90464008456E+01 -0.16750202236E+02 -0.17879469316E+01  0.19120758286E+02  0.00000000000E+00 0. -1.
</event>
<event>
 7    1  0.1899036E-009  0.4778728E+02  0.7816164E-02  0.1312668E+00
        -11   -1    0    0    0    0  0.00000000000E+00  0.00000000000E+00  0.45593999997E+02  0.45594000000E+02  0.51100000000E-03 0. -1.
         11   -1    0    0    0    0 -0.00000000000E+00 -0.00000000000E+00 -0.45593999997E+02  0.45594000000E+02  0.51100000000E-03 0.  1.
    9900012    2    1    2    0    0  0.26558232557E+02 -0.32700658145E+02  0.10437912069E+02  0.47787276872E+02  0.20000026569E+02 0.  0.
        -12    1    1    2    0    0 -0.26558232557E+02  0.32700658145E+02 -0.10437912069E+02  0.43400723128E+02  0.00000000000E+00 0.  1.
         11    1    3    3    0    0  0.90731167021E+01 -0.21501426739E+02 -0.11400661524E+01  0.23365199541E+02  0.51100000000E-03 0. -1.
        -11    1    3    3    0    0  0.14587416325E+02 -0.11519445897E+02  0.10065405068E+02  0.21137708681E+02  0.51100000000E-03 0.  1.
        -12    1    3    3    0    0  0.28976995298E+01  0.32021449101E+00  0.15125731533E+01  0.32843686500E+01  0.00000000000E+00 0.  1.
</event>
<event>
 7    1  0.1899036E-009  0.4778727E+02  0.7816164E-02  0.1312668E+00
        -11   -1    0    0    0    0  0.00000000000E+00  0.00000000000E+00  0.45593999997E+02  0.45594000000E+02  0.51100000000E-03 0. -1.
         11   -1    0    0    0    0 -0.00000000000E+00 -0.00000000000E+00 -0.45593999997E+02  0.45594000000E+02  0.51100000000E-03 0.  1.
    9900012    2    1    2    0    0 -0.36968123258E+02  0.16576250150E+02 -0.15563066887E+02  0.47787271236E+02  0.20000000875E+02 0.  0.
        -12    1    1    2    0    0  0.36968123258E+02 -0.16576250150E+02  0.15563066887E+02  0.43400728764E+02  0.00000000000E+00 0.  1.
         11    1    3    3    0    0 -0.20365704922E+02  0.13068718207E+02 -0.12096599873E+02  0.27053300377E+02  0.51100000000E-03 0. -1.
        -11    1    3    3    0    0 -0.13873068392E+02  0.48161685918E+01  0.16618496429E+01  0.14779013872E+02  0.51100000000E-03 0.  1.
        -12    1    3    3    0    0 -0.27293499444E+01 -0.13086366481E+01 -0.51283166566E+01  0.59549569878E+01  0.00000000000E+00 0.  1.
</event>
<event>
 7    1  0.1899036E-009  0.4778727E+02  0.7816164E-02  0.1312668E+00
        -11   -1    0    0    0    0  0.00000000000E+00  0.00000000000E+00  0.45593999997E+02  0.45594000000E+02  0.51100000000E-03 0.  1.
         11   -1    0    0    0    0 -0.00000000000E+00 -0.00000000000E+00 -0.45593999997E+02  0.45594000000E+02  0.51100000000E-03 0. -1.
    9900012    2    1    2    0    0  0.17141254212E+02  0.16605677923E+02 -0.36249863781E+02  0.47787265451E+02  0.19999974498E+02 0.  0.
        -12    1    1    2    0    0 -0.17141254212E+02 -0.16605677923E+02  0.36249863781E+02  0.43400734549E+02  0.00000000000E+00 0.  1.
         11    1    3    3    0    0  0.26297486142E+01  0.93972575250E+01 -0.99951363269E+01  0.13968778659E+02  0.51100000000E-03 0. -1.
        -11    1    3    3    0    0  0.16360678937E+02  0.58162927675E+01 -0.17079877695E+02  0.24356175791E+02  0.51100000000E-03 0.  1.
         12    1    3    3    0    0 -0.18491733393E+01  0.13921276307E+01 -0.91748497594E+01  0.94623110013E+01  0.00000000000E+00 0. -1.
</event>
<event>
 7    1  0.1899036E-009  0.4778728E+02  0.7816164E-02  0.1312668E+00
        -11   -1    0    0    0    0  0.00000000000E+00  0.00000000000E+00  0.45593999997E+02  0.45594000000E+02  0.51100000000E-03 0.  1.
         11   -1    0    0    0    0 -0.00000000000E+00 -0.00000000000E+00 -0.45593999997E+02  0.45594000000E+02  0.51100000000E-03 0. -1.
    9900012    2    1    2    0    0 -0.24150046716E+02 -0.21148371188E+02 -0.29208638438E+02  0.47787275125E+02  0.20000018603E+02 0.  0.
        -12    1    1    2    0    0  0.24150046716E+02  0.21148371188E+02  0.29208638438E+02  0.43400724875E+02  0.00000000000E+00 0.  1.
         11    1    3    3    0    0 -0.17051438549E+02 -0.15479864185E+02 -0.17204563735E+02  0.28746734864E+02  0.51100000000E-03 0. -1.
        -11    1    3    3    0    0 -0.64196088744E+01 -0.57822584284E+00 -0.52719050185E+00  0.64671209446E+01  0.51100000000E-03 0.  1.
         12    1    3    3    0    0 -0.67899929308E+00 -0.50902811600E+01 -0.11476884201E+02  0.12573419316E+02  0.00000000000E+00 0. -1.
</event>
<event>
 7    1  0.1899036E-009  0.4778727E+02  0.7816164E-02  0.1312668E+00
        -11   -1    0    0    0    0  0.00000000000E+00  0.00000000000E+00  0.45593999997E+02  0.45594000000E+02  0.51100000000E-03 0.  1.
         11   -1    0    0    0    0 -0.00000000000E+00 -0.00000000000E+00 -0.45593999997E+02  0.45594000000E+02  0.51100000000E-03 0. -1.
    9900012    2    1    2    0    0  0.70939338652E+01  0.12643117499E+02 -0.40907833919E+02  0.47787271968E+02  0.20000004210E+02 0.  0.
        -12    1    1    2    0    0 -0.70939338652E+01 -0.12643117499E+02  0.40907833919E+02  0.43400728032E+02  0.00000000000E+00 0.  1.
         11    1    3    3    0    0  0.34294568485E+01  0.64917345961E+01 -0.37892566376E+02  0.38597284609E+02  0.51100000000E-03 0. -1.
        -11    1    3    3    0    0 -0.71995033973E+00  0.41597613748E+00  0.68531109456E+00  0.10775046153E+01  0.51100000000E-03 0.  1.
         12    1    3    3    0    0  0.43844273564E+01  0.57354067657E+01 -0.37005786372E+01  0.81124827434E+01  0.00000000000E+00 0. -1.
</event>
<event>
 7    1  0.1899036E-009  0.4778727E+02  0.7816164E-02  0.1312668E+00
        -11   -1    0    0    0    0  0.00000000000E+00  0.00000000000E+00  0.45593999997E+02  0.45594000000E+02  0.51100000000E-03 0.  1.
         11   -1    0    0    0    0 -0.00000000000E+00 -0.00000000000E+00 -0.45593999997E+02  0.45594000000E+02  0.51100000000E-03 0. -1.
    9900012    2    1    2    0    0  0.63828601853E+01  0.97077665363E+01 -0.41816762524E+02  0.47787271167E+02  0.20000000560E+02 0.  0.
        -12    1    1    2    0    0 -0.63828601853E+01 -0.97077665363E+01  0.41816762524E+02  0.43400728833E+02  0.00000000000E+00 0.  1.
         11    1    3    3    0    0  0.18256186741E+01  0.50724381747E+01 -0.10707856677E+02  0.11988357162E+02  0.51100000000E-03 0.  1.
        -11    1    3    3    0    0  0.43684228482E+01  0.10738189180E+02 -0.21087225568E+02  0.24063725968E+02  0.51100000000E-03 0. -1.
        -12    1    3    3    0    0  0.18881866295E+00 -0.61028608181E+01 -0.10021680278E+02  0.11735188037E+02  0.00000000000E+00 0.  1.
</event>
<event>
 7    1  0.1899036E-009  0.4778727E+02  0.7816164E-02  0.1312668E+00
        -11   -1    0    0    0    0  0.00000000000E+00  0.00000000000E+00  0.45593999997E+02  0.45594000000E+02  0.51100000000E-03 0.  1.
         11   -1    0    0    0    0 -0.00000000000E+00 -0.00000000000E+00 -0.45593999997E+02  0.45594000000E+02  0.51100000000E-03 0. -1.
    9900012    2    1    2    0    0 -0.67527510652E+01 -0.20606711487E+02 -0.37595043490E+02  0.47787268437E+02  0.19999988110E+02 0.  0.
        -12    1    1    2    0    0  0.67527510652E+01  0.20606711487E+02  0.37595043490E+02  0.43400731563E+02  0.00000000000E+00 0.  1.
         11    1    3    3    0    0  0.32664211569E+01 -0.41412240821E+01 -0.67195150577E+01  0.85423139104E+01  0.51100000000E-03 0. -1.
        -11    1    3    3    0    0 -0.78490332456E+01 -0.44554468913E+01 -0.42925322991E+01  0.99942065063E+01  0.51100000000E-03 0.  1.
        -12    1    3    3    0    0 -0.21701389765E+01 -0.12010040513E+02 -0.26582996133E+02  0.29250748020E+02  0.00000000000E+00 0.  1.
</event>
<event>
 7    1  0.1899036E-009  0.4778727E+02  0.7816164E-02  0.1312668E+00
        -11   -1    0    0    0    0  0.00000000000E+00  0.00000000000E+00  0.45593999997E+02  0.45594000000E+02  0.51100000000E-03 0. -1.
         11   -1    0    0    0    0 -0.00000000000E+00 -0.00000000000E+00 -0.45593999997E+02  0.45594000000E+02  0.51100000000E-03 0.  1.
    9900012    2    1    2    0    0 -0.15168650041E+02 -0.39729782243E+02  0.86648757541E+01  0.47787267138E+02  0.19999982187E+02 0.  0.
        -12    1    1    2    0    0  0.15168650041E+02  0.39729782243E+02 -0.86648757541E+01  0.43400732862E+02  0.00000000000E+00 0.  1.
         11    1    3    3    0    0 -0.73998195183E+01 -0.31196635973E+02  0.12619468021E+02  0.34456325956E+02  0.51100000000E-03 0. -1.
        -11    1    3    3    0    0 -0.55816483980E+01 -0.79164290769E+01 -0.12006137814E+01  0.97604365621E+01  0.51100000000E-03 0.  1.
        -12    1    3    3    0    0 -0.21871821243E+01 -0.61671719314E+00 -0.27539784857E+01  0.35705046199E+01  0.00000000000E+00 0.  1.
</event>
<event>
 7    1  0.1899036E-009  0.4778724E+02  0.7816164E-02  0.1312668E+00
        -11   -1    0    0    0    0  0.00000000000E+00  0.00000000000E+00  0.45593999997E+02  0.45594000000E+02  0.51100000000E-03 0. -1.
         11   -1    0    0    0    0 -0.00000000000E+00 -0.00000000000E+00 -0.45593999997E+02  0.45594000000E+02  0.51100000000E-03 0.  1.
    9900012    2    1    2    0    0  0.20434383737E+02 -0.25366160159E+02  0.28681356966E+02  0.47787235522E+02  0.19999838036E+02 0.  0.
        -12    1    1    2    0    0 -0.20434383737E+02  0.25366160159E+02 -0.28681356966E+02  0.43400764478E+02  0.00000000000E+00 0.  1.
         11    1    3    3    0    0  0.90008504609E+01 -0.81849263682E+01  0.14803097758E+02  0.19160898522E+02  0.51100000000E-03 0. -1.
        -11    1    3    3    0    0  0.10403694622E+01 -0.24801975515E+01  0.98053754345E+01  0.10167553107E+02  0.51100000000E-03 0.  1.
        -12    1    3    3    0    0  0.10393163814E+02 -0.14701036239E+02  0.40728837736E+01  0.18458783893E+02  0.00000000000E+00 0.  1.
</event>
<event>
 7    1  0.1899036E-009  0.4778727E+02  0.7816164E-02  0.1312668E+00
        -11   -1    0    0    0    0  0.00000000000E+00  0.00000000000E+00  0.45593999997E+02  0.45594000000E+02  0.51100000000E-03 0.  1.
         11   -1    0    0    0    0 -0.00000000000E+00 -0.00000000000E+00 -0.45593999997E+02  0.45594000000E+02  0.51100000000E-03 0. -1.
    9900012    2    1    2    0    0 -0.38392522872E+01 -0.35910096407E+01 -0.43081180542E+02  0.47787270452E+02  0.19999997299E+02 0.  0.
        -12    1    1    2    0    0  0.38392522872E+01  0.35910096407E+01  0.43081180542E+02  0.43400729548E+02  0.00000000000E+00 0.  1.
         11    1    3    3    0    0  0.48624352267E+00  0.37364535447E+01 -0.35631523083E+01  0.51859013188E+01  0.51100000000E-03 0.  1.
        -11    1    3    3    0    0  0.98160763033E+00 -0.94965892228E+01 -0.30076524673E+02  0.31555444809E+02  0.51100000000E-03 0. -1.
         12    1    3    3    0    0 -0.53071034402E+01  0.21691260373E+01 -0.94415035607E+01  0.11045924324E+02  0.00000000000E+00 0. -1.
</event>
<event>
 7    1  0.1899036E-009  0.4778727E+02  0.7816164E-02  0.1312668E+00
        -11   -1    0    0    0    0  0.00000000000E+00  0.00000000000E+00  0.45593999997E+02  0.45594000000E+02  0.51100000000E-03 0. -1.
         11   -1    0    0    0    0 -0.00000000000E+00 -0.00000000000E+00 -0.45593999997E+02  0.45594000000E+02  0.51100000000E-03 0.  1.
    9900012    2    1    2    0    0  0.31825121893E+02  0.14984346618E+02  0.25421538524E+02  0.47787266734E+02  0.19999980348E+02 0.  0.
        -12    1    1    2    0    0 -0.31825121893E+02 -0.14984346618E+02 -0.25421538524E+02  0.43400733266E+02  0.00000000000E+00 0.  1.
         11    1    3    3    0    0  0.70131416185E+01  0.48830238042E+00  0.17699494128E+01  0.72495045183E+01  0.51100000000E-03 0. -1.
        -11    1    3    3    0    0  0.25006994541E+02  0.10567117723E+02  0.14959080778E+02  0.30996578052E+02  0.51100000000E-03 0.  1.
         12    1    3    3    0    0 -0.19501426639E+00  0.39289265149E+01  0.86925083339E+01  0.95411841644E+01  0.00000000000E+00 0. -1.
</event>
<event>
 7    1  0.1899036E-009  0.4778727E+02  0.7816164E-02  0.1312668E+00
        -11   -1    0    0    0    0  0.00000000000E+00  0.00000000000E+00  0.45593999997E+02  0.45594000000E+02  0.51100000000E-03 0.  1.
         11   -1    0    0    0    0 -0.00000000000E+00 -0.00000000000E+00 -0.45593999997E+02  0.45594000000E+02  0.51100000000E-03 0. -1.
    9900012    2    1    2    0    0 -0.25562492542E+02 -0.33363902385E+02 -0.10818166491E+02  0.47787265748E+02  0.19999975853E+02 0.  0.
        -12    1    1    2    0    0  0.25562492542E+02  0.33363902385E+02  0.10818166491E+02  0.43400734252E+02  0.00000000000E+00 0.  1.
         11    1    3    3    0    0 -0.85444558113E+01 -0.54499271324E+01 -0.56350392526E+01  0.11595822459E+02  0.51100000000E-03 0. -1.
        -11    1    3    3    0    0 -0.44353886431E+01 -0.87043572120E+01 -0.85498510574E+01  0.12982236335E+02  0.51100000000E-03 0.  1.
         12    1    3    3    0    0 -0.12582648088E+02 -0.19209618041E+02  0.33667238187E+01  0.23209206954E+02  0.00000000000E+00 0. -1.
</event>
<event>
 7    1  0.1899036E-009  0.4778728E+02  0.7816164E-02  0.1312668E+00
        -11   -1    0    0    0    0  0.00000000000E+00  0.00000000000E+00  0.45593999997E+02  0.45594000000E+02  0.51100000000E-03 0.  1.
         11   -1    0    0    0    0 -0.00000000000E+00 -0.00000000000E+00 -0.45593999997E+02  0.45594000000E+02  0.51100000000E-03 0. -1.
    9900012    2    1    2    0    0 -0.11815975238E+02  0.41547693688E+02  0.42183716931E+01  0.47787276718E+02  0.20000025869E+02 0.  0.
        -12    1    1    2    0    0  0.11815975238E+02 -0.41547693688E+02 -0.42183716931E+01  0.43400723282E+02  0.00000000000E+00 0.  1.
         11    1    3    3    0    0 -0.75370221275E+01  0.72747744925E+01 -0.55590103198E+00  0.10489903369E+02  0.51100000000E-03 0. -1.
        -11    1    3    3    0    0 -0.68308857093E+01  0.82447269706E+01  0.28170866314E+01  0.11071246531E+02  0.51100000000E-03 0.  1.
         12    1    3    3    0    0  0.25519325990E+01  0.26028192225E+02  0.19571860936E+01  0.26226126819E+02  0.00000000000E+00 0. -1.
</event>
<event>
 7    1  0.1899036E-009  0.4778727E+02  0.7816164E-02  0.1312668E+00
        -11   -1    0    0    0    0  0.00000000000E+00  0.00000000000E+00  0.45593999997E+02  0.45594000000E+02  0.51100000000E-03 0.  1.
         11   -1    0    0    0    0 -0.00000000000E+00 -0.00000000000E+00 -0.45593999997E+02  0.45594000000E+02  0.51100000000E-03 0. -1.
    9900012    2    1    2    0    0 -0.24875922593E+02  0.39732920467E+01 -0.35341543451E+02  0.47787271112E+02  0.20000000308E+02 0.  0.
        -12    1    1    2    0    0  0.24875922593E+02 -0.39732920467E+01  0.35341543451E+02  0.43400728888E+02  0.00000000000E+00 0.  1.
         11    1    3    3    0    0  0.76288692061E+00 -0.17904287879E+01 -0.17855003794E+01  0.26411443664E+01  0.51100000000E-03 0. -1.
        -11    1    3    3    0    0 -0.31719212146E+01 -0.43569980407E+01 -0.42927286844E+01  0.68899953510E+01  0.51100000000E-03 0.  1.
         12    1    3    3    0    0 -0.22466888299E+02  0.10120718875E+02 -0.29263314387E+02  0.38256131395E+02  0.00000000000E+00 0. -1.
</event>
<event>
 7    1  0.1899036E-009  0.4778727E+02  0.7816164E-02  0.1312668E+00
        -11   -1    0    0    0    0  0.00000000000E+00  0.00000000000E+00  0.45593999997E+02  0.45594000000E+02  0.51100000000E-03 0.  1.
         11   -1    0    0    0    0 -0.00000000000E+00 -0.00000000000E+00 -0.45593999997E+02  0.45594000000E+02  0.51100000000E-03 0. -1.
    9900012    2    1    2    0    0 -0.25882401196E+02  0.47291343110E+01 -0.34516081530E+02  0.47787270891E+02  0.19999999301E+02 0.  0.
        -12    1    1    2    0    0  0.25882401196E+02 -0.47291343110E+01  0.34516081530E+02  0.43400729109E+02  0.00000000000E+00 0.  1.
         11    1    3    3    0    0 -0.12241151903E+02  0.19498867133E+01 -0.82856015534E+01  0.14909696558E+02  0.51100000000E-03 0. -1.
        -11    1    3    3    0    0 -0.14405625608E+02  0.41958794691E+01 -0.13934768489E+02  0.20476943785E+02  0.51100000000E-03 0.  1.
        -12    1    3    3    0    0  0.76437631421E+00 -0.14166318714E+01 -0.12295711487E+02  0.12400630548E+02  0.00000000000E+00 0.  1.
</event>
<event>
 7    1  0.1899036E-009  0.4778727E+02  0.7816164E-02  0.1312668E+00
        -11   -1    0    0    0    0  0.00000000000E+00  0.00000000000E+00  0.45593999997E+02  0.45594000000E+02  0.51100000000E-03 0.  1.
         11   -1    0    0    0    0 -0.00000000000E+00 -0.00000000000E+00 -0.45593999997E+02  0.45594000000E+02  0.51100000000E-03 0. -1.
    9900012    2    1    2    0    0  0.30880811388E+02  0.15390622235E+02 -0.26327316126E+02  0.47787270293E+02  0.19999996573E+02 0.  0.
        -12    1    1    2    0    0 -0.30880811388E+02 -0.15390622235E+02  0.26327316126E+02  0.43400729707E+02  0.00000000000E+00 0.  1.
         11    1    3    3    0    0  0.30086579714E+01  0.48641407922E+01 -0.89973436120E+01  0.10661335787E+02  0.51100000000E-03 0. -1.
        -11    1    3    3    0    0 -0.81261453101E+00 -0.65573601449E+00  0.87203664610E+00  0.13604338536E+01  0.51100000000E-03 0.  1.
         12    1    3    3    0    0  0.28684767947E+02  0.11182217457E+02 -0.18202009160E+02  0.35765500652E+02  0.00000000000E+00 0. -1.
</event>
<event>
 7    1  0.1899036E-009  0.4778727E+02  0.7816164E-02  0.1312668E+00
        -11   -1    0    0    0    0  0.00000000000E+00  0.00000000000E+00  0.45593999997E+02  0.45594000000E+02  0.51100000000E-03 0.  1.
         11   -1    0    0    0    0 -0.00000000000E+00 -0.00000000000E+00 -0.45593999997E+02  0.45594000000E+02  0.51100000000E-03 0. -1.
    9900012    2    1    2    0    0 -0.90197601372E+01 -0.19964392351E+02 -0.37465861010E+02  0.47787265259E+02  0.19999973621E+02 0.  0.
        -12    1    1    2    0    0  0.90197601372E+01  0.19964392351E+02  0.37465861010E+02  0.43400734741E+02  0.00000000000E+00 0.  1.
         11    1    3    3    0    0 -0.72540801384E+01 -0.60774189575E+01 -0.82690819352E+01  0.12567196034E+02  0.51100000000E-03 0. -1.
        -11    1    3    3    0    0  0.40415434135E+01 -0.21546049993E+01 -0.19230915467E+01  0.49673611932E+01  0.51100000000E-03 0.  1.
         12    1    3    3    0    0 -0.58072234124E+01 -0.11732368394E+02 -0.27273687528E+02  0.30252708032E+02  0.00000000000E+00 0. -1.
</event>
<event>
 7    1  0.1899036E-009  0.4778727E+02  0.7816164E-02  0.1312668E+00
        -11   -1    0    0    0    0  0.00000000000E+00  0.00000000000E+00  0.45593999997E+02  0.45594000000E+02  0.51100000000E-03 0.  1.
         11   -1    0    0    0    0 -0.00000000000E+00 -0.00000000000E+00 -0.45593999997E+02  0.45594000000E+02  0.51100000000E-03 0. -1.
    9900012    2    1    2    0    0 -0.38771614356E+02  0.18093879608E+02  0.72798731023E+01  0.47787272916E+02  0.20000008532E+02 0.  0.
        -12    1    1    2    0    0  0.38771614356E+02 -0.18093879608E+02 -0.72798731023E+01  0.43400727084E+02  0.00000000000E+00 0.  1.
         11    1    3    3    0    0 -0.12247290145E+02  0.78029881205E+01 -0.36090057309E+01  0.14963544437E+02  0.51100000000E-03 0. -1.
        -11    1    3    3    0    0 -0.22521036958E+01 -0.21305864371E+01  0.32858645586E+01  0.45175519678E+01  0.51100000000E-03 0.  1.
        -12    1    3    3    0    0 -0.24272220515E+02  0.12421477925E+02  0.76030142745E+01  0.28306176510E+02  0.00000000000E+00 0.  1.
</event>
<event>
 7    1  0.1899036E-009  0.4778728E+02  0.7816164E-02  0.1312668E+00
        -11   -1    0    0    0    0  0.00000000000E+00  0.00000000000E+00  0.45593999997E+02  0.45594000000E+02  0.51100000000E-03 0.  1.
         11   -1    0    0    0    0 -0.00000000000E+00 -0.00000000000E+00 -0.45593999997E+02  0.45594000000E+02  0.51100000000E-03 0. -1.
    9900012    2    1    2    0    0 -0.12815615721E+02 -0.33756496204E+02 -0.24080735701E+02  0.47787275649E+02  0.20000020995E+02 0.  0.
        -12    1    1    2    0    0  0.12815615721E+02  0.33756496204E+02  0.24080735701E+02  0.43400724351E+02  0.00000000000E+00 0.  1.
         11    1    3    3    0    0 -0.11801394830E+02 -0.17020690970E+02 -0.21360132643E+02  0.29752850415E+02  0.51100000000E-03 0. -1.
        -11    1    3    3    0    0  0.60785094741E+00 -0.33087768502E+01  0.17473483208E+01  0.37908723843E+01  0.51100000000E-03 0.  1.
        -12    1    3    3    0    0 -0.16220718380E+01 -0.13427028383E+02 -0.44679513789E+01  0.14243552850E+02  0.00000000000E+00 0.  1.
</event>
<event>
 7    1  0.1899036E-009  0.4778728E+02  0.7816164E-02  0.1312668E+00
        -11   -1    0    0    0    0  0.00000000000E+00  0.00000000000E+00  0.45593999997E+02  0.45594000000E+02  0.51100000000E-03 0.  1.
         11   -1    0    0    0    0 -0.00000000000E+00 -0.00000000000E+00 -0.45593999997E+02  0.45594000000E+02  0.51100000000E-03 0. -1.
    9900012    2    1    2    0    0 -0.21229209604E+02 -0.10432471339E+02 -0.36388272421E+02  0.47787283779E+02  0.20000058063E+02 0.  0.
        -12    1    1    2    0    0  0.21229209604E+02  0.10432471339E+02  0.36388272421E+02  0.43400716221E+02  0.00000000000E+00 0.  1.
         11    1    3    3    0    0 -0.74798029635E+01 -0.60546886535E+01 -0.21646944132E+02  0.23689594711E+02  0.51100000000E-03 0.  1.
        -11    1    3    3    0    0 -0.15056932189E+01 -0.53640373219E+01 -0.98911641195E+00  0.56584768267E+01  0.51100000000E-03 0. -1.
         12    1    3    3    0    0 -0.12243713422E+02  0.98625463620E+00 -0.13752211878E+02  0.18439212242E+02  0.00000000000E+00 0. -1.
</event>
<event>
 7    1  0.1899036E-009  0.4778727E+02  0.7816164E-02  0.1312668E+00
        -11   -1    0    0    0    0  0.00000000000E+00  0.00000000000E+00  0.45593999997E+02  0.45594000000E+02  0.51100000000E-03 0.  1.
         11   -1    0    0    0    0 -0.00000000000E+00 -0.00000000000E+00 -0.45593999997E+02  0.45594000000E+02  0.51100000000E-03 0. -1.
    9900012    2    1    2    0    0 -0.39350179999E+02  0.14994984763E+02 -0.10504143903E+02  0.47787271053E+02  0.20000000040E+02 0.  0.
        -12    1    1    2    0    0  0.39350179999E+02 -0.14994984763E+02  0.10504143903E+02  0.43400728947E+02  0.00000000000E+00 0.  1.
         11    1    3    3    0    0 -0.16125302106E+02  0.12157234511E+02 -0.77034917929E+01  0.21614058042E+02  0.51100000000E-03 0. -1.
        -11    1    3    3    0    0 -0.66706368425E+01  0.61917331155E+01 -0.37259738803E+00  0.91089946719E+01  0.51100000000E-03 0.  1.
         12    1    3    3    0    0 -0.16554241051E+02 -0.33539828642E+01 -0.24280547218E+01  0.17064218340E+02  0.00000000000E+00 0. -1.
</event>
<event>
 7    1  0.1899036E-009  0.4778727E+02  0.7816164E-02  0.1312668E+00
        -11   -1    0    0    0    0  0.00000000000E+00  0.00000000000E+00  0.45593999997E+02  0.45594000000E+02  0.51100000000E-03 0.  1.
         11   -1    0    0    0    0 -0.00000000000E+00 -0.00000000000E+00 -0.45593999997E+02  0.45594000000E+02  0.51100000000E-03 0. -1.
    9900012    2    1    2    0    0 -0.11396936255E+02 -0.26144999659E+02 -0.32713484287E+02  0.47787271696E+02  0.20000002971E+02 0.  0.
        -12    1    1    2    0    0  0.11396936255E+02  0.26144999659E+02  0.32713484287E+02  0.43400728304E+02  0.00000000000E+00 0.  1.
         11    1    3    3    0    0 -0.12537325151E+02 -0.20966677175E+02 -0.18808507066E+02  0.30830926227E+02  0.51100000000E-03 0. -1.
        -11    1    3    3    0    0  0.44680080133E+00  0.10046105686E+01  0.54257269075E+00  0.12260745232E+01  0.51100000000E-03 0.  1.
        -12    1    3    3    0    0  0.69358809563E+00 -0.61829330523E+01 -0.14447549912E+02  0.15730270946E+02  0.00000000000E+00 0.  1.
</event>
<event>
 7    1  0.1899036E-009  0.4778727E+02  0.7816164E-02  0.1312668E+00
        -11   -1    0    0    0    0  0.00000000000E+00  0.00000000000E+00  0.45593999997E+02  0.45594000000E+02  0.51100000000E-03 0.  1.
         11   -1    0    0    0    0 -0.00000000000E+00 -0.00000000000E+00 -0.45593999997E+02  0.45594000000E+02  0.51100000000E-03 0. -1.
    9900012    2    1    2    0    0 -0.10080398191E+02 -0.41384291723E+02 -0.83276281763E+01  0.47787269359E+02  0.19999992317E+02 0.  0.
        -12    1    1    2    0    0  0.10080398191E+02  0.41384291723E+02  0.83276281763E+01  0.43400730641E+02  0.00000000000E+00 0.  1.
         11    1    3    3    0    0  0.15325592971E+01 -0.66246260479E+00  0.15226303743E+01  0.22596455961E+01  0.51100000000E-03 0. -1.
        -11    1    3    3    0    0 -0.14962076957E+01 -0.15937772466E+02  0.22232980619E+01  0.16161506217E+02  0.51100000000E-03 0.  1.
         12    1    3    3    0    0 -0.10116749793E+02 -0.24784056652E+02 -0.12073556612E+02  0.29366117547E+02  0.00000000000E+00 0. -1.
</event>
<event>
 7    1  0.1899036E-009  0.4778727E+02  0.7816164E-02  0.1312668E+00
        -11   -1    0    0    0    0  0.00000000000E+00  0.00000000000E+00  0.45593999997E+02  0.45594000000E+02  0.51100000000E-03 0.  1.
         11   -1    0    0    0    0 -0.00000000000E+00 -0.00000000000E+00 -0.45593999997E+02  0.45594000000E+02  0.51100000000E-03 0. -1.
    9900012    2    1    2    0    0 -0.18605155251E+02 -0.14380674117E+02 -0.36478314220E+02  0.47787274220E+02  0.20000014476E+02 0.  0.
        -12    1    1    2    0    0  0.18605155251E+02  0.14380674117E+02  0.36478314220E+02  0.43400725780E+02  0.00000000000E+00 0.  1.
         11    1    3    3    0    0 -0.17244887718E+02 -0.16572242983E+02 -0.35424318817E+02  0.42742341464E+02  0.51100000000E-03 0. -1.
        -11    1    3    3    0    0 -0.17502330781E+01  0.16411367885E+01 -0.24903227941E+01  0.34580852600E+01  0.51100000000E-03 0.  1.
         12    1    3    3    0    0  0.38996554546E+00  0.55043207757E+00  0.14363273915E+01  0.15868474956E+01  0.00000000000E+00 0. -1.
</event>
<event>
 7    1  0.1899036E-009  0.4778727E+02  0.7816164E-02  0.1312668E+00
        -11   -1    0    0    0    0  0.00000000000E+00  0.00000000000E+00  0.45593999997E+02  0.45594000000E+02  0.51100000000E-03 0.  1.
         11   -1    0    0    0    0 -0.00000000000E+00 -0.00000000000E+00 -0.45593999997E+02  0.45594000000E+02  0.51100000000E-03 0. -1.
    9900012    2    1    2    0    0  0.35384704616E+02  0.29196553323E+01 -0.24960398243E+02  0.47787272029E+02  0.20000004488E+02 0.  0.
        -12    1    1    2    0    0 -0.35384704616E+02 -0.29196553323E+01  0.24960398243E+02  0.43400727971E+02  0.00000000000E+00 0.  1.
         11    1    3    3    0    0  0.29137387840E+01  0.23867188978E+01  0.10331284106E+01  0.39055928324E+01  0.51100000000E-03 0. -1.
        -11    1    3    3    0    0  0.75180431517E+01 -0.21615945510E+01 -0.14063180798E+02  0.16092436678E+02  0.51100000000E-03 0.  1.
         12    1    3    3    0    0  0.24952922680E+02  0.26945309856E+01 -0.11930345855E+02  0.27789242518E+02  0.00000000000E+00 0. -1.
</event>
<event>
 7    1  0.1899036E-009  0.4778727E+02  0.7816164E-02  0.1312668E+00
        -11   -1    0    0    0    0  0.00000000000E+00  0.00000000000E+00  0.45593999997E+02  0.45594000000E+02  0.51100000000E-03 0.  1.
         11   -1    0    0    0    0 -0.00000000000E+00 -0.00000000000E+00 -0.45593999997E+02  0.45594000000E+02  0.51100000000E-03 0. -1.
    9900012    2    1    2    0    0 -0.15288425403E+02  0.12376198617E+02 -0.38687425953E+02  0.47787272237E+02  0.20000005437E+02 0.  0.
        -12    1    1    2    0    0  0.15288425403E+02 -0.12376198617E+02  0.38687425953E+02  0.43400727763E+02  0.00000000000E+00 0.  1.
         11    1    3    3    0    0 -0.55242053701E+01  0.14325899774E+01 -0.38985129404E+01  0.69114081360E+01  0.51100000000E-03 0. -1.
        -11    1    3    3    0    0 -0.54478057418E+01  0.74173480691E+01 -0.48118916874E+01  0.10385082650E+02  0.51100000000E-03 0.  1.
         12    1    3    3    0    0 -0.43164142911E+01  0.35262605702E+01 -0.29977021325E+02  0.30490781451E+02  0.00000000000E+00 0. -1.
</event>
<event>
 7    1  0.1899036E-009  0.4778727E+02  0.7816164E-02  0.1312668E+00
        -11   -1    0    0    0    0  0.00000000000E+00  0.00000000000E+00  0.45593999997E+02  0.45594000000E+02  0.51100000000E-03 0.  1.
         11   -1    0    0    0    0 -0.00000000000E+00 -0.00000000000E+00 -0.45593999997E+02  0.45594000000E+02  0.51100000000E-03 0. -1.
    9900012    2    1    2    0    0  0.40089289784E+02  0.55038731216E+00 -0.16618334959E+02  0.47787272605E+02  0.20000007116E+02 0.  0.
        -12    1    1    2    0    0 -0.40089289784E+02 -0.55038731216E+00  0.16618334959E+02  0.43400727395E+02  0.00000000000E+00 0.  1.
         11    1    3    3    0    0  0.11909144303E+02 -0.21355874637E+01 -0.68291018722E+00  0.12118366987E+02  0.51100000000E-03 0. -1.
        -11    1    3    3    0    0  0.26413748630E+01  0.42572243064E+01 -0.69132579703E+01  0.85377957335E+01  0.51100000000E-03 0.  1.
         12    1    3    3    0    0  0.25538770618E+02 -0.15712495306E+01 -0.90221668010E+01  0.27131109884E+02  0.00000000000E+00 0. -1.
</event>
<event>
 7    1  0.1899036E-009  0.4778727E+02  0.7816164E-02  0.1312668E+00
        -11   -1    0    0    0    0  0.00000000000E+00  0.00000000000E+00  0.45593999997E+02  0.45594000000E+02  0.51100000000E-03 0.  1.
         11   -1    0    0    0    0 -0.00000000000E+00 -0.00000000000E+00 -0.45593999997E+02  0.45594000000E+02  0.51100000000E-03 0. -1.
    9900012    2    1    2    0    0 -0.64447889188E+01  0.20221398304E+01 -0.42871888159E+02  0.47787272495E+02  0.20000006612E+02 0.  0.
        -12    1    1    2    0    0  0.64447889188E+01 -0.20221398304E+01  0.42871888159E+02  0.43400727505E+02  0.00000000000E+00 0.  1.
         11    1    3    3    0    0 -0.27726670990E+00 -0.35430533612E+01 -0.17786722683E+02  0.18138291210E+02  0.51100000000E-03 0. -1.
        -11    1    3    3    0    0 -0.10028430143E+02  0.22146647102E+01 -0.19746211028E+02  0.22257290966E+02  0.51100000000E-03 0.  1.
         12    1    3    3    0    0  0.38609079339E+01  0.33505284814E+01 -0.53389544481E+01  0.73916903194E+01  0.00000000000E+00 0. -1.
</event>
<event>
 7    1  0.1899036E-009  0.4778729E+02  0.7816164E-02  0.1312668E+00
        -11   -1    0    0    0    0  0.00000000000E+00  0.00000000000E+00  0.45593999997E+02  0.45594000000E+02  0.51100000000E-03 0. -1.
         11   -1    0    0    0    0 -0.00000000000E+00 -0.00000000000E+00 -0.45593999997E+02  0.45594000000E+02  0.51100000000E-03 0.  1.
    9900012    2    1    2    0    0  0.38655518278E+02  0.10896415427E+01  0.19702422611E+02  0.47787287232E+02  0.20000073808E+02 0.  0.
        -12    1    1    2    0    0 -0.38655518278E+02 -0.10896415427E+01 -0.19702422611E+02  0.43400712768E+02  0.00000000000E+00 0.  1.
         11    1    3    3    0    0  0.32853774918E+02 -0.20757570143E+01  0.16837291445E+02  0.36975311724E+02  0.51100000000E-03 0. -1.
        -11    1    3    3    0    0  0.61632593677E+01  0.21914547571E+01 -0.11701511540E+01  0.66451105311E+01  0.51100000000E-03 0.  1.
        -12    1    3    3    0    0 -0.36151600846E+00  0.97394379992E+00  0.40352823190E+01  0.41668649779E+01  0.00000000000E+00 0.  1.
</event>
<event>
 7    1  0.1899036E-009  0.4778726E+02  0.7816164E-02  0.1312668E+00
        -11   -1    0    0    0    0  0.00000000000E+00  0.00000000000E+00  0.45593999997E+02  0.45594000000E+02  0.51100000000E-03 0.  1.
         11   -1    0    0    0    0 -0.00000000000E+00 -0.00000000000E+00 -0.45593999997E+02  0.45594000000E+02  0.51100000000E-03 0. -1.
    9900012    2    1    2    0    0 -0.22827393521E+02 -0.17962302178E+02 -0.32247321820E+02  0.47787263150E+02  0.19999964008E+02 0.  0.
        -12    1    1    2    0    0  0.22827393521E+02  0.17962302178E+02  0.32247321820E+02  0.43400736850E+02  0.00000000000E+00 0.  1.
         11    1    3    3    0    0 -0.97534552515E+01 -0.49205555272E+01 -0.36250798750E+00  0.10930378234E+02  0.51100000000E-03 0.  1.
        -11    1    3    3    0    0 -0.35744596698E+01 -0.37830962934E+01 -0.97251613763E+01  0.11030292088E+02  0.51100000000E-03 0. -1.
        -12    1    3    3    0    0 -0.94994785997E+01 -0.92586503574E+01 -0.22159652457E+02  0.25826592828E+02  0.00000000000E+00 0.  1.
</event>
<event>
 7    1  0.1899036E-009  0.4778727E+02  0.7816164E-02  0.1312668E+00
        -11   -1    0    0    0    0  0.00000000000E+00  0.00000000000E+00  0.45593999997E+02  0.45594000000E+02  0.51100000000E-03 0.  1.
         11   -1    0    0    0    0 -0.00000000000E+00 -0.00000000000E+00 -0.45593999997E+02  0.45594000000E+02  0.51100000000E-03 0. -1.
    9900012    2    1    2    0    0  0.33831811928E+02  0.25463395179E+02  0.95208890218E+01  0.47787270511E+02  0.19999997568E+02 0.  0.
        -12    1    1    2    0    0 -0.33831811928E+02 -0.25463395179E+02 -0.95208890218E+01  0.43400729489E+02  0.00000000000E+00 0.  1.
         11    1    3    3    0    0  0.89720789985E+00 -0.27853444038E+01  0.17519429561E+01  0.34106348157E+01  0.51100000000E-03 0. -1.
        -11    1    3    3    0    0  0.66231868775E+01  0.43244618728E+01 -0.28050137620E+00  0.79149387987E+01  0.51100000000E-03 0.  1.
         12    1    3    3    0    0  0.26311417151E+02  0.23924277710E+02  0.80494474419E+01  0.36461696897E+02  0.00000000000E+00 0. -1.
</event>
<event>
 7    1  0.1899036E-009  0.4778727E+02  0.7816164E-02  0.1312668E+00
        -11   -1    0    0    0    0  0.00000000000E+00  0.00000000000E+00  0.45593999997E+02  0.45594000000E+02  0.51100000000E-03 0.  1.
         11   -1    0    0    0    0 -0.00000000000E+00 -0.00000000000E+00 -0.45593999997E+02  0.45594000000E+02  0.51100000000E-03 0. -1.
    9900012    2    1    2    0    0  0.28394248329E+01 -0.11024789878E+02 -0.41880959581E+02  0.47787273040E+02  0.20000009097E+02 0.  0.
        -12    1    1    2    0    0 -0.28394248329E+01  0.11024789878E+02  0.41880959581E+02  0.43400726960E+02  0.00000000000E+00 0.  1.
         11    1    3    3    0    0 -0.43689535309E+01 -0.17956451649E+01 -0.44013663166E+01  0.64563242040E+01  0.51100000000E-03 0. -1.
        -11    1    3    3    0    0  0.67262927634E+01 -0.53149456380E+00 -0.73948698165E+01  0.10010474548E+02  0.51100000000E-03 0.  1.
         12    1    3    3    0    0  0.48208560030E+00 -0.86976501495E+01 -0.30084723448E+02  0.31320474288E+02  0.00000000000E+00 0. -1.
</event>
<event>
 7    1  0.1899036E-009  0.4778727E+02  0.7816164E-02  0.1312668E+00
        -11   -1    0    0    0    0  0.00000000000E+00  0.00000000000E+00  0.45593999997E+02  0.45594000000E+02  0.51100000000E-03 0.  1.
         11   -1    0    0    0    0 -0.00000000000E+00 -0.00000000000E+00 -0.45593999997E+02  0.45594000000E+02  0.51100000000E-03 0. -1.
    9900012    2    1    2    0    0  0.31233617039E+02  0.21508037983E+02 -0.21106607586E+02  0.47787269419E+02  0.19999992589E+02 0.  0.
        -12    1    1    2    0    0 -0.31233617039E+02 -0.21508037983E+02  0.21106607586E+02  0.43400730581E+02  0.00000000000E+00 0.  1.
         11    1    3    3    0    0  0.10739812918E+02  0.12609199116E+02 -0.12415981293E+02  0.20700050135E+02  0.51100000000E-03 0. -1.
        -11    1    3    3    0    0  0.77616866867E+01  0.16169854743E+01 -0.95288971785E+01  0.12395898674E+02  0.51100000000E-03 0.  1.
        -12    1    3    3    0    0  0.12732117434E+02  0.72818533923E+01  0.83827088507E+00  0.14691320610E+02  0.00000000000E+00 0.  1.
</event>
<event>
 7    1  0.1899036E-009  0.4778727E+02  0.7816164E-02  0.1312668E+00
        -11   -1    0    0    0    0  0.00000000000E+00  0.00000000000E+00  0.45593999997E+02  0.45594000000E+02  0.51100000000E-03 0. -1.
         11   -1    0    0    0    0 -0.00000000000E+00 -0.00000000000E+00 -0.45593999997E+02  0.45594000000E+02  0.51100000000E-03 0.  1.
    9900012    2    1    2    0    0 -0.91456275611E+01  0.40496241756E+02  0.12650520649E+02  0.47787265299E+02  0.19999973805E+02 0.  0.
        -12    1    1    2    0    0  0.91456275611E+01 -0.40496241756E+02 -0.12650520649E+02  0.43400734701E+02  0.00000000000E+00 0.  1.
         11    1    3    3    0    0  0.15563917509E+00  0.66850939027E+00  0.58653795076E+01  0.59054047606E+01  0.51100000000E-03 0. -1.
        -11    1    3    3    0    0 -0.12200006641E+01  0.16975795594E+02  0.40025907941E+01  0.17483900338E+02  0.51100000000E-03 0.  1.
         12    1    3    3    0    0 -0.80812660721E+01  0.22851936772E+02  0.27825503474E+01  0.24397960201E+02  0.00000000000E+00 0. -1.
</event>
<event>
 7    1  0.1899036E-009  0.4778728E+02  0.7816164E-02  0.1312668E+00
        -11   -1    0    0    0    0  0.00000000000E+00  0.00000000000E+00  0.45593999997E+02  0.45594000000E+02  0.51100000000E-03 0.  1.
         11   -1    0    0    0    0 -0.00000000000E+00 -0.00000000000E+00 -0.45593999997E+02  0.45594000000E+02  0.51100000000E-03 0. -1.
    9900012    2    1    2    0    0 -0.13496607874E+02 -0.16980832791E+02 -0.37591430017E+02  0.47787277459E+02  0.20000029248E+02 0.  0.
        -12    1    1    2    0    0  0.13496607874E+02  0.16980832791E+02  0.37591430017E+02  0.43400722541E+02  0.00000000000E+00 0.  1.
         11    1    3    3    0    0 -0.52212415735E+01 -0.10321115260E+02 -0.19530433327E+02  0.22698559645E+02  0.51100000000E-03 0. -1.
        -11    1    3    3    0    0 -0.95638613019E+01  0.20671062688E+00 -0.14155994419E+02  0.17085150001E+02  0.51100000000E-03 0.  1.
         12    1    3    3    0    0  0.12884950013E+01 -0.68664281573E+01 -0.39050022704E+01  0.80035678131E+01  0.00000000000E+00 0. -1.
</event>
<event>
 7    1  0.1899036E-009  0.4778727E+02  0.7816164E-02  0.1312668E+00
        -11   -1    0    0    0    0  0.00000000000E+00  0.00000000000E+00  0.45593999997E+02  0.45594000000E+02  0.51100000000E-03 0. -1.
         11   -1    0    0    0    0 -0.00000000000E+00 -0.00000000000E+00 -0.45593999997E+02  0.45594000000E+02  0.51100000000E-03 0.  1.
    9900012    2    1    2    0    0  0.33002513464E+02 -0.28045523671E+02 -0.28117033090E+01  0.47787274563E+02  0.20000016043E+02 0.  0.
        -12    1    1    2    0    0 -0.33002513464E+02  0.28045523671E+02  0.28117033090E+01  0.43400725437E+02  0.00000000000E+00 0.  1.
         11    1    3    3    0    0  0.54224562096E+01 -0.10171845197E+02  0.20239826869E+01  0.11703246226E+02  0.51100000000E-03 0. -1.
        -11    1    3    3    0    0  0.20211595803E+02 -0.15512379076E+02 -0.93336189046E+01  0.27134092054E+02  0.51100000000E-03 0.  1.
         12    1    3    3    0    0  0.73684614516E+01 -0.23612993987E+01  0.44979329087E+01  0.89499362828E+01  0.00000000000E+00 0. -1.
</event>
<event>
 7    1  0.1899036E-009  0.4778727E+02  0.7816164E-02  0.1312668E+00
        -11   -1    0    0    0    0  0.00000000000E+00  0.00000000000E+00  0.45593999997E+02  0.45594000000E+02  0.51100000000E-03 0. -1.
         11   -1    0    0    0    0 -0.00000000000E+00 -0.00000000000E+00 -0.45593999997E+02  0.45594000000E+02  0.51100000000E-03 0.  1.
    9900012    2    1    2    0    0  0.28880199082E+02 -0.30627913732E+02  0.10558806850E+02  0.47787269583E+02  0.19999993337E+02 0.  0.
        -12    1    1    2    0    0 -0.28880199082E+02  0.30627913732E+02 -0.10558806850E+02  0.43400730417E+02  0.00000000000E+00 0.  1.
         11    1    3    3    0    0  0.56869252526E+00 -0.68310655400E+01 -0.10109366283E+01  0.69288426687E+01  0.51100000000E-03 0. -1.
        -11    1    3    3    0    0  0.84088447045E+01 -0.59279625789E+01  0.95459557387E+01  0.14034766860E+02  0.51100000000E-03 0.  1.
         12    1    3    3    0    0  0.19902661852E+02 -0.17868885614E+02  0.20237877397E+01  0.26823660054E+02  0.00000000000E+00 0. -1.
</event>
<event>
 7    1  0.1899036E-009  0.4778727E+02  0.7816164E-02  0.1312668E+00
        -11   -1    0    0    0    0  0.00000000000E+00  0.00000000000E+00  0.45593999997E+02  0.45594000000E+02  0.51100000000E-03 0.  1.
         11   -1    0    0    0    0 -0.00000000000E+00 -0.00000000000E+00 -0.45593999997E+02  0.45594000000E+02  0.51100000000E-03 0. -1.
    9900012    2    1    2    0    0  0.10649373046E+02 -0.62278658378E+01 -0.41610427975E+02  0.47787272178E+02  0.20000005171E+02 0.  0.
        -12    1    1    2    0    0 -0.10649373046E+02  0.62278658378E+01  0.41610427975E+02  0.43400727822E+02  0.00000000000E+00 0.  1.
         11    1    3    3    0    0  0.11711422432E+02 -0.67826090656E+01 -0.12680908087E+02  0.18546337409E+02  0.51100000000E-03 0.  1.
        -11    1    3    3    0    0  0.13840068031E+01  0.10677138528E+01 -0.12848520846E+02  0.12966879960E+02  0.51100000000E-03 0. -1.
        -12    1    3    3    0    0 -0.24460561894E+01 -0.51297062495E+00 -0.16080999043E+02  0.16274054810E+02  0.00000000000E+00 0.  1.
</event>
<event>
 7    1  0.1899036E-009  0.4778727E+02  0.7816164E-02  0.1312668E+00
        -11   -1    0    0    0    0  0.00000000000E+00  0.00000000000E+00  0.45593999997E+02  0.45594000000E+02  0.51100000000E-03 0.  1.
         11   -1    0    0    0    0 -0.00000000000E+00 -0.00000000000E+00 -0.45593999997E+02  0.45594000000E+02  0.51100000000E-03 0. -1.
    9900012    2    1    2    0    0 -0.17299251135E+01  0.17768884517E+02 -0.39558782321E+02  0.47787272395E+02  0.20000006159E+02 0.  0.
        -12    1    1    2    0    0  0.17299251135E+01 -0.17768884517E+02  0.39558782321E+02  0.43400727605E+02  0.00000000000E+00 0.  1.
         11    1    3    3    0    0  0.57234826521E+01  0.34777313382E+01 -0.20574436519E+02  0.21637012438E+02  0.51100000000E-03 0. -1.
        -11    1    3    3    0    0 -0.53049931194E+00  0.96069688434E+01 -0.10428522409E+02  0.14189057748E+02  0.51100000000E-03 0.  1.
         12    1    3    3    0    0 -0.69229084536E+01  0.46841843352E+01 -0.85558233938E+01  0.11961202209E+02  0.00000000000E+00 0. -1.
</event>
<event>
 7    1  0.2154597E-009  0.4778727E+02  0.7816164E-02  0.1312668E+00
        -11   -1    0    0    0    0  0.00000000000E+00  0.00000000000E+00  0.45593999997E+02  0.45594000000E+02  0.51100000000E-03 0.  1.
         11   -1    0    0    0    0 -0.00000000000E+00 -0.00000000000E+00 -0.45593999997E+02  0.45594000000E+02  0.51100000000E-03 0. -1.
    9900012    2    1    2    0    0 -0.34716354001E+02 -0.34119375793E+01 -0.25821635723E+02  0.47787269308E+02  0.19999992085E+02 0.  0.
        -12    1    1    2    0    0  0.34716354001E+02  0.34119375793E+01  0.25821635723E+02  0.43400730692E+02  0.00000000000E+00 0.  1.
         11    1    3    3    0    0 -0.12451510430E+02 -0.67163484488E+01 -0.12458004038E+02  0.18850764264E+02  0.51100000000E-03 0. -1.
        -11    1    3    3    0    0 -0.15352633127E+02 -0.84525044084E+00 -0.27690687433E+01  0.15623236996E+02  0.51100000000E-03 0.  1.
        -12    1    3    3    0    0 -0.69122104435E+01  0.41496613104E+01 -0.10594562942E+02  0.13313268049E+02  0.00000000000E+00 0.  1.
</event>
<event>
 7    1  0.1899036E-009  0.4778726E+02  0.7816164E-02  0.1312668E+00
        -11   -1    0    0    0    0  0.00000000000E+00  0.00000000000E+00  0.45593999997E+02  0.45594000000E+02  0.51100000000E-03 0.  1.
         11   -1    0    0    0    0 -0.00000000000E+00 -0.00000000000E+00 -0.45593999997E+02  0.45594000000E+02  0.51100000000E-03 0. -1.
    9900012    2    1    2    0    0  0.27345861255E+02  0.18089671859E+02  0.28435749957E+02  0.47787260014E+02  0.19999949707E+02 0.  0.
        -12    1    1    2    0    0 -0.27345861255E+02 -0.18089671859E+02 -0.28435749957E+02  0.43400739986E+02  0.00000000000E+00 0.  1.
         11    1    3    3    0    0  0.10490360593E+02  0.90242276601E+01  0.20461412782E+02  0.24701290726E+02  0.51100000000E-03 0. -1.
        -11    1    3    3    0    0  0.37813418523E+01  0.73826277692E+01  0.16161233509E+01  0.84506564200E+01  0.51100000000E-03 0.  1.
        -12    1    3    3    0    0  0.13074158809E+02  0.16828164297E+01  0.63582138247E+01  0.14635312868E+02  0.00000000000E+00 0.  1.
</event>
<event>
 7    1  0.1899036E-009  0.4778727E+02  0.7816164E-02  0.1312668E+00
        -11   -1    0    0    0    0  0.00000000000E+00  0.00000000000E+00  0.45593999997E+02  0.45594000000E+02  0.51100000000E-03 0.  1.
         11   -1    0    0    0    0 -0.00000000000E+00 -0.00000000000E+00 -0.45593999997E+02  0.45594000000E+02  0.51100000000E-03 0. -1.
    9900012    2    1    2    0    0  0.12860987810E+02 -0.36642979731E+02 -0.19378089469E+02  0.47787270484E+02  0.19999997446E+02 0.  0.
        -12    1    1    2    0    0 -0.12860987810E+02  0.36642979731E+02  0.19378089469E+02  0.43400729516E+02  0.00000000000E+00 0.  1.
         11    1    3    3    0    0  0.56483669886E+01 -0.44060311637E+01 -0.71918604095E+01  0.10150862853E+02  0.51100000000E-03 0. -1.
        -11    1    3    3    0    0  0.24116614421E+01 -0.99442362174E+01  0.24731840761E+01  0.10527135631E+02  0.51100000000E-03 0.  1.
         12    1    3    3    0    0  0.48009593790E+01 -0.22292712350E+02 -0.14659413136E+02  0.27109272000E+02  0.00000000000E+00 0. -1.
</event>
<event>
 7    1  0.1899036E-009  0.4778727E+02  0.7816164E-02  0.1312668E+00
        -11   -1    0    0    0    0  0.00000000000E+00  0.00000000000E+00  0.45593999997E+02  0.45594000000E+02  0.51100000000E-03 0.  1.
         11   -1    0    0    0    0 -0.00000000000E+00 -0.00000000000E+00 -0.45593999997E+02  0.45594000000E+02  0.51100000000E-03 0. -1.
    9900012    2    1    2    0    0  0.94155108656E+01  0.38806387029E+02 -0.17001065255E+02  0.47787265687E+02  0.19999975574E+02 0.  0.
        -12    1    1    2    0    0 -0.94155108656E+01 -0.38806387029E+02  0.17001065255E+02  0.43400734313E+02  0.00000000000E+00 0.  1.
         11    1    3    3    0    0  0.85850872481E+01  0.18771846506E+02 -0.17250133659E+02  0.26900800282E+02  0.51100000000E-03 0. -1.
        -11    1    3    3    0    0 -0.11135463291E-01  0.22035756784E+01  0.19661770892E+01  0.29532562327E+01  0.51100000000E-03 0.  1.
         12    1    3    3    0    0  0.84155908082E+00  0.17830964845E+02 -0.17171086843E+01  0.17933209172E+02  0.00000000000E+00 0. -1.
</event>
<event>
 7    1  0.1899036E-009  0.4778727E+02  0.7816164E-02  0.1312668E+00
        -11   -1    0    0    0    0  0.00000000000E+00  0.00000000000E+00  0.45593999997E+02  0.45594000000E+02  0.51100000000E-03 0. -1.
         11   -1    0    0    0    0 -0.00000000000E+00 -0.00000000000E+00 -0.45593999997E+02  0.45594000000E+02  0.51100000000E-03 0.  1.
    9900012    2    1    2    0    0  0.23791407290E+02 -0.44139979573E+01  0.36029276056E+02  0.47787272219E+02  0.20000005356E+02 0.  0.
        -12    1    1    2    0    0 -0.23791407290E+02  0.44139979573E+01 -0.36029276056E+02  0.43400727781E+02  0.00000000000E+00 0.  1.
         11    1    3    3    0    0  0.17214726510E+02 -0.36514921689E+01  0.34688083389E+02  0.38896572257E+02  0.51100000000E-03 0. -1.
        -11    1    3    3    0    0  0.60444652510E+01  0.90612097464E+00  0.26922696539E+01  0.66786923527E+01  0.51100000000E-03 0.  1.
        -12    1    3    3    0    0  0.53221552819E+00 -0.16686267630E+01 -0.13510769863E+01  0.22120076098E+01  0.00000000000E+00 0.  1.
</event>
<event>
 7    1  0.3535023E-009  0.4778727E+02  0.7816164E-02  0.1312668E+00
        -11   -1    0    0    0    0  0.00000000000E+00  0.00000000000E+00  0.45593999997E+02  0.45594000000E+02  0.51100000000E-03 0. -1.
         11   -1    0    0    0    0 -0.00000000000E+00 -0.00000000000E+00 -0.45593999997E+02  0.45594000000E+02  0.51100000000E-03 0.  1.
    9900012    2    1    2    0    0  0.52744008403E+01  0.31775507212E+02  0.29088163230E+02  0.47787269558E+02  0.19999993222E+02 0.  0.
        -12    1    1    2    0    0 -0.52744008403E+01 -0.31775507212E+02 -0.29088163230E+02  0.43400730442E+02  0.00000000000E+00 0.  1.
         11    1    3    3    0    0  0.10723044104E+02  0.16429250875E+02  0.15616780400E+02  0.25075641357E+02  0.51100000000E-03 0. -1.
        -11    1    3    3    0    0 -0.20149401966E+01 -0.46914139101E+00  0.19739921445E+01  0.28594969643E+01  0.51100000000E-03 0.  1.
        -12    1    3    3    0    0 -0.34337030666E+01  0.15815397728E+02  0.11497390685E+02  0.19852131236E+02  0.00000000000E+00 0.  1.
</event>
<event>
 7    1  0.1899036E-009  0.4778727E+02  0.7816164E-02  0.1312668E+00
        -11   -1    0    0    0    0  0.00000000000E+00  0.00000000000E+00  0.45593999997E+02  0.45594000000E+02  0.51100000000E-03 0. -1.
         11   -1    0    0    0    0 -0.00000000000E+00 -0.00000000000E+00 -0.45593999997E+02  0.45594000000E+02  0.51100000000E-03 0.  1.
    9900012    2    1    2    0    0 -0.29743372154E+02 -0.28659508109E+02  0.13326208511E+02  0.47787269299E+02  0.19999992041E+02 0.  0.
        -12    1    1    2    0    0  0.29743372154E+02  0.28659508109E+02 -0.13326208511E+02  0.43400730701E+02  0.00000000000E+00 0.  1.
         11    1    3    3    0    0 -0.18174103683E+02 -0.14509049817E+02  0.13110823845E+02  0.26696521748E+02  0.51100000000E-03 0. -1.
        -11    1    3    3    0    0  0.79463309771E+00  0.66736785532E+00 -0.13797097783E+01  0.17263895701E+01  0.51100000000E-03 0.  1.
        -12    1    3    3    0    0 -0.12363901569E+02 -0.14817826147E+02  0.15950944439E+01  0.19364357981E+02  0.00000000000E+00 0.  1.
</event>
<event>
 7    1  0.1899036E-009  0.4778727E+02  0.7816164E-02  0.1312668E+00
        -11   -1    0    0    0    0  0.00000000000E+00  0.00000000000E+00  0.45593999997E+02  0.45594000000E+02  0.51100000000E-03 0.  1.
         11   -1    0    0    0    0 -0.00000000000E+00 -0.00000000000E+00 -0.45593999997E+02  0.45594000000E+02  0.51100000000E-03 0. -1.
    9900012    2    1    2    0    0  0.32886361983E+02  0.93155585008E+01 -0.26745668307E+02  0.47787271805E+02  0.20000003468E+02 0.  0.
        -12    1    1    2    0    0 -0.32886361983E+02 -0.93155585008E+01  0.26745668307E+02  0.43400728195E+02  0.00000000000E+00 0.  1.
         11    1    3    3    0    0 -0.64359863350E+00  0.12883375091E+01  0.26485575255E-01  0.14403938646E+01  0.51100000000E-03 0.  1.
        -11    1    3    3    0    0  0.18678642144E+01  0.20758712711E+01 -0.92733821731E+01  0.96847186561E+01  0.51100000000E-03 0. -1.
         12    1    3    3    0    0  0.31662096402E+02  0.59513497207E+01 -0.17498771709E+02  0.36662159285E+02  0.00000000000E+00 0. -1.
</event>
<event>
 7    1  0.1899036E-009  0.4778727E+02  0.7816164E-02  0.1312668E+00
        -11   -1    0    0    0    0  0.00000000000E+00  0.00000000000E+00  0.45593999997E+02  0.45594000000E+02  0.51100000000E-03 0.  1.
         11   -1    0    0    0    0 -0.00000000000E+00 -0.00000000000E+00 -0.45593999997E+02  0.45594000000E+02  0.51100000000E-03 0. -1.
    9900012    2    1    2    0    0 -0.80847068049E+01  0.31616766239E+02 -0.28611896856E+02  0.47787273816E+02  0.20000012638E+02 0.  0.
        -12    1    1    2    0    0  0.80847068049E+01 -0.31616766239E+02  0.28611896856E+02  0.43400726184E+02  0.00000000000E+00 0.  1.
         11    1    3    3    0    0 -0.70083002222E+01  0.62195870482E+01 -0.76026207387E+01  0.12066456705E+02  0.51100000000E-03 0. -1.
        -11    1    3    3    0    0 -0.68299741583E+01  0.19351160234E+02 -0.14296595458E+02  0.25010169758E+02  0.51100000000E-03 0.  1.
         12    1    3    3    0    0  0.57535675755E+01  0.60460189571E+01 -0.67126806601E+01  0.10710647353E+02  0.00000000000E+00 0. -1.
</event>
<event>
 7    1  0.1899036E-009  0.4778727E+02  0.7816164E-02  0.1312668E+00
        -11   -1    0    0    0    0  0.00000000000E+00  0.00000000000E+00  0.45593999997E+02  0.45594000000E+02  0.51100000000E-03 0.  1.
         11   -1    0    0    0    0 -0.00000000000E+00 -0.00000000000E+00 -0.45593999997E+02  0.45594000000E+02  0.51100000000E-03 0. -1.
    9900012    2    1    2    0    0  0.13698535274E+02  0.41152194644E+02  0.15716074903E+01  0.47787274859E+02  0.20000017392E+02 0.  0.
        -12    1    1    2    0    0 -0.13698535274E+02 -0.41152194644E+02 -0.15716074903E+01  0.43400725141E+02  0.00000000000E+00 0.  1.
         11    1    3    3    0    0  0.70691072689E+01  0.15821362233E+02  0.24392864955E+01  0.17499654264E+02  0.51100000000E-03 0. -1.
        -11    1    3    3    0    0  0.77945532179E+01  0.43900619559E+01  0.18620796287E+01  0.91375622924E+01  0.51100000000E-03 0.  1.
         12    1    3    3    0    0 -0.11651252126E+01  0.20940770455E+02 -0.27297586339E+01  0.21150058302E+02  0.00000000000E+00 0. -1.
</event>
<event>
 7    1  0.1899036E-009  0.4778727E+02  0.7816164E-02  0.1312668E+00
        -11   -1    0    0    0    0  0.00000000000E+00  0.00000000000E+00  0.45593999997E+02  0.45594000000E+02  0.51100000000E-03 0.  1.
         11   -1    0    0    0    0 -0.00000000000E+00 -0.00000000000E+00 -0.45593999997E+02  0.45594000000E+02  0.51100000000E-03 0. -1.
    9900012    2    1    2    0    0 -0.20823653173E+02  0.27182521214E+02 -0.26666632034E+02  0.47787271261E+02  0.20000000989E+02 0.  0.
        -12    1    1    2    0    0  0.20823653173E+02 -0.27182521214E+02  0.26666632034E+02  0.43400728739E+02  0.00000000000E+00 0.  1.
         11    1    3    3    0    0 -0.25944022280E+01  0.13368495739E+02 -0.10628098207E+02  0.17274376198E+02  0.51100000000E-03 0. -1.
        -11    1    3    3    0    0 -0.79184257244E+01  0.50955874824E+01  0.16883182022E+00  0.94178013458E+01  0.51100000000E-03 0.  1.
        -12    1    3    3    0    0 -0.10310825221E+02  0.87184379926E+01 -0.16207365647E+02  0.21095093718E+02  0.00000000000E+00 0.  1.
</event>
<event>
 7    1  0.1899036E-009  0.4778727E+02  0.7816164E-02  0.1312668E+00
        -11   -1    0    0    0    0  0.00000000000E+00  0.00000000000E+00  0.45593999997E+02  0.45594000000E+02  0.51100000000E-03 0.  1.
         11   -1    0    0    0    0 -0.00000000000E+00 -0.00000000000E+00 -0.45593999997E+02  0.45594000000E+02  0.51100000000E-03 0. -1.
    9900012    2    1    2    0    0  0.62969881033E+01 -0.29167235786E+02 -0.31515766391E+02  0.47787271506E+02  0.20000002106E+02 0.  0.
        -12    1    1    2    0    0 -0.62969881033E+01  0.29167235786E+02  0.31515766391E+02  0.43400728494E+02  0.00000000000E+00 0.  1.
         11    1    3    3    0    0  0.45696582341E+01 -0.47559654223E+00 -0.52293478968E+01  0.69608942051E+01  0.51100000000E-03 0. -1.
        -11    1    3    3    0    0 -0.46702785891E+01 -0.93900699155E+01 -0.12208374748E+02  0.16094388133E+02  0.51100000000E-03 0.  1.
         12    1    3    3    0    0  0.63976084583E+01 -0.19301569328E+02 -0.14078043746E+02  0.24731989168E+02  0.00000000000E+00 0. -1.
</event>
<event>
 7    1  0.1899036E-009  0.4778727E+02  0.7816164E-02  0.1312668E+00
        -11   -1    0    0    0    0  0.00000000000E+00  0.00000000000E+00  0.45593999997E+02  0.45594000000E+02  0.51100000000E-03 0.  1.
         11   -1    0    0    0    0 -0.00000000000E+00 -0.00000000000E+00 -0.45593999997E+02  0.45594000000E+02  0.51100000000E-03 0. -1.
    9900012    2    1    2    0    0 -0.88872210157E+01 -0.97014123257E+01 -0.41358471707E+02  0.47787270969E+02  0.19999999656E+02 0.  0.
        -12    1    1    2    0    0  0.88872210157E+01  0.97014123257E+01  0.41358471707E+02  0.43400729031E+02  0.00000000000E+00 0.  1.
         11    1    3    3    0    0 -0.10539217430E+00 -0.70913038872E+01 -0.65708261343E+01  0.96681670796E+01  0.51100000000E-03 0. -1.
        -11    1    3    3    0    0  0.16922600962E+01  0.15828165541E+01 -0.16277792531E+02  0.16441885002E+02  0.51100000000E-03 0.  1.
         12    1    3    3    0    0 -0.10474088938E+02 -0.41929249926E+01 -0.18509853042E+02  0.21677218888E+02  0.00000000000E+00 0. -1.
</event>
<event>
 7    1  0.1899036E-009  0.4778723E+02  0.7816164E-02  0.1312668E+00
        -11   -1    0    0    0    0  0.00000000000E+00  0.00000000000E+00  0.45593999997E+02  0.45594000000E+02  0.51100000000E-03 0.  1.
         11   -1    0    0    0    0 -0.00000000000E+00 -0.00000000000E+00 -0.45593999997E+02  0.45594000000E+02  0.51100000000E-03 0. -1.
    9900012    2    1    2    0    0 -0.27867132860E+02 -0.11800723551E+02 -0.31109368489E+02  0.47787228372E+02  0.19999805436E+02 0.  0.
        -12    1    1    2    0    0  0.27867132860E+02  0.11800723551E+02  0.31109368489E+02  0.43400771628E+02  0.00000000000E+00 0.  1.
         11    1    3    3    0    0 -0.11438836511E+02 -0.63382165508E+01 -0.17564136961E+02  0.21897919472E+02  0.51100000000E-03 0. -1.
        -11    1    3    3    0    0 -0.47272542150E+01 -0.80307243010E+01 -0.26300811195E+01  0.96828091052E+01  0.51100000000E-03 0.  1.
        -12    1    3    3    0    0 -0.11701042134E+02  0.25682173012E+01 -0.10915150408E+02  0.16206499794E+02  0.00000000000E+00 0.  1.
</event>
<event>
 7    1  0.1899036E-009  0.4778727E+02  0.7816164E-02  0.1312668E+00
        -11   -1    0    0    0    0  0.00000000000E+00  0.00000000000E+00  0.45593999997E+02  0.45594000000E+02  0.51100000000E-03 0.  1.
         11   -1    0    0    0    0 -0.00000000000E+00 -0.00000000000E+00 -0.45593999997E+02  0.45594000000E+02  0.51100000000E-03 0. -1.
    9900012    2    1    2    0    0  0.21917327124E+02  0.30620995162E+02 -0.21577966288E+02  0.47787271871E+02  0.20000003767E+02 0.  0.
        -12    1    1    2    0    0 -0.21917327124E+02 -0.30620995162E+02  0.21577966288E+02  0.43400728129E+02  0.00000000000E+00 0.  1.
         11    1    3    3    0    0  0.28964861766E+01 -0.69082346589E+00  0.36652497094E+00  0.30002016678E+01  0.51100000000E-03 0. -1.
        -11    1    3    3    0    0  0.38142083949E+01  0.17458182252E+02 -0.63182639020E+01  0.18954070070E+02  0.51100000000E-03 0.  1.
         12    1    3    3    0    0  0.15206632553E+02  0.13853636377E+02 -0.15626227357E+02  0.25833000133E+02  0.00000000000E+00 0. -1.
</event>
<event>
 7    1  0.1899036E-009  0.4778727E+02  0.7816164E-02  0.1312668E+00
        -11   -1    0    0    0    0  0.00000000000E+00  0.00000000000E+00  0.45593999997E+02  0.45594000000E+02  0.51100000000E-03 0.  1.
         11   -1    0    0    0    0 -0.00000000000E+00 -0.00000000000E+00 -0.45593999997E+02  0.45594000000E+02  0.51100000000E-03 0. -1.
    9900012    2    1    2    0    0  0.45090790394E+01 -0.75122177128E+01 -0.42507153968E+02  0.47787270200E+02  0.19999996149E+02 0.  0.
        -12    1    1    2    0    0 -0.45090790394E+01  0.75122177128E+01  0.42507153968E+02  0.43400729800E+02  0.00000000000E+00 0.  1.
         11    1    3    3    0    0 -0.33978840359E+01 -0.13755503123E+01 -0.19355396136E+02  0.19699469903E+02  0.51100000000E-03 0. -1.
        -11    1    3    3    0    0 -0.23650701955E+01  0.13825789146E+01 -0.70373945277E+01  0.75518212031E+01  0.51100000000E-03 0.  1.
        -12    1    3    3    0    0  0.10272033271E+02 -0.75192463151E+01 -0.16114363304E+02  0.20535979094E+02  0.00000000000E+00 0.  1.
</event>
<event>
 7    1  0.1899036E-009  0.4778731E+02  0.7816164E-02  0.1312668E+00
        -11   -1    0    0    0    0  0.00000000000E+00  0.00000000000E+00  0.45593999997E+02  0.45594000000E+02  0.51100000000E-03 0.  1.
         11   -1    0    0    0    0 -0.00000000000E+00 -0.00000000000E+00 -0.45593999997E+02  0.45594000000E+02  0.51100000000E-03 0. -1.
    9900012    2    1    2    0    0  0.16035549312E+02 -0.61856196487E+00 -0.40324906113E+02  0.47787314364E+02  0.20000197509E+02 0.  0.
        -12    1    1    2    0    0 -0.16035549312E+02  0.61856196487E+00  0.40324906113E+02  0.43400685636E+02  0.00000000000E+00 0.  1.
         11    1    3    3    0    0  0.91467659445E+01 -0.77829445551E+01 -0.13655957840E+02  0.18185783953E+02  0.51100000000E-03 0. -1.
        -11    1    3    3    0    0  0.65765410276E+01  0.35052839484E+01 -0.23805475234E+02  0.24944710037E+02  0.51100000000E-03 0.  1.
        -12    1    3    3    0    0  0.31224234019E+00  0.36590986418E+01 -0.28634730391E+01  0.46568203739E+01  0.00000000000E+00 0.  1.
</event>
<event>
 7    1  0.1899036E-009  0.4778727E+02  0.7816164E-02  0.1312668E+00
        -11   -1    0    0    0    0  0.00000000000E+00  0.00000000000E+00  0.45593999997E+02  0.45594000000E+02  0.51100000000E-03 0.  1.
         11   -1    0    0    0    0 -0.00000000000E+00 -0.00000000000E+00 -0.45593999997E+02  0.45594000000E+02  0.51100000000E-03 0. -1.
    9900012    2    1    2    0    0 -0.42457147172E+01  0.19924234885E+02 -0.38322608044E+02  0.47787268249E+02  0.19999987256E+02 0.  0.
        -12    1    1    2    0    0  0.42457147172E+01 -0.19924234885E+02  0.38322608044E+02  0.43400731751E+02  0.00000000000E+00 0.  1.
         11    1    3    3    0    0 -0.15820073553E+01  0.53253616555E+01 -0.14352042467E+02  0.15389715633E+02  0.51100000000E-03 0. -1.
        -11    1    3    3    0    0  0.75444189683E+00 -0.14962980478E+01  0.13829775480E+01  0.21727212391E+01  0.51100000000E-03 0.  1.
        -12    1    3    3    0    0 -0.34181492587E+01  0.16095171277E+02 -0.25353543125E+02  0.30224831377E+02  0.00000000000E+00 0.  1.
</event>
<event>
 7    1  0.1899036E-009  0.4778727E+02  0.7816164E-02  0.1312668E+00
        -11   -1    0    0    0    0  0.00000000000E+00  0.00000000000E+00  0.45593999997E+02  0.45594000000E+02  0.51100000000E-03 0.  1.
         11   -1    0    0    0    0 -0.00000000000E+00 -0.00000000000E+00 -0.45593999997E+02  0.45594000000E+02  0.51100000000E-03 0. -1.
    9900012    2    1    2    0    0  0.20345458621E+02  0.10758916828E+01 -0.38321381690E+02  0.47787268163E+02  0.19999986861E+02 0.  0.
        -12    1    1    2    0    0 -0.20345458621E+02 -0.10758916828E+01  0.38321381690E+02  0.43400731837E+02  0.00000000000E+00 0.  1.
         11    1    3    3    0    0  0.19869816547E+01  0.39509017359E+01 -0.45408678935E+01  0.63385488962E+01  0.51100000000E-03 0. -1.
        -11    1    3    3    0    0  0.21044841721E+02 -0.20999666105E+01 -0.30798446137E+02  0.37360935581E+02  0.51100000000E-03 0.  1.
         12    1    3    3    0    0 -0.26863647542E+01 -0.77504344259E+00 -0.29820676594E+01  0.40877836850E+01  0.00000000000E+00 0. -1.
</event>
<event>
 7    1  0.1899036E-009  0.4778727E+02  0.7816164E-02  0.1312668E+00
        -11   -1    0    0    0    0  0.00000000000E+00  0.00000000000E+00  0.45593999997E+02  0.45594000000E+02  0.51100000000E-03 0.  1.
         11   -1    0    0    0    0 -0.00000000000E+00 -0.00000000000E+00 -0.45593999997E+02  0.45594000000E+02  0.51100000000E-03 0. -1.
    9900012    2    1    2    0    0 -0.27678800644E+02 -0.97960251778E+01 -0.31961615991E+02  0.47787274072E+02  0.20000013802E+02 0.  0.
        -12    1    1    2    0    0  0.27678800644E+02  0.97960251778E+01  0.31961615991E+02  0.43400725928E+02  0.00000000000E+00 0.  1.
         11    1    3    3    0    0 -0.88053501083E+01 -0.51515294230E+01 -0.45057383438E+01  0.11152314747E+02  0.51100000000E-03 0. -1.
        -11    1    3    3    0    0 -0.46287177760E+01 -0.63576383186E+01 -0.17458569356E+02  0.19148008707E+02  0.51100000000E-03 0.  1.
        -12    1    3    3    0    0 -0.14244732759E+02  0.17131425638E+01 -0.99973082915E+01  0.17486950618E+02  0.00000000000E+00 0.  1.
</event>
<event>
 7    1  0.1899036E-009  0.4778727E+02  0.7816164E-02  0.1312668E+00
        -11   -1    0    0    0    0  0.00000000000E+00  0.00000000000E+00  0.45593999997E+02  0.45594000000E+02  0.51100000000E-03 0.  1.
         11   -1    0    0    0    0 -0.00000000000E+00 -0.00000000000E+00 -0.45593999997E+02  0.45594000000E+02  0.51100000000E-03 0. -1.
    9900012    2    1    2    0    0 -0.16109022705E+02  0.37124765522E+02 -0.15680380476E+02  0.47787272362E+02  0.20000006009E+02 0.  0.
        -12    1    1    2    0    0  0.16109022705E+02 -0.37124765522E+02  0.15680380476E+02  0.43400727638E+02  0.00000000000E+00 0.  1.
         11    1    3    3    0    0 -0.86198428966E+01  0.11245248813E+02 -0.11406574698E+02  0.18189756981E+02  0.51100000000E-03 0. -1.
        -11    1    3    3    0    0  0.26378013517E+01  0.46110346887E+01  0.11257690945E+01  0.54301927394E+01  0.51100000000E-03 0.  1.
         12    1    3    3    0    0 -0.10126981160E+02  0.21268482021E+02 -0.53995748730E+01  0.24167322642E+02  0.00000000000E+00 0. -1.
</event>
<event>
 7    1  0.1899036E-009  0.4778727E+02  0.7816164E-02  0.1312668E+00
        -11   -1    0    0    0    0  0.00000000000E+00  0.00000000000E+00  0.45593999997E+02  0.45594000000E+02  0.51100000000E-03 0. -1.
         11   -1    0    0    0    0 -0.00000000000E+00 -0.00000000000E+00 -0.45593999997E+02  0.45594000000E+02  0.51100000000E-03 0.  1.
    9900012    2    1    2    0    0  0.42718418818E+02 -0.75044497329E+01 -0.15630729070E+01  0.47787271101E+02  0.20000000257E+02 0.  0.
        -12    1    1    2    0    0 -0.42718418818E+02  0.75044497329E+01  0.15630729070E+01  0.43400728899E+02  0.00000000000E+00 0.  1.
         11    1    3    3    0    0  0.32340215207E+02  0.51307915882E+00  0.33511008429E+00  0.32346020913E+02  0.51100000000E-03 0. -1.
        -11    1    3    3    0    0  0.97001851512E+01 -0.89023418430E+01  0.84899603218E-01  0.13166339296E+02  0.51100000000E-03 0.  1.
        -12    1    3    3    0    0  0.67801845932E+00  0.88481295124E+00 -0.19830825945E+01  0.22749108920E+01  0.00000000000E+00 0.  1.
</event>
<event>
 7    1  0.1899036E-009  0.4778726E+02  0.7816164E-02  0.1312668E+00
        -11   -1    0    0    0    0  0.00000000000E+00  0.00000000000E+00  0.45593999997E+02  0.45594000000E+02  0.51100000000E-03 0. -1.
         11   -1    0    0    0    0 -0.00000000000E+00 -0.00000000000E+00 -0.45593999997E+02  0.45594000000E+02  0.51100000000E-03 0.  1.
    9900012    2    1    2    0    0 -0.45875656332E+01 -0.10429560039E+02  0.41878427973E+02  0.47787260253E+02  0.19999950799E+02 0.  0.
        -12    1    1    2    0    0  0.45875656332E+01  0.10429560039E+02 -0.41878427973E+02  0.43400739747E+02  0.00000000000E+00 0.  1.
         11    1    3    3    0    0 -0.39699414462E+01 -0.28205780214E+00  0.98328655466E-01  0.39811632064E+01  0.51100000000E-03 0.  1.
        -11    1    3    3    0    0 -0.21977696749E+01 -0.91167913386E+01  0.21727680421E+02  0.23665125662E+02  0.51100000000E-03 0. -1.
        -12    1    3    3    0    0  0.15801454879E+01 -0.10307108984E+01  0.20052418897E+02  0.20140971385E+02  0.00000000000E+00 0.  1.
</event>
<event>
 7    1  0.1899036E-009  0.4778727E+02  0.7816164E-02  0.1312668E+00
        -11   -1    0    0    0    0  0.00000000000E+00  0.00000000000E+00  0.45593999997E+02  0.45594000000E+02  0.51100000000E-03 0.  1.
         11   -1    0    0    0    0 -0.00000000000E+00 -0.00000000000E+00 -0.45593999997E+02  0.45594000000E+02  0.51100000000E-03 0. -1.
    9900012    2    1    2    0    0  0.48706851721E+01 -0.13877166041E+02 -0.40832874822E+02  0.47787274458E+02  0.20000015564E+02 0.  0.
        -12    1    1    2    0    0 -0.48706851721E+01  0.13877166041E+02  0.40832874822E+02  0.43400725542E+02  0.00000000000E+00 0.  1.
         11    1    3    3    0    0  0.55181098197E+01 -0.93261676323E+00 -0.16251159330E+02  0.17187771520E+02  0.51100000000E-03 0. -1.
        -11    1    3    3    0    0 -0.61559524319E+01 -0.34695322697E+01 -0.11881973772E+02  0.13824424238E+02  0.51100000000E-03 0.  1.
         12    1    3    3    0    0  0.55085277844E+01 -0.94750170080E+01 -0.12699741720E+02  0.16775078700E+02  0.00000000000E+00 0. -1.
</event>
<event>
 7    1  0.1899036E-009  0.4778727E+02  0.7816164E-02  0.1312668E+00
        -11   -1    0    0    0    0  0.00000000000E+00  0.00000000000E+00  0.45593999997E+02  0.45594000000E+02  0.51100000000E-03 0. -1.
         11   -1    0    0    0    0 -0.00000000000E+00 -0.00000000000E+00 -0.45593999997E+02  0.45594000000E+02  0.51100000000E-03 0.  1.
    9900012    2    1    2    0    0  0.14896506400E+02  0.38329645178E+02  0.13876448343E+02  0.47787269349E+02  0.19999992272E+02 0.  0.
        -12    1    1    2    0    0 -0.14896506400E+02 -0.38329645178E+02 -0.13876448343E+02  0.43400730651E+02  0.00000000000E+00 0.  1.
         11    1    3    3    0    0  0.77791401880E+01  0.24329490748E+02  0.11756030727E+02  0.28118381903E+02  0.51100000000E-03 0. -1.
        -11    1    3    3    0    0  0.66228921146E+01  0.28843844001E+01  0.41904867209E+01  0.83512006651E+01  0.51100000000E-03 0.  1.
         12    1    3    3    0    0  0.49447409747E+00  0.11115770030E+02 -0.20700691050E+01  0.11317686782E+02  0.00000000000E+00 0. -1.
</event>
<event>
 7    1  0.1899036E-009  0.4778728E+02  0.7816164E-02  0.1312668E+00
        -11   -1    0    0    0    0  0.00000000000E+00  0.00000000000E+00  0.45593999997E+02  0.45594000000E+02  0.51100000000E-03 0. -1.
         11   -1    0    0    0    0 -0.00000000000E+00 -0.00000000000E+00 -0.45593999997E+02  0.45594000000E+02  0.51100000000E-03 0.  1.
    9900012    2    1    2    0    0 -0.24714640122E+02 -0.35466742297E+02 -0.38625870894E+01  0.47787276221E+02  0.20000023601E+02 0.  0.
        -12    1    1    2    0    0  0.24714640122E+02  0.35466742297E+02  0.38625870894E+01  0.43400723779E+02  0.00000000000E+00 0.  1.
         11    1    3    3    0    0 -0.79068967599E+01 -0.99588694831E+01  0.43129594054E+01  0.13427573007E+02  0.51100000000E-03 0. -1.
        -11    1    3    3    0    0  0.21036990784E+00 -0.17417897429E+00  0.21301592329E+01  0.21475968969E+01  0.51100000000E-03 0.  1.
         12    1    3    3    0    0 -0.17018113270E+02 -0.25333693840E+02 -0.10305705728E+02  0.32212106317E+02  0.00000000000E+00 0. -1.
</event>
<event>
 7    1  0.1899036E-009  0.4778727E+02  0.7816164E-02  0.1312668E+00
        -11   -1    0    0    0    0  0.00000000000E+00  0.00000000000E+00  0.45593999997E+02  0.45594000000E+02  0.51100000000E-03 0.  1.
         11   -1    0    0    0    0 -0.00000000000E+00 -0.00000000000E+00 -0.45593999997E+02  0.45594000000E+02  0.51100000000E-03 0. -1.
    9900012    2    1    2    0    0 -0.76330722844E+01  0.42414360072E+02 -0.51362802941E+01  0.47787272955E+02  0.20000008709E+02 0.  0.
        -12    1    1    2    0    0  0.76330722844E+01 -0.42414360072E+02  0.51362802941E+01  0.43400727045E+02  0.00000000000E+00 0.  1.
         11    1    3    3    0    0  0.48181901068E+01  0.14073157906E+02  0.15865164774E+01  0.14959470718E+02  0.51100000000E-03 0. -1.
        -11    1    3    3    0    0 -0.61972205374E+01  0.98324094610E+01  0.13261236551E+01  0.11697881108E+02  0.51100000000E-03 0.  1.
        -12    1    3    3    0    0 -0.62540418539E+01  0.18508792705E+02 -0.80489204266E+01  0.21129921129E+02  0.00000000000E+00 0.  1.
</event>
<event>
 7    1  0.1899036E-009  0.4778727E+02  0.7816164E-02  0.1312668E+00
        -11   -1    0    0    0    0  0.00000000000E+00  0.00000000000E+00  0.45593999997E+02  0.45594000000E+02  0.51100000000E-03 0.  1.
         11   -1    0    0    0    0 -0.00000000000E+00 -0.00000000000E+00 -0.45593999997E+02  0.45594000000E+02  0.51100000000E-03 0. -1.
    9900012    2    1    2    0    0  0.36206894145E+02  0.34461948952E+00 -0.23928338699E+02  0.47787270293E+02  0.19999996573E+02 0.  0.
        -12    1    1    2    0    0 -0.36206894145E+02 -0.34461948952E+00  0.23928338699E+02  0.43400729707E+02  0.00000000000E+00 0.  1.
         11    1    3    3    0    0  0.25441913594E+02 -0.63786062597E+01 -0.21855266883E+02  0.34141327976E+02  0.51100000000E-03 0. -1.
        -11    1    3    3    0    0 -0.10256979096E-02  0.11484124834E+01  0.49935666718E+00  0.12522817679E+01  0.51100000000E-03 0.  1.
         12    1    3    3    0    0  0.10766006249E+02  0.55748132659E+01 -0.25724284824E+01  0.12393660549E+02  0.00000000000E+00 0. -1.
</event>
<event>
 7    1  0.1899036E-009  0.4778727E+02  0.7816164E-02  0.1312668E+00
        -11   -1    0    0    0    0  0.00000000000E+00  0.00000000000E+00  0.45593999997E+02  0.45594000000E+02  0.51100000000E-03 0.  1.
         11   -1    0    0    0    0 -0.00000000000E+00 -0.00000000000E+00 -0.45593999997E+02  0.45594000000E+02  0.51100000000E-03 0. -1.
    9900012    2    1    2    0    0  0.10503754355E+02  0.38018639181E+02  0.18107386757E+02  0.47787271482E+02  0.20000001996E+02 0.  0.
        -12    1    1    2    0    0 -0.10503754355E+02 -0.38018639181E+02 -0.18107386757E+02  0.43400728518E+02  0.00000000000E+00 0.  1.
         11    1    3    3    0    0  0.51088236332E+01  0.31107978047E+02  0.10314508943E+02  0.33169194625E+02  0.51100000000E-03 0. -1.
        -11    1    3    3    0    0  0.61595437932E+01  0.50702838188E+01  0.16323691316E+01  0.81432417983E+01  0.51100000000E-03 0.  1.
         12    1    3    3    0    0 -0.76461307176E+00  0.18403773153E+01  0.61605086824E+01  0.64748350587E+01  0.00000000000E+00 0. -1.
</event>
<event>
 7    1  0.1899036E-009  0.4778727E+02  0.7816164E-02  0.1312668E+00
        -11   -1    0    0    0    0  0.00000000000E+00  0.00000000000E+00  0.45593999997E+02  0.45594000000E+02  0.51100000000E-03 0. -1.
         11   -1    0    0    0    0 -0.00000000000E+00 -0.00000000000E+00 -0.45593999997E+02  0.45594000000E+02  0.51100000000E-03 0.  1.
    9900012    2    1    2    0    0  0.13274836609E+02  0.23750084484E+02  0.33813247595E+02  0.47787268291E+02  0.19999987445E+02 0.  0.
        -12    1    1    2    0    0 -0.13274836609E+02 -0.23750084484E+02 -0.33813247595E+02  0.43400731709E+02  0.00000000000E+00 0.  1.
         11    1    3    3    0    0 -0.20267575655E+01  0.33260195749E+01  0.90297566303E+01  0.98339543169E+01  0.51100000000E-03 0.  1.
        -11    1    3    3    0    0  0.59084736148E+01  0.58876866055E+00  0.18710112863E+01  0.62255435496E+01  0.51100000000E-03 0. -1.
         12    1    3    3    0    0  0.93931205601E+01  0.19835296248E+02  0.22912479678E+02  0.31727770424E+02  0.00000000000E+00 0. -1.
</event>
<event>
 7    1  0.1899036E-009  0.4778727E+02  0.7816164E-02  0.1312668E+00
        -11   -1    0    0    0    0  0.00000000000E+00  0.00000000000E+00  0.45593999997E+02  0.45594000000E+02  0.51100000000E-03 0. -1.
         11   -1    0    0    0    0 -0.00000000000E+00 -0.00000000000E+00 -0.45593999997E+02  0.45594000000E+02  0.51100000000E-03 0.  1.
    9900012    2    1    2    0    0  0.10575050350E+02  0.30889517537E+02  0.28594218490E+02  0.47787270575E+02  0.19999997862E+02 0.  0.
        -12    1    1    2    0    0 -0.10575050350E+02 -0.30889517537E+02 -0.28594218490E+02  0.43400729425E+02  0.00000000000E+00 0.  1.
         11    1    3    3    0    0  0.42552396384E+01  0.13222859597E+02  0.13853647014E+02  0.19618221534E+02  0.51100000000E-03 0. -1.
        -11    1    3    3    0    0 -0.47934766850E+01  0.66072150302E+01  0.35222923684E+01  0.88904022954E+01  0.51100000000E-03 0.  1.
        -12    1    3    3    0    0  0.11113287397E+02  0.11059442909E+02  0.11218279107E+02  0.19278646746E+02  0.00000000000E+00 0.  1.
</event>
<event>
 7    1  0.1899036E-009  0.4778728E+02  0.7816164E-02  0.1312668E+00
        -11   -1    0    0    0    0  0.00000000000E+00  0.00000000000E+00  0.45593999997E+02  0.45594000000E+02  0.51100000000E-03 0. -1.
         11   -1    0    0    0    0 -0.00000000000E+00 -0.00000000000E+00 -0.45593999997E+02  0.45594000000E+02  0.51100000000E-03 0.  1.
    9900012    2    1    2    0    0  0.36945214223E+02  0.76425659382E+01  0.21453793104E+02  0.47787275275E+02  0.20000019290E+02 0.  0.
        -12    1    1    2    0    0 -0.36945214223E+02 -0.76425659382E+01 -0.21453793104E+02  0.43400724725E+02  0.00000000000E+00 0.  1.
         11    1    3    3    0    0  0.14811436766E+02  0.25136691031E+01  0.71166865748E+01  0.16623610303E+02  0.51100000000E-03 0. -1.
        -11    1    3    3    0    0  0.25466884672E+01  0.54643262053E+01 -0.12163693841E+01  0.61501250204E+01  0.51100000000E-03 0.  1.
         12    1    3    3    0    0  0.19587088990E+02 -0.33542937020E+00  0.15553475913E+02  0.25013539952E+02  0.00000000000E+00 0. -1.
</event>
<event>
 7    1  0.1899036E-009  0.4778727E+02  0.7816164E-02  0.1312668E+00
        -11   -1    0    0    0    0  0.00000000000E+00  0.00000000000E+00  0.45593999997E+02  0.45594000000E+02  0.51100000000E-03 0.  1.
         11   -1    0    0    0    0 -0.00000000000E+00 -0.00000000000E+00 -0.45593999997E+02  0.45594000000E+02  0.51100000000E-03 0. -1.
    9900012    2    1    2    0    0 -0.19513589623E+02 -0.12744647340E+02 -0.36611709791E+02  0.47787268329E+02  0.19999987617E+02 0.  0.
        -12    1    1    2    0    0  0.19513589623E+02  0.12744647340E+02  0.36611709791E+02  0.43400731671E+02  0.00000000000E+00 0.  1.
         11    1    3    3    0    0 -0.13077728423E+01 -0.73263920167E+01 -0.11932719432E+02  0.14063288488E+02  0.51100000000E-03 0. -1.
        -11    1    3    3    0    0 -0.17052462599E+02 -0.72392251313E+01 -0.15083678439E+02  0.23889541995E+02  0.51100000000E-03 0.  1.
         12    1    3    3    0    0 -0.11533541811E+01  0.18209698076E+01 -0.95953119200E+01  0.98344378461E+01  0.00000000000E+00 0. -1.
</event>
<event>
 7    1  0.1899036E-009  0.4778728E+02  0.7816164E-02  0.1312668E+00
        -11   -1    0    0    0    0  0.00000000000E+00  0.00000000000E+00  0.45593999997E+02  0.45594000000E+02  0.51100000000E-03 0.  1.
         11   -1    0    0    0    0 -0.00000000000E+00 -0.00000000000E+00 -0.45593999997E+02  0.45594000000E+02  0.51100000000E-03 0. -1.
    9900012    2    1    2    0    0 -0.38151073179E+02  0.15913698154E+02 -0.13223944760E+02  0.47787275482E+02  0.20000020232E+02 0.  0.
        -12    1    1    2    0    0  0.38151073179E+02 -0.15913698154E+02  0.13223944760E+02  0.43400724518E+02  0.00000000000E+00 0.  1.
         11    1    3    3    0    0 -0.71539898729E+01  0.10324017765E+01  0.57741172116E+00  0.72511260564E+01  0.51100000000E-03 0. -1.
        -11    1    3    3    0    0 -0.24968940622E+02  0.16761229384E+02 -0.15723685638E+02  0.33935543263E+02  0.51100000000E-03 0.  1.
        -12    1    3    3    0    0 -0.60281426839E+01 -0.18799330064E+01  0.19223291560E+01  0.66006061624E+01  0.00000000000E+00 0.  1.
</event>
<event>
 7    1  0.1899036E-009  0.4778726E+02  0.7816164E-02  0.1312668E+00
        -11   -1    0    0    0    0  0.00000000000E+00  0.00000000000E+00  0.45593999997E+02  0.45594000000E+02  0.51100000000E-03 0.  1.
         11   -1    0    0    0    0 -0.00000000000E+00 -0.00000000000E+00 -0.45593999997E+02  0.45594000000E+02  0.51100000000E-03 0. -1.
    9900012    2    1    2    0    0 -0.31948116131E+02  0.20275272558E+02 -0.21256882132E+02  0.47787264527E+02  0.19999970283E+02 0.  0.
        -12    1    1    2    0    0  0.31948116131E+02 -0.20275272558E+02  0.21256882132E+02  0.43400735473E+02  0.00000000000E+00 0.  1.
         11    1    3    3    0    0 -0.22644952088E+02  0.15639893872E+02 -0.12873211256E+02  0.30382885046E+02  0.51100000000E-03 0.  1.
        -11    1    3    3    0    0 -0.10290132733E+02  0.33927051240E+01 -0.22466137199E+01  0.11065466695E+02  0.51100000000E-03 0. -1.
        -12    1    3    3    0    0  0.98696868940E+00  0.12426735626E+01 -0.61370571555E+01  0.63389127858E+01  0.00000000000E+00 0.  1.
</event>
<event>
 7    1  0.1899036E-009  0.4778728E+02  0.7816164E-02  0.1312668E+00
        -11   -1    0    0    0    0  0.00000000000E+00  0.00000000000E+00  0.45593999997E+02  0.45594000000E+02  0.51100000000E-03 0.  1.
         11   -1    0    0    0    0 -0.00000000000E+00 -0.00000000000E+00 -0.45593999997E+02  0.45594000000E+02  0.51100000000E-03 0. -1.
    9900012    2    1    2    0    0  0.41528367040E+00 -0.23144894323E+02 -0.36711904876E+02  0.47787279345E+02  0.20000037847E+02 0.  0.
        -12    1    1    2    0    0 -0.41528367040E+00  0.23144894323E+02  0.36711904876E+02  0.43400720655E+02  0.00000000000E+00 0.  1.
         11    1    3    3    0    0  0.27953118372E+01 -0.82390940157E+01 -0.74340945377E+01  0.11443871737E+02  0.51100000000E-03 0. -1.
        -11    1    3    3    0    0 -0.85661788991E+01 -0.86083914311E+01 -0.12764179873E+02  0.17618402653E+02  0.51100000000E-03 0.  1.
        -12    1    3    3    0    0  0.61861507324E+01 -0.62974088759E+01 -0.16513630465E+02  0.18725004955E+02  0.00000000000E+00 0.  1.
</event>
<event>
 7    1  0.1899036E-009  0.4778727E+02  0.7816164E-02  0.1312668E+00
        -11   -1    0    0    0    0  0.00000000000E+00  0.00000000000E+00  0.45593999997E+02  0.45594000000E+02  0.51100000000E-03 0.  1.
         11   -1    0    0    0    0 -0.00000000000E+00 -0.00000000000E+00 -0.45593999997E+02  0.45594000000E+02  0.51100000000E-03 0. -1.
    9900012    2    1    2    0    0  0.25701534500E+02  0.34941346873E+02 -0.14685268617E+01  0.47787272263E+02  0.20000005556E+02 0.  0.
        -12    1    1    2    0    0 -0.25701534500E+02 -0.34941346873E+02  0.14685268617E+01  0.43400727737E+02  0.00000000000E+00 0.  1.
         11    1    3    3    0    0  0.38976629834E+01 -0.57676720439E+00 -0.43148644897E+01  0.58431577906E+01  0.51100000000E-03 0. -1.
        -11    1    3    3    0    0  0.54240758429E+01  0.11421252288E+02  0.19515594798E+01  0.12793521299E+02  0.51100000000E-03 0.  1.
         12    1    3    3    0    0  0.16379795674E+02  0.24096861790E+02  0.89477814820E+00  0.29150593173E+02  0.00000000000E+00 0. -1.
</event>
<event>
 7    1  0.1899036E-009  0.4778727E+02  0.7816164E-02  0.1312668E+00
        -11   -1    0    0    0    0  0.00000000000E+00  0.00000000000E+00  0.45593999997E+02  0.45594000000E+02  0.51100000000E-03 0.  1.
         11   -1    0    0    0    0 -0.00000000000E+00 -0.00000000000E+00 -0.45593999997E+02  0.45594000000E+02  0.51100000000E-03 0. -1.
    9900012    2    1    2    0    0 -0.35358828921E+02  0.24115849717E+02 -0.71973869102E+01  0.47787269953E+02  0.19999995024E+02 0.  0.
        -12    1    1    2    0    0  0.35358828921E+02 -0.24115849717E+02  0.71973869102E+01  0.43400730047E+02  0.00000000000E+00 0.  1.
         11    1    3    3    0    0 -0.12562168437E+01  0.23308696299E+01 -0.45167487003E+01  0.52356521153E+01  0.51100000000E-03 0. -1.
        -11    1    3    3    0    0 -0.19787740129E+02  0.57452530253E+01 -0.40899372704E+01  0.21006907885E+02  0.51100000000E-03 0.  1.
        -12    1    3    3    0    0 -0.14314871949E+02  0.16039727062E+02  0.14092990605E+01  0.21544709953E+02  0.00000000000E+00 0.  1.
</event>
<event>
 7    1  0.1899036E-009  0.4778727E+02  0.7816164E-02  0.1312668E+00
        -11   -1    0    0    0    0  0.00000000000E+00  0.00000000000E+00  0.45593999997E+02  0.45594000000E+02  0.51100000000E-03 0.  1.
         11   -1    0    0    0    0 -0.00000000000E+00 -0.00000000000E+00 -0.45593999997E+02  0.45594000000E+02  0.51100000000E-03 0. -1.
    9900012    2    1    2    0    0 -0.29081550619E+02  0.21435622630E+02 -0.24049959125E+02  0.47787273764E+02  0.20000012398E+02 0.  0.
        -12    1    1    2    0    0  0.29081550619E+02 -0.21435622630E+02  0.24049959125E+02  0.43400726236E+02  0.00000000000E+00 0.  1.
         11    1    3    3    0    0 -0.23147060637E+02  0.20298940051E+02 -0.26758133207E+02  0.40790085515E+02  0.51100000000E-03 0. -1.
        -11    1    3    3    0    0 -0.25988253561E+01  0.16042995066E+01  0.16219532113E+01  0.34580923382E+01  0.51100000000E-03 0.  1.
         12    1    3    3    0    0 -0.33356646255E+01 -0.46761692776E+00  0.10862208705E+01  0.35390959106E+01  0.00000000000E+00 0. -1.
</event>
<event>
 7    1  0.1899036E-009  0.4778727E+02  0.7816164E-02  0.1312668E+00
        -11   -1    0    0    0    0  0.00000000000E+00  0.00000000000E+00  0.45593999997E+02  0.45594000000E+02  0.51100000000E-03 0.  1.
         11   -1    0    0    0    0 -0.00000000000E+00 -0.00000000000E+00 -0.45593999997E+02  0.45594000000E+02  0.51100000000E-03 0. -1.
    9900012    2    1    2    0    0  0.33474312017E+02  0.20277236207E+02 -0.18759722594E+02  0.47787273451E+02  0.20000010971E+02 0.  0.
        -12    1    1    2    0    0 -0.33474312017E+02 -0.20277236207E+02  0.18759722594E+02  0.43400726549E+02  0.00000000000E+00 0.  1.
         11    1    3    3    0    0  0.13672583546E+02  0.35145704238E+01 -0.58760049267E+01  0.15291147120E+02  0.51100000000E-03 0. -1.
        -11    1    3    3    0    0 -0.14768559489E+01  0.40244779652E+01  0.49874391014E+00  0.43158165086E+01  0.51100000000E-03 0.  1.
        -12    1    3    3    0    0  0.21278584420E+02  0.12738187818E+02 -0.13382461578E+02  0.28180309822E+02  0.00000000000E+00 0.  1.
</event>
<event>
 7    1  0.1899036E-009  0.4778727E+02  0.7816164E-02  0.1312668E+00
        -11   -1    0    0    0    0  0.00000000000E+00  0.00000000000E+00  0.45593999997E+02  0.45594000000E+02  0.51100000000E-03 0.  1.
         11   -1    0    0    0    0 -0.00000000000E+00 -0.00000000000E+00 -0.45593999997E+02  0.45594000000E+02  0.51100000000E-03 0. -1.
    9900012    2    1    2    0    0 -0.10174435265E+02  0.19157787025E+02 -0.37590999244E+02  0.47787272347E+02  0.20000005938E+02 0.  0.
        -12    1    1    2    0    0  0.10174435265E+02 -0.19157787025E+02  0.37590999244E+02  0.43400727653E+02  0.00000000000E+00 0.  1.
         11    1    3    3    0    0  0.16196174267E+01  0.18794641857E+01 -0.19495335228E+02  0.19652573423E+02  0.51100000000E-03 0. -1.
        -11    1    3    3    0    0 -0.57103058460E+01  0.42122491147E+01 -0.67266445758E+01  0.97774425577E+01  0.51100000000E-03 0.  1.
         12    1    3    3    0    0 -0.60837468456E+01  0.13066073724E+02 -0.11369019440E+02  0.18357256366E+02  0.00000000000E+00 0. -1.
</event>
<event>
 7    1  0.1899036E-009  0.4778727E+02  0.7816164E-02  0.1312668E+00
        -11   -1    0    0    0    0  0.00000000000E+00  0.00000000000E+00  0.45593999997E+02  0.45594000000E+02  0.51100000000E-03 0.  1.
         11   -1    0    0    0    0 -0.00000000000E+00 -0.00000000000E+00 -0.45593999997E+02  0.45594000000E+02  0.51100000000E-03 0. -1.
    9900012    2    1    2    0    0  0.40147896633E+02 -0.10450496828E+02  0.12749779915E+02  0.47787269870E+02  0.19999994643E+02 0.  0.
        -12    1    1    2    0    0 -0.40147896633E+02  0.10450496828E+02 -0.12749779915E+02  0.43400730130E+02  0.00000000000E+00 0.  1.
         11    1    3    3    0    0  0.10802434287E+02 -0.74089156532E+00  0.53817143443E+01  0.12091499344E+02  0.51100000000E-03 0.  1.
        -11    1    3    3    0    0  0.10003237203E+02 -0.10316597130E+02 -0.14240414043E+01  0.14440388675E+02  0.51100000000E-03 0. -1.
         12    1    3    3    0    0  0.19342225142E+02  0.60699186711E+00  0.87921069748E+01  0.21255381851E+02  0.00000000000E+00 0. -1.
</event>
<event>
 7    1  0.1899036E-009  0.4778727E+02  0.7816164E-02  0.1312668E+00
        -11   -1    0    0    0    0  0.00000000000E+00  0.00000000000E+00  0.45593999997E+02  0.45594000000E+02  0.51100000000E-03 0. -1.
         11   -1    0    0    0    0 -0.00000000000E+00 -0.00000000000E+00 -0.45593999997E+02  0.45594000000E+02  0.51100000000E-03 0.  1.
    9900012    2    1    2    0    0  0.29440018294E+02  0.19489115068E+02  0.25240502415E+02  0.47787271372E+02  0.20000001494E+02 0.  0.
        -12    1    1    2    0    0 -0.29440018294E+02 -0.19489115068E+02 -0.25240502415E+02  0.43400728628E+02  0.00000000000E+00 0.  1.
         11    1    3    3    0    0  0.10755735565E+02  0.33312003839E+01  0.51772534983E+01  0.12393010030E+02  0.51100000000E-03 0.  1.
        -11    1    3    3    0    0  0.89841630417E+01  0.11929290013E+02  0.19811320412E+02  0.24809505487E+02  0.51100000000E-03 0. -1.
         12    1    3    3    0    0  0.97001196869E+01  0.42286246710E+01  0.25192850465E+00  0.10584755855E+02  0.00000000000E+00 0. -1.
</event>
<event>
 7    1  0.1899036E-009  0.4778727E+02  0.7816164E-02  0.1312668E+00
        -11   -1    0    0    0    0  0.00000000000E+00  0.00000000000E+00  0.45593999997E+02  0.45594000000E+02  0.51100000000E-03 0.  1.
         11   -1    0    0    0    0 -0.00000000000E+00 -0.00000000000E+00 -0.45593999997E+02  0.45594000000E+02  0.51100000000E-03 0. -1.
    9900012    2    1    2    0    0  0.20502431148E+02  0.38131852789E+02  0.30389518404E+01  0.47787272951E+02  0.20000008692E+02 0.  0.
        -12    1    1    2    0    0 -0.20502431148E+02 -0.38131852789E+02 -0.30389518404E+01  0.43400727049E+02  0.00000000000E+00 0.  1.
         11    1    3    3    0    0  0.89748159003E+01  0.11685533121E+02 -0.33903337550E+00  0.14738179964E+02  0.51100000000E-03 0. -1.
        -11    1    3    3    0    0 -0.14063972992E+01 -0.14962554588E+01 -0.13829239330E+00  0.20581202123E+01  0.51100000000E-03 0.  1.
         12    1    3    3    0    0  0.12934012547E+02  0.27942575126E+02  0.35162776092E+01  0.30990972774E+02  0.00000000000E+00 0. -1.
</event>
<event>
 7    1  0.1936308E-009  0.4778728E+02  0.7816164E-02  0.1312668E+00
        -11   -1    0    0    0    0  0.00000000000E+00  0.00000000000E+00  0.45593999997E+02  0.45594000000E+02  0.51100000000E-03 0.  1.
         11   -1    0    0    0    0 -0.00000000000E+00 -0.00000000000E+00 -0.45593999997E+02  0.45594000000E+02  0.51100000000E-03 0. -1.
    9900012    2    1    2    0    0 -0.87546760461E+01 -0.12966714729E+02 -0.40482623832E+02  0.47787275630E+02  0.20000020908E+02 0.  0.
        -12    1    1    2    0    0  0.87546760461E+01  0.12966714729E+02  0.40482623832E+02  0.43400724370E+02  0.00000000000E+00 0.  1.
         11    1    3    3    0    0 -0.45034860594E+01 -0.12951338044E+02 -0.20242592533E+02  0.24449562297E+02  0.51100000000E-03 0. -1.
        -11    1    3    3    0    0 -0.35759808818E+01 -0.97300988069E+00 -0.21382445562E+02  0.21701229596E+02  0.51100000000E-03 0.  1.
        -12    1    3    3    0    0 -0.67520910495E+00  0.95763319541E+00  0.11424142634E+01  0.16364837370E+01  0.00000000000E+00 0.  1.
</event>
<event>
 7    1  0.1899036E-009  0.4778727E+02  0.7816164E-02  0.1312668E+00
        -11   -1    0    0    0    0  0.00000000000E+00  0.00000000000E+00  0.45593999997E+02  0.45594000000E+02  0.51100000000E-03 0.  1.
         11   -1    0    0    0    0 -0.00000000000E+00 -0.00000000000E+00 -0.45593999997E+02  0.45594000000E+02  0.51100000000E-03 0. -1.
    9900012    2    1    2    0    0  0.23592697347E+02 -0.79641567689E+01 -0.35546870694E+02  0.47787272157E+02  0.20000005073E+02 0.  0.
        -12    1    1    2    0    0 -0.23592697347E+02  0.79641567689E+01  0.35546870694E+02  0.43400727843E+02  0.00000000000E+00 0.  1.
         11    1    3    3    0    0 -0.14660992816E+00  0.12444302028E+01 -0.83688515648E+01  0.84621378963E+01  0.51100000000E-03 0.  1.
        -11    1    3    3    0    0  0.20758721978E+02 -0.25754085181E+01 -0.22260473305E+02  0.30546455428E+02  0.51100000000E-03 0. -1.
         12    1    3    3    0    0  0.29805852968E+01 -0.66331784536E+01 -0.49175458242E+01  0.87786788323E+01  0.00000000000E+00 0. -1.
</event>
<event>
 7    1  0.1899036E-009  0.4778727E+02  0.7816164E-02  0.1312668E+00
        -11   -1    0    0    0    0  0.00000000000E+00  0.00000000000E+00  0.45593999997E+02  0.45594000000E+02  0.51100000000E-03 0.  1.
         11   -1    0    0    0    0 -0.00000000000E+00 -0.00000000000E+00 -0.45593999997E+02  0.45594000000E+02  0.51100000000E-03 0. -1.
    9900012    2    1    2    0    0  0.10207415519E+02  0.23256173870E+02 -0.35193494891E+02  0.47787273770E+02  0.20000012428E+02 0.  0.
        -12    1    1    2    0    0 -0.10207415519E+02 -0.23256173870E+02  0.35193494891E+02  0.43400726230E+02  0.00000000000E+00 0.  1.
         11    1    3    3    0    0  0.11019769985E+02  0.10997498427E+02 -0.20327586072E+02  0.25604512453E+02  0.51100000000E-03 0. -1.
        -11    1    3    3    0    0 -0.19489549175E+01  0.13376329224E+02 -0.15409819009E+02  0.20498466551E+02  0.51100000000E-03 0.  1.
        -12    1    3    3    0    0  0.11366004521E+01 -0.11176537816E+01  0.54391019070E+00  0.16842947660E+01  0.00000000000E+00 0.  1.
</event>
<event>
 7    1  0.1899036E-009  0.4778727E+02  0.7816164E-02  0.1312668E+00
        -11   -1    0    0    0    0  0.00000000000E+00  0.00000000000E+00  0.45593999997E+02  0.45594000000E+02  0.51100000000E-03 0.  1.
         11   -1    0    0    0    0 -0.00000000000E+00 -0.00000000000E+00 -0.45593999997E+02  0.45594000000E+02  0.51100000000E-03 0. -1.
    9900012    2    1    2    0    0 -0.68498519151E+00  0.55418210930E+01 -0.43040007302E+02  0.47787271731E+02  0.20000003129E+02 0.  0.
        -12    1    1    2    0    0  0.68498519151E+00 -0.55418210930E+01  0.43040007302E+02  0.43400728269E+02  0.00000000000E+00 0.  1.
         11    1    3    3    0    0 -0.62783478003E+01 -0.45581190553E+01 -0.21107300894E+02  0.22488046863E+02  0.51100000000E-03 0.  1.
        -11    1    3    3    0    0  0.27599891544E+01  0.28349992846E+01 -0.12213963254E+02  0.12838834048E+02  0.51100000000E-03 0. -1.
        -12    1    3    3    0    0  0.28333734543E+01  0.72649408637E+01 -0.97187431543E+01  0.12460390820E+02  0.00000000000E+00 0.  1.
</event>
<event>
 7    1  0.1899036E-009  0.4778728E+02  0.7816164E-02  0.1312668E+00
        -11   -1    0    0    0    0  0.00000000000E+00  0.00000000000E+00  0.45593999997E+02  0.45594000000E+02  0.51100000000E-03 0. -1.
         11   -1    0    0    0    0 -0.00000000000E+00 -0.00000000000E+00 -0.45593999997E+02  0.45594000000E+02  0.51100000000E-03 0.  1.
    9900012    2    1    2    0    0 -0.31099856072E+02  0.33016257643E+01  0.30091875285E+02  0.47787277211E+02  0.20000028118E+02 0.  0.
        -12    1    1    2    0    0  0.31099856072E+02 -0.33016257643E+01 -0.30091875285E+02  0.43400722789E+02  0.00000000000E+00 0.  1.
         11    1    3    3    0    0 -0.43275862383E+01  0.10789247172E+01 -0.17400405662E+01  0.47874651569E+01  0.51100000000E-03 0. -1.
        -11    1    3    3    0    0 -0.11495995593E+02  0.62786358315E+01  0.14796645255E+02  0.19761576193E+02  0.51100000000E-03 0.  1.
         12    1    3    3    0    0 -0.15276274241E+02 -0.40559347844E+01  0.17035270596E+02  0.23238235861E+02  0.00000000000E+00 0. -1.
</event>
<event>
 7    1  0.1899036E-009  0.4778727E+02  0.7816164E-02  0.1312668E+00
        -11   -1    0    0    0    0  0.00000000000E+00  0.00000000000E+00  0.45593999997E+02  0.45594000000E+02  0.51100000000E-03 0. -1.
         11   -1    0    0    0    0 -0.00000000000E+00 -0.00000000000E+00 -0.45593999997E+02  0.45594000000E+02  0.51100000000E-03 0.  1.
    9900012    2    1    2    0    0  0.28571201204E+02 -0.21197166755E+02  0.24859400150E+02  0.47787271982E+02  0.20000004275E+02 0.  0.
        -12    1    1    2    0    0 -0.28571201204E+02  0.21197166755E+02 -0.24859400150E+02  0.43400728018E+02  0.00000000000E+00 0.  1.
         11    1    3    3    0    0  0.25017753697E+02 -0.20172349431E+02  0.12855838338E+02  0.34613353800E+02  0.51100000000E-03 0. -1.
        -11    1    3    3    0    0 -0.74269043588E+00  0.36061942957E+00  0.11202762187E+01  0.13916373536E+01  0.51100000000E-03 0.  1.
         12    1    3    3    0    0  0.42961379432E+01 -0.13854367529E+01  0.10883285593E+02  0.11782280829E+02  0.00000000000E+00 0. -1.
</event>
<event>
 7    1  0.1899036E-009  0.4778727E+02  0.7816164E-02  0.1312668E+00
        -11   -1    0    0    0    0  0.00000000000E+00  0.00000000000E+00  0.45593999997E+02  0.45594000000E+02  0.51100000000E-03 0. -1.
         11   -1    0    0    0    0 -0.00000000000E+00 -0.00000000000E+00 -0.45593999997E+02  0.45594000000E+02  0.51100000000E-03 0.  1.
    9900012    2    1    2    0    0 -0.31251679532E+02  0.17537048392E+02  0.24482802654E+02  0.47787272291E+02  0.20000005685E+02 0.  0.
        -12    1    1    2    0    0  0.31251679532E+02 -0.17537048392E+02 -0.24482802654E+02  0.43400727709E+02  0.00000000000E+00 0.  1.
         11    1    3    3    0    0 -0.19482434831E+01 -0.36919887041E+00  0.71108511164E+01  0.73821517416E+01  0.51100000000E-03 0. -1.
        -11    1    3    3    0    0 -0.13500098685E+02  0.15352212779E+02  0.10525814367E+02  0.22994257328E+02  0.51100000000E-03 0.  1.
         12    1    3    3    0    0 -0.15803337364E+02  0.25540344839E+01  0.68461371706E+01  0.17410863222E+02  0.00000000000E+00 0. -1.
</event>
<event>
 7    1  0.1899036E-009  0.4778727E+02  0.7816164E-02  0.1312668E+00
        -11   -1    0    0    0    0  0.00000000000E+00  0.00000000000E+00  0.45593999997E+02  0.45594000000E+02  0.51100000000E-03 0. -1.
         11   -1    0    0    0    0 -0.00000000000E+00 -0.00000000000E+00 -0.45593999997E+02  0.45594000000E+02  0.51100000000E-03 0.  1.
    9900012    2    1    2    0    0 -0.35982113144E+02 -0.24212893530E+02  0.16269348775E+01  0.47787267327E+02  0.19999983051E+02 0.  0.
        -12    1    1    2    0    0  0.35982113144E+02  0.24212893530E+02 -0.16269348775E+01  0.43400732673E+02  0.00000000000E+00 0.  1.
         11    1    3    3    0    0 -0.16277086718E+02 -0.14876408533E+02 -0.10335370313E+00  0.22051343839E+02  0.51100000000E-03 0. -1.
        -11    1    3    3    0    0 -0.15151047218E+02  0.13887733470E+00  0.61711770127E+00  0.15164245884E+02  0.51100000000E-03 0.  1.
        -12    1    3    3    0    0 -0.45539792086E+01 -0.94753623316E+01  0.11131708794E+01  0.10571677604E+02  0.00000000000E+00 0.  1.
</event>
<event>
 7    1  0.1899036E-009  0.4778727E+02  0.7816164E-02  0.1312668E+00
        -11   -1    0    0    0    0  0.00000000000E+00  0.00000000000E+00  0.45593999997E+02  0.45594000000E+02  0.51100000000E-03 0.  1.
         11   -1    0    0    0    0 -0.00000000000E+00 -0.00000000000E+00 -0.45593999997E+02  0.45594000000E+02  0.51100000000E-03 0. -1.
    9900012    2    1    2    0    0 -0.39788503707E+01 -0.23015127893E+02 -0.36579993986E+02  0.47787270488E+02  0.19999997462E+02 0.  0.
        -12    1    1    2    0    0  0.39788503707E+01  0.23015127893E+02  0.36579993986E+02  0.43400729512E+02  0.00000000000E+00 0.  1.
         11    1    3    3    0    0  0.32971279349E+01 -0.11413372407E+02 -0.88874004017E+01  0.14836509310E+02  0.51100000000E-03 0. -1.
        -11    1    3    3    0    0 -0.77182160365E+01 -0.10411693282E+02 -0.13546641496E+02  0.18747952204E+02  0.51100000000E-03 0.  1.
        -12    1    3    3    0    0  0.44223773083E+00 -0.11900622036E+01 -0.14145952088E+02  0.14202808974E+02  0.00000000000E+00 0.  1.
</event>
<event>
 7    1  0.1899036E-009  0.4778727E+02  0.7816164E-02  0.1312668E+00
        -11   -1    0    0    0    0  0.00000000000E+00  0.00000000000E+00  0.45593999997E+02  0.45594000000E+02  0.51100000000E-03 0. -1.
         11   -1    0    0    0    0 -0.00000000000E+00 -0.00000000000E+00 -0.45593999997E+02  0.45594000000E+02  0.51100000000E-03 0.  1.
    9900012    2    1    2    0    0 -0.64514634576E+01  0.36542550622E+02  0.22508755081E+02  0.47787269107E+02  0.19999991167E+02 0.  0.
        -12    1    1    2    0    0  0.64514634576E+01 -0.36542550622E+02 -0.22508755081E+02  0.43400730893E+02  0.00000000000E+00 0.  1.
         11    1    3    3    0    0  0.21679777502E+00  0.10113408978E+01  0.42420026135E+01  0.43662796659E+01  0.51100000000E-03 0. -1.
        -11    1    3    3    0    0  0.94911954191E+00  0.19513320916E+02  0.25117041898E+01  0.19697187090E+02  0.51100000000E-03 0.  1.
        -12    1    3    3    0    0 -0.76173807745E+01  0.16017888809E+02  0.15755048278E+02  0.23723802351E+02  0.00000000000E+00 0.  1.
</event>
<event>
 7    1  0.1899036E-009  0.4778728E+02  0.7816164E-02  0.1312668E+00
        -11   -1    0    0    0    0  0.00000000000E+00  0.00000000000E+00  0.45593999997E+02  0.45594000000E+02  0.51100000000E-03 0.  1.
         11   -1    0    0    0    0 -0.00000000000E+00 -0.00000000000E+00 -0.45593999997E+02  0.45594000000E+02  0.51100000000E-03 0. -1.
    9900012    2    1    2    0    0 -0.96843251044E+01  0.15678782357E+02 -0.39293924896E+02  0.47787275321E+02  0.20000019498E+02 0.  0.
        -12    1    1    2    0    0  0.96843251044E+01 -0.15678782357E+02  0.39293924896E+02  0.43400724679E+02  0.00000000000E+00 0.  1.
         11    1    3    3    0    0 -0.19050746513E+01  0.11184879313E+02 -0.67033609981E+01  0.13178235224E+02  0.51100000000E-03 0. -1.
        -11    1    3    3    0    0 -0.17101868019E+01 -0.20761573010E+01 -0.82281824882E+01  0.86566826993E+01  0.51100000000E-03 0.  1.
        -12    1    3    3    0    0 -0.60690636512E+01  0.65700603445E+01 -0.24362381410E+02  0.25952357398E+02  0.00000000000E+00 0.  1.
</event>
<event>
 7    1  0.1899036E-009  0.4778727E+02  0.7816164E-02  0.1312668E+00
        -11   -1    0    0    0    0  0.00000000000E+00  0.00000000000E+00  0.45593999997E+02  0.45594000000E+02  0.51100000000E-03 0. -1.
         11   -1    0    0    0    0 -0.00000000000E+00 -0.00000000000E+00 -0.45593999997E+02  0.45594000000E+02  0.51100000000E-03 0.  1.
    9900012    2    1    2    0    0  0.18859256711E+02  0.34434258729E+02 -0.18499557519E+02  0.47787269980E+02  0.19999995145E+02 0.  0.
        -12    1    1    2    0    0 -0.18859256711E+02 -0.34434258729E+02  0.18499557519E+02  0.43400730020E+02  0.00000000000E+00 0.  1.
         11    1    3    3    0    0  0.61501091603E+01  0.28499774016E+01 -0.78310132595E+01  0.10357170598E+02  0.51100000000E-03 0.  1.
        -11    1    3    3    0    0  0.16279628220E+01  0.75688537905E+01  0.21554773932E+01  0.80364104988E+01  0.51100000000E-03 0. -1.
         12    1    3    3    0    0  0.11081184729E+02  0.24015427537E+02 -0.12824021653E+02  0.29393688882E+02  0.00000000000E+00 0. -1.
</event>
<event>
 7    1  0.1899036E-009  0.4778727E+02  0.7816164E-02  0.1312668E+00
        -11   -1    0    0    0    0  0.00000000000E+00  0.00000000000E+00  0.45593999997E+02  0.45594000000E+02  0.51100000000E-03 0.  1.
         11   -1    0    0    0    0 -0.00000000000E+00 -0.00000000000E+00 -0.45593999997E+02  0.45594000000E+02  0.51100000000E-03 0. -1.
    9900012    2    1    2    0    0 -0.12008448019E+02  0.41697187761E+02  0.87472479591E+00  0.47787269194E+02  0.19999991564E+02 0.  0.
        -12    1    1    2    0    0  0.12008448019E+02 -0.41697187761E+02 -0.87472479591E+00  0.43400730806E+02  0.00000000000E+00 0.  1.
         11    1    3    3    0    0 -0.95699461273E+00  0.79186377726E+01 -0.48471230886E+01  0.93335558797E+01  0.51100000000E-03 0. -1.
        -11    1    3    3    0    0 -0.23561240487E+01  0.16188460164E+02  0.88255434567E+01  0.18587839589E+02  0.51100000000E-03 0.  1.
        -12    1    3    3    0    0 -0.86953293574E+01  0.17590089824E+02 -0.31036955722E+01  0.19865873725E+02  0.00000000000E+00 0.  1.
</event>
<event>
 7    1  0.1899036E-009  0.4778727E+02  0.7816164E-02  0.1312668E+00
        -11   -1    0    0    0    0  0.00000000000E+00  0.00000000000E+00  0.45593999997E+02  0.45594000000E+02  0.51100000000E-03 0. -1.
         11   -1    0    0    0    0 -0.00000000000E+00 -0.00000000000E+00 -0.45593999997E+02  0.45594000000E+02  0.51100000000E-03 0.  1.
    9900012    2    1    2    0    0 -0.23877451174E+02 -0.27300422255E+02  0.23836471161E+02  0.47787273194E+02  0.20000009801E+02 0.  0.
        -12    1    1    2    0    0  0.23877451174E+02  0.27300422255E+02 -0.23836471161E+02  0.43400726806E+02  0.00000000000E+00 0.  1.
         11    1    3    3    0    0 -0.22796511846E+01 -0.72660034450E+01  0.10193877414E+02  0.12724258429E+02  0.51100000000E-03 0. -1.
        -11    1    3    3    0    0 -0.19302745824E+02 -0.22007608089E+02  0.12353351886E+02  0.31773198032E+02  0.51100000000E-03 0.  1.
         12    1    3    3    0    0 -0.22950541662E+01  0.19731892789E+01  0.12892418613E+01  0.32898167325E+01  0.00000000000E+00 0. -1.
</event>
<event>
 7    1  0.1899036E-009  0.4778727E+02  0.7816164E-02  0.1312668E+00
        -11   -1    0    0    0    0  0.00000000000E+00  0.00000000000E+00  0.45593999997E+02  0.45594000000E+02  0.51100000000E-03 0.  1.
         11   -1    0    0    0    0 -0.00000000000E+00 -0.00000000000E+00 -0.45593999997E+02  0.45594000000E+02  0.51100000000E-03 0. -1.
    9900012    2    1    2    0    0 -0.18721850934E+01 -0.37918408220E+02 -0.21031222418E+02  0.47787273332E+02  0.20000010429E+02 0.  0.
        -12    1    1    2    0    0  0.18721850934E+01  0.37918408220E+02  0.21031222418E+02  0.43400726668E+02  0.00000000000E+00 0.  1.
         11    1    3    3    0    0 -0.64512385086E+01 -0.13115332396E+02 -0.79862440367E+01  0.16655645176E+02  0.51100000000E-03 0. -1.
        -11    1    3    3    0    0  0.66254601666E+01 -0.11966735435E+02 -0.15253283789E+01  0.13763215697E+02  0.51100000000E-03 0.  1.
         12    1    3    3    0    0 -0.20464067514E+01 -0.12836340388E+02 -0.11519650003E+02  0.17368412459E+02  0.00000000000E+00 0. -1.
</event>
<event>
 7    1  0.1899036E-009  0.4778731E+02  0.7816164E-02  0.1312668E+00
        -11   -1    0    0    0    0  0.00000000000E+00  0.00000000000E+00  0.45593999997E+02  0.45594000000E+02  0.51100000000E-03 0.  1.
         11   -1    0    0    0    0 -0.00000000000E+00 -0.00000000000E+00 -0.45593999997E+02  0.45594000000E+02  0.51100000000E-03 0. -1.
    9900012    2    1    2    0    0  0.20244645379E+02  0.17603545005E+02 -0.34115818374E+02  0.47787314215E+02  0.20000196831E+02 0.  0.
        -12    1    1    2    0    0 -0.20244645379E+02 -0.17603545005E+02  0.34115818374E+02  0.43400685785E+02  0.00000000000E+00 0.  1.
         11    1    3    3    0    0 -0.51662094001E+00 -0.17652793870E-01  0.48641639799E+00  0.70979573833E+00  0.51100000000E-03 0. -1.
        -11    1    3    3    0    0  0.48208260393E+01  0.33992425035E+01  0.56976245301E+00  0.59261996940E+01  0.51100000000E-03 0.  1.
         12    1    3    3    0    0  0.15940440280E+02  0.14221955295E+02 -0.35171997225E+02  0.41151318783E+02  0.00000000000E+00 0. -1.
</event>
<event>
 7    1  0.1899036E-009  0.4778728E+02  0.7816164E-02  0.1312668E+00
        -11   -1    0    0    0    0  0.00000000000E+00  0.00000000000E+00  0.45593999997E+02  0.45594000000E+02  0.51100000000E-03 0.  1.
         11   -1    0    0    0    0 -0.00000000000E+00 -0.00000000000E+00 -0.45593999997E+02  0.45594000000E+02  0.51100000000E-03 0. -1.
    9900012    2    1    2    0    0 -0.32605619862E+01  0.16231086303E+02 -0.40119114812E+02  0.47787276500E+02  0.20000024875E+02 0.  0.
        -12    1    1    2    0    0  0.32605619862E+01 -0.16231086303E+02  0.40119114812E+02  0.43400723500E+02  0.00000000000E+00 0.  1.
         11    1    3    3    0    0 -0.56824150852E+01  0.90115980950E+01 -0.27883372429E+02  0.29849308195E+02  0.51100000000E-03 0. -1.
        -11    1    3    3    0    0  0.24676843951E+01  0.99972299481E+01 -0.10198951823E+02  0.14493194660E+02  0.51100000000E-03 0.  1.
        -12    1    3    3    0    0 -0.45831296065E-01 -0.27777417404E+01 -0.20367905597E+01  0.34447736454E+01  0.00000000000E+00 0.  1.
</event>
<event>
 7    1  0.1899036E-009  0.4778728E+02  0.7816164E-02  0.1312668E+00
        -11   -1    0    0    0    0  0.00000000000E+00  0.00000000000E+00  0.45593999997E+02  0.45594000000E+02  0.51100000000E-03 0.  1.
         11   -1    0    0    0    0 -0.00000000000E+00 -0.00000000000E+00 -0.45593999997E+02  0.45594000000E+02  0.51100000000E-03 0. -1.
    9900012    2    1    2    0    0 -0.59648063811E+01  0.19193403181E+02 -0.38466310633E+02  0.47787277719E+02  0.20000030431E+02 0.  0.
        -12    1    1    2    0    0  0.59648063811E+01 -0.19193403181E+02  0.38466310633E+02  0.43400722281E+02  0.00000000000E+00 0.  1.
         11    1    3    3    0    0 -0.42039922940E+01  0.84806430819E+01 -0.22156079140E+02  0.24093291627E+02  0.51100000000E-03 0. -1.
        -11    1    3    3    0    0  0.55340889442E+01  0.72087064684E+01 -0.83190403471E+01  0.12320633991E+02  0.51100000000E-03 0.  1.
         12    1    3    3    0    0 -0.72949030313E+01  0.35040536309E+01 -0.79911911458E+01  0.11373352101E+02  0.00000000000E+00 0. -1.
</event>
<event>
 7    1  0.1899036E-009  0.4778727E+02  0.7816164E-02  0.1312668E+00
        -11   -1    0    0    0    0  0.00000000000E+00  0.00000000000E+00  0.45593999997E+02  0.45594000000E+02  0.51100000000E-03 0. -1.
         11   -1    0    0    0    0 -0.00000000000E+00 -0.00000000000E+00 -0.45593999997E+02  0.45594000000E+02  0.51100000000E-03 0.  1.
    9900012    2    1    2    0    0 -0.76129331138E+01  0.42698893191E+02 -0.15719528578E+01  0.47787271134E+02  0.20000000406E+02 0.  0.
        -12    1    1    2    0    0  0.76129331138E+01 -0.42698893191E+02  0.15719528578E+01  0.43400728866E+02  0.00000000000E+00 0.  1.
         11    1    3    3    0    0 -0.27157369925E+01  0.12329227531E+02  0.20451275342E+01  0.12789355958E+02  0.51100000000E-03 0. -1.
        -11    1    3    3    0    0 -0.40631140956E+01  0.58065046534E+01 -0.72675837771E+01  0.10150968755E+02  0.51100000000E-03 0.  1.
        -12    1    3    3    0    0 -0.83408202566E+00  0.24563161007E+02  0.36505033851E+01  0.24846946421E+02  0.00000000000E+00 0.  1.
</event>
<event>
 7    1  0.1899036E-009  0.4778722E+02  0.7816164E-02  0.1312668E+00
        -11   -1    0    0    0    0  0.00000000000E+00  0.00000000000E+00  0.45593999997E+02  0.45594000000E+02  0.51100000000E-03 0.  1.
         11   -1    0    0    0    0 -0.00000000000E+00 -0.00000000000E+00 -0.45593999997E+02  0.45594000000E+02  0.51100000000E-03 0. -1.
    9900012    2    1    2    0    0 -0.14636594560E+02  0.38032060586E+02  0.14931863727E+02  0.47787215594E+02  0.19999747177E+02 0.  0.
        -12    1    1    2    0    0  0.14636594560E+02 -0.38032060586E+02 -0.14931863727E+02  0.43400784406E+02  0.00000000000E+00 0.  1.
         11    1    3    3    0    0 -0.60471605174E+01  0.26858513721E+02  0.35734235666E+01  0.27761795077E+02  0.51100000000E-03 0.  1.
        -11    1    3    3    0    0 -0.17400345048E+01  0.52270906468E+01  0.24982438411E-01  0.55091579294E+01  0.51100000000E-03 0. -1.
        -12    1    3    3    0    0 -0.68493995374E+01  0.59464562178E+01  0.11333457722E+02  0.14516262588E+02  0.00000000000E+00 0.  1.
</event>
<event>
 7    1  0.1899036E-009  0.4778727E+02  0.7816164E-02  0.1312668E+00
        -11   -1    0    0    0    0  0.00000000000E+00  0.00000000000E+00  0.45593999997E+02  0.45594000000E+02  0.51100000000E-03 0.  1.
         11   -1    0    0    0    0 -0.00000000000E+00 -0.00000000000E+00 -0.45593999997E+02  0.45594000000E+02  0.51100000000E-03 0. -1.
    9900012    2    1    2    0    0  0.25303794772E+02  0.26018509583E+01 -0.35164923354E+02  0.47787268523E+02  0.19999988503E+02 0.  0.
        -12    1    1    2    0    0 -0.25303794772E+02 -0.26018509583E+01  0.35164923354E+02  0.43400731477E+02  0.00000000000E+00 0.  1.
         11    1    3    3    0    0  0.70621955845E+01 -0.27781881117E+01 -0.29447375008E+01  0.81402957482E+01  0.51100000000E-03 0. -1.
        -11    1    3    3    0    0  0.69194270319E+01  0.79674689857E+01 -0.20979837490E+02  0.23484305693E+02  0.51100000000E-03 0.  1.
         12    1    3    3    0    0  0.11322172155E+02 -0.25874299157E+01 -0.11240348363E+02  0.16162667082E+02  0.00000000000E+00 0. -1.
</event>
<event>
 7    1  0.1899036E-009  0.4778727E+02  0.7816164E-02  0.1312668E+00
        -11   -1    0    0    0    0  0.00000000000E+00  0.00000000000E+00  0.45593999997E+02  0.45594000000E+02  0.51100000000E-03 0.  1.
         11   -1    0    0    0    0 -0.00000000000E+00 -0.00000000000E+00 -0.45593999997E+02  0.45594000000E+02  0.51100000000E-03 0. -1.
    9900012    2    1    2    0    0  0.23975095804E+02 -0.51244227965E+01 -0.35812824155E+02  0.47787270723E+02  0.19999998536E+02 0.  0.
        -12    1    1    2    0    0 -0.23975095804E+02  0.51244227965E+01  0.35812824155E+02  0.43400729277E+02  0.00000000000E+00 0.  1.
         11    1    3    3    0    0  0.12746706623E+02 -0.86664413391E+01 -0.19893179532E+02  0.25165935853E+02  0.51100000000E-03 0. -1.
        -11    1    3    3    0    0 -0.22128153428E+01  0.21067267028E+00 -0.22748093019E+01  0.31805176209E+01  0.51100000000E-03 0.  1.
        -12    1    3    3    0    0  0.13441204525E+02  0.33313458723E+01 -0.13644835321E+02  0.19440817250E+02  0.00000000000E+00 0.  1.
</event>
<event>
 7    1  0.1899036E-009  0.4778728E+02  0.7816164E-02  0.1312668E+00
        -11   -1    0    0    0    0  0.00000000000E+00  0.00000000000E+00  0.45593999997E+02  0.45594000000E+02  0.51100000000E-03 0.  1.
         11   -1    0    0    0    0 -0.00000000000E+00 -0.00000000000E+00 -0.45593999997E+02  0.45594000000E+02  0.51100000000E-03 0. -1.
    9900012    2    1    2    0    0  0.39614991806E+02 -0.14369811596E+02 -0.10381895411E+02  0.47787276349E+02  0.20000024184E+02 0.  0.
        -12    1    1    2    0    0 -0.39614991806E+02  0.14369811596E+02  0.10381895411E+02  0.43400723651E+02  0.00000000000E+00 0.  1.
         11    1    3    3    0    0  0.14663549623E+02 -0.52466277682E+01  0.34201248473E+01  0.15945031976E+02  0.51100000000E-03 0. -1.
        -11    1    3    3    0    0  0.18054945062E+01 -0.37348017085E+01 -0.50068095247E+01  0.65020532212E+01  0.51100000000E-03 0.  1.
        -12    1    3    3    0    0  0.23145947677E+02 -0.53883821197E+01 -0.87952107335E+01  0.25340191151E+02  0.00000000000E+00 0.  1.
</event>
<event>
 7    1  0.1899036E-009  0.4778727E+02  0.7816164E-02  0.1312668E+00
        -11   -1    0    0    0    0  0.00000000000E+00  0.00000000000E+00  0.45593999997E+02  0.45594000000E+02  0.51100000000E-03 0.  1.
         11   -1    0    0    0    0 -0.00000000000E+00 -0.00000000000E+00 -0.45593999997E+02  0.45594000000E+02  0.51100000000E-03 0. -1.
    9900012    2    1    2    0    0 -0.40162590759E+02  0.12613134971E+02 -0.10559289813E+02  0.47787268766E+02  0.19999989614E+02 0.  0.
        -12    1    1    2    0    0  0.40162590759E+02 -0.12613134971E+02  0.10559289813E+02  0.43400731234E+02  0.00000000000E+00 0.  1.
         11    1    3    3    0    0 -0.18949224340E+01  0.20607166582E+01 -0.29737765853E+01  0.40841928966E+01  0.51100000000E-03 0. -1.
        -11    1    3    3    0    0 -0.38460473754E+02  0.11380192623E+02 -0.43339727486E+01  0.40342287312E+02  0.51100000000E-03 0.  1.
        -12    1    3    3    0    0  0.19280542931E+00 -0.82777431019E+00 -0.32515404792E+01  0.33607885578E+01  0.00000000000E+00 0.  1.
</event>
<event>
 7    1  0.1899036E-009  0.4778727E+02  0.7816164E-02  0.1312668E+00
        -11   -1    0    0    0    0  0.00000000000E+00  0.00000000000E+00  0.45593999997E+02  0.45594000000E+02  0.51100000000E-03 0.  1.
         11   -1    0    0    0    0 -0.00000000000E+00 -0.00000000000E+00 -0.45593999997E+02  0.45594000000E+02  0.51100000000E-03 0. -1.
    9900012    2    1    2    0    0 -0.38188327301E+02  0.14839846401E+02 -0.14319707323E+02  0.47787269579E+02  0.19999993320E+02 0.  0.
        -12    1    1    2    0    0  0.38188327301E+02 -0.14839846401E+02  0.14319707323E+02  0.43400730421E+02  0.00000000000E+00 0.  1.
         11    1    3    3    0    0 -0.81184197847E+01 -0.32562515992E+00 -0.27829107052E+01  0.85883271829E+01  0.51100000000E-03 0. -1.
        -11    1    3    3    0    0 -0.20247440525E+02  0.40205605411E+01 -0.42465249272E+00  0.20647132606E+02  0.51100000000E-03 0.  1.
         12    1    3    3    0    0 -0.98224669913E+01  0.11144911020E+02 -0.11112144125E+02  0.18551809790E+02  0.00000000000E+00 0. -1.
</event>
<event>
 7    1  0.1899036E-009  0.4778728E+02  0.7816164E-02  0.1312668E+00
        -11   -1    0    0    0    0  0.00000000000E+00  0.00000000000E+00  0.45593999997E+02  0.45594000000E+02  0.51100000000E-03 0. -1.
         11   -1    0    0    0    0 -0.00000000000E+00 -0.00000000000E+00 -0.45593999997E+02  0.45594000000E+02  0.51100000000E-03 0.  1.
    9900012    2    1    2    0    0 -0.58378930367E+00  0.34951657638E+02  0.25722818679E+02  0.47787279011E+02  0.20000036322E+02 0.  0.
        -12    1    1    2    0    0  0.58378930367E+00 -0.34951657638E+02 -0.25722818679E+02  0.43400720989E+02  0.00000000000E+00 0.  1.
         11    1    3    3    0    0 -0.12871904176E+01  0.19203734310E+02  0.69326553921E+01  0.20457320980E+02  0.51100000000E-03 0. -1.
        -11    1    3    3    0    0  0.25575004394E+01 -0.94922984857E+00  0.11219773994E+01  0.29496913989E+01  0.51100000000E-03 0.  1.
         12    1    3    3    0    0 -0.18540993255E+01  0.16697153176E+02  0.17668185887E+02  0.24380266632E+02  0.00000000000E+00 0. -1.
</event>
<event>
 7    1  0.1899036E-009  0.4778727E+02  0.7816164E-02  0.1312668E+00
        -11   -1    0    0    0    0  0.00000000000E+00  0.00000000000E+00  0.45593999997E+02  0.45594000000E+02  0.51100000000E-03 0. -1.
         11   -1    0    0    0    0 -0.00000000000E+00 -0.00000000000E+00 -0.45593999997E+02  0.45594000000E+02  0.51100000000E-03 0.  1.
    9900012    2    1    2    0    0  0.12726642300E+02 -0.41353397128E+02 -0.33989074155E+01  0.47787269017E+02  0.19999990754E+02 0.  0.
        -12    1    1    2    0    0 -0.12726642300E+02  0.41353397128E+02  0.33989074155E+01  0.43400730983E+02  0.00000000000E+00 0.  1.
         11    1    3    3    0    0  0.56615743760E+01 -0.70189540281E+01  0.43960831760E+01  0.10032182595E+02  0.51100000000E-03 0. -1.
        -11    1    3    3    0    0 -0.16430816430E+01 -0.19212703129E+02 -0.20874790333E+01  0.19395495554E+02  0.51100000000E-03 0.  1.
         12    1    3    3    0    0  0.87081495673E+01 -0.15121739971E+02 -0.57075115582E+01  0.18359590867E+02  0.00000000000E+00 0. -1.
</event>
<event>
 7    1  0.1899036E-009  0.4778727E+02  0.7816164E-02  0.1312668E+00
        -11   -1    0    0    0    0  0.00000000000E+00  0.00000000000E+00  0.45593999997E+02  0.45594000000E+02  0.51100000000E-03 0. -1.
         11   -1    0    0    0    0 -0.00000000000E+00 -0.00000000000E+00 -0.45593999997E+02  0.45594000000E+02  0.51100000000E-03 0.  1.
    9900012    2    1    2    0    0  0.12768516299E+02 -0.12691254507E+02  0.39490763936E+02  0.47787269757E+02  0.19999994129E+02 0.  0.
        -12    1    1    2    0    0 -0.12768516299E+02  0.12691254507E+02 -0.39490763936E+02  0.43400730243E+02  0.00000000000E+00 0.  1.
         11    1    3    3    0    0 -0.14263870950E+00 -0.70322320671E+01  0.12254076837E+02  0.14129226201E+02  0.51100000000E-03 0. -1.
        -11    1    3    3    0    0  0.96734652526E+01 -0.37325343226E+01  0.57753880277E+01  0.11868565608E+02  0.51100000000E-03 0.  1.
         12    1    3    3    0    0  0.32376897556E+01 -0.19264881168E+01  0.21461299071E+02  0.21789477948E+02  0.00000000000E+00 0. -1.
</event>
<event>
 7    1  0.1899036E-009  0.4778727E+02  0.7816164E-02  0.1312668E+00
        -11   -1    0    0    0    0  0.00000000000E+00  0.00000000000E+00  0.45593999997E+02  0.45594000000E+02  0.51100000000E-03 0.  1.
         11   -1    0    0    0    0 -0.00000000000E+00 -0.00000000000E+00 -0.45593999997E+02  0.45594000000E+02  0.51100000000E-03 0. -1.
    9900012    2    1    2    0    0 -0.24680309919E+02 -0.23633908666E+02 -0.26757129432E+02  0.47787270605E+02  0.19999997998E+02 0.  0.
        -12    1    1    2    0    0  0.24680309919E+02  0.23633908666E+02  0.26757129432E+02  0.43400729395E+02  0.00000000000E+00 0.  1.
         11    1    3    3    0    0 -0.61228045658E+01 -0.12837275697E+02 -0.11542820250E+02  0.18317234580E+02  0.51100000000E-03 0. -1.
        -11    1    3    3    0    0 -0.16005025688E+01 -0.66226112132E+00  0.24291780721E+01  0.29834719092E+01  0.51100000000E-03 0.  1.
        -12    1    3    3    0    0 -0.16957002785E+02 -0.10134371847E+02 -0.17643487254E+02  0.26486564116E+02  0.00000000000E+00 0.  1.
</event>
<event>
 7    1  0.1899036E-009  0.4778727E+02  0.7816164E-02  0.1312668E+00
        -11   -1    0    0    0    0  0.00000000000E+00  0.00000000000E+00  0.45593999997E+02  0.45594000000E+02  0.51100000000E-03 0. -1.
         11   -1    0    0    0    0 -0.00000000000E+00 -0.00000000000E+00 -0.45593999997E+02  0.45594000000E+02  0.51100000000E-03 0.  1.
    9900012    2    1    2    0    0 -0.40491740010E+02  0.23103386318E+01  0.15450068823E+02  0.47787270741E+02  0.19999998616E+02 0.  0.
        -12    1    1    2    0    0  0.40491740010E+02 -0.23103386318E+01 -0.15450068823E+02  0.43400729259E+02  0.00000000000E+00 0.  1.
         11    1    3    3    0    0 -0.88455403188E+01 -0.51872044794E+01  0.38392486585E+01  0.10949452240E+02  0.51100000000E-03 0. -1.
        -11    1    3    3    0    0 -0.14878467315E+02  0.37404764627E+01  0.12265507758E+02  0.19641859246E+02  0.51100000000E-03 0.  1.
         12    1    3    3    0    0 -0.16767732376E+02  0.37570666484E+01 -0.65468759408E+00  0.17195959255E+02  0.00000000000E+00 0. -1.
</event>
<event>
 7    1  0.2078483E-009  0.4778727E+02  0.7816164E-02  0.1312668E+00
        -11   -1    0    0    0    0  0.00000000000E+00  0.00000000000E+00  0.45593999997E+02  0.45594000000E+02  0.51100000000E-03 0.  1.
         11   -1    0    0    0    0 -0.00000000000E+00 -0.00000000000E+00 -0.45593999997E+02  0.45594000000E+02  0.51100000000E-03 0. -1.
    9900012    2    1    2    0    0 -0.27188804495E+02 -0.19330666429E+01 -0.33773592889E+02  0.47787269440E+02  0.19999992686E+02 0.  0.
        -12    1    1    2    0    0  0.27188804495E+02  0.19330666429E+01  0.33773592889E+02  0.43400730560E+02  0.00000000000E+00 0.  1.
         11    1    3    3    0    0 -0.15947212637E+02 -0.72274857276E+00 -0.22934573467E+02  0.27943346556E+02  0.51100000000E-03 0. -1.
        -11    1    3    3    0    0 -0.65299556934E+01  0.54213724879E+01 -0.55380538053E+01  0.10134181823E+02  0.51100000000E-03 0.  1.
        -12    1    3    3    0    0 -0.47116361651E+01 -0.66316905581E+01 -0.53009656161E+01  0.97097410611E+01  0.00000000000E+00 0.  1.
</event>
<event>
 7    1  0.1899036E-009  0.4778726E+02  0.7816164E-02  0.1312668E+00
        -11   -1    0    0    0    0  0.00000000000E+00  0.00000000000E+00  0.45593999997E+02  0.45594000000E+02  0.51100000000E-03 0. -1.
         11   -1    0    0    0    0 -0.00000000000E+00 -0.00000000000E+00 -0.45593999997E+02  0.45594000000E+02  0.51100000000E-03 0.  1.
    9900012    2    1    2    0    0  0.31249755951E+02 -0.83691478242E+01  0.28931539600E+02  0.47787264224E+02  0.19999968904E+02 0.  0.
        -12    1    1    2    0    0 -0.31249755951E+02  0.83691478242E+01 -0.28931539600E+02  0.43400735776E+02  0.00000000000E+00 0.  1.
         11    1    3    3    0    0  0.11128717889E+02  0.59544825980E+01  0.13951971291E+02  0.18813870628E+02  0.51100000000E-03 0. -1.
        -11    1    3    3    0    0  0.86677426894E+01 -0.49164613345E+01  0.65052920577E+01  0.11900427740E+02  0.51100000000E-03 0.  1.
         12    1    3    3    0    0  0.11453295373E+02 -0.94071690878E+01  0.84742762511E+01  0.17072965856E+02  0.00000000000E+00 0. -1.
</event>
<event>
 7    1  0.1899036E-009  0.4778727E+02  0.7816164E-02  0.1312668E+00
        -11   -1    0    0    0    0  0.00000000000E+00  0.00000000000E+00  0.45593999997E+02  0.45594000000E+02  0.51100000000E-03 0.  1.
         11   -1    0    0    0    0 -0.00000000000E+00 -0.00000000000E+00 -0.45593999997E+02  0.45594000000E+02  0.51100000000E-03 0. -1.
    9900012    2    1    2    0    0 -0.70297386087E+01 -0.18995596662E+02 -0.38384552351E+02  0.47787265253E+02  0.19999973594E+02 0.  0.
        -12    1    1    2    0    0  0.70297386087E+01  0.18995596662E+02  0.38384552351E+02  0.43400734747E+02  0.00000000000E+00 0.  1.
         11    1    3    3    0    0 -0.83840919882E+00  0.13283408419E+01 -0.65982624870E+01  0.67826607968E+01  0.51100000000E-03 0. -1.
        -11    1    3    3    0    0 -0.57085591424E+00 -0.15803314447E+02 -0.11725441213E+02  0.19686457170E+02  0.51100000000E-03 0.  1.
         12    1    3    3    0    0 -0.56204734956E+01 -0.45206230564E+01 -0.20060848651E+02  0.21318147286E+02  0.00000000000E+00 0. -1.
</event>
<event>
 7    1  0.1899036E-009  0.4778727E+02  0.7816164E-02  0.1312668E+00
        -11   -1    0    0    0    0  0.00000000000E+00  0.00000000000E+00  0.45593999997E+02  0.45594000000E+02  0.51100000000E-03 0.  1.
         11   -1    0    0    0    0 -0.00000000000E+00 -0.00000000000E+00 -0.45593999997E+02  0.45594000000E+02  0.51100000000E-03 0. -1.
    9900012    2    1    2    0    0  0.36220084284E+02 -0.21981746424E+02 -0.94091253901E+01  0.47787270490E+02  0.19999997471E+02 0.  0.
        -12    1    1    2    0    0 -0.36220084284E+02  0.21981746424E+02  0.94091253901E+01  0.43400729510E+02  0.00000000000E+00 0.  1.
         11    1    3    3    0    0  0.15166870779E+02 -0.87511363118E+01 -0.10187813481E+02  0.20258526594E+02  0.51100000000E-03 0. -1.
        -11    1    3    3    0    0  0.21956198219E+02 -0.10062378089E+02  0.38322431889E-01  0.24152175096E+02  0.51100000000E-03 0.  1.
        -12    1    3    3    0    0 -0.90298471344E+00 -0.31682320235E+01  0.74036565894E+00  0.33765687993E+01  0.00000000000E+00 0.  1.
</event>
<event>
 7    1  0.1899036E-009  0.4778725E+02  0.7816164E-02  0.1312668E+00
        -11   -1    0    0    0    0  0.00000000000E+00  0.00000000000E+00  0.45593999997E+02  0.45594000000E+02  0.51100000000E-03 0. -1.
         11   -1    0    0    0    0 -0.00000000000E+00 -0.00000000000E+00 -0.45593999997E+02  0.45594000000E+02  0.51100000000E-03 0.  1.
    9900012    2    1    2    0    0  0.86327839360E+01 -0.37637444045E+02  0.19812198990E+02  0.47787246763E+02  0.19999889290E+02 0.  0.
        -12    1    1    2    0    0 -0.86327839360E+01  0.37637444045E+02 -0.19812198990E+02  0.43400753237E+02  0.00000000000E+00 0.  1.
         11    1    3    3    0    0  0.52341211342E+01 -0.10600083237E+02  0.62230735606E+01  0.13359806641E+02  0.51100000000E-03 0. -1.
        -11    1    3    3    0    0 -0.23697168816E+01 -0.21881169901E+02  0.44523903240E+01  0.22454953445E+02  0.51100000000E-03 0.  1.
         12    1    3    3    0    0  0.57683796833E+01 -0.51561909060E+01  0.91367351058E+01  0.11972486677E+02  0.00000000000E+00 0. -1.
</event>
<event>
 7    1  0.1899036E-009  0.4778727E+02  0.7816164E-02  0.1312668E+00
        -11   -1    0    0    0    0  0.00000000000E+00  0.00000000000E+00  0.45593999997E+02  0.45594000000E+02  0.51100000000E-03 0. -1.
         11   -1    0    0    0    0 -0.00000000000E+00 -0.00000000000E+00 -0.45593999997E+02  0.45594000000E+02  0.51100000000E-03 0.  1.
    9900012    2    1    2    0    0 -0.29731216557E+01  0.19035929214E+02  0.38889812864E+02  0.47787267310E+02  0.19999982972E+02 0.  0.
        -12    1    1    2    0    0  0.29731216557E+01 -0.19035929214E+02 -0.38889812864E+02  0.43400732690E+02  0.00000000000E+00 0.  1.
         11    1    3    3    0    0  0.81321717653E+01  0.76348447658E+01  0.11795465238E+02  0.16234410142E+02  0.51100000000E-03 0. -1.
        -11    1    3    3    0    0 -0.38054908564E+01  0.40853669235E+01  0.69746181128E+01  0.89340518041E+01  0.51100000000E-03 0.  1.
        -12    1    3    3    0    0 -0.72998025646E+01  0.73157175250E+01  0.20119729513E+02  0.22618805364E+02  0.00000000000E+00 0.  1.
</event>
<event>
 7    1  0.1899036E-009  0.4778727E+02  0.7816164E-02  0.1312668E+00
        -11   -1    0    0    0    0  0.00000000000E+00  0.00000000000E+00  0.45593999997E+02  0.45594000000E+02  0.51100000000E-03 0.  1.
         11   -1    0    0    0    0 -0.00000000000E+00 -0.00000000000E+00 -0.45593999997E+02  0.45594000000E+02  0.51100000000E-03 0. -1.
    9900012    2    1    2    0    0 -0.10389528012E+02  0.19343046585E+02 -0.37436977841E+02  0.47787273585E+02  0.20000011584E+02 0.  0.
        -12    1    1    2    0    0  0.10389528012E+02 -0.19343046585E+02  0.37436977841E+02  0.43400726415E+02  0.00000000000E+00 0.  1.
         11    1    3    3    0    0  0.21813537453E+01  0.77532076734E+01 -0.17475935350E+02  0.19242631057E+02  0.51100000000E-03 0. -1.
        -11    1    3    3    0    0 -0.74456531143E+01  0.48663871395E+00 -0.11369574992E+02  0.13599330987E+02  0.51100000000E-03 0.  1.
        -12    1    3    3    0    0 -0.51252286432E+01  0.11103200197E+02 -0.85914674983E+01  0.14945311540E+02  0.00000000000E+00 0.  1.
</event>
<event>
 7    1  0.1899036E-009  0.4778729E+02  0.7816164E-02  0.1312668E+00
        -11   -1    0    0    0    0  0.00000000000E+00  0.00000000000E+00  0.45593999997E+02  0.45594000000E+02  0.51100000000E-03 0. -1.
         11   -1    0    0    0    0 -0.00000000000E+00 -0.00000000000E+00 -0.45593999997E+02  0.45594000000E+02  0.51100000000E-03 0.  1.
    9900012    2    1    2    0    0 -0.31967065118E+02  0.25003752103E+02  0.15379889727E+02  0.47787287109E+02  0.20000073243E+02 0.  0.
        -12    1    1    2    0    0  0.31967065118E+02 -0.25003752103E+02 -0.15379889727E+02  0.43400712891E+02  0.00000000000E+00 0.  1.
         11    1    3    3    0    0 -0.35895745459E+01  0.10585626296E+01  0.55954656184E+01  0.67316295211E+01  0.51100000000E-03 0. -1.
        -11    1    3    3    0    0 -0.20223397807E+02  0.22776475629E+02  0.11647648860E+02  0.32610142367E+02  0.51100000000E-03 0.  1.
         12    1    3    3    0    0 -0.81540927647E+01  0.11687138442E+01 -0.18632247520E+01  0.84455152206E+01  0.00000000000E+00 0. -1.
</event>
<event>
 7    1  0.1899036E-009  0.4778727E+02  0.7816164E-02  0.1312668E+00
        -11   -1    0    0    0    0  0.00000000000E+00  0.00000000000E+00  0.45593999997E+02  0.45594000000E+02  0.51100000000E-03 0. -1.
         11   -1    0    0    0    0 -0.00000000000E+00 -0.00000000000E+00 -0.45593999997E+02  0.45594000000E+02  0.51100000000E-03 0.  1.
    9900012    2    1    2    0    0 -0.24127508188E+02  0.26134486000E+02 -0.24869164344E+02  0.47787270225E+02  0.19999996264E+02 0.  0.
        -12    1    1    2    0    0  0.24127508188E+02 -0.26134486000E+02  0.24869164344E+02  0.43400729775E+02  0.00000000000E+00 0.  1.
         11    1    3    3    0    0 -0.76678657305E+01  0.81866551575E+01 -0.62354532722E+01  0.12833486093E+02  0.51100000000E-03 0. -1.
        -11    1    3    3    0    0  0.16325913550E+01  0.21541829947E+01 -0.84430097827E+01  0.88651155299E+01  0.51100000000E-03 0.  1.
        -12    1    3    3    0    0 -0.18092233812E+02  0.15793647848E+02 -0.10190701289E+02  0.26088668602E+02  0.00000000000E+00 0.  1.
</event>
<event>
 7    1  0.1899036E-009  0.4778726E+02  0.7816164E-02  0.1312668E+00
        -11   -1    0    0    0    0  0.00000000000E+00  0.00000000000E+00  0.45593999997E+02  0.45594000000E+02  0.51100000000E-03 0.  1.
         11   -1    0    0    0    0 -0.00000000000E+00 -0.00000000000E+00 -0.45593999997E+02  0.45594000000E+02  0.51100000000E-03 0. -1.
    9900012    2    1    2    0    0  0.16211647380E+02 -0.38848812247E+02  0.10562961710E+02  0.47787264017E+02  0.19999967957E+02 0.  0.
        -12    1    1    2    0    0 -0.16211647380E+02  0.38848812247E+02 -0.10562961710E+02  0.43400735983E+02  0.00000000000E+00 0.  1.
         11    1    3    3    0    0  0.56837255624E+01 -0.45227583370E+01  0.27503661362E+01  0.77668908443E+01  0.51100000000E-03 0. -1.
        -11    1    3    3    0    0  0.70346945507E+00  0.76914888177E+00 -0.20198343977E+01  0.22729255448E+01  0.51100000000E-03 0.  1.
         12    1    3    3    0    0  0.98244523629E+01 -0.35095202792E+02  0.98324299713E+01  0.37747447628E+02  0.00000000000E+00 0. -1.
</event>
<event>
 7    1  0.1899036E-009  0.4778727E+02  0.7816164E-02  0.1312668E+00
        -11   -1    0    0    0    0  0.00000000000E+00  0.00000000000E+00  0.45593999997E+02  0.45594000000E+02  0.51100000000E-03 0. -1.
         11   -1    0    0    0    0 -0.00000000000E+00 -0.00000000000E+00 -0.45593999997E+02  0.45594000000E+02  0.51100000000E-03 0.  1.
    9900012    2    1    2    0    0  0.24874899675E+02 -0.52847609247E+01  0.35170069708E+02  0.47787272643E+02  0.20000007286E+02 0.  0.
        -12    1    1    2    0    0 -0.24874899675E+02  0.52847609247E+01 -0.35170069708E+02  0.43400727357E+02  0.00000000000E+00 0.  1.
         11    1    3    3    0    0 -0.10472938704E+01 -0.55228509587E+01  0.46007510801E+01  0.72639946259E+01  0.51100000000E-03 0. -1.
        -11    1    3    3    0    0  0.16007585283E+00  0.52690849886E+00  0.19014029246E+01  0.19795429239E+01  0.51100000000E-03 0.  1.
         12    1    3    3    0    0  0.25762117692E+02 -0.28881846485E+00  0.28667915704E+02  0.38543735093E+02  0.00000000000E+00 0. -1.
</event>
<event>
 7    1  0.1899036E-009  0.4778727E+02  0.7816164E-02  0.1312668E+00
        -11   -1    0    0    0    0  0.00000000000E+00  0.00000000000E+00  0.45593999997E+02  0.45594000000E+02  0.51100000000E-03 0.  1.
         11   -1    0    0    0    0 -0.00000000000E+00 -0.00000000000E+00 -0.45593999997E+02  0.45594000000E+02  0.51100000000E-03 0. -1.
    9900012    2    1    2    0    0 -0.22678646342E+02  0.16945330576E+02 -0.32896170333E+02  0.47787271310E+02  0.20000001212E+02 0.  0.
        -12    1    1    2    0    0  0.22678646342E+02 -0.16945330576E+02  0.32896170333E+02  0.43400728690E+02  0.00000000000E+00 0.  1.
         11    1    3    3    0    0 -0.86381618775E+01  0.33383687027E+01 -0.19821492224E+02  0.21878164925E+02  0.51100000000E-03 0. -1.
        -11    1    3    3    0    0 -0.54094507428E+01 -0.79031991386E+00 -0.43781226228E+01  0.70039075427E+01  0.51100000000E-03 0.  1.
        -12    1    3    3    0    0 -0.86310337215E+01  0.14397281788E+02 -0.86965554855E+01  0.18905198843E+02  0.00000000000E+00 0.  1.
</event>
<event>
 7    1  0.1899036E-009  0.4778725E+02  0.7816164E-02  0.1312668E+00
        -11   -1    0    0    0    0  0.00000000000E+00  0.00000000000E+00  0.45593999997E+02  0.45594000000E+02  0.51100000000E-03 0. -1.
         11   -1    0    0    0    0 -0.00000000000E+00 -0.00000000000E+00 -0.45593999997E+02  0.45594000000E+02  0.51100000000E-03 0.  1.
    9900012    2    1    2    0    0 -0.34918087072E+02  0.17793846208E+02  0.18647553780E+02  0.47787250817E+02  0.19999907777E+02 0.  0.
        -12    1    1    2    0    0  0.34918087072E+02 -0.17793846208E+02 -0.18647553780E+02  0.43400749183E+02  0.00000000000E+00 0.  1.
         11    1    3    3    0    0 -0.54998912943E+01  0.39717759099E+01  0.45301212105E+01  0.81575613127E+01  0.51100000000E-03 0. -1.
        -11    1    3    3    0    0 -0.27657100970E+02  0.14850217110E+02  0.69153374179E+01  0.32144456352E+02  0.51100000000E-03 0.  1.
         12    1    3    3    0    0 -0.17610948081E+01 -0.10281468125E+01  0.72020951512E+01  0.74852331532E+01  0.00000000000E+00 0. -1.
</event>
<event>
 7    1  0.1899036E-009  0.4778727E+02  0.7816164E-02  0.1312668E+00
        -11   -1    0    0    0    0  0.00000000000E+00  0.00000000000E+00  0.45593999997E+02  0.45594000000E+02  0.51100000000E-03 0.  1.
         11   -1    0    0    0    0 -0.00000000000E+00 -0.00000000000E+00 -0.45593999997E+02  0.45594000000E+02  0.51100000000E-03 0. -1.
    9900012    2    1    2    0    0 -0.21073917403E+02 -0.14496434126E+02 -0.35062323444E+02  0.47787272790E+02  0.20000007958E+02 0.  0.
        -12    1    1    2    0    0  0.21073917403E+02  0.14496434126E+02  0.35062323444E+02  0.43400727210E+02  0.00000000000E+00 0.  1.
         11    1    3    3    0    0 -0.36453627542E+01 -0.66554741955E+01 -0.14962810259E+02  0.16777058666E+02  0.51100000000E-03 0. -1.
        -11    1    3    3    0    0 -0.17790375886E+02 -0.27482250687E+01 -0.18098342513E+02  0.25526461117E+02  0.51100000000E-03 0.  1.
         12    1    3    3    0    0  0.36182123649E+00 -0.50927348615E+01 -0.20011706715E+01  0.54837530062E+01  0.00000000000E+00 0. -1.
</event>
<event>
 7    1  0.1899036E-009  0.4778728E+02  0.7816164E-02  0.1312668E+00
        -11   -1    0    0    0    0  0.00000000000E+00  0.00000000000E+00  0.45593999997E+02  0.45594000000E+02  0.51100000000E-03 0.  1.
         11   -1    0    0    0    0 -0.00000000000E+00 -0.00000000000E+00 -0.45593999997E+02  0.45594000000E+02  0.51100000000E-03 0. -1.
    9900012    2    1    2    0    0 -0.43327843830E+02  0.16107363477E+01 -0.19303838203E+01  0.47787275303E+02  0.20000019418E+02 0.  0.
        -12    1    1    2    0    0  0.43327843830E+02 -0.16107363477E+01  0.19303838203E+01  0.43400724697E+02  0.00000000000E+00 0.  1.
         11    1    3    3    0    0 -0.33127717173E+02  0.45806941293E+01 -0.28218355408E+01  0.33561751442E+02  0.51100000000E-03 0. -1.
        -11    1    3    3    0    0 -0.81339873268E+01 -0.88810484382E+00  0.46862797752E+01  0.94292999973E+01  0.51100000000E-03 0.  1.
         12    1    3    3    0    0 -0.20661393299E+01 -0.20818529378E+01 -0.37948280547E+01  0.47962238636E+01  0.00000000000E+00 0. -1.
</event>
<event>
 7    1  0.1899036E-009  0.4778727E+02  0.7816164E-02  0.1312668E+00
        -11   -1    0    0    0    0  0.00000000000E+00  0.00000000000E+00  0.45593999997E+02  0.45594000000E+02  0.51100000000E-03 0. -1.
         11   -1    0    0    0    0 -0.00000000000E+00 -0.00000000000E+00 -0.45593999997E+02  0.45594000000E+02  0.51100000000E-03 0.  1.
    9900012    2    1    2    0    0 -0.26013521680E+02  0.26468762326E+02  0.22501659491E+02  0.47787269947E+02  0.19999994998E+02 0.  0.
        -12    1    1    2    0    0  0.26013521680E+02 -0.26468762326E+02 -0.22501659491E+02  0.43400730053E+02  0.00000000000E+00 0.  1.
         11    1    3    3    0    0 -0.11434070601E+01  0.11145901389E+01 -0.22148529668E+01  0.27304330807E+01  0.51100000000E-03 0. -1.
        -11    1    3    3    0    0 -0.84797968630E+01  0.43720251063E+01  0.12599890685E+02  0.15804391918E+02  0.51100000000E-03 0.  1.
         12    1    3    3    0    0 -0.16390317757E+02  0.20982147081E+02  0.12116621773E+02  0.29252444949E+02  0.00000000000E+00 0. -1.
</event>
<event>
 7    1  0.1899036E-009  0.4778728E+02  0.7816164E-02  0.1312668E+00
        -11   -1    0    0    0    0  0.00000000000E+00  0.00000000000E+00  0.45593999997E+02  0.45594000000E+02  0.51100000000E-03 0. -1.
         11   -1    0    0    0    0 -0.00000000000E+00 -0.00000000000E+00 -0.45593999997E+02  0.45594000000E+02  0.51100000000E-03 0.  1.
    9900012    2    1    2    0    0 -0.21485240259E+02 -0.95370398901E+01  0.36483577633E+02  0.47787284387E+02  0.20000060833E+02 0.  0.
        -12    1    1    2    0    0  0.21485240259E+02  0.95370398901E+01 -0.36483577633E+02  0.43400715613E+02  0.00000000000E+00 0.  1.
         11    1    3    3    0    0 -0.64358898757E+01 -0.31564844033E+01  0.15617750931E+01  0.73364306023E+01  0.51100000000E-03 0.  1.
        -11    1    3    3    0    0 -0.36276107568E+01 -0.72718936005E+01  0.20364816135E+02  0.21926370717E+02  0.51100000000E-03 0. -1.
         12    1    3    3    0    0 -0.11421739626E+02  0.89133811376E+00  0.14556986405E+02  0.18524483068E+02  0.00000000000E+00 0. -1.
</event>
<event>
 7    1  0.1899036E-009  0.4778731E+02  0.7816164E-02  0.1312668E+00
        -11   -1    0    0    0    0  0.00000000000E+00  0.00000000000E+00  0.45593999997E+02  0.45594000000E+02  0.51100000000E-03 0. -1.
         11   -1    0    0    0    0 -0.00000000000E+00 -0.00000000000E+00 -0.45593999997E+02  0.45594000000E+02  0.51100000000E-03 0.  1.
    9900012    2    1    2    0    0 -0.10447882992E+02 -0.35568564779E+02  0.22568542549E+02  0.47787306777E+02  0.20000162918E+02 0.  0.
        -12    1    1    2    0    0  0.10447882992E+02  0.35568564779E+02 -0.22568542549E+02  0.43400693223E+02  0.00000000000E+00 0.  1.
         11    1    3    3    0    0 -0.11475324516E+02 -0.26125445822E+02  0.16982327241E+02  0.33205743945E+02  0.51100000000E-03 0. -1.
        -11    1    3    3    0    0  0.22820243962E+01 -0.91853325354E+01  0.76384873298E+01  0.12162419911E+02  0.51100000000E-03 0.  1.
        -12    1    3    3    0    0 -0.12545828717E+01 -0.25778642135E+00 -0.20522720220E+01  0.24191429212E+01  0.00000000000E+00 0.  1.
</event>
<event>
 7    1  0.1899036E-009  0.4778726E+02  0.7816164E-02  0.1312668E+00
        -11   -1    0    0    0    0  0.00000000000E+00  0.00000000000E+00  0.45593999997E+02  0.45594000000E+02  0.51100000000E-03 0.  1.
         11   -1    0    0    0    0 -0.00000000000E+00 -0.00000000000E+00 -0.45593999997E+02  0.45594000000E+02  0.51100000000E-03 0. -1.
    9900012    2    1    2    0    0  0.54364218176E+01 -0.27202275241E+02 -0.33378219047E+02  0.47787263056E+02  0.19999963579E+02 0.  0.
        -12    1    1    2    0    0 -0.54364218176E+01  0.27202275241E+02  0.33378219047E+02  0.43400736944E+02  0.00000000000E+00 0.  1.
         11    1    3    3    0    0  0.66374541532E+01 -0.16605686943E+02 -0.79352256428E+01  0.19564571111E+02  0.51100000000E-03 0.  1.
        -11    1    3    3    0    0 -0.31882130943E+01 -0.48674485690E+01 -0.92103223814E+01  0.10894347017E+02  0.51100000000E-03 0. -1.
        -12    1    3    3    0    0  0.19871807586E+01 -0.57291397293E+01 -0.16232671023E+02  0.17328344928E+02  0.00000000000E+00 0.  1.
</event>
<event>
 7    1  0.1899036E-009  0.4778727E+02  0.7816164E-02  0.1312668E+00
        -11   -1    0    0    0    0  0.00000000000E+00  0.00000000000E+00  0.45593999997E+02  0.45594000000E+02  0.51100000000E-03 0. -1.
         11   -1    0    0    0    0 -0.00000000000E+00 -0.00000000000E+00 -0.45593999997E+02  0.45594000000E+02  0.51100000000E-03 0.  1.
    9900012    2    1    2    0    0  0.29911751352E+01  0.43238647054E+02  0.22573784582E+01  0.47787268610E+02  0.19999988899E+02 0.  0.
        -12    1    1    2    0    0 -0.29911751352E+01 -0.43238647054E+02 -0.22573784582E+01  0.43400731390E+02  0.00000000000E+00 0.  1.
         11    1    3    3    0    0 -0.11930738818E+01  0.64729116588E+01 -0.31576890136E+00  0.65895159830E+01  0.51100000000E-03 0. -1.
        -11    1    3    3    0    0 -0.46973447690E+00  0.28137193664E+02  0.89176201453E+01  0.29520268750E+02  0.51100000000E-03 0.  1.
        -12    1    3    3    0    0  0.46539834939E+01  0.86285417312E+01 -0.63444727857E+01  0.11677483877E+02  0.00000000000E+00 0.  1.
</event>
<event>
 7    1  0.1899036E-009  0.4778727E+02  0.7816164E-02  0.1312668E+00
        -11   -1    0    0    0    0  0.00000000000E+00  0.00000000000E+00  0.45593999997E+02  0.45594000000E+02  0.51100000000E-03 0.  1.
         11   -1    0    0    0    0 -0.00000000000E+00 -0.00000000000E+00 -0.45593999997E+02  0.45594000000E+02  0.51100000000E-03 0. -1.
    9900012    2    1    2    0    0 -0.27472182980E+02  0.58496173188E+01 -0.33086015807E+02  0.47787270716E+02  0.19999998502E+02 0.  0.
        -12    1    1    2    0    0  0.27472182980E+02 -0.58496173188E+01  0.33086015807E+02  0.43400729284E+02  0.00000000000E+00 0.  1.
         11    1    3    3    0    0 -0.13760796749E+02  0.21363222421E+00 -0.21421315706E+02  0.25461302652E+02  0.51100000000E-03 0. -1.
        -11    1    3    3    0    0 -0.72024988905E+00  0.55743370323E+01 -0.57857095614E+01  0.80663764257E+01  0.51100000000E-03 0.  1.
        -12    1    3    3    0    0 -0.12991136342E+02  0.61648062337E-01 -0.58789905395E+01  0.14259591638E+02  0.00000000000E+00 0.  1.
</event>
<event>
 7    1  0.1899036E-009  0.4778728E+02  0.7816164E-02  0.1312668E+00
        -11   -1    0    0    0    0  0.00000000000E+00  0.00000000000E+00  0.45593999997E+02  0.45594000000E+02  0.51100000000E-03 0. -1.
         11   -1    0    0    0    0 -0.00000000000E+00 -0.00000000000E+00 -0.45593999997E+02  0.45594000000E+02  0.51100000000E-03 0.  1.
    9900012    2    1    2    0    0 -0.38666715596E+02  0.56948060292E+01 -0.18869986662E+02  0.47787284484E+02  0.20000061276E+02 0.  0.
        -12    1    1    2    0    0  0.38666715596E+02 -0.56948060292E+01  0.18869986662E+02  0.43400715516E+02  0.00000000000E+00 0.  1.
         11    1    3    3    0    0 -0.71080349094E+01  0.30694576059E+01 -0.38215157033E+01  0.86342175557E+01  0.51100000000E-03 0. -1.
        -11    1    3    3    0    0 -0.71819180170E+01  0.30811205188E+01 -0.12361220177E+02  0.14624397922E+02  0.51100000000E-03 0.  1.
         12    1    3    3    0    0 -0.24376762669E+02 -0.45577209555E+00 -0.26872507817E+01  0.24528669006E+02  0.00000000000E+00 0. -1.
</event>
<event>
 7    1  0.1899036E-009  0.4778727E+02  0.7816164E-02  0.1312668E+00
        -11   -1    0    0    0    0  0.00000000000E+00  0.00000000000E+00  0.45593999997E+02  0.45594000000E+02  0.51100000000E-03 0.  1.
         11   -1    0    0    0    0 -0.00000000000E+00 -0.00000000000E+00 -0.45593999997E+02  0.45594000000E+02  0.51100000000E-03 0. -1.
    9900012    2    1    2    0    0  0.10473668324E+02 -0.40178264563E+02 -0.12634581272E+02  0.47787270566E+02  0.19999997819E+02 0.  0.
        -12    1    1    2    0    0 -0.10473668324E+02  0.40178264563E+02  0.12634581272E+02  0.43400729434E+02  0.00000000000E+00 0.  1.
         11    1    3    3    0    0  0.76422902081E+01 -0.31167485521E+02 -0.17096438352E+02  0.36360761239E+02  0.51100000000E-03 0. -1.
        -11    1    3    3    0    0  0.34158094663E+01 -0.48948891689E+01  0.10762991291E+01  0.60651557575E+01  0.51100000000E-03 0.  1.
         12    1    3    3    0    0 -0.58443135037E+00 -0.41158898738E+01  0.33855579510E+01  0.53613535693E+01  0.00000000000E+00 0. -1.
</event>
<event>
 7    1  0.1899036E-009  0.4778727E+02  0.7816164E-02  0.1312668E+00
        -11   -1    0    0    0    0  0.00000000000E+00  0.00000000000E+00  0.45593999997E+02  0.45594000000E+02  0.51100000000E-03 0.  1.
         11   -1    0    0    0    0 -0.00000000000E+00 -0.00000000000E+00 -0.45593999997E+02  0.45594000000E+02  0.51100000000E-03 0. -1.
    9900012    2    1    2    0    0  0.47265400330E+01 -0.36293601125E+02 -0.23325037472E+02  0.47787273780E+02  0.20000012474E+02 0.  0.
        -12    1    1    2    0    0 -0.47265400330E+01  0.36293601125E+02  0.23325037472E+02  0.43400726220E+02  0.00000000000E+00 0.  1.
         11    1    3    3    0    0 -0.30255204372E+01 -0.23208810867E+02 -0.12397551864E+02  0.26485882433E+02  0.51100000000E-03 0. -1.
        -11    1    3    3    0    0  0.80955876830E+00 -0.10147474171E+02 -0.36245885339E+01  0.10805751235E+02  0.51100000000E-03 0.  1.
        -12    1    3    3    0    0  0.69425017019E+01 -0.29373160865E+01 -0.73028970745E+01  0.10495640112E+02  0.00000000000E+00 0.  1.
</event>
<event>
 7    1  0.1899036E-009  0.4778727E+02  0.7816164E-02  0.1312668E+00
        -11   -1    0    0    0    0  0.00000000000E+00  0.00000000000E+00  0.45593999997E+02  0.45594000000E+02  0.51100000000E-03 0.  1.
         11   -1    0    0    0    0 -0.00000000000E+00 -0.00000000000E+00 -0.45593999997E+02  0.45594000000E+02  0.51100000000E-03 0. -1.
    9900012    2    1    2    0    0 -0.32733940215E+02 -0.15400368146E+02 -0.23977931106E+02  0.47787270039E+02  0.19999995415E+02 0.  0.
        -12    1    1    2    0    0  0.32733940215E+02  0.15400368146E+02  0.23977931106E+02  0.43400729961E+02  0.00000000000E+00 0.  1.
         11    1    3    3    0    0 -0.11347531388E+01 -0.68745216450E+01 -0.79693320729E+01  0.10585696315E+02  0.51100000000E-03 0. -1.
        -11    1    3    3    0    0 -0.22578426563E+01 -0.28743794732E+01 -0.23641983986E+01  0.43530845553E+01  0.51100000000E-03 0.  1.
        -12    1    3    3    0    0 -0.29341344420E+02 -0.56514670274E+01 -0.13644400635E+02  0.32848489168E+02  0.00000000000E+00 0.  1.
</event>
<event>
 7    1  0.1899036E-009  0.4778727E+02  0.7816164E-02  0.1312668E+00
        -11   -1    0    0    0    0  0.00000000000E+00  0.00000000000E+00  0.45593999997E+02  0.45594000000E+02  0.51100000000E-03 0. -1.
         11   -1    0    0    0    0 -0.00000000000E+00 -0.00000000000E+00 -0.45593999997E+02  0.45594000000E+02  0.51100000000E-03 0.  1.
    9900012    2    1    2    0    0 -0.15417974351E+02  0.39624861810E+02  0.87051766202E+01  0.47787266060E+02  0.19999977273E+02 0.  0.
        -12    1    1    2    0    0  0.15417974351E+02 -0.39624861810E+02 -0.87051766202E+01  0.43400733940E+02  0.00000000000E+00 0.  1.
         11    1    3    3    0    0 -0.95251795157E+01  0.15057625753E+02  0.58730716726E+01  0.18760440007E+02  0.51100000000E-03 0. -1.
        -11    1    3    3    0    0 -0.85902697583E+01  0.11759792146E+02  0.56808935640E+01  0.15631954382E+02  0.51100000000E-03 0.  1.
        -12    1    3    3    0    0  0.26974749236E+01  0.12807443911E+02 -0.28487886164E+01  0.13394871671E+02  0.00000000000E+00 0.  1.
</event>
<event>
 7    1  0.1899036E-009  0.4778727E+02  0.7816164E-02  0.1312668E+00
        -11   -1    0    0    0    0  0.00000000000E+00  0.00000000000E+00  0.45593999997E+02  0.45594000000E+02  0.51100000000E-03 0.  1.
         11   -1    0    0    0    0 -0.00000000000E+00 -0.00000000000E+00 -0.45593999997E+02  0.45594000000E+02  0.51100000000E-03 0. -1.
    9900012    2    1    2    0    0  0.20392974560E+02 -0.77782972003E+01 -0.37513303996E+02  0.47787270796E+02  0.19999998867E+02 0.  0.
        -12    1    1    2    0    0 -0.20392974560E+02  0.77782972003E+01  0.37513303996E+02  0.43400729204E+02  0.00000000000E+00 0.  1.
         11    1    3    3    0    0  0.13792066504E+02  0.33916458342E+00 -0.24572846237E+02  0.28180860588E+02  0.51100000000E-03 0. -1.
        -11    1    3    3    0    0  0.65038735068E+01 -0.25397605800E+01 -0.18991425507E+01  0.72358480557E+01  0.51100000000E-03 0.  1.
        -12    1    3    3    0    0  0.97034549198E-01 -0.55777012038E+01 -0.11041315209E+02  0.12370562152E+02  0.00000000000E+00 0.  1.
</event>
<event>
 7    1  0.1899036E-009  0.4778727E+02  0.7816164E-02  0.1312668E+00
        -11   -1    0    0    0    0  0.00000000000E+00  0.00000000000E+00  0.45593999997E+02  0.45594000000E+02  0.51100000000E-03 0.  1.
         11   -1    0    0    0    0 -0.00000000000E+00 -0.00000000000E+00 -0.45593999997E+02  0.45594000000E+02  0.51100000000E-03 0. -1.
    9900012    2    1    2    0    0  0.24980669470E+02  0.17422092259E+02 -0.30920225116E+02  0.47787268818E+02  0.19999989850E+02 0.  0.
        -12    1    1    2    0    0 -0.24980669470E+02 -0.17422092259E+02  0.30920225116E+02  0.43400731182E+02  0.00000000000E+00 0.  1.
         11    1    3    3    0    0  0.22987202395E+02  0.74262803444E+01 -0.17324957931E+02  0.29727349045E+02  0.51100000000E-03 0. -1.
        -11    1    3    3    0    0  0.30700389271E+00  0.17926556970E+01  0.29283037722E+00  0.18421768995E+01  0.51100000000E-03 0.  1.
        -12    1    3    3    0    0  0.16864631824E+01  0.82031562180E+01 -0.13888097562E+02  0.16217742873E+02  0.00000000000E+00 0.  1.
</event>
<event>
 7    1  0.1899036E-009  0.4778727E+02  0.7816164E-02  0.1312668E+00
        -11   -1    0    0    0    0  0.00000000000E+00  0.00000000000E+00  0.45593999997E+02  0.45594000000E+02  0.51100000000E-03 0.  1.
         11   -1    0    0    0    0 -0.00000000000E+00 -0.00000000000E+00 -0.45593999997E+02  0.45594000000E+02  0.51100000000E-03 0. -1.
    9900012    2    1    2    0    0 -0.27097511692E+02  0.19195827667E+02 -0.27944023458E+02  0.47787269744E+02  0.19999994072E+02 0.  0.
        -12    1    1    2    0    0  0.27097511692E+02 -0.19195827667E+02  0.27944023458E+02  0.43400730256E+02  0.00000000000E+00 0.  1.
         11    1    3    3    0    0 -0.62860115441E+01  0.54936981947E+01 -0.18517407611E+01  0.85512341270E+01  0.51100000000E-03 0. -1.
        -11    1    3    3    0    0 -0.34465639844E+01  0.24386251134E+01 -0.15342788945E+02  0.15913103676E+02  0.51100000000E-03 0.  1.
        -12    1    3    3    0    0 -0.17364936163E+02  0.11263504359E+02 -0.10749493752E+02  0.23322931941E+02  0.00000000000E+00 0.  1.
</event>
<event>
 7    1  0.1899036E-009  0.4778727E+02  0.7816164E-02  0.1312668E+00
        -11   -1    0    0    0    0  0.00000000000E+00  0.00000000000E+00  0.45593999997E+02  0.45594000000E+02  0.51100000000E-03 0.  1.
         11   -1    0    0    0    0 -0.00000000000E+00 -0.00000000000E+00 -0.45593999997E+02  0.45594000000E+02  0.51100000000E-03 0. -1.
    9900012    2    1    2    0    0 -0.16457662142E+02  0.22083241594E+01 -0.40098528793E+02  0.47787270166E+02  0.19999995995E+02 0.  0.
        -12    1    1    2    0    0  0.16457662142E+02 -0.22083241594E+01  0.40098528793E+02  0.43400729834E+02  0.00000000000E+00 0.  1.
         11    1    3    3    0    0 -0.36228851407E+01 -0.44160134488E+01 -0.19906089265E+02  0.20709390662E+02  0.51100000000E-03 0.  1.
        -11    1    3    3    0    0  0.54278594607E-01  0.49461823292E+01 -0.43621204290E+01  0.65951315907E+01  0.51100000000E-03 0. -1.
        -12    1    3    3    0    0 -0.12889055595E+02  0.16781552790E+01 -0.15830319099E+02  0.20482747913E+02  0.00000000000E+00 0.  1.
</event>
<event>
 7    1  0.1899036E-009  0.4778727E+02  0.7816164E-02  0.1312668E+00
        -11   -1    0    0    0    0  0.00000000000E+00  0.00000000000E+00  0.45593999997E+02  0.45594000000E+02  0.51100000000E-03 0.  1.
         11   -1    0    0    0    0 -0.00000000000E+00 -0.00000000000E+00 -0.45593999997E+02  0.45594000000E+02  0.51100000000E-03 0. -1.
    9900012    2    1    2    0    0  0.27217075196E+02 -0.16120232739E+02 -0.29715180211E+02  0.47787273961E+02  0.20000013297E+02 0.  0.
        -12    1    1    2    0    0 -0.27217075196E+02  0.16120232739E+02  0.29715180211E+02  0.43400726039E+02  0.00000000000E+00 0.  1.
         11    1    3    3    0    0  0.73179355814E+01 -0.10922895770E+02 -0.94998240210E+01  0.16220619281E+02  0.51100000000E-03 0. -1.
        -11    1    3    3    0    0  0.20579362697E+02 -0.17955861778E+01 -0.18334806059E+02  0.27620633813E+02  0.51100000000E-03 0.  1.
        -12    1    3    3    0    0 -0.68022308267E+00 -0.34017507911E+01 -0.18805501306E+01  0.39460208667E+01  0.00000000000E+00 0.  1.
</event>
<event>
 7    1  0.1899036E-009  0.4778729E+02  0.7816164E-02  0.1312668E+00
        -11   -1    0    0    0    0  0.00000000000E+00  0.00000000000E+00  0.45593999997E+02  0.45594000000E+02  0.51100000000E-03 0.  1.
         11   -1    0    0    0    0 -0.00000000000E+00 -0.00000000000E+00 -0.45593999997E+02  0.45594000000E+02  0.51100000000E-03 0. -1.
    9900012    2    1    2    0    0  0.14078664718E+02 -0.79638070038E+01 -0.40273949385E+02  0.47787285475E+02  0.20000065793E+02 0.  0.
        -12    1    1    2    0    0 -0.14078664718E+02  0.79638070038E+01  0.40273949385E+02  0.43400714525E+02  0.00000000000E+00 0.  1.
         11    1    3    3    0    0  0.11864182060E+02 -0.13632460395E+01 -0.14389121541E+02  0.18699306797E+02  0.51100000000E-03 0. -1.
        -11    1    3    3    0    0 -0.23076607008E+01  0.23013469292E+01 -0.56109851087E+01  0.64888095788E+01  0.51100000000E-03 0.  1.
        -12    1    3    3    0    0  0.45221433592E+01 -0.89019078935E+01 -0.20273842735E+02  0.22599169099E+02  0.00000000000E+00 0.  1.
</event>
<event>
 7    1  0.1899036E-009  0.4778727E+02  0.7816164E-02  0.1312668E+00
        -11   -1    0    0    0    0  0.00000000000E+00  0.00000000000E+00  0.45593999997E+02  0.45594000000E+02  0.51100000000E-03 0. -1.
         11   -1    0    0    0    0 -0.00000000000E+00 -0.00000000000E+00 -0.45593999997E+02  0.45594000000E+02  0.51100000000E-03 0.  1.
    9900012    2    1    2    0    0 -0.29789058902E+02  0.27194751969E+02  0.16021257572E+02  0.47787271214E+02  0.20000000774E+02 0.  0.
        -12    1    1    2    0    0  0.29789058902E+02 -0.27194751969E+02 -0.16021257572E+02  0.43400728786E+02  0.00000000000E+00 0.  1.
         11    1    3    3    0    0 -0.92537958774E+01  0.56407777261E+01  0.11280006041E+02  0.15642558871E+02  0.51100000000E-03 0. -1.
        -11    1    3    3    0    0 -0.10722858206E+02  0.17861515255E+02  0.57505503295E+01  0.21612085616E+02  0.51100000000E-03 0.  1.
        -12    1    3    3    0    0 -0.98124048195E+01  0.36924589876E+01 -0.10092987979E+01  0.10532626727E+02  0.00000000000E+00 0.  1.
</event>
<event>
 7    1  0.1899036E-009  0.4778727E+02  0.7816164E-02  0.1312668E+00
        -11   -1    0    0    0    0  0.00000000000E+00  0.00000000000E+00  0.45593999997E+02  0.45594000000E+02  0.51100000000E-03 0.  1.
         11   -1    0    0    0    0 -0.00000000000E+00 -0.00000000000E+00 -0.45593999997E+02  0.45594000000E+02  0.51100000000E-03 0. -1.
    9900012    2    1    2    0    0  0.14363778872E+02 -0.29782184873E+02 -0.28112756484E+02  0.47787265485E+02  0.19999974651E+02 0.  0.
        -12    1    1    2    0    0 -0.14363778872E+02  0.29782184873E+02  0.28112756484E+02  0.43400734515E+02  0.00000000000E+00 0.  1.
         11    1    3    3    0    0  0.45395064350E+01 -0.51420033584E+01 -0.11347276158E+02  0.13259260676E+02  0.51100000000E-03 0. -1.
        -11    1    3    3    0    0 -0.14098721679E+01 -0.62474549467E+01  0.11437505314E+01  0.65058895149E+01  0.51100000000E-03 0.  1.
         12    1    3    3    0    0  0.11234144605E+02 -0.18392726568E+02 -0.17909230857E+02  0.28022115294E+02  0.00000000000E+00 0. -1.
</event>
<event>
 7    1  0.1899036E-009  0.4778727E+02  0.7816164E-02  0.1312668E+00
        -11   -1    0    0    0    0  0.00000000000E+00  0.00000000000E+00  0.45593999997E+02  0.45594000000E+02  0.51100000000E-03 0.  1.
         11   -1    0    0    0    0 -0.00000000000E+00 -0.00000000000E+00 -0.45593999997E+02  0.45594000000E+02  0.51100000000E-03 0. -1.
    9900012    2    1    2    0    0  0.39101183730E+02  0.12924069701E+02 -0.13699964992E+02  0.47787272040E+02  0.20000004537E+02 0.  0.
        -12    1    1    2    0    0 -0.39101183730E+02 -0.12924069701E+02  0.13699964992E+02  0.43400727960E+02  0.00000000000E+00 0.  1.
         11    1    3    3    0    0  0.79466269979E+01 -0.33007649674E+01 -0.20321311529E+01  0.88415771951E+01  0.51100000000E-03 0. -1.
        -11    1    3    3    0    0  0.49380157202E+01  0.81283834649E+01 -0.12336994812E+01  0.95904448112E+01  0.51100000000E-03 0.  1.
         12    1    3    3    0    0  0.26216541012E+02  0.80964512035E+01 -0.10434134358E+02  0.29355250033E+02  0.00000000000E+00 0. -1.
</event>
<event>
 7    1  0.1899036E-009  0.4778727E+02  0.7816164E-02  0.1312668E+00
        -11   -1    0    0    0    0  0.00000000000E+00  0.00000000000E+00  0.45593999997E+02  0.45594000000E+02  0.51100000000E-03 0.  1.
         11   -1    0    0    0    0 -0.00000000000E+00 -0.00000000000E+00 -0.45593999997E+02  0.45594000000E+02  0.51100000000E-03 0. -1.
    9900012    2    1    2    0    0  0.32215555852E+02 -0.27103010329E+02 -0.10545523523E+02  0.47787271041E+02  0.19999999986E+02 0.  0.
        -12    1    1    2    0    0 -0.32215555852E+02  0.27103010329E+02  0.10545523523E+02  0.43400728959E+02  0.00000000000E+00 0.  1.
         11    1    3    3    0    0  0.16940737203E+02 -0.14504240692E+02 -0.28690965958E+01  0.22485401721E+02  0.51100000000E-03 0. -1.
        -11    1    3    3    0    0  0.16992097873E+02 -0.80541511482E+01 -0.79946921095E+01  0.20433204424E+02  0.51100000000E-03 0.  1.
        -12    1    3    3    0    0 -0.17172792242E+01 -0.45446184889E+01  0.31826518190E+00  0.48686648960E+01  0.00000000000E+00 0.  1.
</event>
<event>
 7    1  0.1899036E-009  0.4778727E+02  0.7816164E-02  0.1312668E+00
        -11   -1    0    0    0    0  0.00000000000E+00  0.00000000000E+00  0.45593999997E+02  0.45594000000E+02  0.51100000000E-03 0. -1.
         11   -1    0    0    0    0 -0.00000000000E+00 -0.00000000000E+00 -0.45593999997E+02  0.45594000000E+02  0.51100000000E-03 0.  1.
    9900012    2    1    2    0    0  0.29313985729E+02 -0.32478816338E+00  0.32003251820E+02  0.47787269895E+02  0.19999994757E+02 0.  0.
        -12    1    1    2    0    0 -0.29313985729E+02  0.32478816338E+00 -0.32003251820E+02  0.43400730105E+02  0.00000000000E+00 0.  1.
         11    1    3    3    0    0  0.13462385778E+02  0.13454848417E+00  0.19487639901E+02  0.23685903895E+02  0.51100000000E-03 0. -1.
        -11    1    3    3    0    0  0.14449320599E+02 -0.34966083902E+01  0.46866633844E+01  0.15587621690E+02  0.51100000000E-03 0.  1.
         12    1    3    3    0    0  0.14022793510E+01  0.30372717426E+01  0.78289485341E+01  0.85137443094E+01  0.00000000000E+00 0. -1.
</event>
<event>
 7    1  0.1899036E-009  0.4778727E+02  0.7816164E-02  0.1312668E+00
        -11   -1    0    0    0    0  0.00000000000E+00  0.00000000000E+00  0.45593999997E+02  0.45594000000E+02  0.51100000000E-03 0.  1.
         11   -1    0    0    0    0 -0.00000000000E+00 -0.00000000000E+00 -0.45593999997E+02  0.45594000000E+02  0.51100000000E-03 0. -1.
    9900012    2    1    2    0    0 -0.24261104646E+02 -0.22079752922E+02 -0.28416665275E+02  0.47787267827E+02  0.19999985331E+02 0.  0.
        -12    1    1    2    0    0  0.24261104646E+02  0.22079752922E+02  0.28416665275E+02  0.43400732173E+02  0.00000000000E+00 0.  1.
         11    1    3    3    0    0 -0.80298004529E+01 -0.15495583463E+02 -0.15528659511E+02  0.23360866179E+02  0.51100000000E-03 0. -1.
        -11    1    3    3    0    0 -0.16257890600E+02 -0.84296889268E+01 -0.13172809029E+02  0.22558846605E+02  0.51100000000E-03 0.  1.
        -12    1    3    3    0    0  0.26586406319E-01  0.18455194673E+01  0.28480326448E+00  0.18675550435E+01  0.00000000000E+00 0.  1.
</event>
<event>
 7    1  0.1899036E-009  0.4778724E+02  0.7816164E-02  0.1312668E+00
        -11   -1    0    0    0    0  0.00000000000E+00  0.00000000000E+00  0.45593999997E+02  0.45594000000E+02  0.51100000000E-03 0.  1.
         11   -1    0    0    0    0 -0.00000000000E+00 -0.00000000000E+00 -0.45593999997E+02  0.45594000000E+02  0.51100000000E-03 0. -1.
    9900012    2    1    2    0    0  0.28981679015E+02  0.35793158816E+01 -0.32107275175E+02  0.47787235722E+02  0.19999838952E+02 0.  0.
        -12    1    1    2    0    0 -0.28981679015E+02 -0.35793158816E+01  0.32107275175E+02  0.43400764278E+02  0.00000000000E+00 0.  1.
         11    1    3    3    0    0  0.12956401254E+02  0.47625834881E+01 -0.17214269853E+02  0.22065394213E+02  0.51100000000E-03 0. -1.
        -11    1    3    3    0    0  0.18458487937E+01 -0.30956787734E+01 -0.99525678206E+01  0.10585083435E+02  0.51100000000E-03 0.  1.
         12    1    3    3    0    0  0.14179428967E+02  0.19124111668E+01 -0.49404375016E+01  0.15136758075E+02  0.00000000000E+00 0. -1.
</event>
<event>
 7    1  0.1899036E-009  0.4778727E+02  0.7816164E-02  0.1312668E+00
        -11   -1    0    0    0    0  0.00000000000E+00  0.00000000000E+00  0.45593999997E+02  0.45594000000E+02  0.51100000000E-03 0.  1.
         11   -1    0    0    0    0 -0.00000000000E+00 -0.00000000000E+00 -0.45593999997E+02  0.45594000000E+02  0.51100000000E-03 0. -1.
    9900012    2    1    2    0    0  0.20525417804E+01  0.10275437252E+02 -0.42116810992E+02  0.47787270667E+02  0.19999998279E+02 0.  0.
        -12    1    1    2    0    0 -0.20525417804E+01 -0.10275437252E+02  0.42116810992E+02  0.43400729333E+02  0.00000000000E+00 0.  1.
         11    1    3    3    0    0 -0.74022252817E+00  0.39511489249E+01 -0.30197830272E+02  0.30464216067E+02  0.51100000000E-03 0. -1.
        -11    1    3    3    0    0 -0.30659888769E+01  0.14809181597E+01 -0.81620898875E+01  0.88438180659E+01  0.51100000000E-03 0.  1.
        -12    1    3    3    0    0  0.58587531854E+01  0.48433701672E+01 -0.37568908331E+01  0.84792365338E+01  0.00000000000E+00 0.  1.
</event>
<event>
 7    1  0.1899036E-009  0.4778727E+02  0.7816164E-02  0.1312668E+00
        -11   -1    0    0    0    0  0.00000000000E+00  0.00000000000E+00  0.45593999997E+02  0.45594000000E+02  0.51100000000E-03 0. -1.
         11   -1    0    0    0    0 -0.00000000000E+00 -0.00000000000E+00 -0.45593999997E+02  0.45594000000E+02  0.51100000000E-03 0.  1.
    9900012    2    1    2    0    0  0.19680483204E+02  0.90747396047E+00  0.38671421610E+02  0.47787265243E+02  0.19999973548E+02 0.  0.
        -12    1    1    2    0    0 -0.19680483204E+02 -0.90747396047E+00 -0.38671421610E+02  0.43400734757E+02  0.00000000000E+00 0.  1.
         11    1    3    3    0    0  0.62276601306E+01 -0.26790352023E+01  0.52001466817E+01  0.85441504019E+01  0.51100000000E-03 0. -1.
        -11    1    3    3    0    0 -0.21893628743E+01  0.39932960262E+01  0.50577848158E+01  0.68059466978E+01  0.51100000000E-03 0.  1.
         12    1    3    3    0    0  0.15642185948E+02 -0.40678686342E+00  0.28413490112E+02  0.32437168143E+02  0.00000000000E+00 0. -1.
</event>
<event>
 7    1  0.1899036E-009  0.4778727E+02  0.7816164E-02  0.1312668E+00
        -11   -1    0    0    0    0  0.00000000000E+00  0.00000000000E+00  0.45593999997E+02  0.45594000000E+02  0.51100000000E-03 0. -1.
         11   -1    0    0    0    0 -0.00000000000E+00 -0.00000000000E+00 -0.45593999997E+02  0.45594000000E+02  0.51100000000E-03 0.  1.
    9900012    2    1    2    0    0 -0.22026228882E+02  0.30929143345E+02 -0.21020385773E+02  0.47787270918E+02  0.19999999424E+02 0.  0.
        -12    1    1    2    0    0  0.22026228882E+02 -0.30929143345E+02  0.21020385773E+02  0.43400729082E+02  0.00000000000E+00 0.  1.
         11    1    3    3    0    0 -0.94412052334E+01  0.14829916811E+02 -0.79707280102E+01  0.19302727635E+02  0.51100000000E-03 0. -1.
        -11    1    3    3    0    0  0.28923453658E+01  0.39841320203E+01 -0.57684147173E-01  0.49236467575E+01  0.51100000000E-03 0.  1.
         12    1    3    3    0    0 -0.15477369014E+02  0.12115094514E+02 -0.12991973616E+02  0.23560896526E+02  0.00000000000E+00 0. -1.
</event>
<event>
 7    1  0.1899036E-009  0.4778727E+02  0.7816164E-02  0.1312668E+00
        -11   -1    0    0    0    0  0.00000000000E+00  0.00000000000E+00  0.45593999997E+02  0.45594000000E+02  0.51100000000E-03 0. -1.
         11   -1    0    0    0    0 -0.00000000000E+00 -0.00000000000E+00 -0.45593999997E+02  0.45594000000E+02  0.51100000000E-03 0.  1.
    9900012    2    1    2    0    0  0.29608496984E+02  0.23960017903E+02 -0.20805720761E+02  0.47787267657E+02  0.19999984554E+02 0.  0.
        -12    1    1    2    0    0 -0.29608496984E+02 -0.23960017903E+02  0.20805720761E+02  0.43400732343E+02  0.00000000000E+00 0.  1.
         11    1    3    3    0    0  0.16535939861E+02  0.12999095111E+02 -0.12710737370E+02  0.24575935903E+02  0.51100000000E-03 0. -1.
        -11    1    3    3    0    0  0.24525114396E+01  0.24495893504E+00 -0.77369979223E+01  0.81200957108E+01  0.51100000000E-03 0.  1.
         12    1    3    3    0    0  0.10620045683E+02  0.10715963857E+02 -0.35798546902E+00  0.15091236043E+02  0.00000000000E+00 0. -1.
</event>
<event>
 7    1  0.1899036E-009  0.4778728E+02  0.7816164E-02  0.1312668E+00
        -11   -1    0    0    0    0  0.00000000000E+00  0.00000000000E+00  0.45593999997E+02  0.45594000000E+02  0.51100000000E-03 0.  1.
         11   -1    0    0    0    0 -0.00000000000E+00 -0.00000000000E+00 -0.45593999997E+02  0.45594000000E+02  0.51100000000E-03 0. -1.
    9900012    2    1    2    0    0  0.14272416608E+02 -0.37420048045E+02 -0.16723066427E+02  0.47787276247E+02  0.20000023721E+02 0.  0.
        -12    1    1    2    0    0 -0.14272416608E+02  0.37420048045E+02  0.16723066427E+02  0.43400723753E+02  0.00000000000E+00 0.  1.
         11    1    3    3    0    0  0.21432017824E+01 -0.22038430934E+02 -0.75044759113E+01  0.23379540433E+02  0.51100000000E-03 0. -1.
        -11    1    3    3    0    0  0.37041368984E+00 -0.21634474646E+01 -0.60485126814E+01  0.64344554666E+01  0.51100000000E-03 0.  1.
         12    1    3    3    0    0  0.11758801136E+02 -0.13218169647E+02 -0.31700778339E+01  0.17973280348E+02  0.00000000000E+00 0. -1.
</event>
<event>
 7    1  0.1899036E-009  0.4778728E+02  0.7816164E-02  0.1312668E+00
        -11   -1    0    0    0    0  0.00000000000E+00  0.00000000000E+00  0.45593999997E+02  0.45594000000E+02  0.51100000000E-03 0. -1.
         11   -1    0    0    0    0 -0.00000000000E+00 -0.00000000000E+00 -0.45593999997E+02  0.45594000000E+02  0.51100000000E-03 0.  1.
    9900012    2    1    2    0    0 -0.30557046881E+02 -0.26618212482E+02  0.15535780088E+02  0.47787276357E+02  0.20000024221E+02 0.  0.
        -12    1    1    2    0    0  0.30557046881E+02  0.26618212482E+02 -0.15535780088E+02  0.43400723643E+02  0.00000000000E+00 0.  1.
         11    1    3    3    0    0 -0.96632527091E+01 -0.32376893355E+01  0.38698244140E+01  0.10901221326E+02  0.51100000000E-03 0. -1.
        -11    1    3    3    0    0 -0.12243481762E+01 -0.85831709250E+01 -0.17623616860E+01  0.88473595246E+01  0.51100000000E-03 0.  1.
         12    1    3    3    0    0 -0.19669445996E+02 -0.14797352221E+02  0.13428317360E+02  0.28038695506E+02  0.00000000000E+00 0. -1.
</event>
<event>
 7    1  0.1899036E-009  0.4778727E+02  0.7816164E-02  0.1312668E+00
        -11   -1    0    0    0    0  0.00000000000E+00  0.00000000000E+00  0.45593999997E+02  0.45594000000E+02  0.51100000000E-03 0.  1.
         11   -1    0    0    0    0 -0.00000000000E+00 -0.00000000000E+00 -0.45593999997E+02  0.45594000000E+02  0.51100000000E-03 0. -1.
    9900012    2    1    2    0    0  0.32052120439E+02  0.21050602069E+02 -0.20326265161E+02  0.47787270427E+02  0.19999997184E+02 0.  0.
        -12    1    1    2    0    0 -0.32052120439E+02 -0.21050602069E+02  0.20326265161E+02  0.43400729573E+02  0.00000000000E+00 0.  1.
         11    1    3    3    0    0  0.12244305753E+02  0.13889257742E+01 -0.88891995870E+01  0.15194407121E+02  0.51100000000E-03 0. -1.
        -11    1    3    3    0    0  0.21344222032E+01  0.76292799629E+01 -0.73874805088E+01  0.10832199196E+02  0.51100000000E-03 0.  1.
         12    1    3    3    0    0  0.17673392482E+02  0.12032396332E+02 -0.40495850652E+01  0.21760664110E+02  0.00000000000E+00 0. -1.
</event>
<event>
 7    1  0.1899036E-009  0.4778728E+02  0.7816164E-02  0.1312668E+00
        -11   -1    0    0    0    0  0.00000000000E+00  0.00000000000E+00  0.45593999997E+02  0.45594000000E+02  0.51100000000E-03 0. -1.
         11   -1    0    0    0    0 -0.00000000000E+00 -0.00000000000E+00 -0.45593999997E+02  0.45594000000E+02  0.51100000000E-03 0.  1.
    9900012    2    1    2    0    0 -0.24847680794E+02  0.30107467956E+01  0.35456325024E+02  0.47787276258E+02  0.20000023770E+02 0.  0.
        -12    1    1    2    0    0  0.24847680794E+02 -0.30107467956E+01 -0.35456325024E+02  0.43400723742E+02  0.00000000000E+00 0.  1.
         11    1    3    3    0    0 -0.10333918600E+02  0.31915465255E+00  0.11128957110E+01  0.10398570596E+02  0.51100000000E-03 0.  1.
        -11    1    3    3    0    0 -0.87144381963E+01  0.13013681616E+01  0.19994356294E+02  0.21849697390E+02  0.51100000000E-03 0. -1.
        -12    1    3    3    0    0 -0.57993239979E+01  0.13902239814E+01  0.14349073019E+02  0.15539008272E+02  0.00000000000E+00 0.  1.
</event>
<event>
 7    1  0.1899036E-009  0.4778727E+02  0.7816164E-02  0.1312668E+00
        -11   -1    0    0    0    0  0.00000000000E+00  0.00000000000E+00  0.45593999997E+02  0.45594000000E+02  0.51100000000E-03 0. -1.
         11   -1    0    0    0    0 -0.00000000000E+00 -0.00000000000E+00 -0.45593999997E+02  0.45594000000E+02  0.51100000000E-03 0.  1.
    9900012    2    1    2    0    0 -0.35932602923E+02  0.32473231631E+01  0.24123147863E+02  0.47787270474E+02  0.19999997399E+02 0.  0.
        -12    1    1    2    0    0  0.35932602923E+02 -0.32473231631E+01 -0.24123147863E+02  0.43400729526E+02  0.00000000000E+00 0.  1.
         11    1    3    3    0    0 -0.23794816942E+02 -0.64092860018E+01  0.98300467616E+01  0.26531153008E+02  0.51100000000E-03 0. -1.
        -11    1    3    3    0    0 -0.61266215984E+01  0.32037840414E+01  0.63602605014E+01  0.93942875356E+01  0.51100000000E-03 0.  1.
         12    1    3    3    0    0 -0.60111643834E+01  0.64528251235E+01  0.79328405996E+01  0.11861829930E+02  0.00000000000E+00 0. -1.
</event>
<event>
 7    1  0.1899036E-009  0.4778727E+02  0.7816164E-02  0.1312668E+00
        -11   -1    0    0    0    0  0.00000000000E+00  0.00000000000E+00  0.45593999997E+02  0.45594000000E+02  0.51100000000E-03 0.  1.
         11   -1    0    0    0    0 -0.00000000000E+00 -0.00000000000E+00 -0.45593999997E+02  0.45594000000E+02  0.51100000000E-03 0. -1.
    9900012    2    1    2    0    0 -0.36853167494E+02  0.15294540294E+00 -0.22922565263E+02  0.47787270227E+02  0.19999996271E+02 0.  0.
        -12    1    1    2    0    0  0.36853167494E+02 -0.15294540294E+00  0.22922565263E+02  0.43400729773E+02  0.00000000000E+00 0.  1.
         11    1    3    3    0    0 -0.44744311543E+01 -0.91190243046E+00 -0.78652462998E+01  0.90947347303E+01  0.51100000000E-03 0. -1.
        -11    1    3    3    0    0 -0.11040552426E+02  0.12475805816E+01  0.21047952199E+01  0.11308422452E+02  0.51100000000E-03 0.  1.
         12    1    3    3    0    0 -0.21338183914E+02 -0.18273274822E+00 -0.17162114183E+02  0.27384113044E+02  0.00000000000E+00 0. -1.
</event>
<event>
 7    1  0.1899036E-009  0.4778724E+02  0.7816164E-02  0.1312668E+00
        -11   -1    0    0    0    0  0.00000000000E+00  0.00000000000E+00  0.45593999997E+02  0.45594000000E+02  0.51100000000E-03 0. -1.
         11   -1    0    0    0    0 -0.00000000000E+00 -0.00000000000E+00 -0.45593999997E+02  0.45594000000E+02  0.51100000000E-03 0.  1.
    9900012    2    1    2    0    0  0.18108902002E+02 -0.37652763549E+02 -0.11745779723E+02  0.47787236459E+02  0.19999842311E+02 0.  0.
        -12    1    1    2    0    0 -0.18108902002E+02  0.37652763549E+02  0.11745779723E+02  0.43400763541E+02  0.00000000000E+00 0.  1.
         11    1    3    3    0    0  0.13636196254E+02 -0.22392245089E+02 -0.67518814431E+01  0.27072982689E+02  0.51100000000E-03 0. -1.
        -11    1    3    3    0    0  0.37377256493E+01 -0.25209818137E+01  0.32184249689E+01  0.55393322591E+01  0.51100000000E-03 0.  1.
        -12    1    3    3    0    0  0.73498009912E+00 -0.12739536647E+02 -0.82123232491E+01  0.15174921511E+02  0.00000000000E+00 0.  1.
</event>
<event>
 7    1  0.2187541E-009  0.4778727E+02  0.7816164E-02  0.1312668E+00
        -11   -1    0    0    0    0  0.00000000000E+00  0.00000000000E+00  0.45593999997E+02  0.45594000000E+02  0.51100000000E-03 0.  1.
         11   -1    0    0    0    0 -0.00000000000E+00 -0.00000000000E+00 -0.45593999997E+02  0.45594000000E+02  0.51100000000E-03 0. -1.
    9900012    2    1    2    0    0  0.19002251175E+02  0.23243767842E+02 -0.31341108460E+02  0.47787269906E+02  0.19999994809E+02 0.  0.
        -12    1    1    2    0    0 -0.19002251175E+02 -0.23243767842E+02  0.31341108460E+02  0.43400730094E+02  0.00000000000E+00 0.  1.
         11    1    3    3    0    0  0.16178839984E+02  0.99471885010E+01 -0.18974658162E+02  0.26846584045E+02  0.51100000000E-03 0. -1.
        -11    1    3    3    0    0 -0.87858144171E+00 -0.12288541212E+01 -0.38410933836E-02  0.15106299401E+01  0.51100000000E-03 0.  1.
        -12    1    3    3    0    0  0.37019926333E+01  0.14525433463E+02 -0.12362609204E+02  0.19430055920E+02  0.00000000000E+00 0.  1.
</event>
<event>
 7    1  0.1899036E-009  0.4778727E+02  0.7816164E-02  0.1312668E+00
        -11   -1    0    0    0    0  0.00000000000E+00  0.00000000000E+00  0.45593999997E+02  0.45594000000E+02  0.51100000000E-03 0. -1.
         11   -1    0    0    0    0 -0.00000000000E+00 -0.00000000000E+00 -0.45593999997E+02  0.45594000000E+02  0.51100000000E-03 0.  1.
    9900012    2    1    2    0    0  0.29800257966E+02 -0.27000691119E+02 -0.16325779455E+02  0.47787265323E+02  0.19999973911E+02 0.  0.
        -12    1    1    2    0    0 -0.29800257966E+02  0.27000691119E+02  0.16325779455E+02  0.43400734677E+02  0.00000000000E+00 0.  1.
         11    1    3    3    0    0  0.20002803034E+02 -0.17706896308E+02 -0.42707220244E+01  0.27053380065E+02  0.51100000000E-03 0. -1.
        -11    1    3    3    0    0  0.11117447658E+02 -0.79824968684E+01 -0.70526908133E+01  0.15396699213E+02  0.51100000000E-03 0.  1.
        -12    1    3    3    0    0 -0.13199927268E+01 -0.13112979427E+01 -0.50023666178E+01  0.53371860443E+01  0.00000000000E+00 0.  1.
</event>
<event>
 7    1  0.1899036E-009  0.4778727E+02  0.7816164E-02  0.1312668E+00
        -11   -1    0    0    0    0  0.00000000000E+00  0.00000000000E+00  0.45593999997E+02  0.45594000000E+02  0.51100000000E-03 0.  1.
         11   -1    0    0    0    0 -0.00000000000E+00 -0.00000000000E+00 -0.45593999997E+02  0.45594000000E+02  0.51100000000E-03 0. -1.
    9900012    2    1    2    0    0  0.34491061600E+02 -0.60913821901E+01 -0.25629773906E+02  0.47787267544E+02  0.19999984039E+02 0.  0.
        -12    1    1    2    0    0 -0.34491061600E+02  0.60913821901E+01  0.25629773906E+02  0.43400732456E+02  0.00000000000E+00 0.  1.
         11    1    3    3    0    0  0.16862642386E+02 -0.34381096389E+01 -0.21309541178E+02  0.27390981209E+02  0.51100000000E-03 0. -1.
        -11    1    3    3    0    0  0.14913876266E+02 -0.48199342192E+01 -0.56736399039E+01  0.16668703045E+02  0.51100000000E-03 0.  1.
        -12    1    3    3    0    0  0.27145429477E+01  0.21666616680E+01  0.13534071761E+01  0.37275832899E+01  0.00000000000E+00 0.  1.
</event>
<event>
 7    1  0.1899036E-009  0.4778727E+02  0.7816164E-02  0.1312668E+00
        -11   -1    0    0    0    0  0.00000000000E+00  0.00000000000E+00  0.45593999997E+02  0.45594000000E+02  0.51100000000E-03 0. -1.
         11   -1    0    0    0    0 -0.00000000000E+00 -0.00000000000E+00 -0.45593999997E+02  0.45594000000E+02  0.51100000000E-03 0.  1.
    9900012    2    1    2    0    0  0.27995131151E+02  0.32987863877E+02  0.34200523205E+01  0.47787270868E+02  0.19999999196E+02 0.  0.
        -12    1    1    2    0    0 -0.27995131151E+02 -0.32987863877E+02 -0.34200523205E+01  0.43400729132E+02  0.00000000000E+00 0.  1.
         11    1    3    3    0    0  0.12221800125E+02  0.13324113725E+02  0.79522196719E+00  0.18097977320E+02  0.51100000000E-03 0. -1.
        -11    1    3    3    0    0  0.14569574556E+01 -0.30058118584E+00  0.48009892271E+01  0.50261886053E+01  0.51100000000E-03 0.  1.
        -12    1    3    3    0    0  0.14316373570E+02  0.19964331338E+02 -0.21761588737E+01  0.24663104943E+02  0.00000000000E+00 0.  1.
</event>
<event>
 7    1  0.1899036E-009  0.4778727E+02  0.7816164E-02  0.1312668E+00
        -11   -1    0    0    0    0  0.00000000000E+00  0.00000000000E+00  0.45593999997E+02  0.45594000000E+02  0.51100000000E-03 0.  1.
         11   -1    0    0    0    0 -0.00000000000E+00 -0.00000000000E+00 -0.45593999997E+02  0.45594000000E+02  0.51100000000E-03 0. -1.
    9900012    2    1    2    0    0  0.16770637977E+02 -0.50180626340E+01 -0.39713827369E+02  0.47787270340E+02  0.19999996787E+02 0.  0.
        -12    1    1    2    0    0 -0.16770637977E+02  0.50180626340E+01  0.39713827369E+02  0.43400729660E+02  0.00000000000E+00 0.  1.
         11    1    3    3    0    0  0.72731499002E+01  0.57797361127E+00 -0.23245521500E+02  0.24363641621E+02  0.51100000000E-03 0. -1.
        -11    1    3    3    0    0  0.93030683776E+01 -0.91129589684E+01 -0.14013067253E+02  0.19130058978E+02  0.51100000000E-03 0.  1.
         12    1    3    3    0    0  0.19441969971E+00  0.35169227231E+01 -0.24552386150E+01  0.42935697405E+01  0.00000000000E+00 0. -1.
</event>
<event>
 7    1  0.1899036E-009  0.4778727E+02  0.7816164E-02  0.1312668E+00
        -11   -1    0    0    0    0  0.00000000000E+00  0.00000000000E+00  0.45593999997E+02  0.45594000000E+02  0.51100000000E-03 0. -1.
         11   -1    0    0    0    0 -0.00000000000E+00 -0.00000000000E+00 -0.45593999997E+02  0.45594000000E+02  0.51100000000E-03 0.  1.
    9900012    2    1    2    0    0  0.39445123099E+02  0.54364432740E+01  0.17267049634E+02  0.47787266655E+02  0.19999979989E+02 0.  0.
        -12    1    1    2    0    0 -0.39445123099E+02 -0.54364432740E+01 -0.17267049634E+02  0.43400733345E+02  0.00000000000E+00 0.  1.
         11    1    3    3    0    0  0.30122497058E+00 -0.10787894698E+01 -0.15377102679E+01  0.19023870090E+01  0.51100000000E-03 0. -1.
        -11    1    3    3    0    0  0.49496986061E+01  0.19727417868E+01 -0.18959170686E+01  0.56555926516E+01  0.51100000000E-03 0.  1.
         12    1    3    3    0    0  0.34194199523E+02  0.45424909569E+01  0.20700676970E+02  0.40229286995E+02  0.00000000000E+00 0. -1.
</event>
<event>
 7    1  0.1899036E-009  0.4778727E+02  0.7816164E-02  0.1312668E+00
        -11   -1    0    0    0    0  0.00000000000E+00  0.00000000000E+00  0.45593999997E+02  0.45594000000E+02  0.51100000000E-03 0.  1.
         11   -1    0    0    0    0 -0.00000000000E+00 -0.00000000000E+00 -0.45593999997E+02  0.45594000000E+02  0.51100000000E-03 0. -1.
    9900012    2    1    2    0    0  0.27191418525E+02  0.27929928105E+02 -0.19083216081E+02  0.47787271189E+02  0.20000000659E+02 0.  0.
        -12    1    1    2    0    0 -0.27191418525E+02 -0.27929928105E+02  0.19083216081E+02  0.43400728811E+02  0.00000000000E+00 0.  1.
         11    1    3    3    0    0  0.76733591638E+00  0.64972508896E+01 -0.43742834115E+01  0.78700336185E+01  0.51100000000E-03 0. -1.
        -11    1    3    3    0    0  0.24406245224E+02  0.15830732619E+02 -0.16815667174E+02  0.33601243488E+02  0.51100000000E-03 0.  1.
        -12    1    3    3    0    0  0.20178373845E+01  0.56019445967E+01  0.21067345046E+01  0.63159940823E+01  0.00000000000E+00 0.  1.
</event>
<event>
 7    1  0.1899036E-009  0.4778727E+02  0.7816164E-02  0.1312668E+00
        -11   -1    0    0    0    0  0.00000000000E+00  0.00000000000E+00  0.45593999997E+02  0.45594000000E+02  0.51100000000E-03 0. -1.
         11   -1    0    0    0    0 -0.00000000000E+00 -0.00000000000E+00 -0.45593999997E+02  0.45594000000E+02  0.51100000000E-03 0.  1.
    9900012    2    1    2    0    0  0.92718629928E+01 -0.45580534487E+01  0.42153056442E+02  0.47787268877E+02  0.19999990117E+02 0.  0.
        -12    1    1    2    0    0 -0.92718629928E+01  0.45580534487E+01 -0.42153056442E+02  0.43400731123E+02  0.00000000000E+00 0.  1.
         11    1    3    3    0    0  0.19904926989E+01 -0.39080352678E+00 -0.11217578109E+01  0.23180011709E+01  0.51100000000E-03 0. -1.
        -11    1    3    3    0    0  0.87933397646E+01 -0.46574611780E+01  0.22123041426E+02  0.24257859160E+02  0.51100000000E-03 0.  1.
         12    1    3    3    0    0 -0.15119694708E+01  0.49021125607E+00  0.21151772828E+02  0.21211408546E+02  0.00000000000E+00 0. -1.
</event>
<event>
 7    1  0.1899036E-009  0.4778727E+02  0.7816164E-02  0.1312668E+00
        -11   -1    0    0    0    0  0.00000000000E+00  0.00000000000E+00  0.45593999997E+02  0.45594000000E+02  0.51100000000E-03 0.  1.
         11   -1    0    0    0    0 -0.00000000000E+00 -0.00000000000E+00 -0.45593999997E+02  0.45594000000E+02  0.51100000000E-03 0. -1.
    9900012    2    1    2    0    0  0.49945550526E+01  0.40659831246E+02 -0.14333734024E+02  0.47787269728E+02  0.19999993996E+02 0.  0.
        -12    1    1    2    0    0 -0.49945550526E+01 -0.40659831246E+02  0.14333734024E+02  0.43400730272E+02  0.00000000000E+00 0.  1.
         11    1    3    3    0    0  0.36236174019E+01  0.17493505551E+02 -0.15885714401E+02  0.23906259888E+02  0.51100000000E-03 0. -1.
        -11    1    3    3    0    0 -0.17176954649E+01  0.79553963186E+01  0.18928053418E+01  0.83559272746E+01  0.51100000000E-03 0.  1.
        -12    1    3    3    0    0  0.30886331155E+01  0.15210929376E+02 -0.34082496522E+00  0.15525082565E+02  0.00000000000E+00 0.  1.
</event>
<event>
 7    1  0.1899036E-009  0.4778727E+02  0.7816164E-02  0.1312668E+00
        -11   -1    0    0    0    0  0.00000000000E+00  0.00000000000E+00  0.45593999997E+02  0.45594000000E+02  0.51100000000E-03 0. -1.
         11   -1    0    0    0    0 -0.00000000000E+00 -0.00000000000E+00 -0.45593999997E+02  0.45594000000E+02  0.51100000000E-03 0.  1.
    9900012    2    1    2    0    0 -0.98294857456E+01  0.40078193883E+02  0.13444061218E+02  0.47787271931E+02  0.20000004040E+02 0.  0.
        -12    1    1    2    0    0  0.98294857456E+01 -0.40078193883E+02 -0.13444061218E+02  0.43400728069E+02  0.00000000000E+00 0.  1.
         11    1    3    3    0    0 -0.30255888266E+01  0.25190572140E+02  0.10851638173E+02  0.27594875680E+02  0.51100000000E-03 0. -1.
        -11    1    3    3    0    0 -0.28138988621E+01  0.90432789720E+00  0.46462360683E+01  0.55066637464E+01  0.51100000000E-03 0.  1.
         12    1    3    3    0    0 -0.39899980569E+01  0.13983293845E+02 -0.20538130227E+01  0.14685732504E+02  0.00000000000E+00 0. -1.
</event>
<event>
 7    1  0.1899036E-009  0.4778727E+02  0.7816164E-02  0.1312668E+00
        -11   -1    0    0    0    0  0.00000000000E+00  0.00000000000E+00  0.45593999997E+02  0.45594000000E+02  0.51100000000E-03 0.  1.
         11   -1    0    0    0    0 -0.00000000000E+00 -0.00000000000E+00 -0.45593999997E+02  0.45594000000E+02  0.51100000000E-03 0. -1.
    9900012    2    1    2    0    0 -0.10039817685E+02 -0.39640077245E+02 -0.14542685950E+02  0.47787269848E+02  0.19999994543E+02 0.  0.
        -12    1    1    2    0    0  0.10039817685E+02  0.39640077245E+02  0.14542685950E+02  0.43400730152E+02  0.00000000000E+00 0.  1.
         11    1    3    3    0    0 -0.13675566001E+01 -0.44246901008E+01  0.13289821074E+01  0.48181207172E+01  0.51100000000E-03 0. -1.
        -11    1    3    3    0    0  0.14057794844E+01 -0.12617112478E+01  0.24495330875E+01  0.30932739677E+01  0.51100000000E-03 0.  1.
         12    1    3    3    0    0 -0.10078040569E+02 -0.33953675896E+02 -0.18321201145E+02  0.39875875163E+02  0.00000000000E+00 0. -1.
</event>
<event>
 7    1  0.1899036E-009  0.4778727E+02  0.7816164E-02  0.1312668E+00
        -11   -1    0    0    0    0  0.00000000000E+00  0.00000000000E+00  0.45593999997E+02  0.45594000000E+02  0.51100000000E-03 0.  1.
         11   -1    0    0    0    0 -0.00000000000E+00 -0.00000000000E+00 -0.45593999997E+02  0.45594000000E+02  0.51100000000E-03 0. -1.
    9900012    2    1    2    0    0 -0.35645156057E+02  0.20164900703E+02 -0.14367423975E+02  0.47787271407E+02  0.20000001653E+02 0.  0.
        -12    1    1    2    0    0  0.35645156057E+02 -0.20164900703E+02  0.14367423975E+02  0.43400728593E+02  0.00000000000E+00 0.  1.
         11    1    3    3    0    0 -0.21041685250E+02  0.16355523985E+02 -0.10737602199E+02  0.28732416958E+02  0.51100000000E-03 0. -1.
        -11    1    3    3    0    0  0.20530750199E+00  0.31406355267E+01  0.13390903899E+01  0.34203663568E+01  0.51100000000E-03 0.  1.
        -12    1    3    3    0    0 -0.14808778309E+02  0.66874119128E+00 -0.49689121659E+01  0.15634488092E+02  0.00000000000E+00 0.  1.
</event>
<event>
 7    1  0.1899036E-009  0.4778728E+02  0.7816164E-02  0.1312668E+00
        -11   -1    0    0    0    0  0.00000000000E+00  0.00000000000E+00  0.45593999997E+02  0.45594000000E+02  0.51100000000E-03 0.  1.
         11   -1    0    0    0    0 -0.00000000000E+00 -0.00000000000E+00 -0.45593999997E+02  0.45594000000E+02  0.51100000000E-03 0. -1.
    9900012    2    1    2    0    0 -0.13483549850E+00  0.25325195297E+02 -0.35245410562E+02  0.47787278080E+02  0.20000032079E+02 0.  0.
        -12    1    1    2    0    0  0.13483549850E+00 -0.25325195297E+02  0.35245410562E+02  0.43400721920E+02  0.00000000000E+00 0.  1.
         11    1    3    3    0    0 -0.74238107526E+00  0.10334770482E+02 -0.85497163658E+01  0.13433400938E+02  0.51100000000E-03 0. -1.
        -11    1    3    3    0    0  0.22909915299E+01  0.41941359309E+00 -0.16079231092E+02  0.16247037352E+02  0.51100000000E-03 0.  1.
         12    1    3    3    0    0 -0.16834459532E+01  0.14571011223E+02 -0.10616463104E+02  0.18106839790E+02  0.00000000000E+00 0. -1.
</event>
<event>
 7    1  0.1899036E-009  0.4778727E+02  0.7816164E-02  0.1312668E+00
        -11   -1    0    0    0    0  0.00000000000E+00  0.00000000000E+00  0.45593999997E+02  0.45594000000E+02  0.51100000000E-03 0.  1.
         11   -1    0    0    0    0 -0.00000000000E+00 -0.00000000000E+00 -0.45593999997E+02  0.45594000000E+02  0.51100000000E-03 0. -1.
    9900012    2    1    2    0    0  0.29453182030E+02  0.20028662979E+02 -0.24798913267E+02  0.47787269918E+02  0.19999994866E+02 0.  0.
        -12    1    1    2    0    0 -0.29453182030E+02 -0.20028662979E+02  0.24798913267E+02  0.43400730082E+02  0.00000000000E+00 0.  1.
         11    1    3    3    0    0  0.17529200140E+02  0.10381383981E+02 -0.17679030550E+02  0.26973952479E+02  0.51100000000E-03 0. -1.
        -11    1    3    3    0    0 -0.51534602709E+00  0.62039055987E+01 -0.43985965594E+01  0.76224456809E+01  0.51100000000E-03 0.  1.
         12    1    3    3    0    0  0.12439327917E+02  0.34433733992E+01 -0.27212861574E+01  0.13190871758E+02  0.00000000000E+00 0. -1.
</event>
<event>
 7    1  0.1899036E-009  0.4778725E+02  0.7816164E-02  0.1312668E+00
        -11   -1    0    0    0    0  0.00000000000E+00  0.00000000000E+00  0.45593999997E+02  0.45594000000E+02  0.51100000000E-03 0.  1.
         11   -1    0    0    0    0 -0.00000000000E+00 -0.00000000000E+00 -0.45593999997E+02  0.45594000000E+02  0.51100000000E-03 0. -1.
    9900012    2    1    2    0    0  0.17751576286E+02  0.42231088106E+01 -0.39378569361E+02  0.47787253075E+02  0.19999918071E+02 0.  0.
        -12    1    1    2    0    0 -0.17751576286E+02 -0.42231088106E+01  0.39378569361E+02  0.43400746925E+02  0.00000000000E+00 0.  1.
         11    1    3    3    0    0  0.25229605581E+01  0.21041888742E+01 -0.31996385052E+01  0.45859162249E+01  0.51100000000E-03 0. -1.
        -11    1    3    3    0    0  0.73152951545E+01  0.79091736662E+01 -0.29315435575E+02  0.31232408401E+02  0.51100000000E-03 0.  1.
         12    1    3    3    0    0  0.79133205739E+01 -0.57902537298E+01 -0.68634952807E+01  0.11968928450E+02  0.00000000000E+00 0. -1.
</event>
<event>
 7    1  0.1899036E-009  0.4778727E+02  0.7816164E-02  0.1312668E+00
        -11   -1    0    0    0    0  0.00000000000E+00  0.00000000000E+00  0.45593999997E+02  0.45594000000E+02  0.51100000000E-03 0.  1.
         11   -1    0    0    0    0 -0.00000000000E+00 -0.00000000000E+00 -0.45593999997E+02  0.45594000000E+02  0.51100000000E-03 0. -1.
    9900012    2    1    2    0    0 -0.33726898092E+02 -0.23545067279E+02 -0.13847355895E+02  0.47787272893E+02  0.20000008430E+02 0.  0.
        -12    1    1    2    0    0  0.33726898092E+02  0.23545067279E+02  0.13847355895E+02  0.43400727107E+02  0.00000000000E+00 0.  1.
         11    1    3    3    0    0 -0.10060992442E+01  0.17664288792E+01 -0.22059263862E+01  0.29997696840E+01  0.51100000000E-03 0. -1.
        -11    1    3    3    0    0 -0.14328806656E+02 -0.18956450783E+02 -0.71794967731E+01  0.24823515074E+02  0.51100000000E-03 0.  1.
         12    1    3    3    0    0 -0.18391992192E+02 -0.63550453754E+01 -0.44619327358E+01  0.19963988135E+02  0.00000000000E+00 0. -1.
</event>
<event>
 7    1  0.1899036E-009  0.4778727E+02  0.7816164E-02  0.1312668E+00
        -11   -1    0    0    0    0  0.00000000000E+00  0.00000000000E+00  0.45593999997E+02  0.45594000000E+02  0.51100000000E-03 0.  1.
         11   -1    0    0    0    0 -0.00000000000E+00 -0.00000000000E+00 -0.45593999997E+02  0.45594000000E+02  0.51100000000E-03 0. -1.
    9900012    2    1    2    0    0  0.88559453341E+01  0.12754647296E+01 -0.42468443740E+02  0.47787270839E+02  0.19999999062E+02 0.  0.
        -12    1    1    2    0    0 -0.88559453341E+01 -0.12754647296E+01  0.42468443740E+02  0.43400729161E+02  0.00000000000E+00 0.  1.
         11    1    3    3    0    0  0.15724825561E+01 -0.21110186793E+01 -0.14579819403E+02  0.14815540333E+02  0.51100000000E-03 0. -1.
        -11    1    3    3    0    0  0.43192799624E+00  0.73205083564E+01 -0.53187907398E+01  0.90590253110E+01  0.51100000000E-03 0.  1.
        -12    1    3    3    0    0  0.68515347818E+01 -0.39340249475E+01 -0.22569833597E+02  0.23912705195E+02  0.00000000000E+00 0.  1.
</event>
<event>
 7    1  0.1899036E-009  0.4778727E+02  0.7816164E-02  0.1312668E+00
        -11   -1    0    0    0    0  0.00000000000E+00  0.00000000000E+00  0.45593999997E+02  0.45594000000E+02  0.51100000000E-03 0. -1.
         11   -1    0    0    0    0 -0.00000000000E+00 -0.00000000000E+00 -0.45593999997E+02  0.45594000000E+02  0.51100000000E-03 0.  1.
    9900012    2    1    2    0    0 -0.34448549895E+02 -0.22462855369E+02  0.13868705115E+02  0.47787269099E+02  0.19999991128E+02 0.  0.
        -12    1    1    2    0    0  0.34448549895E+02  0.22462855369E+02 -0.13868705115E+02  0.43400730901E+02  0.00000000000E+00 0.  1.
         11    1    3    3    0    0 -0.24633568864E+02 -0.49605061491E+01  0.60535812245E+01  0.25846956922E+02  0.51100000000E-03 0.  1.
        -11    1    3    3    0    0 -0.19283458649E+01 -0.51505446764E+01  0.39894696710E+01  0.67942988421E+01  0.51100000000E-03 0. -1.
        -12    1    3    3    0    0 -0.78866351667E+01 -0.12351804543E+02  0.38256542194E+01  0.15146013335E+02  0.00000000000E+00 0.  1.
</event>
<event>
 7    1  0.1899036E-009  0.4778727E+02  0.7816164E-02  0.1312668E+00
        -11   -1    0    0    0    0  0.00000000000E+00  0.00000000000E+00  0.45593999997E+02  0.45594000000E+02  0.51100000000E-03 0.  1.
         11   -1    0    0    0    0 -0.00000000000E+00 -0.00000000000E+00 -0.45593999997E+02  0.45594000000E+02  0.51100000000E-03 0. -1.
    9900012    2    1    2    0    0  0.33354244016E+02 -0.14487678174E+02 -0.23690187146E+02  0.47787269824E+02  0.19999994437E+02 0.  0.
        -12    1    1    2    0    0 -0.33354244016E+02  0.14487678174E+02  0.23690187146E+02  0.43400730176E+02  0.00000000000E+00 0.  1.
         11    1    3    3    0    0  0.50779033805E+01 -0.85958913773E+01 -0.62228939412E+01  0.11764304509E+02  0.51100000000E-03 0. -1.
        -11    1    3    3    0    0  0.12271326306E+02  0.31214549898E+01 -0.10237328342E+02  0.16282868985E+02  0.51100000000E-03 0.  1.
         12    1    3    3    0    0  0.16005014330E+02 -0.90132417862E+01 -0.72299648626E+01  0.19740096330E+02  0.00000000000E+00 0. -1.
</event>
<event>
 7    1  0.1899036E-009  0.4778726E+02  0.7816164E-02  0.1312668E+00
        -11   -1    0    0    0    0  0.00000000000E+00  0.00000000000E+00  0.45593999997E+02  0.45594000000E+02  0.51100000000E-03 0.  1.
         11   -1    0    0    0    0 -0.00000000000E+00 -0.00000000000E+00 -0.45593999997E+02  0.45594000000E+02  0.51100000000E-03 0. -1.
    9900012    2    1    2    0    0 -0.32416647028E+02  0.25836276597E+02 -0.12855808037E+02  0.47787262757E+02  0.19999962214E+02 0.  0.
        -12    1    1    2    0    0  0.32416647028E+02 -0.25836276597E+02  0.12855808037E+02  0.43400737243E+02  0.00000000000E+00 0.  1.
         11    1    3    3    0    0 -0.26111010631E+02  0.23737808192E+02 -0.71795252615E+01  0.36011303742E+02  0.51100000000E-03 0. -1.
        -11    1    3    3    0    0 -0.15181530022E+01  0.26639658477E+01  0.12716194150E+01  0.33194154265E+01  0.51100000000E-03 0.  1.
        -12    1    3    3    0    0 -0.47874833950E+01 -0.56549744274E+00 -0.69479021910E+01  0.84565435889E+01  0.00000000000E+00 0.  1.
</event>
<event>
 7    1  0.1899036E-009  0.4778727E+02  0.7816164E-02  0.1312668E+00
        -11   -1    0    0    0    0  0.00000000000E+00  0.00000000000E+00  0.45593999997E+02  0.45594000000E+02  0.51100000000E-03 0.  1.
         11   -1    0    0    0    0 -0.00000000000E+00 -0.00000000000E+00 -0.45593999997E+02  0.45594000000E+02  0.51100000000E-03 0. -1.
    9900012    2    1    2    0    0  0.24468584716E+02  0.32263689252E+02  0.15619406110E+02  0.47787272709E+02  0.20000007589E+02 0.  0.
        -12    1    1    2    0    0 -0.24468584716E+02 -0.32263689252E+02 -0.15619406110E+02  0.43400727291E+02  0.00000000000E+00 0.  1.
         11    1    3    3    0    0  0.78367248293E+01  0.40336510712E+01  0.61760237547E+01  0.10762335559E+02  0.51100000000E-03 0. -1.
        -11    1    3    3    0    0  0.16700941806E+01  0.75694181140E+01 -0.34007963155E+01  0.84646748903E+01  0.51100000000E-03 0.  1.
         12    1    3    3    0    0  0.14961765706E+02  0.20660620067E+02  0.12844178671E+02  0.28560262259E+02  0.00000000000E+00 0. -1.
</event>
<event>
 7    1  0.1899036E-009  0.4778728E+02  0.7816164E-02  0.1312668E+00
        -11   -1    0    0    0    0  0.00000000000E+00  0.00000000000E+00  0.45593999997E+02  0.45594000000E+02  0.51100000000E-03 0. -1.
         11   -1    0    0    0    0 -0.00000000000E+00 -0.00000000000E+00 -0.45593999997E+02  0.45594000000E+02  0.51100000000E-03 0.  1.
    9900012    2    1    2    0    0 -0.15524950712E+02  0.37062792081E+02  0.16399632046E+02  0.47787279007E+02  0.20000036305E+02 0.  0.
        -12    1    1    2    0    0  0.15524950712E+02 -0.37062792081E+02 -0.16399632046E+02  0.43400720993E+02  0.00000000000E+00 0.  1.
         11    1    3    3    0    0 -0.18259444979E+02  0.33192145146E+02  0.16080795712E+02  0.41154803138E+02  0.51100000000E-03 0. -1.
        -11    1    3    3    0    0  0.15156809623E+01  0.46924698088E+01  0.96837509284E+00  0.50253668788E+01  0.51100000000E-03 0.  1.
         12    1    3    3    0    0  0.12188133044E+01 -0.82182287400E+00 -0.64953875880E+00  0.16071089902E+01  0.00000000000E+00 0. -1.
</event>
<event>
 7    1  0.1899036E-009  0.4778727E+02  0.7816164E-02  0.1312668E+00
        -11   -1    0    0    0    0  0.00000000000E+00  0.00000000000E+00  0.45593999997E+02  0.45594000000E+02  0.51100000000E-03 0.  1.
         11   -1    0    0    0    0 -0.00000000000E+00 -0.00000000000E+00 -0.45593999997E+02  0.45594000000E+02  0.51100000000E-03 0. -1.
    9900012    2    1    2    0    0 -0.21404329920E+02  0.35750236558E+02  0.12140786045E+02  0.47787269141E+02  0.19999991323E+02 0.  0.
        -12    1    1    2    0    0  0.21404329920E+02 -0.35750236558E+02 -0.12140786045E+02  0.43400730859E+02  0.00000000000E+00 0.  1.
         11    1    3    3    0    0 -0.23744535611E+01  0.10348430984E+02  0.14384236689E+01  0.10714341625E+02  0.51100000000E-03 0. -1.
        -11    1    3    3    0    0 -0.80701851355E+01  0.30318539467E+01  0.84324657909E+01  0.12059291275E+02  0.51100000000E-03 0.  1.
        -12    1    3    3    0    0 -0.10959691223E+02  0.22369951628E+02  0.22698965852E+01  0.25013636242E+02  0.00000000000E+00 0.  1.
</event>
<event>
 7    1  0.1899036E-009  0.4778727E+02  0.7816164E-02  0.1312668E+00
        -11   -1    0    0    0    0  0.00000000000E+00  0.00000000000E+00  0.45593999997E+02  0.45594000000E+02  0.51100000000E-03 0.  1.
         11   -1    0    0    0    0 -0.00000000000E+00 -0.00000000000E+00 -0.45593999997E+02  0.45594000000E+02  0.51100000000E-03 0. -1.
    9900012    2    1    2    0    0  0.25731598699E+02  0.26120220771E+02 -0.23221587982E+02  0.47787271283E+02  0.20000001089E+02 0.  0.
        -12    1    1    2    0    0 -0.25731598699E+02 -0.26120220771E+02  0.23221587982E+02  0.43400728717E+02  0.00000000000E+00 0.  1.
         11    1    3    3    0    0  0.99713542293E+01  0.13998178154E+02 -0.58588880155E+01  0.18157738456E+02  0.51100000000E-03 0. -1.
        -11    1    3    3    0    0  0.91119189421E+01  0.12593220775E+02 -0.64216583425E+01  0.16818263062E+02  0.51100000000E-03 0.  1.
        -12    1    3    3    0    0  0.66483255280E+01 -0.47117815803E+00 -0.10941041624E+02  0.12811269765E+02  0.00000000000E+00 0.  1.
</event>
<event>
 7    1  0.1899036E-009  0.4778727E+02  0.7816164E-02  0.1312668E+00
        -11   -1    0    0    0    0  0.00000000000E+00  0.00000000000E+00  0.45593999997E+02  0.45594000000E+02  0.51100000000E-03 0.  1.
         11   -1    0    0    0    0 -0.00000000000E+00 -0.00000000000E+00 -0.45593999997E+02  0.45594000000E+02  0.51100000000E-03 0. -1.
    9900012    2    1    2    0    0 -0.27967331665E+02 -0.13359633008E+02 -0.30380449144E+02  0.47787272763E+02  0.20000007834E+02 0.  0.
        -12    1    1    2    0    0  0.27967331665E+02  0.13359633008E+02  0.30380449144E+02  0.43400727237E+02  0.00000000000E+00 0.  1.
         11    1    3    3    0    0 -0.63826399845E+01  0.17061974786E+01 -0.82003331673E+01  0.10530653699E+02  0.51100000000E-03 0. -1.
        -11    1    3    3    0    0 -0.84352553417E+01 -0.41222313897E+01 -0.18340975801E+00  0.93904187186E+01  0.51100000000E-03 0.  1.
        -12    1    3    3    0    0 -0.13149436339E+02 -0.10943599097E+02 -0.21996706219E+02  0.27866200345E+02  0.00000000000E+00 0.  1.
</event>
<event>
 7    1  0.1899036E-009  0.4778727E+02  0.7816164E-02  0.1312668E+00
        -11   -1    0    0    0    0  0.00000000000E+00  0.00000000000E+00  0.45593999997E+02  0.45594000000E+02  0.51100000000E-03 0.  1.
         11   -1    0    0    0    0 -0.00000000000E+00 -0.00000000000E+00 -0.45593999997E+02  0.45594000000E+02  0.51100000000E-03 0. -1.
    9900012    2    1    2    0    0 -0.17035597907E+02 -0.22397583904E+02 -0.33041791236E+02  0.47787270411E+02  0.19999997114E+02 0.  0.
        -12    1    1    2    0    0  0.17035597907E+02  0.22397583904E+02  0.33041791236E+02  0.43400729589E+02  0.00000000000E+00 0.  1.
         11    1    3    3    0    0  0.37210847060E-01 -0.99827525234E+00  0.82081168175E+00  0.12929308584E+01  0.51100000000E-03 0. -1.
        -11    1    3    3    0    0 -0.56408439624E+01 -0.22167944007E+01 -0.18295193929E+02  0.19272971208E+02  0.51100000000E-03 0.  1.
         12    1    3    3    0    0 -0.11431964792E+02 -0.19182514251E+02 -0.15567408989E+02  0.27221368345E+02  0.00000000000E+00 0. -1.
</event>
<event>
 7    1  0.1899036E-009  0.4778728E+02  0.7816164E-02  0.1312668E+00
        -11   -1    0    0    0    0  0.00000000000E+00  0.00000000000E+00  0.45593999997E+02  0.45594000000E+02  0.51100000000E-03 0.  1.
         11   -1    0    0    0    0 -0.00000000000E+00 -0.00000000000E+00 -0.45593999997E+02  0.45594000000E+02  0.51100000000E-03 0. -1.
    9900012    2    1    2    0    0  0.15271687015E+02 -0.67295306378E+01 -0.40063846670E+02  0.47787276310E+02  0.20000024006E+02 0.  0.
        -12    1    1    2    0    0 -0.15271687015E+02  0.67295306378E+01  0.40063846670E+02  0.43400723690E+02  0.00000000000E+00 0.  1.
         11    1    3    3    0    0 -0.10550826575E+01 -0.29698325357E+01 -0.40034305460E+01  0.50951507438E+01  0.51100000000E-03 0. -1.
        -11    1    3    3    0    0  0.10940754417E+02  0.21534787580E+01 -0.85750052661E+01  0.14066566516E+02  0.51100000000E-03 0.  1.
        -12    1    3    3    0    0  0.53860152555E+01 -0.59131768601E+01 -0.27485410858E+02  0.28625559050E+02  0.00000000000E+00 0.  1.
</event>
<event>
 7    1  0.1899036E-009  0.4778727E+02  0.7816164E-02  0.1312668E+00
        -11   -1    0    0    0    0  0.00000000000E+00  0.00000000000E+00  0.45593999997E+02  0.45594000000E+02  0.51100000000E-03 0. -1.
         11   -1    0    0    0    0 -0.00000000000E+00 -0.00000000000E+00 -0.45593999997E+02  0.45594000000E+02  0.51100000000E-03 0.  1.
    9900012    2    1    2    0    0 -0.31783879263E+01 -0.33404726923E+02  0.27525364247E+02  0.47787267200E+02  0.19999982473E+02 0.  0.
        -12    1    1    2    0    0  0.31783879263E+01  0.33404726923E+02 -0.27525364247E+02  0.43400732800E+02  0.00000000000E+00 0.  1.
         11    1    3    3    0    0 -0.78665847675E+01 -0.56948771954E+01  0.33433121219E+01  0.10270955086E+02  0.51100000000E-03 0. -1.
        -11    1    3    3    0    0  0.34557860310E+01 -0.78730564783E+01  0.52905977969E+01  0.10095439600E+02  0.51100000000E-03 0.  1.
         12    1    3    3    0    0  0.12324108102E+01 -0.19836793249E+02  0.18891454328E+02  0.27420872515E+02  0.00000000000E+00 0. -1.
</event>
<event>
 7    1  0.1899036E-009  0.4778729E+02  0.7816164E-02  0.1312668E+00
        -11   -1    0    0    0    0  0.00000000000E+00  0.00000000000E+00  0.45593999997E+02  0.45594000000E+02  0.51100000000E-03 0.  1.
         11   -1    0    0    0    0 -0.00000000000E+00 -0.00000000000E+00 -0.45593999997E+02  0.45594000000E+02  0.51100000000E-03 0. -1.
    9900012    2    1    2    0    0 -0.19886915588E+02  0.98986007646E+00 -0.38563619582E+02  0.47787285837E+02  0.20000067447E+02 0.  0.
        -12    1    1    2    0    0  0.19886915588E+02 -0.98986007646E+00  0.38563619582E+02  0.43400714163E+02  0.00000000000E+00 0.  1.
         11    1    3    3    0    0  0.33920339646E+00  0.45458983018E+01 -0.47959486604E+01  0.66167495138E+01  0.51100000000E-03 0. -1.
        -11    1    3    3    0    0 -0.15599381135E+02  0.25585854849E+01 -0.24267016491E+02  0.28961614960E+02  0.51100000000E-03 0.  1.
        -12    1    3    3    0    0 -0.46267378501E+01 -0.61146237102E+01 -0.95006544301E+01  0.12208921363E+02  0.00000000000E+00 0.  1.
</event>
<event>
 7    1  0.1899036E-009  0.4778727E+02  0.7816164E-02  0.1312668E+00
        -11   -1    0    0    0    0  0.00000000000E+00  0.00000000000E+00  0.45593999997E+02  0.45594000000E+02  0.51100000000E-03 0.  1.
         11   -1    0    0    0    0 -0.00000000000E+00 -0.00000000000E+00 -0.45593999997E+02  0.45594000000E+02  0.51100000000E-03 0. -1.
    9900012    2    1    2    0    0 -0.89423379543E+01 -0.40988219558E+01 -0.42271243688E+02  0.47787265070E+02  0.19999972759E+02 0.  0.
        -12    1    1    2    0    0  0.89423379543E+01  0.40988219558E+01  0.42271243688E+02  0.43400734930E+02  0.00000000000E+00 0.  1.
         11    1    3    3    0    0 -0.83935509851E+00 -0.46601332337E+00 -0.21717443426E+02  0.21738653009E+02  0.51100000000E-03 0. -1.
        -11    1    3    3    0    0 -0.56243510402E+00  0.42578776705E+01 -0.99230165637E+01  0.10812590508E+02  0.51100000000E-03 0.  1.
        -12    1    3    3    0    0 -0.75405477518E+01 -0.78906863030E+01 -0.10630783698E+02  0.15236021553E+02  0.00000000000E+00 0.  1.
</event>
<event>
 7    1  0.1899036E-009  0.4778727E+02  0.7816164E-02  0.1312668E+00
        -11   -1    0    0    0    0  0.00000000000E+00  0.00000000000E+00  0.45593999997E+02  0.45594000000E+02  0.51100000000E-03 0.  1.
         11   -1    0    0    0    0 -0.00000000000E+00 -0.00000000000E+00 -0.45593999997E+02  0.45594000000E+02  0.51100000000E-03 0. -1.
    9900012    2    1    2    0    0  0.36763614689E+02  0.20555681353E+02 -0.10465363335E+02  0.47787271543E+02  0.20000002273E+02 0.  0.
        -12    1    1    2    0    0 -0.36763614689E+02 -0.20555681353E+02  0.10465363335E+02  0.43400728457E+02  0.00000000000E+00 0.  1.
         11    1    3    3    0    0  0.46738428595E+00  0.61339736275E+01 -0.21771266261E+01  0.65256387535E+01  0.51100000000E-03 0. -1.
        -11    1    3    3    0    0  0.18266746409E+02  0.11656184029E+02 -0.12316012516E+01  0.21703858929E+02  0.51100000000E-03 0.  1.
         12    1    3    3    0    0  0.18029483994E+02  0.27655236957E+01 -0.70566354569E+01  0.19557773861E+02  0.00000000000E+00 0. -1.
</event>
<event>
 7    1  0.1899036E-009  0.4778727E+02  0.7816164E-02  0.1312668E+00
        -11   -1    0    0    0    0  0.00000000000E+00  0.00000000000E+00  0.45593999997E+02  0.45594000000E+02  0.51100000000E-03 0.  1.
         11   -1    0    0    0    0 -0.00000000000E+00 -0.00000000000E+00 -0.45593999997E+02  0.45594000000E+02  0.51100000000E-03 0. -1.
    9900012    2    1    2    0    0  0.19636895875E+02  0.14627800409E+02 -0.35833542963E+02  0.47787273904E+02  0.20000013039E+02 0.  0.
        -12    1    1    2    0    0 -0.19636895875E+02 -0.14627800409E+02  0.35833542963E+02  0.43400726096E+02  0.00000000000E+00 0.  1.
         11    1    3    3    0    0  0.13289097738E+02  0.30813105442E+01 -0.95668006111E+01  0.16661880672E+02  0.51100000000E-03 0.  1.
        -11    1    3    3    0    0 -0.18004534464E+01 -0.66770559172E+00 -0.42270832139E+01  0.46428112312E+01  0.51100000000E-03 0. -1.
         12    1    3    3    0    0  0.81482515834E+01  0.12214195456E+02 -0.22039659138E+02  0.26482582001E+02  0.00000000000E+00 0. -1.
</event>
<event>
 7    1  0.1899036E-009  0.4778728E+02  0.7816164E-02  0.1312668E+00
        -11   -1    0    0    0    0  0.00000000000E+00  0.00000000000E+00  0.45593999997E+02  0.45594000000E+02  0.51100000000E-03 0.  1.
         11   -1    0    0    0    0 -0.00000000000E+00 -0.00000000000E+00 -0.45593999997E+02  0.45594000000E+02  0.51100000000E-03 0. -1.
    9900012    2    1    2    0    0  0.22867263598E+02 -0.22992364247E+01 -0.36816087076E+02  0.47787279958E+02  0.20000040642E+02 0.  0.
        -12    1    1    2    0    0 -0.22867263598E+02  0.22992364247E+01  0.36816087076E+02  0.43400720042E+02  0.00000000000E+00 0.  1.
         11    1    3    3    0    0 -0.23583207383E+01 -0.14277784303E-01 -0.50803078146E+00  0.24124626620E+01  0.51100000000E-03 0.  1.
        -11    1    3    3    0    0  0.14001322830E+02 -0.13095357863E+01 -0.28142641248E+02  0.31460454250E+02  0.51100000000E-03 0. -1.
        -12    1    3    3    0    0  0.11224261506E+02 -0.97542285411E+00 -0.81654150462E+01  0.13914363046E+02  0.00000000000E+00 0.  1.
</event>
<event>
 7    1  0.1899036E-009  0.4778727E+02  0.7816164E-02  0.1312668E+00
        -11   -1    0    0    0    0  0.00000000000E+00  0.00000000000E+00  0.45593999997E+02  0.45594000000E+02  0.51100000000E-03 0.  1.
         11   -1    0    0    0    0 -0.00000000000E+00 -0.00000000000E+00 -0.45593999997E+02  0.45594000000E+02  0.51100000000E-03 0. -1.
    9900012    2    1    2    0    0  0.36360629873E+01  0.28149550896E+01 -0.43156440402E+02  0.47787271038E+02  0.19999999972E+02 0.  0.
        -12    1    1    2    0    0 -0.36360629873E+01 -0.28149550896E+01  0.43156440402E+02  0.43400728962E+02  0.00000000000E+00 0.  1.
         11    1    3    3    0    0  0.59773842068E+01  0.34311699166E+01 -0.61801249957E+01  0.92572130890E+01  0.51100000000E-03 0. -1.
        -11    1    3    3    0    0 -0.11308857906E+00  0.40855922487E+01 -0.26706176805E+02  0.27017119255E+02  0.51100000000E-03 0.  1.
        -12    1    3    3    0    0 -0.22282326404E+01 -0.47018070756E+01 -0.10270138602E+02  0.11512938694E+02  0.00000000000E+00 0.  1.
</event>
<event>
 7    1  0.1899036E-009  0.4778725E+02  0.7816164E-02  0.1312668E+00
        -11   -1    0    0    0    0  0.00000000000E+00  0.00000000000E+00  0.45593999997E+02  0.45594000000E+02  0.51100000000E-03 0. -1.
         11   -1    0    0    0    0 -0.00000000000E+00 -0.00000000000E+00 -0.45593999997E+02  0.45594000000E+02  0.51100000000E-03 0.  1.
    9900012    2    1    2    0    0 -0.20370105241E+01 -0.31631749620E+02  0.29646379043E+02  0.47787253621E+02  0.19999920561E+02 0.  0.
        -12    1    1    2    0    0  0.20370105241E+01  0.31631749620E+02 -0.29646379043E+02  0.43400746379E+02  0.00000000000E+00 0.  1.
         11    1    3    3    0    0 -0.21777313760E+01 -0.11885064401E+02  0.43493402758E+01  0.12841885799E+02  0.51100000000E-03 0. -1.
        -11    1    3    3    0    0  0.17832026498E+01 -0.95825047574E+01  0.27012721593E+01  0.10114399669E+02  0.51100000000E-03 0.  1.
         12    1    3    3    0    0 -0.16424817979E+01 -0.10164180461E+02  0.22595766607E+02  0.24830968154E+02  0.00000000000E+00 0. -1.
</event>
<event>
 7    1  0.1899036E-009  0.4778727E+02  0.7816164E-02  0.1312668E+00
        -11   -1    0    0    0    0  0.00000000000E+00  0.00000000000E+00  0.45593999997E+02  0.45594000000E+02  0.51100000000E-03 0.  1.
         11   -1    0    0    0    0 -0.00000000000E+00 -0.00000000000E+00 -0.45593999997E+02  0.45594000000E+02  0.51100000000E-03 0. -1.
    9900012    2    1    2    0    0 -0.11556016144E+02 -0.40407518536E+02  0.10831165230E+02  0.47787271855E+02  0.20000003693E+02 0.  0.
        -12    1    1    2    0    0  0.11556016144E+02  0.40407518536E+02 -0.10831165230E+02  0.43400728145E+02  0.00000000000E+00 0.  1.
         11    1    3    3    0    0 -0.10289049586E+02 -0.36856105187E+02  0.10429931029E+02  0.39661322374E+02  0.51100000000E-03 0. -1.
        -11    1    3    3    0    0 -0.81423617118E+00 -0.17413115409E+00  0.34527991182E+01  0.35517776131E+01  0.51100000000E-03 0.  1.
        -12    1    3    3    0    0 -0.45273038686E+00 -0.33772821948E+01 -0.30515649176E+01  0.45741718675E+01  0.00000000000E+00 0.  1.
</event>
<event>
 7    1  0.1899036E-009  0.4778727E+02  0.7816164E-02  0.1312668E+00
        -11   -1    0    0    0    0  0.00000000000E+00  0.00000000000E+00  0.45593999997E+02  0.45594000000E+02  0.51100000000E-03 0. -1.
         11   -1    0    0    0    0 -0.00000000000E+00 -0.00000000000E+00 -0.45593999997E+02  0.45594000000E+02  0.51100000000E-03 0.  1.
    9900012    2    1    2    0    0  0.22100958087E+02  0.10123972568E+02  0.35953801512E+02  0.47787274060E+02  0.20000013751E+02 0.  0.
        -12    1    1    2    0    0 -0.22100958087E+02 -0.10123972568E+02 -0.35953801512E+02  0.43400725940E+02  0.00000000000E+00 0.  1.
         11    1    3    3    0    0  0.81462771531E+01 -0.25052810828E+01  0.74166706056E+01  0.11298020530E+02  0.51100000000E-03 0.  1.
        -11    1    3    3    0    0 -0.42986853719E-01 -0.18974698430E+01  0.57517529489E+01  0.60568062476E+01  0.51100000000E-03 0. -1.
         12    1    3    3    0    0  0.13997667787E+02  0.14526723494E+02  0.22785377958E+02  0.30432447283E+02  0.00000000000E+00 0. -1.
</event>
<event>
 7    1  0.1899036E-009  0.4778727E+02  0.7816164E-02  0.1312668E+00
        -11   -1    0    0    0    0  0.00000000000E+00  0.00000000000E+00  0.45593999997E+02  0.45594000000E+02  0.51100000000E-03 0.  1.
         11   -1    0    0    0    0 -0.00000000000E+00 -0.00000000000E+00 -0.45593999997E+02  0.45594000000E+02  0.51100000000E-03 0. -1.
    9900012    2    1    2    0    0  0.22050209228E+02 -0.35315347291E+02 -0.12257148075E+02  0.47787272354E+02  0.20000005970E+02 0.  0.
        -12    1    1    2    0    0 -0.22050209228E+02  0.35315347291E+02  0.12257148075E+02  0.43400727646E+02  0.00000000000E+00 0.  1.
         11    1    3    3    0    0  0.23538651880E+01 -0.57365597926E+01  0.21905041465E+01  0.65762533600E+01  0.51100000000E-03 0. -1.
        -11    1    3    3    0    0  0.49090638380E+01 -0.19917700109E+01 -0.74441029521E+01  0.91367786755E+01  0.51100000000E-03 0.  1.
         12    1    3    3    0    0  0.14787280201E+02 -0.27587017488E+02 -0.70035492692E+01  0.32074240318E+02  0.00000000000E+00 0. -1.
</event>
<event>
 7    1  0.1899036E-009  0.4778727E+02  0.7816164E-02  0.1312668E+00
        -11   -1    0    0    0    0  0.00000000000E+00  0.00000000000E+00  0.45593999997E+02  0.45594000000E+02  0.51100000000E-03 0. -1.
         11   -1    0    0    0    0 -0.00000000000E+00 -0.00000000000E+00 -0.45593999997E+02  0.45594000000E+02  0.51100000000E-03 0.  1.
    9900012    2    1    2    0    0  0.36608952754E+02 -0.12451603803E+02  0.19706989334E+02  0.47787270886E+02  0.19999999278E+02 0.  0.
        -12    1    1    2    0    0 -0.36608952754E+02  0.12451603803E+02 -0.19706989334E+02  0.43400729114E+02  0.00000000000E+00 0.  1.
         11    1    3    3    0    0  0.19447549633E+02 -0.35559723826E+01  0.11427502947E+02  0.22835059671E+02  0.51100000000E-03 0. -1.
        -11    1    3    3    0    0  0.12651475394E+02 -0.50674755917E+01 -0.13030929845E+01  0.13690770252E+02  0.51100000000E-03 0.  1.
        -12    1    3    3    0    0  0.45099277276E+01 -0.38281558287E+01  0.95825793708E+01  0.11261440963E+02  0.00000000000E+00 0.  1.
</event>
<event>
 7    1  0.1899036E-009  0.4778730E+02  0.7816164E-02  0.1312668E+00
        -11   -1    0    0    0    0  0.00000000000E+00  0.00000000000E+00  0.45593999997E+02  0.45594000000E+02  0.51100000000E-03 0. -1.
         11   -1    0    0    0    0 -0.00000000000E+00 -0.00000000000E+00 -0.45593999997E+02  0.45594000000E+02  0.51100000000E-03 0.  1.
    9900012    2    1    2    0    0 -0.32695755526E+02  0.16303035571E+01  0.28494737754E+02  0.47787304167E+02  0.20000151019E+02 0.  0.
        -12    1    1    2    0    0  0.32695755526E+02 -0.16303035571E+01 -0.28494737754E+02  0.43400695833E+02  0.00000000000E+00 0.  1.
         11    1    3    3    0    0 -0.16441202973E+02  0.81007929467E+01  0.18939016367E+02  0.26355689002E+02  0.51100000000E-03 0. -1.
        -11    1    3    3    0    0 -0.19152621218E+01 -0.40637860049E+01  0.11519517010E+01  0.46378420275E+01  0.51100000000E-03 0.  1.
         12    1    3    3    0    0 -0.14339290431E+02 -0.24067033847E+01  0.84037696863E+01  0.16793773138E+02  0.00000000000E+00 0. -1.
</event>
<event>
 7    1  0.1899036E-009  0.4778727E+02  0.7816164E-02  0.1312668E+00
        -11   -1    0    0    0    0  0.00000000000E+00  0.00000000000E+00  0.45593999997E+02  0.45594000000E+02  0.51100000000E-03 0. -1.
         11   -1    0    0    0    0 -0.00000000000E+00 -0.00000000000E+00 -0.45593999997E+02  0.45594000000E+02  0.51100000000E-03 0.  1.
    9900012    2    1    2    0    0  0.10716008237E+02  0.38293675936E+02 -0.17389214231E+02  0.47787271656E+02  0.20000002787E+02 0.  0.
        -12    1    1    2    0    0 -0.10716008237E+02 -0.38293675936E+02  0.17389214231E+02  0.43400728344E+02  0.00000000000E+00 0.  1.
         11    1    3    3    0    0  0.11932631585E+02  0.32586106788E+02 -0.96804035576E+01  0.36027104594E+02  0.51100000000E-03 0. -1.
        -11    1    3    3    0    0 -0.15186261006E+01  0.19503498541E+01  0.67977844003E+00  0.25636280493E+01  0.51100000000E-03 0.  1.
        -12    1    3    3    0    0  0.30200275337E+00  0.37572192935E+01 -0.83885891138E+01  0.91965390122E+01  0.00000000000E+00 0.  1.
</event>
<event>
 7    1  0.1899036E-009  0.4778727E+02  0.7816164E-02  0.1312668E+00
        -11   -1    0    0    0    0  0.00000000000E+00  0.00000000000E+00  0.45593999997E+02  0.45594000000E+02  0.51100000000E-03 0.  1.
         11   -1    0    0    0    0 -0.00000000000E+00 -0.00000000000E+00 -0.45593999997E+02  0.45594000000E+02  0.51100000000E-03 0. -1.
    9900012    2    1    2    0    0 -0.50941034317E+00  0.21451656108E+02 -0.37725191327E+02  0.47787272940E+02  0.20000008643E+02 0.  0.
        -12    1    1    2    0    0  0.50941034317E+00 -0.21451656108E+02  0.37725191327E+02  0.43400727060E+02  0.00000000000E+00 0.  1.
         11    1    3    3    0    0 -0.20504482248E+00  0.61974662821E+01  0.65669303054E-01  0.62012050777E+01  0.51100000000E-03 0.  1.
        -11    1    3    3    0    0 -0.12073583093E+01  0.11751025255E+02 -0.18435180348E+02  0.21895209142E+02  0.51100000000E-03 0. -1.
        -12    1    3    3    0    0  0.90299278863E+00  0.35031645708E+01 -0.19355680281E+02  0.19690858720E+02  0.00000000000E+00 0.  1.
</event>
<event>
 7    1  0.1899036E-009  0.4778726E+02  0.7816164E-02  0.1312668E+00
        -11   -1    0    0    0    0  0.00000000000E+00  0.00000000000E+00  0.45593999997E+02  0.45594000000E+02  0.51100000000E-03 0.  1.
         11   -1    0    0    0    0 -0.00000000000E+00 -0.00000000000E+00 -0.45593999997E+02  0.45594000000E+02  0.51100000000E-03 0. -1.
    9900012    2    1    2    0    0 -0.31534030553E+02  0.12586355527E+02 -0.27033550059E+02  0.47787259717E+02  0.19999948352E+02 0.  0.
        -12    1    1    2    0    0  0.31534030553E+02 -0.12586355527E+02  0.27033550059E+02  0.43400740283E+02  0.00000000000E+00 0.  1.
         11    1    3    3    0    0 -0.15714669411E+02  0.43963244218E+01 -0.16308853769E+02  0.23070700350E+02  0.51100000000E-03 0. -1.
        -11    1    3    3    0    0 -0.12869553477E+02  0.10296658954E+01 -0.20235582749E+01  0.13068297782E+02  0.51100000000E-03 0.  1.
        -12    1    3    3    0    0 -0.29498076644E+01  0.71603652094E+01 -0.87011380155E+01  0.11648261585E+02  0.00000000000E+00 0.  1.
</event>
<event>
 7    1  0.1899036E-009  0.4778727E+02  0.7816164E-02  0.1312668E+00
        -11   -1    0    0    0    0  0.00000000000E+00  0.00000000000E+00  0.45593999997E+02  0.45594000000E+02  0.51100000000E-03 0.  1.
         11   -1    0    0    0    0 -0.00000000000E+00 -0.00000000000E+00 -0.45593999997E+02  0.45594000000E+02  0.51100000000E-03 0. -1.
    9900012    2    1    2    0    0 -0.33264139696E+02  0.20938324357E+01 -0.27798131138E+02  0.47787271680E+02  0.20000002896E+02 0.  0.
        -12    1    1    2    0    0  0.33264139696E+02 -0.20938324357E+01  0.27798131138E+02  0.43400728320E+02  0.00000000000E+00 0.  1.
         11    1    3    3    0    0 -0.25262526015E+01 -0.20011940524E+01 -0.98221468718E+01  0.10337373906E+02  0.51100000000E-03 0. -1.
        -11    1    3    3    0    0 -0.75873074423E+01 -0.26800459222E+01 -0.80000286546E+01  0.11346820661E+02  0.51100000000E-03 0.  1.
        -12    1    3    3    0    0 -0.23150579652E+02  0.67750724103E+01 -0.99759556112E+01  0.26103077113E+02  0.00000000000E+00 0.  1.
</event>
<event>
 7    1  0.1899036E-009  0.4778727E+02  0.7816164E-02  0.1312668E+00
        -11   -1    0    0    0    0  0.00000000000E+00  0.00000000000E+00  0.45593999997E+02  0.45594000000E+02  0.51100000000E-03 0.  1.
         11   -1    0    0    0    0 -0.00000000000E+00 -0.00000000000E+00 -0.45593999997E+02  0.45594000000E+02  0.51100000000E-03 0. -1.
    9900012    2    1    2    0    0  0.24539555469E+02 -0.33975805367E+02 -0.11272910439E+02  0.47787266795E+02  0.19999980625E+02 0.  0.
        -12    1    1    2    0    0 -0.24539555469E+02  0.33975805367E+02  0.11272910439E+02  0.43400733205E+02  0.00000000000E+00 0.  1.
         11    1    3    3    0    0 -0.10020135696E+00 -0.39937974837E+01  0.29056220058E-01  0.39951599690E+01  0.51100000000E-03 0. -1.
        -11    1    3    3    0    0  0.68667979346E+01 -0.19147407126E+02 -0.51497138746E+00  0.20348005045E+02  0.51100000000E-03 0.  1.
         12    1    3    3    0    0  0.17772958892E+02 -0.10834600757E+02 -0.10786995272E+02  0.23444101781E+02  0.00000000000E+00 0. -1.
</event>
<event>
 7    1  0.1899036E-009  0.4778727E+02  0.7816164E-02  0.1312668E+00
        -11   -1    0    0    0    0  0.00000000000E+00  0.00000000000E+00  0.45593999997E+02  0.45594000000E+02  0.51100000000E-03 0. -1.
         11   -1    0    0    0    0 -0.00000000000E+00 -0.00000000000E+00 -0.45593999997E+02  0.45594000000E+02  0.51100000000E-03 0.  1.
    9900012    2    1    2    0    0 -0.42682655970E+02  0.67105531877E+01  0.40966311053E+01  0.47787273840E+02  0.20000012748E+02 0.  0.
        -12    1    1    2    0    0  0.42682655970E+02 -0.67105531877E+01 -0.40966311053E+01  0.43400726160E+02  0.00000000000E+00 0.  1.
         11    1    3    3    0    0 -0.13591031407E+02  0.23731502062E+00  0.37312510113E+01  0.14095910311E+02  0.51100000000E-03 0.  1.
        -11    1    3    3    0    0 -0.15522423136E+02  0.96517051227E+01  0.50932059197E+01  0.18974766892E+02  0.51100000000E-03 0. -1.
        -12    1    3    3    0    0 -0.13569201427E+02 -0.31784669556E+01 -0.47278258257E+01  0.14716596638E+02  0.00000000000E+00 0.  1.
</event>
<event>
 7    1  0.1899036E-009  0.4778727E+02  0.7816164E-02  0.1312668E+00
        -11   -1    0    0    0    0  0.00000000000E+00  0.00000000000E+00  0.45593999997E+02  0.45594000000E+02  0.51100000000E-03 0.  1.
         11   -1    0    0    0    0 -0.00000000000E+00 -0.00000000000E+00 -0.45593999997E+02  0.45594000000E+02  0.51100000000E-03 0. -1.
    9900012    2    1    2    0    0 -0.84112526144E+01  0.35304644860E+02 -0.23800342019E+02  0.47787269597E+02  0.19999993401E+02 0.  0.
        -12    1    1    2    0    0  0.84112526144E+01 -0.35304644860E+02  0.23800342019E+02  0.43400730403E+02  0.00000000000E+00 0.  1.
         11    1    3    3    0    0 -0.33976442924E+01  0.14927208598E+02 -0.21403863111E+01  0.15457904032E+02  0.51100000000E-03 0. -1.
        -11    1    3    3    0    0  0.34325785228E+01  0.25597038269E+01 -0.37806037402E+01  0.57120612652E+01  0.51100000000E-03 0.  1.
        -12    1    3    3    0    0 -0.84461868448E+01  0.17817732436E+02 -0.17879351968E+02  0.26617304300E+02  0.00000000000E+00 0.  1.
</event>
<event>
 7    1  0.1899036E-009  0.4778727E+02  0.7816164E-02  0.1312668E+00
        -11   -1    0    0    0    0  0.00000000000E+00  0.00000000000E+00  0.45593999997E+02  0.45594000000E+02  0.51100000000E-03 0.  1.
         11   -1    0    0    0    0 -0.00000000000E+00 -0.00000000000E+00 -0.45593999997E+02  0.45594000000E+02  0.51100000000E-03 0. -1.
    9900012    2    1    2    0    0  0.24051161662E+02 -0.21998715670E+02 -0.28656958176E+02  0.47787272813E+02  0.20000008064E+02 0.  0.
        -12    1    1    2    0    0 -0.24051161662E+02  0.21998715670E+02  0.28656958176E+02  0.43400727187E+02  0.00000000000E+00 0.  1.
         11    1    3    3    0    0 -0.14254131855E+01  0.73649346104E+00 -0.10394415069E+01  0.19117176242E+01  0.51100000000E-03 0.  1.
        -11    1    3    3    0    0  0.18052776656E+02 -0.14722602238E+02 -0.10459050417E+02  0.25535259888E+02  0.51100000000E-03 0. -1.
         12    1    3    3    0    0  0.74237981917E+01 -0.80126068931E+01 -0.17158466252E+02  0.20340295301E+02  0.00000000000E+00 0. -1.
</event>
<event>
 7    1  0.1899036E-009  0.4778727E+02  0.7816164E-02  0.1312668E+00
        -11   -1    0    0    0    0  0.00000000000E+00  0.00000000000E+00  0.45593999997E+02  0.45594000000E+02  0.51100000000E-03 0.  1.
         11   -1    0    0    0    0 -0.00000000000E+00 -0.00000000000E+00 -0.45593999997E+02  0.45594000000E+02  0.51100000000E-03 0. -1.
    9900012    2    1    2    0    0 -0.22819395897E+02  0.36784400861E+02  0.31315658293E+01  0.47787266361E+02  0.19999978647E+02 0.  0.
        -12    1    1    2    0    0  0.22819395897E+02 -0.36784400861E+02 -0.31315658293E+01  0.43400733639E+02  0.00000000000E+00 0.  1.
         11    1    3    3    0    0 -0.32516453679E+01  0.13052903452E+02 -0.11896060222E+01  0.13504319637E+02  0.51100000000E-03 0. -1.
        -11    1    3    3    0    0 -0.43938870138E+01  0.34536081185E+01  0.68382893979E+01  0.88315261579E+01  0.51100000000E-03 0.  1.
         12    1    3    3    0    0 -0.15173863515E+02  0.20277889291E+02 -0.25171175464E+01  0.25451420566E+02  0.00000000000E+00 0. -1.
</event>
<event>
 7    1  0.1899036E-009  0.4778727E+02  0.7816164E-02  0.1312668E+00
        -11   -1    0    0    0    0  0.00000000000E+00  0.00000000000E+00  0.45593999997E+02  0.45594000000E+02  0.51100000000E-03 0.  1.
         11   -1    0    0    0    0 -0.00000000000E+00 -0.00000000000E+00 -0.45593999997E+02  0.45594000000E+02  0.51100000000E-03 0. -1.
    9900012    2    1    2    0    0 -0.16909646672E+02 -0.11398393500E+02 -0.38311404278E+02  0.47787271634E+02  0.20000002690E+02 0.  0.
        -12    1    1    2    0    0  0.16909646672E+02  0.11398393500E+02  0.38311404278E+02  0.43400728366E+02  0.00000000000E+00 0.  1.
         11    1    3    3    0    0 -0.14480400499E+02 -0.66040055540E+01 -0.15210728191E+02  0.22015020789E+02  0.51100000000E-03 0. -1.
        -11    1    3    3    0    0 -0.51546899175E+01 -0.30532642541E+01 -0.21179468513E+02  0.22010523335E+02  0.51100000000E-03 0.  1.
        -12    1    3    3    0    0  0.27254437452E+01 -0.17411236922E+01 -0.19212075739E+01  0.37617275103E+01  0.00000000000E+00 0.  1.
</event>
<event>
 7    1  0.1899036E-009  0.4778727E+02  0.7816164E-02  0.1312668E+00
        -11   -1    0    0    0    0  0.00000000000E+00  0.00000000000E+00  0.45593999997E+02  0.45594000000E+02  0.51100000000E-03 0.  1.
         11   -1    0    0    0    0 -0.00000000000E+00 -0.00000000000E+00 -0.45593999997E+02  0.45594000000E+02  0.51100000000E-03 0. -1.
    9900012    2    1    2    0    0  0.11366597882E+01 -0.15972595544E+02 -0.40338658834E+02  0.47787271891E+02  0.20000003860E+02 0.  0.
        -12    1    1    2    0    0 -0.11366597882E+01  0.15972595544E+02  0.40338658834E+02  0.43400728109E+02  0.00000000000E+00 0.  1.
         11    1    3    3    0    0  0.35551444674E+01 -0.11967548627E+02 -0.18890060010E+02  0.22642783393E+02  0.51100000000E-03 0. -1.
        -11    1    3    3    0    0  0.21817645802E+01  0.28582191750E+01 -0.22454632569E+01  0.42392946388E+01  0.51100000000E-03 0.  1.
         12    1    3    3    0    0 -0.46002492594E+01 -0.68632660913E+01 -0.19203135567E+02  0.20905193859E+02  0.00000000000E+00 0. -1.
</event>
<event>
 7    1  0.1899036E-009  0.4778727E+02  0.7816164E-02  0.1312668E+00
        -11   -1    0    0    0    0  0.00000000000E+00  0.00000000000E+00  0.45593999997E+02  0.45594000000E+02  0.51100000000E-03 0.  1.
         11   -1    0    0    0    0 -0.00000000000E+00 -0.00000000000E+00 -0.45593999997E+02  0.45594000000E+02  0.51100000000E-03 0. -1.
    9900012    2    1    2    0    0  0.17129607622E+02 -0.17805834872E+02 -0.35681257322E+02  0.47787270319E+02  0.19999996693E+02 0.  0.
        -12    1    1    2    0    0 -0.17129607622E+02  0.17805834872E+02  0.35681257322E+02  0.43400729681E+02  0.00000000000E+00 0.  1.
         11    1    3    3    0    0  0.11962883455E+00 -0.93477351358E+01 -0.76600635809E+01  0.12085985171E+02  0.51100000000E-03 0.  1.
        -11    1    3    3    0    0  0.15607533134E+02 -0.11035812157E+02 -0.23238326090E+02  0.30089932539E+02  0.51100000000E-03 0. -1.
        -12    1    3    3    0    0  0.14024456534E+01  0.25777124207E+01 -0.47828676508E+01  0.56113526087E+01  0.00000000000E+00 0.  1.
</event>
<event>
 7    1  0.1899036E-009  0.4778727E+02  0.7816164E-02  0.1312668E+00
        -11   -1    0    0    0    0  0.00000000000E+00  0.00000000000E+00  0.45593999997E+02  0.45594000000E+02  0.51100000000E-03 0.  1.
         11   -1    0    0    0    0 -0.00000000000E+00 -0.00000000000E+00 -0.45593999997E+02  0.45594000000E+02  0.51100000000E-03 0. -1.
    9900012    2    1    2    0    0 -0.79223613217E+01  0.40735463847E+02 -0.12707548518E+02  0.47787267137E+02  0.19999982184E+02 0.  0.
        -12    1    1    2    0    0  0.79223613217E+01 -0.40735463847E+02  0.12707548518E+02  0.43400732863E+02  0.00000000000E+00 0.  1.
         11    1    3    3    0    0 -0.41993174972E+01  0.17920825004E+02 -0.10454659059E+02  0.21168139563E+02  0.51100000000E-03 0. -1.
        -11    1    3    3    0    0 -0.35394675256E+01  0.61601339200E+01 -0.62815596526E+01  0.94833049201E+01  0.51100000000E-03 0.  1.
        -12    1    3    3    0    0 -0.18357629882E+00  0.16654504923E+02  0.40286701942E+01  0.17135822654E+02  0.00000000000E+00 0.  1.
</event>
<event>
 7    1  0.1899036E-009  0.4778727E+02  0.7816164E-02  0.1312668E+00
        -11   -1    0    0    0    0  0.00000000000E+00  0.00000000000E+00  0.45593999997E+02  0.45594000000E+02  0.51100000000E-03 0. -1.
         11   -1    0    0    0    0 -0.00000000000E+00 -0.00000000000E+00 -0.45593999997E+02  0.45594000000E+02  0.51100000000E-03 0.  1.
    9900012    2    1    2    0    0  0.34703894833E+02 -0.22515576225E+01 -0.25965239134E+02  0.47787268766E+02  0.19999989613E+02 0.  0.
        -12    1    1    2    0    0 -0.34703894833E+02  0.22515576225E+01  0.25965239134E+02  0.43400731234E+02  0.00000000000E+00 0.  1.
         11    1    3    3    0    0  0.78036621420E+01  0.46061705717E+01 -0.94406747187E+01  0.13085881307E+02  0.51100000000E-03 0. -1.
        -11    1    3    3    0    0  0.25967502867E+02 -0.33333934913E+01 -0.16696775398E+02  0.31051650943E+02  0.51100000000E-03 0.  1.
        -12    1    3    3    0    0  0.93272982425E+00 -0.35243347030E+01  0.17221098241E+00  0.36497365173E+01  0.00000000000E+00 0.  1.
</event>
<event>
 7    1  0.1899036E-009  0.4778727E+02  0.7816164E-02  0.1312668E+00
        -11   -1    0    0    0    0  0.00000000000E+00  0.00000000000E+00  0.45593999997E+02  0.45594000000E+02  0.51100000000E-03 0.  1.
         11   -1    0    0    0    0 -0.00000000000E+00 -0.00000000000E+00 -0.45593999997E+02  0.45594000000E+02  0.51100000000E-03 0. -1.
    9900012    2    1    2    0    0 -0.30230830902E+02 -0.31055273154E+02 -0.23000569333E+01  0.47787269711E+02  0.19999993920E+02 0.  0.
        -12    1    1    2    0    0  0.30230830902E+02  0.31055273154E+02  0.23000569333E+01  0.43400730289E+02  0.00000000000E+00 0.  1.
         11    1    3    3    0    0 -0.96520503059E+01 -0.11206920530E+02 -0.51556442857E+01  0.15663263106E+02  0.51100000000E-03 0.  1.
        -11    1    3    3    0    0  0.15461245521E+01 -0.22938846362E+01 -0.20694888208E+01  0.34547347360E+01  0.51100000000E-03 0. -1.
         12    1    3    3    0    0 -0.22124905149E+02 -0.17554467988E+02  0.49250761732E+01  0.28669271869E+02  0.00000000000E+00 0. -1.
</event>
<event>
 7    1  0.1899036E-009  0.4778727E+02  0.7816164E-02  0.1312668E+00
        -11   -1    0    0    0    0  0.00000000000E+00  0.00000000000E+00  0.45593999997E+02  0.45594000000E+02  0.51100000000E-03 0.  1.
         11   -1    0    0    0    0 -0.00000000000E+00 -0.00000000000E+00 -0.45593999997E+02  0.45594000000E+02  0.51100000000E-03 0. -1.
    9900012    2    1    2    0    0 -0.16247345770E+02  0.37200737974E+02 -0.15354220110E+02  0.47787271601E+02  0.20000002539E+02 0.  0.
        -12    1    1    2    0    0  0.16247345770E+02 -0.37200737974E+02  0.15354220110E+02  0.43400728399E+02  0.00000000000E+00 0.  1.
         11    1    3    3    0    0  0.10615720232E+01  0.24143779510E+00 -0.34065653196E+01  0.35762990517E+01  0.51100000000E-03 0. -1.
        -11    1    3    3    0    0 -0.12048011632E+02  0.17869495722E+02 -0.97753070174E+00  0.21573804212E+02  0.51100000000E-03 0.  1.
         12    1    3    3    0    0 -0.52609061607E+01  0.19089804457E+02 -0.10970124089E+02  0.22637168338E+02  0.00000000000E+00 0. -1.
</event>
<event>
 7    1  0.1899036E-009  0.4778728E+02  0.7816164E-02  0.1312668E+00
        -11   -1    0    0    0    0  0.00000000000E+00  0.00000000000E+00  0.45593999997E+02  0.45594000000E+02  0.51100000000E-03 0.  1.
         11   -1    0    0    0    0 -0.00000000000E+00 -0.00000000000E+00 -0.45593999997E+02  0.45594000000E+02  0.51100000000E-03 0. -1.
    9900012    2    1    2    0    0  0.12774009820E+01  0.12583716429E+02 -0.41516755829E+02  0.47787277806E+02  0.20000030827E+02 0.  0.
        -12    1    1    2    0    0 -0.12774009820E+01 -0.12583716429E+02  0.41516755829E+02  0.43400722194E+02  0.00000000000E+00 0.  1.
         11    1    3    3    0    0  0.23324762410E+01  0.64415581607E+01 -0.14438549838E+02  0.15981421671E+02  0.51100000000E-03 0. -1.
        -11    1    3    3    0    0  0.46618453322E+01  0.19166941569E+01 -0.23132484823E+02  0.23675269222E+02  0.51100000000E-03 0.  1.
        -12    1    3    3    0    0 -0.57169205913E+01  0.42254641117E+01 -0.39457211685E+01  0.81305869128E+01  0.00000000000E+00 0.  1.
</event>
<event>
 7    1  0.1899036E-009  0.4778727E+02  0.7816164E-02  0.1312668E+00
        -11   -1    0    0    0    0  0.00000000000E+00  0.00000000000E+00  0.45593999997E+02  0.45594000000E+02  0.51100000000E-03 0. -1.
         11   -1    0    0    0    0 -0.00000000000E+00 -0.00000000000E+00 -0.45593999997E+02  0.45594000000E+02  0.51100000000E-03 0.  1.
    9900012    2    1    2    0    0 -0.28905437691E+02  0.19909141850E+02  0.25528905566E+02  0.47787271012E+02  0.19999999854E+02 0.  0.
        -12    1    1    2    0    0  0.28905437691E+02 -0.19909141850E+02 -0.25528905566E+02  0.43400728988E+02  0.00000000000E+00 0.  1.
         11    1    3    3    0    0 -0.79100235365E+01  0.11442594174E+02  0.95638634123E+01  0.16881022404E+02  0.51100000000E-03 0. -1.
        -11    1    3    3    0    0 -0.52159207604E+01 -0.11184960555E+00  0.11151968571E+02  0.12311975593E+02  0.51100000000E-03 0.  1.
         12    1    3    3    0    0 -0.15779493394E+02  0.85783972810E+01  0.48130735818E+01  0.18594273016E+02  0.00000000000E+00 0. -1.
</event>
<event>
 7    1  0.1899036E-009  0.4778727E+02  0.7816164E-02  0.1312668E+00
        -11   -1    0    0    0    0  0.00000000000E+00  0.00000000000E+00  0.45593999997E+02  0.45594000000E+02  0.51100000000E-03 0.  1.
         11   -1    0    0    0    0 -0.00000000000E+00 -0.00000000000E+00 -0.45593999997E+02  0.45594000000E+02  0.51100000000E-03 0. -1.
    9900012    2    1    2    0    0 -0.66681104754E+01  0.18708661499E+02 -0.38589446512E+02  0.47787273111E+02  0.20000009421E+02 0.  0.
        -12    1    1    2    0    0  0.66681104754E+01 -0.18708661499E+02  0.38589446512E+02  0.43400726889E+02  0.00000000000E+00 0.  1.
         11    1    3    3    0    0 -0.57809768792E+01  0.77887278466E+01 -0.13961108354E+02  0.16999897702E+02  0.51100000000E-03 0. -1.
        -11    1    3    3    0    0 -0.26124728951E+00 -0.34771109357E+01 -0.21820762103E+01  0.41133936664E+01  0.51100000000E-03 0.  1.
         12    1    3    3    0    0 -0.62588630669E+00  0.14397044589E+02 -0.22446261948E+02  0.26673981743E+02  0.00000000000E+00 0. -1.
</event>
<event>
 7    1  0.1899036E-009  0.4778727E+02  0.7816164E-02  0.1312668E+00
        -11   -1    0    0    0    0  0.00000000000E+00  0.00000000000E+00  0.45593999997E+02  0.45594000000E+02  0.51100000000E-03 0. -1.
         11   -1    0    0    0    0 -0.00000000000E+00 -0.00000000000E+00 -0.45593999997E+02  0.45594000000E+02  0.51100000000E-03 0.  1.
    9900012    2    1    2    0    0  0.98425493031E+01  0.40550673024E+02 -0.11932742510E+02  0.47787271858E+02  0.20000003709E+02 0.  0.
        -12    1    1    2    0    0 -0.98425493031E+01 -0.40550673024E+02  0.11932742510E+02  0.43400728142E+02  0.00000000000E+00 0.  1.
         11    1    3    3    0    0  0.45292181593E+01  0.30507934490E+02 -0.15445061823E+02  0.34493446029E+02  0.51100000000E-03 0. -1.
        -11    1    3    3    0    0  0.15207914773E+01  0.13994636751E+01 -0.15498785334E+01  0.25832980906E+01  0.51100000000E-03 0.  1.
        -12    1    3    3    0    0  0.37925396666E+01  0.86432748585E+01  0.50621978459E+01  0.10710527738E+02  0.00000000000E+00 0.  1.
</event>
<event>
 7    1  0.1899036E-009  0.4778727E+02  0.7816164E-02  0.1312668E+00
        -11   -1    0    0    0    0  0.00000000000E+00  0.00000000000E+00  0.45593999997E+02  0.45594000000E+02  0.51100000000E-03 0.  1.
         11   -1    0    0    0    0 -0.00000000000E+00 -0.00000000000E+00 -0.45593999997E+02  0.45594000000E+02  0.51100000000E-03 0. -1.
    9900012    2    1    2    0    0 -0.41510897772E+02  0.28135616465E+00 -0.12664514623E+02  0.47787265839E+02  0.19999976265E+02 0.  0.
        -12    1    1    2    0    0  0.41510897772E+02 -0.28135616465E+00  0.12664514623E+02  0.43400734161E+02  0.00000000000E+00 0.  1.
         11    1    3    3    0    0 -0.11566259550E+02 -0.95257106691E+00 -0.81333580959E+01  0.14171706523E+02  0.51100000000E-03 0. -1.
        -11    1    3    3    0    0 -0.17481938753E+02  0.53411426720E+01  0.29416903134E+01  0.18514846199E+02  0.51100000000E-03 0.  1.
        -12    1    3    3    0    0 -0.12462699469E+02 -0.41072154404E+01 -0.74728468403E+01  0.15100713117E+02  0.00000000000E+00 0.  1.
</event>
<event>
 7    1  0.1899036E-009  0.4778728E+02  0.7816164E-02  0.1312668E+00
        -11   -1    0    0    0    0  0.00000000000E+00  0.00000000000E+00  0.45593999997E+02  0.45594000000E+02  0.51100000000E-03 0.  1.
         11   -1    0    0    0    0 -0.00000000000E+00 -0.00000000000E+00 -0.45593999997E+02  0.45594000000E+02  0.51100000000E-03 0. -1.
    9900012    2    1    2    0    0  0.34552133218E+02  0.12198387513E+02 -0.23258803714E+02  0.47787279752E+02  0.20000039702E+02 0.  0.
        -12    1    1    2    0    0 -0.34552133218E+02 -0.12198387513E+02  0.23258803714E+02  0.43400720248E+02  0.00000000000E+00 0.  1.
         11    1    3    3    0    0  0.14761109122E+02 -0.34721601092E+01 -0.98370183263E+01  0.18075208661E+02  0.51100000000E-03 0. -1.
        -11    1    3    3    0    0  0.13741391571E+01 -0.67199721403E+00  0.24799500468E+00  0.15496259104E+01  0.51100000000E-03 0.  1.
         12    1    3    3    0    0  0.18416884939E+02  0.16342544837E+02 -0.13669780392E+02  0.28162445181E+02  0.00000000000E+00 0. -1.
</event>
<event>
 7    1  0.1899036E-009  0.4778728E+02  0.7816164E-02  0.1312668E+00
        -11   -1    0    0    0    0  0.00000000000E+00  0.00000000000E+00  0.45593999997E+02  0.45594000000E+02  0.51100000000E-03 0.  1.
         11   -1    0    0    0    0 -0.00000000000E+00 -0.00000000000E+00 -0.45593999997E+02  0.45594000000E+02  0.51100000000E-03 0. -1.
    9900012    2    1    2    0    0 -0.20639217455E+02  0.34677758365E+02 -0.15971785330E+02  0.47787284003E+02  0.20000059084E+02 0.  0.
        -12    1    1    2    0    0  0.20639217455E+02 -0.34677758365E+02  0.15971785330E+02  0.43400715997E+02  0.00000000000E+00 0.  1.
         11    1    3    3    0    0  0.77920004870E+00  0.15538966834E+01 -0.36177489783E+01  0.40137084535E+01  0.51100000000E-03 0. -1.
        -11    1    3    3    0    0  0.56044109392E+00  0.99529033690E-01 -0.29501943070E+01  0.30046042931E+01  0.51100000000E-03 0.  1.
         12    1    3    3    0    0 -0.21978858598E+02  0.33024332648E+02 -0.94038420447E+01  0.40768971257E+02  0.00000000000E+00 0. -1.
</event>
<event>
 7    1  0.1899036E-009  0.4778727E+02  0.7816164E-02  0.1312668E+00
        -11   -1    0    0    0    0  0.00000000000E+00  0.00000000000E+00  0.45593999997E+02  0.45594000000E+02  0.51100000000E-03 0. -1.
         11   -1    0    0    0    0 -0.00000000000E+00 -0.00000000000E+00 -0.45593999997E+02  0.45594000000E+02  0.51100000000E-03 0.  1.
    9900012    2    1    2    0    0  0.15739131270E+02 -0.30412400825E+02  0.26664372058E+02  0.47787272882E+02  0.20000008380E+02 0.  0.
        -12    1    1    2    0    0 -0.15739131270E+02  0.30412400825E+02 -0.26664372058E+02  0.43400727118E+02  0.00000000000E+00 0.  1.
         11    1    3    3    0    0  0.66559839555E+01 -0.39038346825E+00  0.54803082492E+01  0.86306604866E+01  0.51100000000E-03 0. -1.
        -11    1    3    3    0    0 -0.18413725321E+01 -0.95375815548E+01  0.64569224885E+01  0.11663960005E+02  0.51100000000E-03 0.  1.
         12    1    3    3    0    0  0.10924519847E+02 -0.20484435802E+02  0.14727141320E+02  0.27492652391E+02  0.00000000000E+00 0. -1.
</event>
<event>
 7    1  0.1899036E-009  0.4778727E+02  0.7816164E-02  0.1312668E+00
        -11   -1    0    0    0    0  0.00000000000E+00  0.00000000000E+00  0.45593999997E+02  0.45594000000E+02  0.51100000000E-03 0.  1.
         11   -1    0    0    0    0 -0.00000000000E+00 -0.00000000000E+00 -0.45593999997E+02  0.45594000000E+02  0.51100000000E-03 0. -1.
    9900012    2    1    2    0    0  0.72177037926E+01 -0.35834446693E+02 -0.23397014954E+02  0.47787272741E+02  0.20000007737E+02 0.  0.
        -12    1    1    2    0    0 -0.72177037926E+01  0.35834446693E+02  0.23397014954E+02  0.43400727259E+02  0.00000000000E+00 0.  1.
         11    1    3    3    0    0  0.40345148114E+01 -0.10221605874E+02 -0.16493996272E+02  0.19819446251E+02  0.51100000000E-03 0. -1.
        -11    1    3    3    0    0 -0.22371622243E+01 -0.45463077010E+01  0.23933322590E+00  0.50725821023E+01  0.51100000000E-03 0.  1.
         12    1    3    3    0    0  0.54203512055E+01 -0.21066533118E+02 -0.71423519071E+01  0.22895244388E+02  0.00000000000E+00 0. -1.
</event>
<event>
 7    1  0.1899036E-009  0.4778728E+02  0.7816164E-02  0.1312668E+00
        -11   -1    0    0    0    0  0.00000000000E+00  0.00000000000E+00  0.45593999997E+02  0.45594000000E+02  0.51100000000E-03 0. -1.
         11   -1    0    0    0    0 -0.00000000000E+00 -0.00000000000E+00 -0.45593999997E+02  0.45594000000E+02  0.51100000000E-03 0.  1.
    9900012    2    1    2    0    0 -0.10073409880E+02 -0.74332239056E+01  0.41555943203E+02  0.47787276277E+02  0.20000023855E+02 0.  0.
        -12    1    1    2    0    0  0.10073409880E+02  0.74332239056E+01 -0.41555943203E+02  0.43400723723E+02  0.00000000000E+00 0.  1.
         11    1    3    3    0    0 -0.43649992121E+01  0.38399306376E+01  0.66903089497E+01  0.88633244060E+01  0.51100000000E-03 0. -1.
        -11    1    3    3    0    0  0.10005977329E+01 -0.55305536515E+01  0.42116944321E+01  0.70232890988E+01  0.51100000000E-03 0.  1.
         12    1    3    3    0    0 -0.67090084011E+01 -0.57426008917E+01  0.30653939821E+02  0.31900662772E+02  0.00000000000E+00 0. -1.
</event>
<event>
 7    1  0.1899036E-009  0.4778727E+02  0.7816164E-02  0.1312668E+00
        -11   -1    0    0    0    0  0.00000000000E+00  0.00000000000E+00  0.45593999997E+02  0.45594000000E+02  0.51100000000E-03 0. -1.
         11   -1    0    0    0    0 -0.00000000000E+00 -0.00000000000E+00 -0.45593999997E+02  0.45594000000E+02  0.51100000000E-03 0.  1.
    9900012    2    1    2    0    0  0.20869782905E+02  0.11276565198E+02  0.36344387417E+02  0.47787271228E+02  0.20000000838E+02 0.  0.
        -12    1    1    2    0    0 -0.20869782905E+02 -0.11276565198E+02 -0.36344387417E+02  0.43400728772E+02  0.00000000000E+00 0.  1.
         11    1    3    3    0    0  0.41966898402E+01  0.61306847180E+01  0.12252335381E+02  0.14328894699E+02  0.51100000000E-03 0. -1.
        -11    1    3    3    0    0  0.87218652164E+01 -0.42686207937E+01  0.15999869476E+02  0.18715979265E+02  0.51100000000E-03 0.  1.
        -12    1    3    3    0    0  0.79512278486E+01  0.94145012734E+01  0.80921825598E+01  0.14742397265E+02  0.00000000000E+00 0.  1.
</event>
<event>
 7    1  0.1899036E-009  0.4778727E+02  0.7816164E-02  0.1312668E+00
        -11   -1    0    0    0    0  0.00000000000E+00  0.00000000000E+00  0.45593999997E+02  0.45594000000E+02  0.51100000000E-03 0. -1.
         11   -1    0    0    0    0 -0.00000000000E+00 -0.00000000000E+00 -0.45593999997E+02  0.45594000000E+02  0.51100000000E-03 0.  1.
    9900012    2    1    2    0    0 -0.12827075005E+02 -0.31200098293E+01  0.41344350139E+02  0.47787267254E+02  0.19999982716E+02 0.  0.
        -12    1    1    2    0    0  0.12827075005E+02  0.31200098293E+01 -0.41344350139E+02  0.43400732746E+02  0.00000000000E+00 0.  1.
         11    1    3    3    0    0  0.17558435270E+01  0.96047003121E+00  0.13020548484E+02  0.13173464702E+02  0.51100000000E-03 0. -1.
        -11    1    3    3    0    0 -0.37157106286E+01 -0.69725288590E+01  0.72297776279E+01  0.10709451385E+02  0.51100000000E-03 0.  1.
         12    1    3    3    0    0 -0.10867207903E+02  0.28920489984E+01  0.21094024027E+02  0.23904351166E+02  0.00000000000E+00 0. -1.
</event>
<event>
 7    1  0.1899036E-009  0.4778727E+02  0.7816164E-02  0.1312668E+00
        -11   -1    0    0    0    0  0.00000000000E+00  0.00000000000E+00  0.45593999997E+02  0.45594000000E+02  0.51100000000E-03 0. -1.
         11   -1    0    0    0    0 -0.00000000000E+00 -0.00000000000E+00 -0.45593999997E+02  0.45594000000E+02  0.51100000000E-03 0.  1.
    9900012    2    1    2    0    0 -0.28043470700E+02  0.32977707419E+02  0.31077108920E+01  0.47787270715E+02  0.19999998498E+02 0.  0.
        -12    1    1    2    0    0  0.28043470700E+02 -0.32977707419E+02 -0.31077108920E+01  0.43400729285E+02  0.00000000000E+00 0.  1.
         11    1    3    3    0    0 -0.15288922240E+02  0.97963905363E+01 -0.40140019582E+01  0.18596575566E+02  0.51100000000E-03 0. -1.
        -11    1    3    3    0    0 -0.12233830803E+02  0.20906040061E+02  0.29381269025E+01  0.24400035187E+02  0.51100000000E-03 0.  1.
        -12    1    3    3    0    0 -0.52071765628E+00  0.22752768212E+01  0.41835859477E+01  0.47906599621E+01  0.00000000000E+00 0.  1.
</event>
<event>
 7    1  0.1899036E-009  0.4778727E+02  0.7816164E-02  0.1312668E+00
        -11   -1    0    0    0    0  0.00000000000E+00  0.00000000000E+00  0.45593999997E+02  0.45594000000E+02  0.51100000000E-03 0.  1.
         11   -1    0    0    0    0 -0.00000000000E+00 -0.00000000000E+00 -0.45593999997E+02  0.45594000000E+02  0.51100000000E-03 0. -1.
    9900012    2    1    2    0    0 -0.11689941571E+02  0.40654043125E+01 -0.41598571409E+02  0.47787269713E+02  0.19999993931E+02 0.  0.
        -12    1    1    2    0    0  0.11689941571E+02 -0.40654043125E+01  0.41598571409E+02  0.43400730287E+02  0.00000000000E+00 0.  1.
         11    1    3    3    0    0 -0.34035361070E+01  0.51804705515E+01 -0.11556353401E+02  0.13113757561E+02  0.51100000000E-03 0. -1.
        -11    1    3    3    0    0  0.65504125730E-01 -0.58314232044E+01 -0.44280614603E+01  0.73223982367E+01  0.51100000000E-03 0.  1.
        -12    1    3    3    0    0 -0.83519095895E+01  0.47163569654E+01 -0.25614156547E+02  0.27351113916E+02  0.00000000000E+00 0.  1.
</event>
<event>
 7    1  0.1899036E-009  0.4778727E+02  0.7816164E-02  0.1312668E+00
        -11   -1    0    0    0    0  0.00000000000E+00  0.00000000000E+00  0.45593999997E+02  0.45594000000E+02  0.51100000000E-03 0.  1.
         11   -1    0    0    0    0 -0.00000000000E+00 -0.00000000000E+00 -0.45593999997E+02  0.45594000000E+02  0.51100000000E-03 0. -1.
    9900012    2    1    2    0    0 -0.28300330310E+02  0.36995131857E+01 -0.32695995923E+02  0.47787271402E+02  0.20000001631E+02 0.  0.
        -12    1    1    2    0    0  0.28300330310E+02 -0.36995131857E+01  0.32695995923E+02  0.43400728598E+02  0.00000000000E+00 0.  1.
         11    1    3    3    0    0 -0.96998156036E+01  0.43403836753E+01 -0.73624131716E+01  0.12927895465E+02  0.51100000000E-03 0. -1.
        -11    1    3    3    0    0 -0.83668656600E+01  0.57380663079E+00 -0.22733297902E+02  0.24230900289E+02  0.51100000000E-03 0.  1.
        -12    1    3    3    0    0 -0.10233649046E+02 -0.12146771205E+01 -0.26002848488E+01  0.10628475648E+02  0.00000000000E+00 0.  1.
</event>
<event>
 7    1  0.1899036E-009  0.4778727E+02  0.7816164E-02  0.1312668E+00
        -11   -1    0    0    0    0  0.00000000000E+00  0.00000000000E+00  0.45593999997E+02  0.45594000000E+02  0.51100000000E-03 0.  1.
         11   -1    0    0    0    0 -0.00000000000E+00 -0.00000000000E+00 -0.45593999997E+02  0.45594000000E+02  0.51100000000E-03 0. -1.
    9900012    2    1    2    0    0 -0.90640631800E+01 -0.22448806221E+02 -0.36021066276E+02  0.47787270078E+02  0.19999995593E+02 0.  0.
        -12    1    1    2    0    0  0.90640631800E+01  0.22448806221E+02  0.36021066276E+02  0.43400729922E+02  0.00000000000E+00 0.  1.
         11    1    3    3    0    0 -0.46966254413E+01  0.14192019860E+00 -0.11394252189E+02  0.12325072620E+02  0.51100000000E-03 0. -1.
        -11    1    3    3    0    0 -0.53230507748E+01 -0.15573294671E+02 -0.22850923473E+02  0.28160736501E+02  0.51100000000E-03 0.  1.
        -12    1    3    3    0    0  0.95561303614E+00 -0.70174317490E+01 -0.17758906141E+01  0.73014609565E+01  0.00000000000E+00 0.  1.
</event>
<event>
 7    1  0.1899036E-009  0.4778727E+02  0.7816164E-02  0.1312668E+00
        -11   -1    0    0    0    0  0.00000000000E+00  0.00000000000E+00  0.45593999997E+02  0.45594000000E+02  0.51100000000E-03 0. -1.
         11   -1    0    0    0    0 -0.00000000000E+00 -0.00000000000E+00 -0.45593999997E+02  0.45594000000E+02  0.51100000000E-03 0.  1.
    9900012    2    1    2    0    0 -0.28400039095E+02  0.32818590134E+02 -0.34747651357E-01  0.47787270900E+02  0.19999999342E+02 0.  0.
        -12    1    1    2    0    0  0.28400039095E+02 -0.32818590134E+02  0.34747651357E-01  0.43400729100E+02  0.00000000000E+00 0.  1.
         11    1    3    3    0    0  0.64331450318E+00 -0.74183778496E+00  0.24928404942E+00  0.10130743544E+01  0.51100000000E-03 0.  1.
        -11    1    3    3    0    0 -0.25347578858E+02  0.31917856820E+02  0.39127899787E+01  0.40945808865E+02  0.51100000000E-03 0. -1.
         12    1    3    3    0    0 -0.36957747407E+01  0.16425710994E+01 -0.41968216795E+01  0.58283876810E+01  0.00000000000E+00 0. -1.
</event>
<event>
 7    1  0.1899036E-009  0.4778727E+02  0.7816164E-02  0.1312668E+00
        -11   -1    0    0    0    0  0.00000000000E+00  0.00000000000E+00  0.45593999997E+02  0.45594000000E+02  0.51100000000E-03 0.  1.
         11   -1    0    0    0    0 -0.00000000000E+00 -0.00000000000E+00 -0.45593999997E+02  0.45594000000E+02  0.51100000000E-03 0. -1.
    9900012    2    1    2    0    0 -0.27027805429E+02  0.33926865853E+02 -0.14452855337E+01  0.47787270246E+02  0.19999996359E+02 0.  0.
        -12    1    1    2    0    0  0.27027805429E+02 -0.33926865853E+02  0.14452855337E+01  0.43400729754E+02  0.00000000000E+00 0.  1.
         11    1    3    3    0    0 -0.15348916253E+01  0.98076586566E+01 -0.23867926874E+01  0.10209938306E+02  0.51100000000E-03 0. -1.
        -11    1    3    3    0    0 -0.10836253073E+02  0.20951126236E+01  0.13483393024E+01  0.11118988115E+02  0.51100000000E-03 0.  1.
        -12    1    3    3    0    0 -0.14656660731E+02  0.22024094573E+02 -0.40683214869E+00  0.26458343824E+02  0.00000000000E+00 0.  1.
</event>
<event>
 7    1  0.1899036E-009  0.4778726E+02  0.7816164E-02  0.1312668E+00
        -11   -1    0    0    0    0  0.00000000000E+00  0.00000000000E+00  0.45593999997E+02  0.45594000000E+02  0.51100000000E-03 0.  1.
         11   -1    0    0    0    0 -0.00000000000E+00 -0.00000000000E+00 -0.45593999997E+02  0.45594000000E+02  0.51100000000E-03 0. -1.
    9900012    2    1    2    0    0  0.43611873959E+01  0.37322251311E+02 -0.21717584129E+02  0.47787264306E+02  0.19999969274E+02 0.  0.
        -12    1    1    2    0    0 -0.43611873959E+01 -0.37322251311E+02  0.21717584129E+02  0.43400735694E+02  0.00000000000E+00 0.  1.
         11    1    3    3    0    0  0.12365605177E+01  0.13918563296E+02 -0.18068192524E+02  0.22841082888E+02  0.51100000000E-03 0. -1.
        -11    1    3    3    0    0  0.40117785288E+01  0.58032712093E+01 -0.10738306342E+01  0.71362060077E+01  0.51100000000E-03 0.  1.
         12    1    3    3    0    0 -0.88715165053E+00  0.17600416806E+02 -0.25755609706E+01  0.17809975410E+02  0.00000000000E+00 0. -1.
</event>
<event>
 7    1  0.1899036E-009  0.4778727E+02  0.7816164E-02  0.1312668E+00
        -11   -1    0    0    0    0  0.00000000000E+00  0.00000000000E+00  0.45593999997E+02  0.45594000000E+02  0.51100000000E-03 0. -1.
         11   -1    0    0    0    0 -0.00000000000E+00 -0.00000000000E+00 -0.45593999997E+02  0.45594000000E+02  0.51100000000E-03 0.  1.
    9900012    2    1    2    0    0  0.25362800109E+02 -0.10455669355E+02  0.33630797722E+02  0.47787271821E+02  0.20000003541E+02 0.  0.
        -12    1    1    2    0    0 -0.25362800109E+02  0.10455669355E+02 -0.33630797722E+02  0.43400728179E+02  0.00000000000E+00 0.  1.
         11    1    3    3    0    0  0.13451219940E+02 -0.54226080553E+01  0.22157108891E+02  0.26481644033E+02  0.51100000000E-03 0. -1.
        -11    1    3    3    0    0  0.13965633371E+02 -0.18263207015E+01  0.82990480454E+01  0.16347738727E+02  0.51100000000E-03 0.  1.
         12    1    3    3    0    0 -0.20540532027E+01 -0.32067405983E+01  0.31746407852E+01  0.49578890608E+01  0.00000000000E+00 0. -1.
</event>
<event>
 7    1  0.1899036E-009  0.4778727E+02  0.7816164E-02  0.1312668E+00
        -11   -1    0    0    0    0  0.00000000000E+00  0.00000000000E+00  0.45593999997E+02  0.45594000000E+02  0.51100000000E-03 0.  1.
         11   -1    0    0    0    0 -0.00000000000E+00 -0.00000000000E+00 -0.45593999997E+02  0.45594000000E+02  0.51100000000E-03 0. -1.
    9900012    2    1    2    0    0  0.33881441297E+02 -0.38442215511E+01 -0.26849454902E+02  0.47787270372E+02  0.19999996934E+02 0.  0.
        -12    1    1    2    0    0 -0.33881441297E+02  0.38442215511E+01  0.26849454902E+02  0.43400729628E+02  0.00000000000E+00 0.  1.
         11    1    3    3    0    0  0.13119766008E+02 -0.39390061534E+01 -0.85505803700E+01  0.16147955118E+02  0.51100000000E-03 0. -1.
        -11    1    3    3    0    0  0.10300653031E+02 -0.72724450248E+01 -0.62874174292E+01  0.14089837745E+02  0.51100000000E-03 0.  1.
         12    1    3    3    0    0  0.10461022258E+02  0.73672296272E+01 -0.12011457103E+02  0.17549477508E+02  0.00000000000E+00 0. -1.
</event>
<event>
 7    1  0.1899036E-009  0.4778728E+02  0.7816164E-02  0.1312668E+00
        -11   -1    0    0    0    0  0.00000000000E+00  0.00000000000E+00  0.45593999997E+02  0.45594000000E+02  0.51100000000E-03 0.  1.
         11   -1    0    0    0    0 -0.00000000000E+00 -0.00000000000E+00 -0.45593999997E+02  0.45594000000E+02  0.51100000000E-03 0. -1.
    9900012    2    1    2    0    0 -0.12296734614E+02  0.36449592658E+02 -0.20095770933E+02  0.47787280000E+02  0.20000040834E+02 0.  0.
        -12    1    1    2    0    0  0.12296734614E+02 -0.36449592658E+02  0.20095770933E+02  0.43400720000E+02  0.00000000000E+00 0.  1.
         11    1    3    3    0    0  0.36459794603E+01  0.50893154912E+01 -0.12217213176E+01  0.63786285072E+01  0.51100000000E-03 0. -1.
        -11    1    3    3    0    0 -0.75296339150E+01  0.83263561913E+01 -0.14341392929E+01  0.11317258948E+02  0.51100000000E-03 0.  1.
         12    1    3    3    0    0 -0.84130801595E+01  0.23033920975E+02 -0.17439910323E+02  0.30091392545E+02  0.00000000000E+00 0. -1.
</event>
<event>
 7    1  0.1899036E-009  0.4778727E+02  0.7816164E-02  0.1312668E+00
        -11   -1    0    0    0    0  0.00000000000E+00  0.00000000000E+00  0.45593999997E+02  0.45594000000E+02  0.51100000000E-03 0.  1.
         11   -1    0    0    0    0 -0.00000000000E+00 -0.00000000000E+00 -0.45593999997E+02  0.45594000000E+02  0.51100000000E-03 0. -1.
    9900012    2    1    2    0    0 -0.83393617155E+01 -0.26440193642E+02 -0.33391530596E+02  0.47787272942E+02  0.20000008652E+02 0.  0.
        -12    1    1    2    0    0  0.83393617155E+01  0.26440193642E+02  0.33391530596E+02  0.43400727058E+02  0.00000000000E+00 0.  1.
         11    1    3    3    0    0  0.13103014092E+00 -0.66335554383E+00  0.15631077829E+01  0.17030900380E+01  0.51100000000E-03 0.  1.
        -11    1    3    3    0    0 -0.85535686965E+01 -0.20304243534E+02 -0.18585992846E+02  0.28824728503E+02  0.51100000000E-03 0. -1.
         12    1    3    3    0    0  0.83176840096E-01 -0.54725945639E+01 -0.16368645533E+02  0.17259454401E+02  0.00000000000E+00 0. -1.
</event>
<event>
 7    1  0.1899036E-009  0.4778727E+02  0.7816164E-02  0.1312668E+00
        -11   -1    0    0    0    0  0.00000000000E+00  0.00000000000E+00  0.45593999997E+02  0.45594000000E+02  0.51100000000E-03 0.  1.
         11   -1    0    0    0    0 -0.00000000000E+00 -0.00000000000E+00 -0.45593999997E+02  0.45594000000E+02  0.51100000000E-03 0. -1.
    9900012    2    1    2    0    0  0.17149536448E+02  0.34712884335E+02 -0.19609496128E+02  0.47787271002E+02  0.19999999805E+02 0.  0.
        -12    1    1    2    0    0 -0.17149536448E+02 -0.34712884335E+02  0.19609496128E+02  0.43400728998E+02  0.00000000000E+00 0.  1.
         11    1    3    3    0    0  0.22424103243E+01  0.12116156878E+02 -0.52314924929E+01  0.13386492278E+02  0.51100000000E-03 0. -1.
        -11    1    3    3    0    0  0.13349837640E+02  0.12088567097E+02 -0.15443526700E+02  0.23724547133E+02  0.51100000000E-03 0.  1.
        -12    1    3    3    0    0  0.15572884834E+01  0.10508160360E+02  0.10655230656E+01  0.10676231590E+02  0.00000000000E+00 0.  1.
</event>
<event>
 7    1  0.1899036E-009  0.4778727E+02  0.7816164E-02  0.1312668E+00
        -11   -1    0    0    0    0  0.00000000000E+00  0.00000000000E+00  0.45593999997E+02  0.45594000000E+02  0.51100000000E-03 0.  1.
         11   -1    0    0    0    0 -0.00000000000E+00 -0.00000000000E+00 -0.45593999997E+02  0.45594000000E+02  0.51100000000E-03 0. -1.
    9900012    2    1    2    0    0  0.14950367264E+02 -0.29258895308E+02 -0.28355364769E+02  0.47787272504E+02  0.20000006656E+02 0.  0.
        -12    1    1    2    0    0 -0.14950367264E+02  0.29258895308E+02  0.28355364769E+02  0.43400727496E+02  0.00000000000E+00 0.  1.
         11    1    3    3    0    0  0.43578808349E+01 -0.39894018245E+01 -0.14140439931E+02  0.15325093605E+02  0.51100000000E-03 0. -1.
        -11    1    3    3    0    0 -0.14380518918E+01 -0.59902376846E+01 -0.12067194154E+01  0.62775084843E+01  0.51100000000E-03 0.  1.
         12    1    3    3    0    0  0.12030538321E+02 -0.19279255799E+02 -0.13008205423E+02  0.26184670416E+02  0.00000000000E+00 0. -1.
</event>
<event>
 7    1  0.1899036E-009  0.4778727E+02  0.7816164E-02  0.1312668E+00
        -11   -1    0    0    0    0  0.00000000000E+00  0.00000000000E+00  0.45593999997E+02  0.45594000000E+02  0.51100000000E-03 0.  1.
         11   -1    0    0    0    0 -0.00000000000E+00 -0.00000000000E+00 -0.45593999997E+02  0.45594000000E+02  0.51100000000E-03 0. -1.
    9900012    2    1    2    0    0 -0.32219974591E+02 -0.16441034595E+02 -0.23983102242E+02  0.47787267582E+02  0.19999984216E+02 0.  0.
        -12    1    1    2    0    0  0.32219974591E+02  0.16441034595E+02  0.23983102242E+02  0.43400732418E+02  0.00000000000E+00 0.  1.
         11    1    3    3    0    0 -0.34316215848E+01 -0.78258595866E+00 -0.86351761014E+01  0.93249522276E+01  0.51100000000E-03 0. -1.
        -11    1    3    3    0    0 -0.44660641507E+01 -0.13384109055E+01 -0.80608210550E+01  0.93120303420E+01  0.51100000000E-03 0.  1.
        -12    1    3    3    0    0 -0.24322288856E+02 -0.14320037731E+02 -0.72871050860E+01  0.29150285013E+02  0.00000000000E+00 0.  1.
</event>
<event>
 7    1  0.1899036E-009  0.4778727E+02  0.7816164E-02  0.1312668E+00
        -11   -1    0    0    0    0  0.00000000000E+00  0.00000000000E+00  0.45593999997E+02  0.45594000000E+02  0.51100000000E-03 0. -1.
         11   -1    0    0    0    0 -0.00000000000E+00 -0.00000000000E+00 -0.45593999997E+02  0.45594000000E+02  0.51100000000E-03 0.  1.
    9900012    2    1    2    0    0  0.30482616898E+02  0.16922895595E+02 -0.25846642567E+02  0.47787271201E+02  0.20000000715E+02 0.  0.
        -12    1    1    2    0    0 -0.30482616898E+02 -0.16922895595E+02  0.25846642567E+02  0.43400728799E+02  0.00000000000E+00 0.  1.
         11    1    3    3    0    0  0.43714248679E+01  0.39426966563E+01 -0.89039933267E+01  0.10674048422E+02  0.51100000000E-03 0. -1.
        -11    1    3    3    0    0  0.47247698650E+01  0.28110074111E+01  0.29019445411E+01  0.62166305442E+01  0.51100000000E-03 0.  1.
         12    1    3    3    0    0  0.21386422165E+02  0.10169191528E+02 -0.19844593782E+02  0.30896592235E+02  0.00000000000E+00 0. -1.
</event>
<event>
 7    1  0.1899036E-009  0.4778726E+02  0.7816164E-02  0.1312668E+00
        -11   -1    0    0    0    0  0.00000000000E+00  0.00000000000E+00  0.45593999997E+02  0.45594000000E+02  0.51100000000E-03 0.  1.
         11   -1    0    0    0    0 -0.00000000000E+00 -0.00000000000E+00 -0.45593999997E+02  0.45594000000E+02  0.51100000000E-03 0. -1.
    9900012    2    1    2    0    0 -0.29964413858E+02 -0.79186350481E+01 -0.30381786410E+02  0.47787264703E+02  0.19999971085E+02 0.  0.
        -12    1    1    2    0    0  0.29964413858E+02  0.79186350481E+01  0.30381786410E+02  0.43400735297E+02  0.00000000000E+00 0.  1.
         11    1    3    3    0    0 -0.12706290701E+02  0.40974207449E+00 -0.23696901009E+02  0.26891649812E+02  0.51100000000E-03 0. -1.
        -11    1    3    3    0    0 -0.11630172181E+02 -0.48710996322E+01 -0.67252060172E+01  0.14290448307E+02  0.51100000000E-03 0.  1.
        -12    1    3    3    0    0 -0.56279509760E+01 -0.34572774904E+01  0.40320616097E-01  0.66051665827E+01  0.00000000000E+00 0.  1.
</event>
<event>
 7    1  0.1899036E-009  0.4778726E+02  0.7816164E-02  0.1312668E+00
        -11   -1    0    0    0    0  0.00000000000E+00  0.00000000000E+00  0.45593999997E+02  0.45594000000E+02  0.51100000000E-03 0.  1.
         11   -1    0    0    0    0 -0.00000000000E+00 -0.00000000000E+00 -0.45593999997E+02  0.45594000000E+02  0.51100000000E-03 0. -1.
    9900012    2    1    2    0    0  0.24977961933E+02  0.23275581716E+01 -0.35416209567E+02  0.47787262570E+02  0.19999961363E+02 0.  0.
        -12    1    1    2    0    0 -0.24977961933E+02 -0.23275581716E+01  0.35416209567E+02  0.43400737430E+02  0.00000000000E+00 0.  1.
         11    1    3    3    0    0  0.42018904298E+01 -0.62149127437E+01 -0.10181315899E+02  0.12646747301E+02  0.51100000000E-03 0. -1.
        -11    1    3    3    0    0  0.49258881083E+01  0.60912317697E+01 -0.48930216048E+01  0.92362946474E+01  0.51100000000E-03 0.  1.
        -12    1    3    3    0    0  0.15850183395E+02  0.24512391456E+01 -0.20341872063E+02  0.25904220622E+02  0.00000000000E+00 0.  1.
</event>
<event>
 7    1  0.2252110E-009  0.4778727E+02  0.7816164E-02  0.1312668E+00
        -11   -1    0    0    0    0  0.00000000000E+00  0.00000000000E+00  0.45593999997E+02  0.45594000000E+02  0.51100000000E-03 0. -1.
         11   -1    0    0    0    0 -0.00000000000E+00 -0.00000000000E+00 -0.45593999997E+02  0.45594000000E+02  0.51100000000E-03 0.  1.
    9900012    2    1    2    0    0 -0.29660993543E+02  0.31666520680E+02 -0.10392407145E+01  0.47787273149E+02  0.20000009595E+02 0.  0.
        -12    1    1    2    0    0  0.29660993543E+02 -0.31666520680E+02  0.10392407145E+01  0.43400726851E+02  0.00000000000E+00 0.  1.
         11    1    3    3    0    0 -0.20202051922E+02  0.20804641736E+02  0.53542457508E+01  0.29489387370E+02  0.51100000000E-03 0. -1.
        -11    1    3    3    0    0 -0.36489377968E+01  0.10669094070E+02 -0.35145826953E+01  0.11810868178E+02  0.51100000000E-03 0.  1.
        -12    1    3    3    0    0 -0.58100038243E+01  0.19278487360E+00 -0.28789037700E+01  0.64870176016E+01  0.00000000000E+00 0.  1.
</event>
<event>
 7    1  0.1899036E-009  0.4778727E+02  0.7816164E-02  0.1312668E+00
        -11   -1    0    0    0    0  0.00000000000E+00  0.00000000000E+00  0.45593999997E+02  0.45594000000E+02  0.51100000000E-03 0. -1.
         11   -1    0    0    0    0 -0.00000000000E+00 -0.00000000000E+00 -0.45593999997E+02  0.45594000000E+02  0.51100000000E-03 0.  1.
    9900012    2    1    2    0    0 -0.14456205515E+02  0.27791013048E+02  0.30038321150E+02  0.47787273950E+02  0.20000013248E+02 0.  0.
        -12    1    1    2    0    0  0.14456205515E+02 -0.27791013048E+02 -0.30038321150E+02  0.43400726050E+02  0.00000000000E+00 0.  1.
         11    1    3    3    0    0 -0.27549248726E+01  0.35896000837E+01  0.20395296444E+01  0.49633175645E+01  0.51100000000E-03 0. -1.
        -11    1    3    3    0    0 -0.12168870531E+02  0.97977190244E+01  0.64538657891E+01  0.16903523064E+02  0.51100000000E-03 0.  1.
         12    1    3    3    0    0  0.46758988914E+00  0.14403693940E+02  0.21544925717E+02  0.25920433322E+02  0.00000000000E+00 0. -1.
</event>
<event>
 7    1  0.1899036E-009  0.4778727E+02  0.7816164E-02  0.1312668E+00
        -11   -1    0    0    0    0  0.00000000000E+00  0.00000000000E+00  0.45593999997E+02  0.45594000000E+02  0.51100000000E-03 0. -1.
         11   -1    0    0    0    0 -0.00000000000E+00 -0.00000000000E+00 -0.45593999997E+02  0.45594000000E+02  0.51100000000E-03 0.  1.
    9900012    2    1    2    0    0  0.39193863731E+02  0.87048282630E+01  0.16483031502E+02  0.47787270550E+02  0.19999997748E+02 0.  0.
        -12    1    1    2    0    0 -0.39193863731E+02 -0.87048282630E+01 -0.16483031502E+02  0.43400729450E+02  0.00000000000E+00 0.  1.
         11    1    3    3    0    0  0.24468756039E+02  0.52356673572E+00  0.56793019743E+01  0.25124661498E+02  0.51100000000E-03 0. -1.
        -11    1    3    3    0    0  0.50870609292E+01  0.52322217651E+01 -0.74342624464E+00  0.73353266007E+01  0.51100000000E-03 0.  1.
        -12    1    3    3    0    0  0.96380467632E+01  0.29490397622E+01  0.11547155772E+02  0.15327282452E+02  0.00000000000E+00 0.  1.
</event>
<event>
 7    1  0.1899036E-009  0.4778727E+02  0.7816164E-02  0.1312668E+00
        -11   -1    0    0    0    0  0.00000000000E+00  0.00000000000E+00  0.45593999997E+02  0.45594000000E+02  0.51100000000E-03 0.  1.
         11   -1    0    0    0    0 -0.00000000000E+00 -0.00000000000E+00 -0.45593999997E+02  0.45594000000E+02  0.51100000000E-03 0. -1.
    9900012    2    1    2    0    0  0.41275471695E+02  0.12834711542E+02  0.39024239139E+01  0.47787270784E+02  0.19999998814E+02 0.  0.
        -12    1    1    2    0    0 -0.41275471695E+02 -0.12834711542E+02 -0.39024239139E+01  0.43400729216E+02  0.00000000000E+00 0.  1.
         11    1    3    3    0    0  0.19422854590E+02  0.68921487897E+01  0.10713127175E+02  0.23227571752E+02  0.51100000000E-03 0. -1.
        -11    1    3    3    0    0  0.18957106305E+01  0.16972924877E+01  0.96987459447E+00  0.27230823663E+01  0.51100000000E-03 0.  1.
         12    1    3    3    0    0  0.19956906474E+02  0.42452702648E+01 -0.77805778552E+01  0.21836616666E+02  0.00000000000E+00 0. -1.
</event>
<event>
 7    1  0.1899036E-009  0.4778727E+02  0.7816164E-02  0.1312668E+00
        -11   -1    0    0    0    0  0.00000000000E+00  0.00000000000E+00  0.45593999997E+02  0.45594000000E+02  0.51100000000E-03 0.  1.
         11   -1    0    0    0    0 -0.00000000000E+00 -0.00000000000E+00 -0.45593999997E+02  0.45594000000E+02  0.51100000000E-03 0. -1.
    9900012    2    1    2    0    0  0.22199100631E+02  0.18127673424E+02 -0.32591578610E+02  0.47787267185E+02  0.19999982404E+02 0.  0.
        -12    1    1    2    0    0 -0.22199100631E+02 -0.18127673424E+02  0.32591578610E+02  0.43400732815E+02  0.00000000000E+00 0.  1.
         11    1    3    3    0    0  0.79433046087E+01  0.97823514161E+01 -0.17994192406E+02  0.21967736523E+02  0.51100000000E-03 0. -1.
        -11    1    3    3    0    0  0.36758031462E+01  0.96499684762E+01 -0.93823971379E+01  0.13952161004E+02  0.51100000000E-03 0.  1.
        -12    1    3    3    0    0  0.10579992876E+02 -0.13046464681E+01 -0.52149890661E+01  0.11867369659E+02  0.00000000000E+00 0.  1.
</event>
<event>
 7    1  0.1899036E-009  0.4778727E+02  0.7816164E-02  0.1312668E+00
        -11   -1    0    0    0    0  0.00000000000E+00  0.00000000000E+00  0.45593999997E+02  0.45594000000E+02  0.51100000000E-03 0. -1.
         11   -1    0    0    0    0 -0.00000000000E+00 -0.00000000000E+00 -0.45593999997E+02  0.45594000000E+02  0.51100000000E-03 0.  1.
    9900012    2    1    2    0    0  0.24504894439E+02 -0.28204399067E+02  0.22082695897E+02  0.47787269173E+02  0.19999991469E+02 0.  0.
        -12    1    1    2    0    0 -0.24504894439E+02  0.28204399067E+02 -0.22082695897E+02  0.43400730827E+02  0.00000000000E+00 0.  1.
         11    1    3    3    0    0  0.11355515693E+02 -0.64684979103E+01  0.28234629601E+01  0.13370158758E+02  0.51100000000E-03 0.  1.
        -11    1    3    3    0    0  0.13628182336E+02 -0.14096910453E+02  0.18083661985E+02  0.26673377535E+02  0.51100000000E-03 0. -1.
         12    1    3    3    0    0 -0.47880358935E+00 -0.76389907043E+01  0.11755709514E+01  0.77437328802E+01  0.00000000000E+00 0. -1.
</event>
<event>
 7    1  0.1899036E-009  0.4778728E+02  0.7816164E-02  0.1312668E+00
        -11   -1    0    0    0    0  0.00000000000E+00  0.00000000000E+00  0.45593999997E+02  0.45594000000E+02  0.51100000000E-03 0. -1.
         11   -1    0    0    0    0 -0.00000000000E+00 -0.00000000000E+00 -0.45593999997E+02  0.45594000000E+02  0.51100000000E-03 0.  1.
    9900012    2    1    2    0    0 -0.39779885982E+02  0.62669155925E+01  0.16183609707E+02  0.47787276701E+02  0.20000025789E+02 0.  0.
        -12    1    1    2    0    0  0.39779885982E+02 -0.62669155925E+01 -0.16183609707E+02  0.43400723299E+02  0.00000000000E+00 0.  1.
         11    1    3    3    0    0 -0.24857655704E+02 -0.21336328623E+00  0.73350390727E+01  0.25918166784E+02  0.51100000000E-03 0. -1.
        -11    1    3    3    0    0 -0.13962888605E+02  0.90229372263E+01  0.93971867815E+01  0.19096669187E+02  0.51100000000E-03 0.  1.
        -12    1    3    3    0    0 -0.95934167277E+00 -0.25426583476E+01 -0.54861614750E+00  0.27724407289E+01  0.00000000000E+00 0.  1.
</event>
<event>
 7    1  0.1899036E-009  0.4778727E+02  0.7816164E-02  0.1312668E+00
        -11   -1    0    0    0    0  0.00000000000E+00  0.00000000000E+00  0.45593999997E+02  0.45594000000E+02  0.51100000000E-03 0.  1.
         11   -1    0    0    0    0 -0.00000000000E+00 -0.00000000000E+00 -0.45593999997E+02  0.45594000000E+02  0.51100000000E-03 0. -1.
    9900012    2    1    2    0    0  0.13002261270E+01 -0.43110558578E+02 -0.48386126080E+01  0.47787273959E+02  0.20000013289E+02 0.  0.
        -12    1    1    2    0    0 -0.13002261270E+01  0.43110558578E+02  0.48386126080E+01  0.43400726041E+02  0.00000000000E+00 0.  1.
         11    1    3    3    0    0  0.40563945027E+01 -0.69934447656E+01 -0.50163489150E+01  0.95145342897E+01  0.51100000000E-03 0. -1.
        -11    1    3    3    0    0 -0.79212185945E+00  0.81608194599E+00  0.59808063348E+00  0.12849698394E+01  0.51100000000E-03 0.  1.
        -12    1    3    3    0    0 -0.19640465162E+01 -0.36933195759E+02 -0.42034432648E+00  0.36987769830E+02  0.00000000000E+00 0.  1.
</event>
<event>
 7    1  0.1899036E-009  0.4778727E+02  0.7816164E-02  0.1312668E+00
        -11   -1    0    0    0    0  0.00000000000E+00  0.00000000000E+00  0.45593999997E+02  0.45594000000E+02  0.51100000000E-03 0. -1.
         11   -1    0    0    0    0 -0.00000000000E+00 -0.00000000000E+00 -0.45593999997E+02  0.45594000000E+02  0.51100000000E-03 0.  1.
    9900012    2    1    2    0    0 -0.95507286222E+01  0.40327218540E+02 -0.12888841713E+02  0.47787271745E+02  0.20000003193E+02 0.  0.
        -12    1    1    2    0    0  0.95507286222E+01 -0.40327218540E+02  0.12888841713E+02  0.43400728255E+02  0.00000000000E+00 0.  1.
         11    1    3    3    0    0 -0.45639526445E+01  0.63234725845E+01 -0.72144200116E+00  0.78317589398E+01  0.51100000000E-03 0. -1.
        -11    1    3    3    0    0 -0.14025557431E+01  0.53465384425E+01 -0.94495254333E+01  0.10947427420E+02  0.51100000000E-03 0.  1.
        -12    1    3    3    0    0 -0.35842202347E+01  0.28657207513E+02 -0.27178742787E+01  0.29008085385E+02  0.00000000000E+00 0.  1.
</event>
<event>
 7    1  0.1986112E-009  0.4778727E+02  0.7816164E-02  0.1312668E+00
        -11   -1    0    0    0    0  0.00000000000E+00  0.00000000000E+00  0.45593999997E+02  0.45594000000E+02  0.51100000000E-03 0. -1.
         11   -1    0    0    0    0 -0.00000000000E+00 -0.00000000000E+00 -0.45593999997E+02  0.45594000000E+02  0.51100000000E-03 0.  1.
    9900012    2    1    2    0    0  0.45228926427E+01 -0.42430368918E+02  0.79265804268E+01  0.47787269112E+02  0.19999991188E+02 0.  0.
        -12    1    1    2    0    0 -0.45228926427E+01  0.42430368918E+02 -0.79265804268E+01  0.43400730888E+02  0.00000000000E+00 0.  1.
         11    1    3    3    0    0 -0.70027313595E+00 -0.32436714447E+02  0.14322917227E+01  0.32475872373E+02  0.51100000000E-03 0. -1.
        -11    1    3    3    0    0  0.52778880936E+01 -0.35382437451E+01  0.29472917164E+00  0.63609855427E+01  0.51100000000E-03 0.  1.
        -12    1    3    3    0    0 -0.54722314960E-01 -0.64554107261E+01  0.61995595325E+01  0.89504111957E+01  0.00000000000E+00 0.  1.
</event>
<event>
 7    1  0.1899036E-009  0.4778728E+02  0.7816164E-02  0.1312668E+00
        -11   -1    0    0    0    0  0.00000000000E+00  0.00000000000E+00  0.45593999997E+02  0.45594000000E+02  0.51100000000E-03 0.  1.
         11   -1    0    0    0    0 -0.00000000000E+00 -0.00000000000E+00 -0.45593999997E+02  0.45594000000E+02  0.51100000000E-03 0. -1.
    9900012    2    1    2    0    0  0.47500191509E+01  0.41558982917E+02 -0.11571992388E+02  0.47787277070E+02  0.20000027472E+02 0.  0.
        -12    1    1    2    0    0 -0.47500191509E+01 -0.41558982917E+02  0.11571992388E+02  0.43400722930E+02  0.00000000000E+00 0.  1.
         11    1    3    3    0    0 -0.19000428732E+01  0.18076021421E+02 -0.67040508611E+01  0.19372584018E+02  0.51100000000E-03 0. -1.
        -11    1    3    3    0    0  0.25616049077E+00  0.93368412950E+01 -0.83233122169E+01  0.12510785351E+02  0.51100000000E-03 0.  1.
        -12    1    3    3    0    0  0.63939015333E+01  0.14146120201E+02  0.34553706897E+01  0.15903907701E+02  0.00000000000E+00 0.  1.
</event>
<event>
 7    1  0.2709724E-009  0.4778727E+02  0.7816164E-02  0.1312668E+00
        -11   -1    0    0    0    0  0.00000000000E+00  0.00000000000E+00  0.45593999997E+02  0.45594000000E+02  0.51100000000E-03 0.  1.
         11   -1    0    0    0    0 -0.00000000000E+00 -0.00000000000E+00 -0.45593999997E+02  0.45594000000E+02  0.51100000000E-03 0. -1.
    9900012    2    1    2    0    0  0.42058017598E+02  0.10584809130E+02 -0.16456564080E+01  0.47787271739E+02  0.20000003165E+02 0.  0.
        -12    1    1    2    0    0 -0.42058017598E+02 -0.10584809130E+02  0.16456564080E+01  0.43400728261E+02  0.00000000000E+00 0.  1.
         11    1    3    3    0    0  0.27062363095E+02  0.10529109262E+02  0.95004513785E+00  0.29054022512E+02  0.51100000000E-03 0. -1.
        -11    1    3    3    0    0  0.50229271485E+01 -0.56908330587E+00  0.42637522673E+01  0.66131109628E+01  0.51100000000E-03 0.  1.
        -12    1    3    3    0    0  0.99727273551E+01  0.62478317452E+00 -0.68594538132E+01  0.12120138264E+02  0.00000000000E+00 0.  1.
</event>
<event>
 7    1  0.1899036E-009  0.4778727E+02  0.7816164E-02  0.1312668E+00
        -11   -1    0    0    0    0  0.00000000000E+00  0.00000000000E+00  0.45593999997E+02  0.45594000000E+02  0.51100000000E-03 0.  1.
         11   -1    0    0    0    0 -0.00000000000E+00 -0.00000000000E+00 -0.45593999997E+02  0.45594000000E+02  0.51100000000E-03 0. -1.
    9900012    2    1    2    0    0  0.22941279067E+01 -0.42670692077E+02 -0.75876451877E+01  0.47787270229E+02  0.19999996280E+02 0.  0.
        -12    1    1    2    0    0 -0.22941279067E+01  0.42670692077E+02  0.75876451877E+01  0.43400729771E+02  0.00000000000E+00 0.  1.
         11    1    3    3    0    0 -0.11168246025E+01 -0.87955929922E+01 -0.21215663861E+01  0.91165123523E+01  0.51100000000E-03 0. -1.
        -11    1    3    3    0    0 -0.70776283168E+01 -0.13238027882E+02 -0.64837275569E+00  0.15025265132E+02  0.51100000000E-03 0.  1.
         12    1    3    3    0    0  0.10488580826E+02 -0.20637071203E+02 -0.48177060459E+01  0.23645492745E+02  0.00000000000E+00 0. -1.
</event>
<event>
 7    1  0.2107472E-009  0.4778727E+02  0.7816164E-02  0.1312668E+00
        -11   -1    0    0    0    0  0.00000000000E+00  0.00000000000E+00  0.45593999997E+02  0.45594000000E+02  0.51100000000E-03 0.  1.
         11   -1    0    0    0    0 -0.00000000000E+00 -0.00000000000E+00 -0.45593999997E+02  0.45594000000E+02  0.51100000000E-03 0. -1.
    9900012    2    1    2    0    0 -0.82248173555E+01  0.35334570575E+02 -0.23821080677E+02  0.47787269789E+02  0.19999994274E+02 0.  0.
        -12    1    1    2    0    0  0.82248173555E+01 -0.35334570575E+02  0.23821080677E+02  0.43400730211E+02  0.00000000000E+00 0.  1.
         11    1    3    3    0    0 -0.57341229407E+01  0.13593961744E+02 -0.65061563820E+01  0.16124702568E+02  0.51100000000E-03 0. -1.
        -11    1    3    3    0    0 -0.65744302777E+00  0.13190155589E+02 -0.18612689507E+02  0.22822021092E+02  0.51100000000E-03 0.  1.
        -12    1    3    3    0    0 -0.18332513871E+01  0.85504532426E+01  0.12977652116E+01  0.88405461283E+01  0.00000000000E+00 0.  1.
</event>
<event>
 7    1  0.1899036E-009  0.4778730E+02  0.7816164E-02  0.1312668E+00
        -11   -1    0    0    0    0  0.00000000000E+00  0.00000000000E+00  0.45593999997E+02  0.45594000000E+02  0.51100000000E-03 0. -1.
         11   -1    0    0    0    0 -0.00000000000E+00 -0.00000000000E+00 -0.45593999997E+02  0.45594000000E+02  0.51100000000E-03 0.  1.
    9900012    2    1    2    0    0  0.15248731538E+02 -0.20339248059E+02  0.35176869609E+02  0.47787297464E+02  0.20000120455E+02 0.  0.
        -12    1    1    2    0    0 -0.15248731538E+02  0.20339248059E+02 -0.35176869609E+02  0.43400702536E+02  0.00000000000E+00 0.  1.
         11    1    3    3    0    0  0.12444476042E+02 -0.14107540965E+02  0.15611449148E+02  0.24445961646E+02  0.51100000000E-03 0. -1.
        -11    1    3    3    0    0  0.45152507489E+00  0.25267098980E+01  0.11471756933E+01  0.28114320434E+01  0.51100000000E-03 0.  1.
        -12    1    3    3    0    0  0.23527304212E+01 -0.87584169923E+01  0.18418244768E+02  0.20529903774E+02  0.00000000000E+00 0.  1.
</event>
<event>
 7    1  0.2149728E-009  0.4778728E+02  0.7816164E-02  0.1312668E+00
        -11   -1    0    0    0    0  0.00000000000E+00  0.00000000000E+00  0.45593999997E+02  0.45594000000E+02  0.51100000000E-03 0. -1.
         11   -1    0    0    0    0 -0.00000000000E+00 -0.00000000000E+00 -0.45593999997E+02  0.45594000000E+02  0.51100000000E-03 0.  1.
    9900012    2    1    2    0    0 -0.30666480714E+02 -0.30671127947E+02  0.15721482172E+01  0.47787276747E+02  0.20000025999E+02 0.  0.
        -12    1    1    2    0    0  0.30666480714E+02  0.30671127947E+02 -0.15721482172E+01  0.43400723253E+02  0.00000000000E+00 0.  1.
         11    1    3    3    0    0 -0.12936210108E+02 -0.16809266993E+02 -0.16058318797E+01  0.21271475856E+02  0.51100000000E-03 0. -1.
        -11    1    3    3    0    0 -0.16767704525E+02 -0.11278273544E+02  0.73602893820E+01  0.21506492723E+02  0.51100000000E-03 0.  1.
        -12    1    3    3    0    0 -0.96256608007E+00 -0.25835874094E+01 -0.41823092852E+01  0.50093081676E+01  0.00000000000E+00 0.  1.
</event>
<event>
 7    1  0.1899036E-009  0.4778729E+02  0.7816164E-02  0.1312668E+00
        -11   -1    0    0    0    0  0.00000000000E+00  0.00000000000E+00  0.45593999997E+02  0.45594000000E+02  0.51100000000E-03 0.  1.
         11   -1    0    0    0    0 -0.00000000000E+00 -0.00000000000E+00 -0.45593999997E+02  0.45594000000E+02  0.51100000000E-03 0. -1.
    9900012    2    1    2    0    0  0.76638210453E+01 -0.40153607948E+02 -0.14579958365E+02  0.47787290672E+02  0.20000089489E+02 0.  0.
        -12    1    1    2    0    0 -0.76638210453E+01  0.40153607948E+02  0.14579958365E+02  0.43400709328E+02  0.00000000000E+00 0.  1.
         11    1    3    3    0    0  0.40994371639E+01 -0.21327740285E+02 -0.11774997288E+02  0.24704826494E+02  0.51100000000E-03 0. -1.
        -11    1    3    3    0    0 -0.30799348270E+01 -0.14224116700E+02 -0.82465540704E-01  0.14553978675E+02  0.51100000000E-03 0.  1.
        -12    1    3    3    0    0  0.66443187084E+01 -0.46017509628E+01 -0.27224955364E+01  0.85284855026E+01  0.00000000000E+00 0.  1.
</event>
<event>
 7    1  0.1899036E-009  0.4778728E+02  0.7816164E-02  0.1312668E+00
        -11   -1    0    0    0    0  0.00000000000E+00  0.00000000000E+00  0.45593999997E+02  0.45594000000E+02  0.51100000000E-03 0.  1.
         11   -1    0    0    0    0 -0.00000000000E+00 -0.00000000000E+00 -0.45593999997E+02  0.45594000000E+02  0.51100000000E-03 0. -1.
    9900012    2    1    2    0    0 -0.52220131143E+01 -0.20800489850E+01 -0.43035181576E+02  0.47787275605E+02  0.20000020792E+02 0.  0.
        -12    1    1    2    0    0  0.52220131143E+01  0.20800489850E+01  0.43035181576E+02  0.43400724395E+02  0.00000000000E+00 0.  1.
         11    1    3    3    0    0 -0.73205384028E+01 -0.12366674198E+01 -0.36519207053E+02  0.37266232877E+02  0.51100000000E-03 0. -1.
        -11    1    3    3    0    0 -0.14395187563E+01  0.24174540202E+01 -0.56756498706E+00  0.28702662708E+01  0.51100000000E-03 0.  1.
        -12    1    3    3    0    0  0.35380440448E+01 -0.32608355855E+01 -0.59484095360E+01  0.76507764565E+01  0.00000000000E+00 0.  1.
</event>
<event>
 7    1  0.1899036E-009  0.4778727E+02  0.7816164E-02  0.1312668E+00
        -11   -1    0    0    0    0  0.00000000000E+00  0.00000000000E+00  0.45593999997E+02  0.45594000000E+02  0.51100000000E-03 0.  1.
         11   -1    0    0    0    0 -0.00000000000E+00 -0.00000000000E+00 -0.45593999997E+02  0.45594000000E+02  0.51100000000E-03 0. -1.
    9900012    2    1    2    0    0  0.31123548044E+01 -0.36126968147E+02  0.23849081306E+02  0.47787271215E+02  0.20000000776E+02 0.  0.
        -12    1    1    2    0    0 -0.31123548044E+01  0.36126968147E+02 -0.23849081306E+02  0.43400728785E+02  0.00000000000E+00 0.  1.
         11    1    3    3    0    0  0.22411530585E+01 -0.19193996775E+01 -0.13486902558E+01  0.32443532207E+01  0.51100000000E-03 0. -1.
        -11    1    3    3    0    0  0.27083442428E+00  0.10593508626E+01 -0.15547135069E+00  0.11044216303E+01  0.51100000000E-03 0.  1.
        -12    1    3    3    0    0  0.60036732160E+00 -0.35266919333E+02  0.25353242913E+02  0.43438496364E+02  0.00000000000E+00 0.  1.
</event>
<event>
 7    1  0.1899036E-009  0.4778727E+02  0.7816164E-02  0.1312668E+00
        -11   -1    0    0    0    0  0.00000000000E+00  0.00000000000E+00  0.45593999997E+02  0.45594000000E+02  0.51100000000E-03 0.  1.
         11   -1    0    0    0    0 -0.00000000000E+00 -0.00000000000E+00 -0.45593999997E+02  0.45594000000E+02  0.51100000000E-03 0. -1.
    9900012    2    1    2    0    0 -0.22427489087E+02  0.22748529981E+02 -0.29379168005E+02  0.47787269641E+02  0.19999993602E+02 0.  0.
        -12    1    1    2    0    0  0.22427489087E+02 -0.22748529981E+02  0.29379168005E+02  0.43400730359E+02  0.00000000000E+00 0.  1.
         11    1    3    3    0    0 -0.92130488456E+01  0.12567783668E+01 -0.86332905634E+01  0.12688320106E+02  0.51100000000E-03 0. -1.
        -11    1    3    3    0    0 -0.58288184022E+01  0.88049709156E+00 -0.73866455428E+01  0.94505519272E+01  0.51100000000E-03 0.  1.
        -12    1    3    3    0    0 -0.73856218390E+01  0.20611254523E+02 -0.13359231899E+02  0.25648397608E+02  0.00000000000E+00 0.  1.
</event>
<event>
 7    1  0.1899036E-009  0.4778727E+02  0.7816164E-02  0.1312668E+00
        -11   -1    0    0    0    0  0.00000000000E+00  0.00000000000E+00  0.45593999997E+02  0.45594000000E+02  0.51100000000E-03 0.  1.
         11   -1    0    0    0    0 -0.00000000000E+00 -0.00000000000E+00 -0.45593999997E+02  0.45594000000E+02  0.51100000000E-03 0. -1.
    9900012    2    1    2    0    0 -0.28588287636E+02 -0.11877300241E+02 -0.30418129189E+02  0.47787273804E+02  0.20000012582E+02 0.  0.
        -12    1    1    2    0    0  0.28588287636E+02  0.11877300241E+02  0.30418129189E+02  0.43400726196E+02  0.00000000000E+00 0.  1.
         11    1    3    3    0    0 -0.10978412712E+01 -0.45275183992E+01 -0.16126504496E+01  0.49299411808E+01  0.51100000000E-03 0. -1.
        -11    1    3    3    0    0 -0.54884230882E+01 -0.36958276601E+01 -0.24671169685E+00  0.66213893565E+01  0.51100000000E-03 0.  1.
         12    1    3    3    0    0 -0.22002023276E+02 -0.36539541822E+01 -0.28558767043E+02  0.36235943267E+02  0.00000000000E+00 0. -1.
</event>
<event>
 7    1  0.1899036E-009  0.4778727E+02  0.7816164E-02  0.1312668E+00
        -11   -1    0    0    0    0  0.00000000000E+00  0.00000000000E+00  0.45593999997E+02  0.45594000000E+02  0.51100000000E-03 0. -1.
         11   -1    0    0    0    0 -0.00000000000E+00 -0.00000000000E+00 -0.45593999997E+02  0.45594000000E+02  0.51100000000E-03 0.  1.
    9900012    2    1    2    0    0  0.28367380085E+02  0.27503402342E+00  0.32845697137E+02  0.47787265939E+02  0.19999976723E+02 0.  0.
        -12    1    1    2    0    0 -0.28367380085E+02 -0.27503402342E+00 -0.32845697137E+02  0.43400734061E+02  0.00000000000E+00 0.  1.
         11    1    3    3    0    0  0.47464891672E+01  0.46766017281E+01  0.55440366415E+01  0.86681085412E+01  0.51100000000E-03 0. -1.
        -11    1    3    3    0    0  0.13210655935E+01 -0.55089257552E+01  0.61920681741E+01  0.83925672957E+01  0.51100000000E-03 0.  1.
         12    1    3    3    0    0  0.22299825324E+02  0.11073580505E+01  0.21109592321E+02  0.30726590102E+02  0.00000000000E+00 0. -1.
</event>
<event>
 7    1  0.1899036E-009  0.4778727E+02  0.7816164E-02  0.1312668E+00
        -11   -1    0    0    0    0  0.00000000000E+00  0.00000000000E+00  0.45593999997E+02  0.45594000000E+02  0.51100000000E-03 0. -1.
         11   -1    0    0    0    0 -0.00000000000E+00 -0.00000000000E+00 -0.45593999997E+02  0.45594000000E+02  0.51100000000E-03 0.  1.
    9900012    2    1    2    0    0  0.20807267799E+02  0.28518000630E+02  0.25246879146E+02  0.47787266599E+02  0.19999979730E+02 0.  0.
        -12    1    1    2    0    0 -0.20807267799E+02 -0.28518000630E+02 -0.25246879146E+02  0.43400733401E+02  0.00000000000E+00 0.  1.
         11    1    3    3    0    0  0.65144028809E+01  0.21071324654E+02  0.18558038030E+02  0.28824276979E+02  0.51100000000E-03 0. -1.
        -11    1    3    3    0    0  0.11844339712E+01  0.60797569355E+00 -0.15452307494E+01  0.20396707102E+01  0.51100000000E-03 0.  1.
         12    1    3    3    0    0  0.13108430947E+02  0.68387002823E+01  0.82340718645E+01  0.16923318909E+02  0.00000000000E+00 0. -1.
</event>
<event>
 7    1  0.1899036E-009  0.4778727E+02  0.7816164E-02  0.1312668E+00
        -11   -1    0    0    0    0  0.00000000000E+00  0.00000000000E+00  0.45593999997E+02  0.45594000000E+02  0.51100000000E-03 0.  1.
         11   -1    0    0    0    0 -0.00000000000E+00 -0.00000000000E+00 -0.45593999997E+02  0.45594000000E+02  0.51100000000E-03 0. -1.
    9900012    2    1    2    0    0 -0.36713227672E+02 -0.88508317438E+01 -0.21387495151E+02  0.47787271233E+02  0.20000000861E+02 0.  0.
        -12    1    1    2    0    0  0.36713227672E+02  0.88508317438E+01  0.21387495151E+02  0.43400728767E+02  0.00000000000E+00 0.  1.
         11    1    3    3    0    0 -0.42399721915E+01  0.45843879556E+01 -0.54223585138E+00  0.62680138075E+01  0.51100000000E-03 0.  1.
        -11    1    3    3    0    0 -0.18788308974E+02 -0.46562316238E+01 -0.86837029895E+01  0.21215271502E+02  0.51100000000E-03 0. -1.
        -12    1    3    3    0    0 -0.13684946507E+02 -0.87789880755E+01 -0.12161556310E+02  0.20303985924E+02  0.00000000000E+00 0.  1.
</event>
<event>
 7    1  0.1899036E-009  0.4778727E+02  0.7816164E-02  0.1312668E+00
        -11   -1    0    0    0    0  0.00000000000E+00  0.00000000000E+00  0.45593999997E+02  0.45594000000E+02  0.51100000000E-03 0.  1.
         11   -1    0    0    0    0 -0.00000000000E+00 -0.00000000000E+00 -0.45593999997E+02  0.45594000000E+02  0.51100000000E-03 0. -1.
    9900012    2    1    2    0    0  0.17909595537E+02  0.13505565992E+02 -0.37154664254E+02  0.47787274189E+02  0.20000014338E+02 0.  0.
        -12    1    1    2    0    0 -0.17909595537E+02 -0.13505565992E+02  0.37154664254E+02  0.43400725811E+02  0.00000000000E+00 0.  1.
         11    1    3    3    0    0  0.16281200061E+01  0.10311386925E+02 -0.89255301208E+01  0.13734648276E+02  0.51100000000E-03 0. -1.
        -11    1    3    3    0    0  0.46168164295E+00 -0.21945803923E+01 -0.45134817453E+01  0.50399256705E+01  0.51100000000E-03 0.  1.
         12    1    3    3    0    0  0.15819793888E+02  0.53887594598E+01 -0.23715652388E+02  0.29012700243E+02  0.00000000000E+00 0. -1.
</event>
<event>
 7    1  0.1899036E-009  0.4778727E+02  0.7816164E-02  0.1312668E+00
        -11   -1    0    0    0    0  0.00000000000E+00  0.00000000000E+00  0.45593999997E+02  0.45594000000E+02  0.51100000000E-03 0. -1.
         11   -1    0    0    0    0 -0.00000000000E+00 -0.00000000000E+00 -0.45593999997E+02  0.45594000000E+02  0.51100000000E-03 0.  1.
    9900012    2    1    2    0    0 -0.15766827376E+02  0.39915217703E+02  0.64657280863E+01  0.47787273169E+02  0.20000009688E+02 0.  0.
        -12    1    1    2    0    0  0.15766827376E+02 -0.39915217703E+02 -0.64657280863E+01  0.43400726831E+02  0.00000000000E+00 0.  1.
         11    1    3    3    0    0 -0.85232014498E+00  0.24187177003E+02  0.53325939367E+01  0.24782706457E+02  0.51100000000E-03 0. -1.
        -11    1    3    3    0    0 -0.93814750420E+01  0.14119027062E+02 -0.67559465497E+00  0.16965123859E+02  0.51100000000E-03 0.  1.
        -12    1    3    3    0    0 -0.55330321889E+01  0.16090136377E+01  0.18087288046E+01  0.60394428533E+01  0.00000000000E+00 0.  1.
</event>
<event>
 7    1  0.1899036E-009  0.4778727E+02  0.7816164E-02  0.1312668E+00
        -11   -1    0    0    0    0  0.00000000000E+00  0.00000000000E+00  0.45593999997E+02  0.45594000000E+02  0.51100000000E-03 0.  1.
         11   -1    0    0    0    0 -0.00000000000E+00 -0.00000000000E+00 -0.45593999997E+02  0.45594000000E+02  0.51100000000E-03 0. -1.
    9900012    2    1    2    0    0 -0.22003825268E+02  0.37241991262E+02  0.35339914779E+01  0.47787270337E+02  0.19999996773E+02 0.  0.
        -12    1    1    2    0    0  0.22003825268E+02 -0.37241991262E+02 -0.35339914779E+01  0.43400729663E+02  0.00000000000E+00 0.  1.
         11    1    3    3    0    0 -0.48488907680E+01  0.33505778731E+01  0.38862053984E+01  0.70597950695E+01  0.51100000000E-03 0. -1.
        -11    1    3    3    0    0 -0.60786547415E+01  0.18101390708E+01  0.21471459852E+01  0.66960348763E+01  0.51100000000E-03 0.  1.
         12    1    3    3    0    0 -0.11076279758E+02  0.32081274318E+02 -0.24993599057E+01  0.34031440391E+02  0.00000000000E+00 0. -1.
</event>
<event>
 7    1  0.1899036E-009  0.4778727E+02  0.7816164E-02  0.1312668E+00
        -11   -1    0    0    0    0  0.00000000000E+00  0.00000000000E+00  0.45593999997E+02  0.45594000000E+02  0.51100000000E-03 0.  1.
         11   -1    0    0    0    0 -0.00000000000E+00 -0.00000000000E+00 -0.45593999997E+02  0.45594000000E+02  0.51100000000E-03 0. -1.
    9900012    2    1    2    0    0 -0.15888627784E+02 -0.29255674765E+00 -0.40386749586E+02  0.47787267005E+02  0.19999981585E+02 0.  0.
        -12    1    1    2    0    0  0.15888627784E+02  0.29255674765E+00  0.40386749586E+02  0.43400732995E+02  0.00000000000E+00 0.  1.
         11    1    3    3    0    0 -0.24174448239E+01  0.63511653986E+01 -0.10872100188E+02  0.12821228653E+02  0.51100000000E-03 0. -1.
        -11    1    3    3    0    0 -0.13950094865E+01 -0.46404596090E+01 -0.28396142877E+01  0.56163445776E+01  0.51100000000E-03 0.  1.
         12    1    3    3    0    0 -0.12076173474E+02 -0.20032625372E+01 -0.26675035110E+02  0.29349693775E+02  0.00000000000E+00 0. -1.
</event>
<event>
 7    1  0.1899036E-009  0.4778727E+02  0.7816164E-02  0.1312668E+00
        -11   -1    0    0    0    0  0.00000000000E+00  0.00000000000E+00  0.45593999997E+02  0.45594000000E+02  0.51100000000E-03 0. -1.
         11   -1    0    0    0    0 -0.00000000000E+00 -0.00000000000E+00 -0.45593999997E+02  0.45594000000E+02  0.51100000000E-03 0.  1.
    9900012    2    1    2    0    0  0.36839539833E+02  0.22936721843E+02 -0.61506935119E+00  0.47787271731E+02  0.20000003128E+02 0.  0.
        -12    1    1    2    0    0 -0.36839539833E+02 -0.22936721843E+02  0.61506935119E+00  0.43400728269E+02  0.00000000000E+00 0.  1.
         11    1    3    3    0    0  0.16224459434E+02  0.32319364370E+01 -0.13328255483E+01  0.16596834676E+02  0.51100000000E-03 0. -1.
        -11    1    3    3    0    0  0.14086702948E+02  0.90742235040E+01 -0.49728176153E+01  0.17478719845E+02  0.51100000000E-03 0.  1.
        -12    1    3    3    0    0  0.65283774505E+01  0.10630561902E+02  0.56905738124E+01  0.13711717209E+02  0.00000000000E+00 0.  1.
</event>
<event>
 7    1  0.1899036E-009  0.4778727E+02  0.7816164E-02  0.1312668E+00
        -11   -1    0    0    0    0  0.00000000000E+00  0.00000000000E+00  0.45593999997E+02  0.45594000000E+02  0.51100000000E-03 0. -1.
         11   -1    0    0    0    0 -0.00000000000E+00 -0.00000000000E+00 -0.45593999997E+02  0.45594000000E+02  0.51100000000E-03 0.  1.
    9900012    2    1    2    0    0  0.20358292929E+02 -0.37867800285E+02  0.59323357090E+01  0.47787274241E+02  0.20000014575E+02 0.  0.
        -12    1    1    2    0    0 -0.20358292929E+02  0.37867800285E+02 -0.59323357090E+01  0.43400725759E+02  0.00000000000E+00 0.  1.
         11    1    3    3    0    0  0.38546274046E+01 -0.69399539859E+00  0.16280820538E+01  0.42415131117E+01  0.51100000000E-03 0. -1.
        -11    1    3    3    0    0  0.16680461804E+02 -0.37718632352E+02  0.60725246358E+01  0.41687031415E+02  0.51100000000E-03 0.  1.
        -12    1    3    3    0    0 -0.17679628005E+00  0.54482746472E+00 -0.17682709806E+01  0.18587297146E+01  0.00000000000E+00 0.  1.
</event>
<event>
 7    1  0.1899036E-009  0.4778727E+02  0.7816164E-02  0.1312668E+00
        -11   -1    0    0    0    0  0.00000000000E+00  0.00000000000E+00  0.45593999997E+02  0.45594000000E+02  0.51100000000E-03 0. -1.
         11   -1    0    0    0    0 -0.00000000000E+00 -0.00000000000E+00 -0.45593999997E+02  0.45594000000E+02  0.51100000000E-03 0.  1.
    9900012    2    1    2    0    0 -0.12462594416E+02  0.14268989040E+02  0.39047444634E+02  0.47787271432E+02  0.20000001766E+02 0.  0.
        -12    1    1    2    0    0  0.12462594416E+02 -0.14268989040E+02 -0.39047444634E+02  0.43400728568E+02  0.00000000000E+00 0.  1.
         11    1    3    3    0    0 -0.65287654675E+01  0.83123802610E+01  0.12852809657E+02  0.16640768025E+02  0.51100000000E-03 0. -1.
        -11    1    3    3    0    0 -0.56722660047E+01  0.10625249803E+02  0.20518027500E+02  0.23792015210E+02  0.51100000000E-03 0.  1.
        -12    1    3    3    0    0 -0.26156294398E+00 -0.46686410237E+01  0.56766074772E+01  0.73544881965E+01  0.00000000000E+00 0.  1.
</event>
<event>
 7    1  0.2597207E-009  0.4778727E+02  0.7816164E-02  0.1312668E+00
        -11   -1    0    0    0    0  0.00000000000E+00  0.00000000000E+00  0.45593999997E+02  0.45594000000E+02  0.51100000000E-03 0. -1.
         11   -1    0    0    0    0 -0.00000000000E+00 -0.00000000000E+00 -0.45593999997E+02  0.45594000000E+02  0.51100000000E-03 0.  1.
    9900012    2    1    2    0    0 -0.31670315653E+02 -0.20934030542E+02 -0.21032851006E+02  0.47787270170E+02  0.19999996013E+02 0.  0.
        -12    1    1    2    0    0  0.31670315653E+02  0.20934030542E+02  0.21032851006E+02  0.43400729830E+02  0.00000000000E+00 0.  1.
         11    1    3    3    0    0 -0.19216148379E+02 -0.51941995607E+01 -0.12746490370E+02  0.23637112443E+02  0.51100000000E-03 0.  1.
        -11    1    3    3    0    0 -0.13980833544E+02 -0.13725295276E+02 -0.54187805494E+01  0.20327582736E+02  0.51100000000E-03 0. -1.
        -12    1    3    3    0    0  0.15266662700E+01 -0.20145357057E+01 -0.28675800866E+01  0.38225749911E+01  0.00000000000E+00 0.  1.
</event>
<event>
 7    1  0.1899036E-009  0.4778727E+02  0.7816164E-02  0.1312668E+00
        -11   -1    0    0    0    0  0.00000000000E+00  0.00000000000E+00  0.45593999997E+02  0.45594000000E+02  0.51100000000E-03 0. -1.
         11   -1    0    0    0    0 -0.00000000000E+00 -0.00000000000E+00 -0.45593999997E+02  0.45594000000E+02  0.51100000000E-03 0.  1.
    9900012    2    1    2    0    0 -0.31302699254E+02 -0.10870613165E+02  0.28028452507E+02  0.47787270039E+02  0.19999995418E+02 0.  0.
        -12    1    1    2    0    0  0.31302699254E+02  0.10870613165E+02 -0.28028452507E+02  0.43400729961E+02  0.00000000000E+00 0.  1.
         11    1    3    3    0    0 -0.17663070258E+01 -0.18247476486E+01  0.10463847200E+02  0.10767620117E+02  0.51100000000E-03 0. -1.
        -11    1    3    3    0    0 -0.70707692203E+01 -0.41979808896E+01  0.21902779417E+00  0.82259828806E+01  0.51100000000E-03 0.  1.
         12    1    3    3    0    0 -0.22465623008E+02 -0.48478846269E+01  0.17345577513E+02  0.28793667042E+02  0.00000000000E+00 0. -1.
</event>
<event>
 7    1  0.1899036E-009  0.4778727E+02  0.7816164E-02  0.1312668E+00
        -11   -1    0    0    0    0  0.00000000000E+00  0.00000000000E+00  0.45593999997E+02  0.45594000000E+02  0.51100000000E-03 0. -1.
         11   -1    0    0    0    0 -0.00000000000E+00 -0.00000000000E+00 -0.45593999997E+02  0.45594000000E+02  0.51100000000E-03 0.  1.
    9900012    2    1    2    0    0  0.13551696779E+01 -0.42460014737E+02  0.88844861735E+01  0.47787269236E+02  0.19999991754E+02 0.  0.
        -12    1    1    2    0    0 -0.13551696779E+01  0.42460014737E+02 -0.88844861735E+01  0.43400730764E+02  0.00000000000E+00 0.  1.
         11    1    3    3    0    0  0.22477910747E+01 -0.20938129729E+02  0.96959905234E+01  0.23183400824E+02  0.51100000000E-03 0. -1.
        -11    1    3    3    0    0 -0.54459522572E+01 -0.17211767475E+02  0.99152230147E+00  0.18080001447E+02  0.51100000000E-03 0.  1.
         12    1    3    3    0    0  0.45533308605E+01 -0.43101175330E+01 -0.18030266514E+01  0.65238669651E+01  0.00000000000E+00 0. -1.
</event>
<event>
 7    1 -0.1899036E-009  0.4778727E+02  0.7816164E-02  0.1312668E+00
        -11   -1    0    0    0    0  0.00000000000E+00  0.00000000000E+00  0.45593999997E+02  0.45594000000E+02  0.51100000000E-03 0. -1.
         11   -1    0    0    0    0 -0.00000000000E+00 -0.00000000000E+00 -0.45593999997E+02  0.45594000000E+02  0.51100000000E-03 0.  1.
    9900012    2    1    2    0    0 -0.16320923462E+02 -0.24163420479E+00  0.40214331076E+02  0.47787270125E+02  0.19999995809E+02 0.  0.
        -12    1    1    2    0    0  0.16320923462E+02  0.24163420479E+00 -0.40214331076E+02  0.43400729875E+02  0.00000000000E+00 0.  1.
         11    1    3    3    0    0 -0.40959352412E+01  0.13470216363E+01  0.20013012786E+02  0.20472221028E+02  0.51100000000E-03 0. -1.
        -11    1    3    3    0    0  0.17865478413E+01 -0.96325850161E+00 -0.69744247974E+00  0.21461701712E+01  0.51100000000E-03 0.  1.
        -12    1    3    3    0    0 -0.14011536062E+02 -0.62539733943E+00  0.20898760770E+02  0.25168878926E+02  0.00000000000E+00 0.  1.
</event>
<event>
 7    1  0.1899036E-009  0.4778727E+02  0.7816164E-02  0.1312668E+00
        -11   -1    0    0    0    0  0.00000000000E+00  0.00000000000E+00  0.45593999997E+02  0.45594000000E+02  0.51100000000E-03 0. -1.
         11   -1    0    0    0    0 -0.00000000000E+00 -0.00000000000E+00 -0.45593999997E+02  0.45594000000E+02  0.51100000000E-03 0.  1.
    9900012    2    1    2    0    0 -0.30479598800E+02 -0.22846727324E+02  0.20800104830E+02  0.47787271281E+02  0.20000001078E+02 0.  0.
        -12    1    1    2    0    0  0.30479598800E+02  0.22846727324E+02 -0.20800104830E+02  0.43400728719E+02  0.00000000000E+00 0.  1.
         11    1    3    3    0    0 -0.26487393184E+01 -0.14180564360E+01  0.56439988944E+01  0.63938586013E+01  0.51100000000E-03 0. -1.
        -11    1    3    3    0    0 -0.39161805123E+01  0.21719921780E+00  0.71554435534E+01  0.81599030638E+01  0.51100000000E-03 0.  1.
         12    1    3    3    0    0 -0.23914678969E+02 -0.21645870106E+02  0.80006623825E+01  0.33233509616E+02  0.00000000000E+00 0. -1.
</event>
<event>
 7    1  0.1899036E-009  0.4778728E+02  0.7816164E-02  0.1312668E+00
        -11   -1    0    0    0    0  0.00000000000E+00  0.00000000000E+00  0.45593999997E+02  0.45594000000E+02  0.51100000000E-03 0. -1.
         11   -1    0    0    0    0 -0.00000000000E+00 -0.00000000000E+00 -0.45593999997E+02  0.45594000000E+02  0.51100000000E-03 0.  1.
    9900012    2    1    2    0    0  0.39129024576E+02  0.18048276996E+02 -0.51770636612E+01  0.47787275871E+02  0.20000022006E+02 0.  0.
        -12    1    1    2    0    0 -0.39129024576E+02 -0.18048276996E+02  0.51770636612E+01  0.43400724129E+02  0.00000000000E+00 0.  1.
         11    1    3    3    0    0  0.13483351900E+02  0.74139069125E+01  0.12319375073E+01  0.15436465413E+02  0.51100000000E-03 0. -1.
        -11    1    3    3    0    0  0.17225315542E+02 -0.11067473044E+01 -0.34097497829E+01  0.17594396237E+02  0.51100000000E-03 0.  1.
        -12    1    3    3    0    0  0.84203571341E+01  0.11741117388E+02 -0.29992513855E+01  0.14756414221E+02  0.00000000000E+00 0.  1.
</event>
<event>
 7    1  0.1899036E-009  0.4778728E+02  0.7816164E-02  0.1312668E+00
        -11   -1    0    0    0    0  0.00000000000E+00  0.00000000000E+00  0.45593999997E+02  0.45594000000E+02  0.51100000000E-03 0.  1.
         11   -1    0    0    0    0 -0.00000000000E+00 -0.00000000000E+00 -0.45593999997E+02  0.45594000000E+02  0.51100000000E-03 0. -1.
    9900012    2    1    2    0    0 -0.25119998054E+02 -0.33794158197E+02  0.10514877422E+02  0.47787284825E+02  0.20000062830E+02 0.  0.
        -12    1    1    2    0    0  0.25119998054E+02  0.33794158197E+02 -0.10514877422E+02  0.43400715175E+02  0.00000000000E+00 0.  1.
         11    1    3    3    0    0 -0.23464950699E+01  0.15925856152E+01 -0.20755981775E+00  0.28434924642E+01  0.51100000000E-03 0. -1.
        -11    1    3    3    0    0 -0.37685007931E+01 -0.13441317607E+02  0.71791594476E+01  0.15697482215E+02  0.51100000000E-03 0.  1.
         12    1    3    3    0    0 -0.19005002191E+02 -0.21945426206E+02  0.35432777923E+01  0.29246310146E+02  0.00000000000E+00 0. -1.
</event>
<event>
 7    1  0.1899036E-009  0.4778725E+02  0.7816164E-02  0.1312668E+00
        -11   -1    0    0    0    0  0.00000000000E+00  0.00000000000E+00  0.45593999997E+02  0.45594000000E+02  0.51100000000E-03 0. -1.
         11   -1    0    0    0    0 -0.00000000000E+00 -0.00000000000E+00 -0.45593999997E+02  0.45594000000E+02  0.51100000000E-03 0.  1.
    9900012    2    1    2    0    0  0.24675462210E+02 -0.11075406724E+02  0.33942329287E+02  0.47787253615E+02  0.19999920530E+02 0.  0.
        -12    1    1    2    0    0 -0.24675462210E+02  0.11075406724E+02 -0.33942329287E+02  0.43400746385E+02  0.00000000000E+00 0.  1.
         11    1    3    3    0    0  0.15401416988E+02 -0.19269262612E+01  0.98137323930E+01  0.18363715142E+02  0.51100000000E-03 0. -1.
        -11    1    3    3    0    0  0.93357607192E+01 -0.54540468974E+01  0.96875735153E+01  0.14517304731E+02  0.51100000000E-03 0.  1.
         12    1    3    3    0    0 -0.61715496855E-01 -0.36944335657E+01  0.14441023378E+02  0.14906233742E+02  0.00000000000E+00 0. -1.
</event>
<event>
 7    1  0.1899036E-009  0.4778727E+02  0.7816164E-02  0.1312668E+00
        -11   -1    0    0    0    0  0.00000000000E+00  0.00000000000E+00  0.45593999997E+02  0.45594000000E+02  0.51100000000E-03 0. -1.
         11   -1    0    0    0    0 -0.00000000000E+00 -0.00000000000E+00 -0.45593999997E+02  0.45594000000E+02  0.51100000000E-03 0.  1.
    9900012    2    1    2    0    0  0.17410309694E+02 -0.82014656603E+01  0.38900391326E+02  0.47787269961E+02  0.19999995059E+02 0.  0.
        -12    1    1    2    0    0 -0.17410309694E+02  0.82014656603E+01 -0.38900391326E+02  0.43400730039E+02  0.00000000000E+00 0.  1.
         11    1    3    3    0    0  0.77269845125E+01 -0.33272207408E+01  0.19816267411E+02  0.21528147664E+02  0.51100000000E-03 0. -1.
        -11    1    3    3    0    0  0.73026138433E+01  0.26885289288E+01  0.30244174214E+01  0.83488596674E+01  0.51100000000E-03 0.  1.
        -12    1    3    3    0    0  0.23807113383E+01 -0.75627738483E+01  0.16059706494E+02  0.17910262629E+02  0.00000000000E+00 0.  1.
</event>
<event>
 7    1  0.1899036E-009  0.4778727E+02  0.7816164E-02  0.1312668E+00
        -11   -1    0    0    0    0  0.00000000000E+00  0.00000000000E+00  0.45593999997E+02  0.45594000000E+02  0.51100000000E-03 0. -1.
         11   -1    0    0    0    0 -0.00000000000E+00 -0.00000000000E+00 -0.45593999997E+02  0.45594000000E+02  0.51100000000E-03 0.  1.
    9900012    2    1    2    0    0  0.36717266835E+02 -0.15116031000E+02  0.17520592919E+02  0.47787271282E+02  0.20000001083E+02 0.  0.
        -12    1    1    2    0    0 -0.36717266835E+02  0.15116031000E+02 -0.17520592919E+02  0.43400728718E+02  0.00000000000E+00 0.  1.
         11    1    3    3    0    0  0.11757520170E+02  0.90876137124E-01  0.10681750420E+02  0.15885444008E+02  0.51100000000E-03 0. -1.
        -11    1    3    3    0    0  0.21549947795E+02 -0.10840589176E+02  0.92818782074E+01  0.25847086624E+02  0.51100000000E-03 0.  1.
        -12    1    3    3    0    0  0.34097988698E+01 -0.43663179612E+01 -0.24430357079E+01  0.60547406502E+01  0.00000000000E+00 0.  1.
</event>
<event>
 7    1  0.1899036E-009  0.4778727E+02  0.7816164E-02  0.1312668E+00
        -11   -1    0    0    0    0  0.00000000000E+00  0.00000000000E+00  0.45593999997E+02  0.45594000000E+02  0.51100000000E-03 0.  1.
         11   -1    0    0    0    0 -0.00000000000E+00 -0.00000000000E+00 -0.45593999997E+02  0.45594000000E+02  0.51100000000E-03 0. -1.
    9900012    2    1    2    0    0 -0.27042470203E+02 -0.33226686989E+02 -0.69509371078E+01  0.47787269019E+02  0.19999990767E+02 0.  0.
        -12    1    1    2    0    0  0.27042470203E+02  0.33226686989E+02  0.69509371078E+01  0.43400730981E+02  0.00000000000E+00 0.  1.
         11    1    3    3    0    0  0.20016100224E+00 -0.18844635946E+01  0.30058295080E+01  0.35533475425E+01  0.51100000000E-03 0. -1.
        -11    1    3    3    0    0 -0.14077394311E+02 -0.23772064578E+02 -0.39763787447E+01  0.27912285342E+02  0.51100000000E-03 0.  1.
         12    1    3    3    0    0 -0.13165236895E+02 -0.75701588173E+01 -0.59803878711E+01  0.16321636134E+02  0.00000000000E+00 0. -1.
</event>
<event>
 7    1  0.1899036E-009  0.4778727E+02  0.7816164E-02  0.1312668E+00
        -11   -1    0    0    0    0  0.00000000000E+00  0.00000000000E+00  0.45593999997E+02  0.45594000000E+02  0.51100000000E-03 0.  1.
         11   -1    0    0    0    0 -0.00000000000E+00 -0.00000000000E+00 -0.45593999997E+02  0.45594000000E+02  0.51100000000E-03 0. -1.
    9900012    2    1    2    0    0  0.97095211142E+01 -0.34585195738E+02 -0.24355957605E+02  0.47787271488E+02  0.20000002023E+02 0.  0.
        -12    1    1    2    0    0 -0.97095211142E+01  0.34585195738E+02  0.24355957605E+02  0.43400728512E+02  0.00000000000E+00 0.  1.
         11    1    3    3    0    0  0.44522042011E+01 -0.20276836507E+02 -0.20573097849E+02  0.29227120562E+02  0.51100000000E-03 0. -1.
        -11    1    3    3    0    0 -0.29544728851E+01 -0.43221964479E+01 -0.87205710095E+00  0.53076149080E+01  0.51100000000E-03 0.  1.
         12    1    3    3    0    0  0.82117897982E+01 -0.99861627827E+01 -0.29108026554E+01  0.13252536018E+02  0.00000000000E+00 0. -1.
</event>
<event>
 7    1  0.1899036E-009  0.4778727E+02  0.7816164E-02  0.1312668E+00
        -11   -1    0    0    0    0  0.00000000000E+00  0.00000000000E+00  0.45593999997E+02  0.45594000000E+02  0.51100000000E-03 0. -1.
         11   -1    0    0    0    0 -0.00000000000E+00 -0.00000000000E+00 -0.45593999997E+02  0.45594000000E+02  0.51100000000E-03 0.  1.
    9900012    2    1    2    0    0 -0.66067035347E+01 -0.23895116564E+02 -0.35623000752E+02  0.47787270630E+02  0.19999998113E+02 0.  0.
        -12    1    1    2    0    0  0.66067035347E+01  0.23895116564E+02  0.35623000752E+02  0.43400729370E+02  0.00000000000E+00 0.  1.
         11    1    3    3    0    0 -0.45657555397E+00 -0.11636328627E+02 -0.97749480684E+01  0.15204019704E+02  0.51100000000E-03 0. -1.
        -11    1    3    3    0    0 -0.31002395625E+01 -0.11763815521E+02 -0.82100002377E+01  0.14676612182E+02  0.51100000000E-03 0.  1.
        -12    1    3    3    0    0 -0.30498884183E+01 -0.49497241594E+00 -0.17638052446E+02  0.17906638745E+02  0.00000000000E+00 0.  1.
</event>
<event>
 7    1  0.1899036E-009  0.4778727E+02  0.7816164E-02  0.1312668E+00
        -11   -1    0    0    0    0  0.00000000000E+00  0.00000000000E+00  0.45593999997E+02  0.45594000000E+02  0.51100000000E-03 0. -1.
         11   -1    0    0    0    0 -0.00000000000E+00 -0.00000000000E+00 -0.45593999997E+02  0.45594000000E+02  0.51100000000E-03 0.  1.
    9900012    2    1    2    0    0 -0.22453206272E+01  0.28897945507E+02  0.32303105133E+02  0.47787270508E+02  0.19999997553E+02 0.  0.
        -12    1    1    2    0    0  0.22453206272E+01 -0.28897945507E+02 -0.32303105133E+02  0.43400729492E+02  0.00000000000E+00 0.  1.
         11    1    3    3    0    0 -0.31470739191E+01  0.93973967931E+01  0.13816148855E+02  0.17002973569E+02  0.51100000000E-03 0. -1.
        -11    1    3    3    0    0 -0.61573297298E+01  0.38765441843E+01  0.73357987841E+01  0.10332194746E+02  0.51100000000E-03 0.  1.
         12    1    3    3    0    0  0.70590830217E+01  0.15624004529E+02  0.11151157494E+02  0.20452102192E+02  0.00000000000E+00 0. -1.
</event>
<event>
 7    1  0.1899036E-009  0.4778727E+02  0.7816164E-02  0.1312668E+00
        -11   -1    0    0    0    0  0.00000000000E+00  0.00000000000E+00  0.45593999997E+02  0.45594000000E+02  0.51100000000E-03 0.  1.
         11   -1    0    0    0    0 -0.00000000000E+00 -0.00000000000E+00 -0.45593999997E+02  0.45594000000E+02  0.51100000000E-03 0. -1.
    9900012    2    1    2    0    0  0.33007377691E+01 -0.42871927695E+02 -0.58928935864E+01  0.47787271332E+02  0.20000001312E+02 0.  0.
        -12    1    1    2    0    0 -0.33007377691E+01  0.42871927695E+02  0.58928935864E+01  0.43400728668E+02  0.00000000000E+00 0.  1.
         11    1    3    3    0    0 -0.28802054290E+00 -0.20530724807E+02  0.35517331443E+01  0.20837668428E+02  0.51100000000E-03 0. -1.
        -11    1    3    3    0    0  0.64470591353E+01 -0.80184724207E+01 -0.17337312857E+01  0.10433901278E+02  0.51100000000E-03 0.  1.
        -12    1    3    3    0    0 -0.28583008233E+01 -0.14322730467E+02 -0.77108954449E+01  0.16515701626E+02  0.00000000000E+00 0.  1.
</event>
<event>
 7    1  0.1899036E-009  0.4778728E+02  0.7816164E-02  0.1312668E+00
        -11   -1    0    0    0    0  0.00000000000E+00  0.00000000000E+00  0.45593999997E+02  0.45594000000E+02  0.51100000000E-03 0.  1.
         11   -1    0    0    0    0 -0.00000000000E+00 -0.00000000000E+00 -0.45593999997E+02  0.45594000000E+02  0.51100000000E-03 0. -1.
    9900012    2    1    2    0    0 -0.27629772897E+02 -0.33266292727E+02 -0.36839762559E+01  0.47787282688E+02  0.20000053088E+02 0.  0.
        -12    1    1    2    0    0  0.27629772897E+02  0.33266292727E+02  0.36839762559E+01  0.43400717312E+02  0.00000000000E+00 0.  1.
         11    1    3    3    0    0 -0.92509868646E+00 -0.56390158015E+01  0.18523451395E+01  0.60071199061E+01  0.51100000000E-03 0. -1.
        -11    1    3    3    0    0  0.59600758902E+00 -0.15468986673E+01  0.26698883526E+01  0.31426779360E+01  0.51100000000E-03 0.  1.
         12    1    3    3    0    0 -0.27300681799E+02 -0.26080378258E+02 -0.82062097479E+01  0.38637484846E+02  0.00000000000E+00 0. -1.
</event>
<event>
 7    1  0.1899036E-009  0.4778728E+02  0.7816164E-02  0.1312668E+00
        -11   -1    0    0    0    0  0.00000000000E+00  0.00000000000E+00  0.45593999997E+02  0.45594000000E+02  0.51100000000E-03 0.  1.
         11   -1    0    0    0    0 -0.00000000000E+00 -0.00000000000E+00 -0.45593999997E+02  0.45594000000E+02  0.51100000000E-03 0. -1.
    9900012    2    1    2    0    0 -0.26756039176E+02 -0.13321072559E+02 -0.31468805934E+02  0.47787281649E+02  0.20000048351E+02 0.  0.
        -12    1    1    2    0    0  0.26756039176E+02  0.13321072559E+02  0.31468805934E+02  0.43400718351E+02  0.00000000000E+00 0.  1.
         11    1    3    3    0    0 -0.87656796160E+01 -0.41402355641E+01 -0.18933561034E+01  0.98774231079E+01  0.51100000000E-03 0. -1.
        -11    1    3    3    0    0 -0.17462581036E+02 -0.33978809172E+01 -0.20585876021E+02  0.27207822826E+02  0.51100000000E-03 0.  1.
        -12    1    3    3    0    0 -0.52777852415E+00 -0.57829560772E+01 -0.89895738096E+01  0.10702035715E+02  0.00000000000E+00 0.  1.
</event>
<event>
 7    1  0.1899036E-009  0.4778727E+02  0.7816164E-02  0.1312668E+00
        -11   -1    0    0    0    0  0.00000000000E+00  0.00000000000E+00  0.45593999997E+02  0.45594000000E+02  0.51100000000E-03 0.  1.
         11   -1    0    0    0    0 -0.00000000000E+00 -0.00000000000E+00 -0.45593999997E+02  0.45594000000E+02  0.51100000000E-03 0. -1.
    9900012    2    1    2    0    0 -0.34453464380E+02  0.14038633724E+01 -0.26355484918E+02  0.47787266995E+02  0.19999981536E+02 0.  0.
        -12    1    1    2    0    0  0.34453464380E+02 -0.14038633724E+01  0.26355484918E+02  0.43400733005E+02  0.00000000000E+00 0.  1.
         11    1    3    3    0    0  0.10527319240E+01  0.15971019523E+01 -0.12006947539E+01  0.22584612689E+01  0.51100000000E-03 0. -1.
        -11    1    3    3    0    0 -0.15872541275E+02 -0.57737806747E+01 -0.15599017729E+02  0.22991378040E+02  0.51100000000E-03 0.  1.
        -12    1    3    3    0    0 -0.19633655029E+02  0.55805420947E+01 -0.95557724349E+01  0.22537427686E+02  0.00000000000E+00 0.  1.
</event>
<event>
 7    1  0.1899036E-009  0.4778727E+02  0.7816164E-02  0.1312668E+00
        -11   -1    0    0    0    0  0.00000000000E+00  0.00000000000E+00  0.45593999997E+02  0.45594000000E+02  0.51100000000E-03 0. -1.
         11   -1    0    0    0    0 -0.00000000000E+00 -0.00000000000E+00 -0.45593999997E+02  0.45594000000E+02  0.51100000000E-03 0.  1.
    9900012    2    1    2    0    0 -0.10970657611E+02 -0.41868971260E+02 -0.32026898024E+01  0.47787270689E+02  0.19999998377E+02 0.  0.
        -12    1    1    2    0    0  0.10970657611E+02  0.41868971260E+02  0.32026898024E+01  0.43400729311E+02  0.00000000000E+00 0.  1.
         11    1    3    3    0    0 -0.23554589837E+01 -0.14964212540E+02  0.28559586490E+01  0.15415328216E+02  0.51100000000E-03 0. -1.
        -11    1    3    3    0    0  0.99275066628E+00 -0.50086041539E+01 -0.67340981736E+01  0.84510205259E+01  0.51100000000E-03 0.  1.
        -12    1    3    3    0    0 -0.96079492936E+01 -0.21896154567E+02  0.67544972216E+00  0.23920921946E+02  0.00000000000E+00 0.  1.
</event>
<event>
 7    1  0.2248879E-009  0.4778727E+02  0.7816164E-02  0.1312668E+00
        -11   -1    0    0    0    0  0.00000000000E+00  0.00000000000E+00  0.45593999997E+02  0.45594000000E+02  0.51100000000E-03 0.  1.
         11   -1    0    0    0    0 -0.00000000000E+00 -0.00000000000E+00 -0.45593999997E+02  0.45594000000E+02  0.51100000000E-03 0. -1.
    9900012    2    1    2    0    0 -0.33877551729E+02  0.18594827414E+02 -0.19752654179E+02  0.47787268845E+02  0.19999989971E+02 0.  0.
        -12    1    1    2    0    0  0.33877551729E+02 -0.18594827414E+02  0.19752654179E+02  0.43400731155E+02  0.00000000000E+00 0.  1.
         11    1    3    3    0    0 -0.23256894038E+02  0.95687585854E+01 -0.12618401644E+02  0.28136601100E+02  0.51100000000E-03 0. -1.
        -11    1    3    3    0    0 -0.67382267929E+01  0.99231011418E+01 -0.92425917353E+01  0.15142560511E+02  0.51100000000E-03 0.  1.
        -12    1    3    3    0    0 -0.38824308982E+01 -0.89703231341E+00  0.21083392002E+01  0.45081072340E+01  0.00000000000E+00 0.  1.
</event>
<event>
 7    1  0.1899036E-009  0.4778727E+02  0.7816164E-02  0.1312668E+00
        -11   -1    0    0    0    0  0.00000000000E+00  0.00000000000E+00  0.45593999997E+02  0.45594000000E+02  0.51100000000E-03 0. -1.
         11   -1    0    0    0    0 -0.00000000000E+00 -0.00000000000E+00 -0.45593999997E+02  0.45594000000E+02  0.51100000000E-03 0.  1.
    9900012    2    1    2    0    0  0.43288418726E+02  0.28293898909E+01 -0.13154413717E+01  0.47787273866E+02  0.20000012864E+02 0.  0.
        -12    1    1    2    0    0 -0.43288418726E+02 -0.28293898909E+01  0.13154413717E+01  0.43400726134E+02  0.00000000000E+00 0.  1.
         11    1    3    3    0    0  0.76710186412E+01 -0.24033038766E+00 -0.38651042626E+01  0.85930970500E+01  0.51100000000E-03 0. -1.
        -11    1    3    3    0    0 -0.43100196015E-01  0.96098929937E+00 -0.29024608524E+01  0.30577176654E+01  0.51100000000E-03 0.  1.
         12    1    3    3    0    0  0.35660500281E+02  0.21087309792E+01  0.54521237434E+01  0.36136459151E+02  0.00000000000E+00 0. -1.
</event>
<event>
 7    1  0.1899036E-009  0.4778727E+02  0.7816164E-02  0.1312668E+00
        -11   -1    0    0    0    0  0.00000000000E+00  0.00000000000E+00  0.45593999997E+02  0.45594000000E+02  0.51100000000E-03 0.  1.
         11   -1    0    0    0    0 -0.00000000000E+00 -0.00000000000E+00 -0.45593999997E+02  0.45594000000E+02  0.51100000000E-03 0. -1.
    9900012    2    1    2    0    0  0.35227602054E+02 -0.15816946553E+02 -0.19810689187E+02  0.47787272462E+02  0.20000006463E+02 0.  0.
        -12    1    1    2    0    0 -0.35227602054E+02  0.15816946553E+02  0.19810689187E+02  0.43400727538E+02  0.00000000000E+00 0.  1.
         11    1    3    3    0    0  0.13740132401E+02 -0.14412542084E+02 -0.61677825079E+01  0.20845962415E+02  0.51100000000E-03 0. -1.
        -11    1    3    3    0    0  0.80312136904E+01 -0.16399899613E+01 -0.10132053982E+02  0.13032592933E+02  0.51100000000E-03 0.  1.
        -12    1    3    3    0    0  0.13456255963E+02  0.23558549204E+00 -0.35108526975E+01  0.13908717113E+02  0.00000000000E+00 0.  1.
</event>
<event>
 7    1  0.1899036E-009  0.4778728E+02  0.7816164E-02  0.1312668E+00
        -11   -1    0    0    0    0  0.00000000000E+00  0.00000000000E+00  0.45593999997E+02  0.45594000000E+02  0.51100000000E-03 0.  1.
         11   -1    0    0    0    0 -0.00000000000E+00 -0.00000000000E+00 -0.45593999997E+02  0.45594000000E+02  0.51100000000E-03 0. -1.
    9900012    2    1    2    0    0 -0.20581320155E+02  0.10807373603E+02 -0.36650141385E+02  0.47787275040E+02  0.20000018218E+02 0.  0.
        -12    1    1    2    0    0  0.20581320155E+02 -0.10807373603E+02  0.36650141385E+02  0.43400724960E+02  0.00000000000E+00 0.  1.
         11    1    3    3    0    0 -0.15515185305E+01  0.22101758123E+01 -0.10290959614E+02  0.10639357918E+02  0.51100000000E-03 0. -1.
        -11    1    3    3    0    0  0.13529008262E+01 -0.23772870210E+01 -0.47436376019E+01  0.54757585945E+01  0.51100000000E-03 0.  1.
        -12    1    3    3    0    0 -0.20382702450E+02  0.10974484812E+02 -0.21615544169E+02  0.31672158528E+02  0.00000000000E+00 0.  1.
</event>
<event>
 7    1  0.1899036E-009  0.4778726E+02  0.7816164E-02  0.1312668E+00
        -11   -1    0    0    0    0  0.00000000000E+00  0.00000000000E+00  0.45593999997E+02  0.45594000000E+02  0.51100000000E-03 0.  1.
         11   -1    0    0    0    0 -0.00000000000E+00 -0.00000000000E+00 -0.45593999997E+02  0.45594000000E+02  0.51100000000E-03 0. -1.
    9900012    2    1    2    0    0  0.41440336052E+02  0.11467258076E+02 -0.59012418403E+01  0.47787261353E+02  0.19999955811E+02 0.  0.
        -12    1    1    2    0    0 -0.41440336052E+02 -0.11467258076E+02  0.59012418403E+01  0.43400738647E+02  0.00000000000E+00 0.  1.
         11    1    3    3    0    0 -0.19665711606E+01 -0.43758832084E+00  0.30212048161E+00  0.20371948151E+01  0.51100000000E-03 0. -1.
        -11    1    3    3    0    0  0.16355682803E+02  0.45769051621E+01  0.26934777048E+00  0.16986140506E+02  0.51100000000E-03 0.  1.
         12    1    3    3    0    0  0.27051224410E+02  0.73279412344E+01 -0.64727100923E+01  0.28763926032E+02  0.00000000000E+00 0. -1.
</event>
<event>
 7    1  0.1899036E-009  0.4778727E+02  0.7816164E-02  0.1312668E+00
        -11   -1    0    0    0    0  0.00000000000E+00  0.00000000000E+00  0.45593999997E+02  0.45594000000E+02  0.51100000000E-03 0. -1.
         11   -1    0    0    0    0 -0.00000000000E+00 -0.00000000000E+00 -0.45593999997E+02  0.45594000000E+02  0.51100000000E-03 0.  1.
    9900012    2    1    2    0    0  0.29191336422E+02  0.23193999045E+02  0.22215478242E+02  0.47787272042E+02  0.20000004547E+02 0.  0.
        -12    1    1    2    0    0 -0.29191336422E+02 -0.23193999045E+02 -0.22215478242E+02  0.43400727958E+02  0.00000000000E+00 0.  1.
         11    1    3    3    0    0  0.18329574583E+02  0.45725170138E+01  0.15766046749E+02  0.24605882358E+02  0.51100000000E-03 0. -1.
        -11    1    3    3    0    0  0.86874294816E+01  0.95543156273E+01  0.31651849185E+01  0.13295667487E+02  0.51100000000E-03 0.  1.
         12    1    3    3    0    0  0.21743323567E+01  0.90671664036E+01  0.32842465751E+01  0.98857221969E+01  0.00000000000E+00 0. -1.
</event>
<event>
 7    1  0.2109777E-009  0.4778727E+02  0.7816164E-02  0.1312668E+00
        -11   -1    0    0    0    0  0.00000000000E+00  0.00000000000E+00  0.45593999997E+02  0.45594000000E+02  0.51100000000E-03 0.  1.
         11   -1    0    0    0    0 -0.00000000000E+00 -0.00000000000E+00 -0.45593999997E+02  0.45594000000E+02  0.51100000000E-03 0. -1.
    9900012    2    1    2    0    0  0.33844103264E+02  0.45559604757E+01 -0.26785130932E+02  0.47787270275E+02  0.19999996492E+02 0.  0.
        -12    1    1    2    0    0 -0.33844103264E+02 -0.45559604757E+01  0.26785130932E+02  0.43400729725E+02  0.00000000000E+00 0.  1.
         11    1    3    3    0    0  0.14525212514E+02  0.79905696730E+00 -0.12543853701E+02  0.19208554255E+02  0.51100000000E-03 0. -1.
        -11    1    3    3    0    0 -0.34620452510E+00 -0.36290788349E+01 -0.11313316941E+01  0.38170646348E+01  0.51100000000E-03 0.  1.
        -12    1    3    3    0    0  0.19665095275E+02  0.73859823433E+01 -0.13109945537E+02  0.24761651385E+02  0.00000000000E+00 0.  1.
</event>
<event>
 7    1  0.1899036E-009  0.4778727E+02  0.7816164E-02  0.1312668E+00
        -11   -1    0    0    0    0  0.00000000000E+00  0.00000000000E+00  0.45593999997E+02  0.45594000000E+02  0.51100000000E-03 0.  1.
         11   -1    0    0    0    0 -0.00000000000E+00 -0.00000000000E+00 -0.45593999997E+02  0.45594000000E+02  0.51100000000E-03 0. -1.
    9900012    2    1    2    0    0 -0.25584751498E+01 -0.36123061667E+02 -0.23920740216E+02  0.47787271991E+02  0.20000004314E+02 0.  0.
        -12    1    1    2    0    0  0.25584751498E+01  0.36123061667E+02  0.23920740216E+02  0.43400728009E+02  0.00000000000E+00 0.  1.
         11    1    3    3    0    0  0.43320502783E+00  0.85249546939E+00  0.20255479627E+01  0.22399240906E+01  0.51100000000E-03 0.  1.
        -11    1    3    3    0    0  0.12495662246E+01 -0.14777404090E+02 -0.10637219206E+02  0.18250575884E+02  0.51100000000E-03 0. -1.
        -12    1    3    3    0    0 -0.42412464021E+01 -0.22198153046E+02 -0.15309068973E+02  0.27296772016E+02  0.00000000000E+00 0.  1.
</event>
<event>
 7    1  0.1899036E-009  0.4778727E+02  0.7816164E-02  0.1312668E+00
        -11   -1    0    0    0    0  0.00000000000E+00  0.00000000000E+00  0.45593999997E+02  0.45594000000E+02  0.51100000000E-03 0. -1.
         11   -1    0    0    0    0 -0.00000000000E+00 -0.00000000000E+00 -0.45593999997E+02  0.45594000000E+02  0.51100000000E-03 0.  1.
    9900012    2    1    2    0    0 -0.14497316145E+02  0.34962702731E+02 -0.21238183510E+02  0.47787271936E+02  0.20000004064E+02 0.  0.
        -12    1    1    2    0    0  0.14497316145E+02 -0.34962702731E+02  0.21238183510E+02  0.43400728064E+02  0.00000000000E+00 0.  1.
         11    1    3    3    0    0  0.38364045823E+01  0.96255794593E+01 -0.27314735319E+01  0.10715910039E+02  0.51100000000E-03 0. -1.
        -11    1    3    3    0    0 -0.69230740692E+01  0.48347778707E+01 -0.30694241047E+01  0.89847312827E+01  0.51100000000E-03 0.  1.
        -12    1    3    3    0    0 -0.11410646658E+02  0.20502345401E+02 -0.15437285874E+02  0.28086630614E+02  0.00000000000E+00 0.  1.
</event>
<event>
 7    1  0.1899036E-009  0.4778727E+02  0.7816164E-02  0.1312668E+00
        -11   -1    0    0    0    0  0.00000000000E+00  0.00000000000E+00  0.45593999997E+02  0.45594000000E+02  0.51100000000E-03 0.  1.
         11   -1    0    0    0    0 -0.00000000000E+00 -0.00000000000E+00 -0.45593999997E+02  0.45594000000E+02  0.51100000000E-03 0. -1.
    9900012    2    1    2    0    0 -0.25580227848E+02  0.26508722320E+02  0.22946952400E+02  0.47787273736E+02  0.20000012271E+02 0.  0.
        -12    1    1    2    0    0  0.25580227848E+02 -0.26508722320E+02 -0.22946952400E+02  0.43400726264E+02  0.00000000000E+00 0.  1.
         11    1    3    3    0    0 -0.88800203315E+01  0.79171210530E+01  0.86877899407E+01  0.14731369969E+02  0.51100000000E-03 0. -1.
        -11    1    3    3    0    0 -0.52245513348E+01  0.14512525742E+02  0.14066614811E+02  0.20875320178E+02  0.51100000000E-03 0.  1.
         12    1    3    3    0    0 -0.11475656182E+02  0.40790755252E+01  0.19254764856E+00  0.12180583588E+02  0.00000000000E+00 0. -1.
</event>
<event>
 7    1  0.1899036E-009  0.4778727E+02  0.7816164E-02  0.1312668E+00
        -11   -1    0    0    0    0  0.00000000000E+00  0.00000000000E+00  0.45593999997E+02  0.45594000000E+02  0.51100000000E-03 0. -1.
         11   -1    0    0    0    0 -0.00000000000E+00 -0.00000000000E+00 -0.45593999997E+02  0.45594000000E+02  0.51100000000E-03 0.  1.
    9900012    2    1    2    0    0 -0.31465341017E+02 -0.59937228729E+01  0.29285337749E+02  0.47787269520E+02  0.19999993047E+02 0.  0.
        -12    1    1    2    0    0  0.31465341017E+02  0.59937228729E+01 -0.29285337749E+02  0.43400730480E+02  0.00000000000E+00 0.  1.
         11    1    3    3    0    0 -0.51138847012E+01 -0.42334980700E+01  0.83568762218E+00  0.66912402968E+01  0.51100000000E-03 0.  1.
        -11    1    3    3    0    0 -0.50305463334E+01 -0.18987520757E+01  0.14882751559E+02  0.15824283556E+02  0.51100000000E-03 0. -1.
         12    1    3    3    0    0 -0.21320909982E+02  0.13852727284E+00  0.13566898568E+02  0.25271745666E+02  0.00000000000E+00 0. -1.
</event>
<event>
 7    1  0.1899036E-009  0.4778726E+02  0.7816164E-02  0.1312668E+00
        -11   -1    0    0    0    0  0.00000000000E+00  0.00000000000E+00  0.45593999997E+02  0.45594000000E+02  0.51100000000E-03 0.  1.
         11   -1    0    0    0    0 -0.00000000000E+00 -0.00000000000E+00 -0.45593999997E+02  0.45594000000E+02  0.51100000000E-03 0. -1.
    9900012    2    1    2    0    0  0.35231047158E+02  0.73623939340E+01 -0.24252675854E+02  0.47787264818E+02  0.19999971610E+02 0.  0.
        -12    1    1    2    0    0 -0.35231047158E+02 -0.73623939340E+01  0.24252675854E+02  0.43400735182E+02  0.00000000000E+00 0.  1.
         11    1    3    3    0    0  0.13876948503E+02 -0.46762853874E+00 -0.52119960294E+01  0.14830821929E+02  0.51100000000E-03 0. -1.
        -11    1    3    3    0    0  0.19028072880E+02  0.41223700300E+01 -0.79440765920E+01  0.21027835014E+02  0.51100000000E-03 0.  1.
        -12    1    3    3    0    0  0.23260257745E+01  0.37076524428E+01 -0.11096603232E+02  0.11928607875E+02  0.00000000000E+00 0.  1.
</event>
<event>
 7    1  0.1899036E-009  0.4778727E+02  0.7816164E-02  0.1312668E+00
        -11   -1    0    0    0    0  0.00000000000E+00  0.00000000000E+00  0.45593999997E+02  0.45594000000E+02  0.51100000000E-03 0.  1.
         11   -1    0    0    0    0 -0.00000000000E+00 -0.00000000000E+00 -0.45593999997E+02  0.45594000000E+02  0.51100000000E-03 0. -1.
    9900012    2    1    2    0    0  0.82866784139E+01  0.34732175639E+02 -0.24670427767E+02  0.47787273394E+02  0.20000010713E+02 0.  0.
        -12    1    1    2    0    0 -0.82866784139E+01 -0.34732175639E+02  0.24670427767E+02  0.43400726606E+02  0.00000000000E+00 0.  1.
         11    1    3    3    0    0 -0.57619514490E+01  0.79721301163E+01 -0.37127151504E+01  0.10513762273E+02  0.51100000000E-03 0. -1.
        -11    1    3    3    0    0  0.56803150568E+01  0.52506808153E+01 -0.56380709281E+01  0.95720150554E+01  0.51100000000E-03 0.  1.
         12    1    3    3    0    0  0.83683148060E+01  0.21509364707E+02 -0.15319641688E+02  0.27701496065E+02  0.00000000000E+00 0. -1.
</event>
<event>
 7    1  0.1899036E-009  0.4778727E+02  0.7816164E-02  0.1312668E+00
        -11   -1    0    0    0    0  0.00000000000E+00  0.00000000000E+00  0.45593999997E+02  0.45594000000E+02  0.51100000000E-03 0.  1.
         11   -1    0    0    0    0 -0.00000000000E+00 -0.00000000000E+00 -0.45593999997E+02  0.45594000000E+02  0.51100000000E-03 0. -1.
    9900012    2    1    2    0    0 -0.37684768746E+02  0.20006051245E+02 -0.79523103939E+01  0.47787272789E+02  0.20000007955E+02 0.  0.
        -12    1    1    2    0    0  0.37684768746E+02 -0.20006051245E+02  0.79523103939E+01  0.43400727211E+02  0.00000000000E+00 0.  1.
         11    1    3    3    0    0 -0.14671406125E+02  0.94506919852E+01 -0.47711019488E+00  0.17458332426E+02  0.51100000000E-03 0. -1.
        -11    1    3    3    0    0 -0.17162397524E+02 -0.17592604882E+00 -0.46989225048E+01  0.17794906904E+02  0.51100000000E-03 0.  1.
         12    1    3    3    0    0 -0.58509650967E+01  0.10731285308E+02 -0.27762776943E+01  0.12534033460E+02  0.00000000000E+00 0. -1.
</event>
<event>
 7    1  0.1899036E-009  0.4778725E+02  0.7816164E-02  0.1312668E+00
        -11   -1    0    0    0    0  0.00000000000E+00  0.00000000000E+00  0.45593999997E+02  0.45594000000E+02  0.51100000000E-03 0.  1.
         11   -1    0    0    0    0 -0.00000000000E+00 -0.00000000000E+00 -0.45593999997E+02  0.45594000000E+02  0.51100000000E-03 0. -1.
    9900012    2    1    2    0    0 -0.28083592877E+02  0.31928006306E+00 -0.33088287757E+02  0.47787252134E+02  0.19999913781E+02 0.  0.
        -12    1    1    2    0    0  0.28083592877E+02 -0.31928006306E+00  0.33088287757E+02  0.43400747866E+02  0.00000000000E+00 0.  1.
         11    1    3    3    0    0 -0.26929193963E+01  0.97644464187E+00 -0.42630101972E+01  0.51360018708E+01  0.51100000000E-03 0. -1.
        -11    1    3    3    0    0 -0.42710008190E+01 -0.72365296293E+01 -0.37163661890E+01  0.91880458741E+01  0.51100000000E-03 0.  1.
        -12    1    3    3    0    0 -0.21119672662E+02  0.65793650505E+01 -0.25108911370E+02  0.33463204389E+02  0.00000000000E+00 0.  1.
</event>
<event>
 7    1  0.1899036E-009  0.4778727E+02  0.7816164E-02  0.1312668E+00
        -11   -1    0    0    0    0  0.00000000000E+00  0.00000000000E+00  0.45593999997E+02  0.45594000000E+02  0.51100000000E-03 0. -1.
         11   -1    0    0    0    0 -0.00000000000E+00 -0.00000000000E+00 -0.45593999997E+02  0.45594000000E+02  0.51100000000E-03 0.  1.
    9900012    2    1    2    0    0 -0.16740107807E+02  0.35809392794E+02 -0.17918693991E+02  0.47787269407E+02  0.19999992533E+02 0.  0.
        -12    1    1    2    0    0  0.16740107807E+02 -0.35809392794E+02  0.17918693991E+02  0.43400730593E+02  0.00000000000E+00 0.  1.
         11    1    3    3    0    0  0.42830409148E+00  0.44564196531E+01  0.72912200643E+00  0.45359386769E+01  0.51100000000E-03 0. -1.
        -11    1    3    3    0    0 -0.12301870310E+02  0.31003837443E+02 -0.18950894121E+02  0.38362877076E+02  0.51100000000E-03 0.  1.
         12    1    3    3    0    0 -0.48665415891E+01  0.34913569802E+00  0.30307812343E+00  0.48884536536E+01  0.00000000000E+00 0. -1.
</event>
<event>
 7    1  0.1899036E-009  0.4778728E+02  0.7816164E-02  0.1312668E+00
        -11   -1    0    0    0    0  0.00000000000E+00  0.00000000000E+00  0.45593999997E+02  0.45594000000E+02  0.51100000000E-03 0.  1.
         11   -1    0    0    0    0 -0.00000000000E+00 -0.00000000000E+00 -0.45593999997E+02  0.45594000000E+02  0.51100000000E-03 0. -1.
    9900012    2    1    2    0    0  0.27897786945E+02 -0.24559515730E+01 -0.33155757317E+02  0.47787280446E+02  0.20000042866E+02 0.  0.
        -12    1    1    2    0    0 -0.27897786945E+02  0.24559515730E+01  0.33155757317E+02  0.43400719554E+02  0.00000000000E+00 0.  1.
         11    1    3    3    0    0  0.20921407462E+02 -0.59255949951E+01 -0.17486507339E+02  0.27903331439E+02  0.51100000000E-03 0. -1.
        -11    1    3    3    0    0  0.95325025111E+00 -0.11260300479E+01 -0.10750132570E+02  0.10850897670E+02  0.51100000000E-03 0.  1.
        -12    1    3    3    0    0  0.60231292322E+01  0.45956734700E+01 -0.49191174079E+01  0.90330513373E+01  0.00000000000E+00 0.  1.
</event>
<event>
 7    1  0.1899036E-009  0.4778727E+02  0.7816164E-02  0.1312668E+00
        -11   -1    0    0    0    0  0.00000000000E+00  0.00000000000E+00  0.45593999997E+02  0.45594000000E+02  0.51100000000E-03 0. -1.
         11   -1    0    0    0    0 -0.00000000000E+00 -0.00000000000E+00 -0.45593999997E+02  0.45594000000E+02  0.51100000000E-03 0.  1.
    9900012    2    1    2    0    0  0.37582462027E+02 -0.18376198532E+02  0.11554089764E+02  0.47787272878E+02  0.20000008358E+02 0.  0.
        -12    1    1    2    0    0 -0.37582462027E+02  0.18376198532E+02 -0.11554089764E+02  0.43400727122E+02  0.00000000000E+00 0.  1.
         11    1    3    3    0    0  0.11267478343E+02 -0.75337404447E+01 -0.93632125260E+00  0.13586390655E+02  0.51100000000E-03 0. -1.
        -11    1    3    3    0    0 -0.73195889539E+00 -0.19248237709E+01  0.39736072923E+01  0.44755184669E+01  0.51100000000E-03 0.  1.
         12    1    3    3    0    0  0.27046942580E+02 -0.89176343165E+01  0.85168037239E+01  0.29725363755E+02  0.00000000000E+00 0. -1.
</event>
<event>
 7    1  0.1899036E-009  0.4778727E+02  0.7816164E-02  0.1312668E+00
        -11   -1    0    0    0    0  0.00000000000E+00  0.00000000000E+00  0.45593999997E+02  0.45594000000E+02  0.51100000000E-03 0.  1.
         11   -1    0    0    0    0 -0.00000000000E+00 -0.00000000000E+00 -0.45593999997E+02  0.45594000000E+02  0.51100000000E-03 0. -1.
    9900012    2    1    2    0    0  0.13317249336E+02 -0.19442293406E+01 -0.41261293229E+02  0.47787268709E+02  0.19999989353E+02 0.  0.
        -12    1    1    2    0    0 -0.13317249336E+02  0.19442293406E+01  0.41261293229E+02  0.43400731291E+02  0.00000000000E+00 0.  1.
         11    1    3    3    0    0  0.14979783053E+02 -0.39024504231E+01 -0.24930056922E+02  0.29345029528E+02  0.51100000000E-03 0. -1.
        -11    1    3    3    0    0  0.67261012577E+00  0.43412308077E+01 -0.51262992900E+01  0.67511209424E+01  0.51100000000E-03 0.  1.
        -12    1    3    3    0    0 -0.23351438419E+01 -0.23830097252E+01 -0.11204937018E+02  0.11691118239E+02  0.00000000000E+00 0.  1.
</event>
<event>
 7    1 -0.1899036E-009  0.4778727E+02  0.7816164E-02  0.1312668E+00
        -11   -1    0    0    0    0  0.00000000000E+00  0.00000000000E+00  0.45593999997E+02  0.45594000000E+02  0.51100000000E-03 0.  1.
         11   -1    0    0    0    0 -0.00000000000E+00 -0.00000000000E+00 -0.45593999997E+02  0.45594000000E+02  0.51100000000E-03 0. -1.
    9900012    2    1    2    0    0 -0.11737858975E+01 -0.43194872582E+02 -0.40556904651E+01  0.47787269409E+02  0.19999992542E+02 0.  0.
        -12    1    1    2    0    0  0.11737858975E+01  0.43194872582E+02  0.40556904651E+01  0.43400730591E+02  0.00000000000E+00 0.  1.
         11    1    3    3    0    0 -0.45321010039E+01 -0.10783350346E+01  0.18748971958E+01  0.50217512596E+01  0.51100000000E-03 0. -1.
        -11    1    3    3    0    0 -0.51270259529E-01 -0.11382551994E+02 -0.70426059482E+00  0.11404433427E+02  0.51100000000E-03 0.  1.
         12    1    3    3    0    0  0.34095853660E+01 -0.30733985553E+02 -0.52263270661E+01  0.31361084722E+02  0.00000000000E+00 0. -1.
</event>
<event>
 7    1  0.1899036E-009  0.4778727E+02  0.7816164E-02  0.1312668E+00
        -11   -1    0    0    0    0  0.00000000000E+00  0.00000000000E+00  0.45593999997E+02  0.45594000000E+02  0.51100000000E-03 0.  1.
         11   -1    0    0    0    0 -0.00000000000E+00 -0.00000000000E+00 -0.45593999997E+02  0.45594000000E+02  0.51100000000E-03 0. -1.
    9900012    2    1    2    0    0 -0.25423446484E+02 -0.31911660724E+02 -0.14795866657E+02  0.47787269690E+02  0.19999993824E+02 0.  0.
        -12    1    1    2    0    0  0.25423446484E+02  0.31911660724E+02  0.14795866657E+02  0.43400730310E+02  0.00000000000E+00 0.  1.
         11    1    3    3    0    0 -0.55112064604E+00  0.10877841827E+01 -0.23231956575E+01  0.26237848080E+01  0.51100000000E-03 0. -1.
        -11    1    3    3    0    0 -0.93086874692E+01 -0.16759732098E+02  0.53678544794E+00  0.19178853492E+02  0.51100000000E-03 0.  1.
        -12    1    3    3    0    0 -0.15563638369E+02 -0.16239712809E+02 -0.13009456447E+02  0.25984631389E+02  0.00000000000E+00 0.  1.
</event>
<event>
 7    1  0.1899036E-009  0.4778727E+02  0.7816164E-02  0.1312668E+00
        -11   -1    0    0    0    0  0.00000000000E+00  0.00000000000E+00  0.45593999997E+02  0.45594000000E+02  0.51100000000E-03 0.  1.
         11   -1    0    0    0    0 -0.00000000000E+00 -0.00000000000E+00 -0.45593999997E+02  0.45594000000E+02  0.51100000000E-03 0. -1.
    9900012    2    1    2    0    0 -0.25669921591E+02 -0.42947873160E+01 -0.34730868139E+02  0.47787271040E+02  0.19999999980E+02 0.  0.
        -12    1    1    2    0    0  0.25669921591E+02  0.42947873160E+01  0.34730868139E+02  0.43400728960E+02  0.00000000000E+00 0.  1.
         11    1    3    3    0    0  0.14275858244E+00 -0.37885744283E+01  0.31461194021E+00  0.38042945661E+01  0.51100000000E-03 0. -1.
        -11    1    3    3    0    0 -0.58327395764E+01  0.10558240771E+01 -0.12393977141E+02  0.13738496464E+02  0.51100000000E-03 0.  1.
         12    1    3    3    0    0 -0.19979940597E+02 -0.15620369649E+01 -0.22651502937E+02  0.30244480010E+02  0.00000000000E+00 0. -1.
</event>
<event>
 7    1  0.2245377E-009  0.4778727E+02  0.7816164E-02  0.1312668E+00
        -11   -1    0    0    0    0  0.00000000000E+00  0.00000000000E+00  0.45593999997E+02  0.45594000000E+02  0.51100000000E-03 0.  1.
         11   -1    0    0    0    0 -0.00000000000E+00 -0.00000000000E+00 -0.45593999997E+02  0.45594000000E+02  0.51100000000E-03 0. -1.
    9900012    2    1    2    0    0 -0.16600092318E+02 -0.26993110648E+02 -0.29655220650E+02  0.47787271905E+02  0.20000003922E+02 0.  0.
        -12    1    1    2    0    0  0.16600092318E+02  0.26993110648E+02  0.29655220650E+02  0.43400728095E+02  0.00000000000E+00 0.  1.
         11    1    3    3    0    0 -0.36031312071E+01 -0.29654185732E+01 -0.92239456295E+01  0.10337186999E+02  0.51100000000E-03 0. -1.
        -11    1    3    3    0    0 -0.29332229196E+01 -0.20213980057E+02 -0.11342940580E+02  0.23363884260E+02  0.51100000000E-03 0.  1.
        -12    1    3    3    0    0 -0.10063738191E+02 -0.38137120175E+01 -0.90883344408E+01  0.14086200646E+02  0.00000000000E+00 0.  1.
</event>
<event>
 7    1  0.1899036E-009  0.4778727E+02  0.7816164E-02  0.1312668E+00
        -11   -1    0    0    0    0  0.00000000000E+00  0.00000000000E+00  0.45593999997E+02  0.45594000000E+02  0.51100000000E-03 0.  1.
         11   -1    0    0    0    0 -0.00000000000E+00 -0.00000000000E+00 -0.45593999997E+02  0.45594000000E+02  0.51100000000E-03 0. -1.
    9900012    2    1    2    0    0  0.38930590146E+02 -0.15601305625E+02 -0.11163861303E+02  0.47787269758E+02  0.19999994137E+02 0.  0.
        -12    1    1    2    0    0 -0.38930590146E+02  0.15601305625E+02  0.11163861303E+02  0.43400730242E+02  0.00000000000E+00 0.  1.
         11    1    3    3    0    0  0.49151814559E+01 -0.68464317088E+01  0.32788297875E-01  0.84281499287E+01  0.51100000000E-03 0. -1.
        -11    1    3    3    0    0  0.30223923718E+01 -0.55301482213E+01 -0.16718050556E+00  0.63043908969E+01  0.51100000000E-03 0.  1.
         12    1    3    3    0    0  0.30993016318E+02 -0.32247256950E+01 -0.11029469096E+02  0.33054728933E+02  0.00000000000E+00 0. -1.
</event>
<event>
 7    1  0.1899036E-009  0.4778727E+02  0.7816164E-02  0.1312668E+00
        -11   -1    0    0    0    0  0.00000000000E+00  0.00000000000E+00  0.45593999997E+02  0.45594000000E+02  0.51100000000E-03 0.  1.
         11   -1    0    0    0    0 -0.00000000000E+00 -0.00000000000E+00 -0.45593999997E+02  0.45594000000E+02  0.51100000000E-03 0. -1.
    9900012    2    1    2    0    0 -0.23131161173E+02  0.62992210092E+01 -0.36178617669E+02  0.47787272137E+02  0.20000004983E+02 0.  0.
        -12    1    1    2    0    0  0.23131161173E+02 -0.62992210092E+01  0.36178617669E+02  0.43400727863E+02  0.00000000000E+00 0.  1.
         11    1    3    3    0    0 -0.13923190528E+02  0.11699573149E+01 -0.99022857358E+01  0.17125399197E+02  0.51100000000E-03 0. -1.
        -11    1    3    3    0    0 -0.86376734729E+01 -0.95979236353E+00 -0.98603904526E+01  0.13143740128E+02  0.51100000000E-03 0.  1.
        -12    1    3    3    0    0 -0.57029717227E+00  0.60890560578E+01 -0.16415941481E+02  0.17518132813E+02  0.00000000000E+00 0.  1.
</event>
<event>
 7    1  0.1899036E-009  0.4778726E+02  0.7816164E-02  0.1312668E+00
        -11   -1    0    0    0    0  0.00000000000E+00  0.00000000000E+00  0.45593999997E+02  0.45594000000E+02  0.51100000000E-03 0.  1.
         11   -1    0    0    0    0 -0.00000000000E+00 -0.00000000000E+00 -0.45593999997E+02  0.45594000000E+02  0.51100000000E-03 0. -1.
    9900012    2    1    2    0    0  0.87363657520E+01  0.38549255807E+02  0.17923584409E+02  0.47787261666E+02  0.19999957240E+02 0.  0.
        -12    1    1    2    0    0 -0.87363657520E+01 -0.38549255807E+02 -0.17923584409E+02  0.43400738334E+02  0.00000000000E+00 0.  1.
         11    1    3    3    0    0  0.27339361139E+01  0.14917046614E+02  0.11034720065E+02  0.18755205505E+02  0.51100000000E-03 0. -1.
        -11    1    3    3    0    0 -0.40195738643E+01  0.58587998933E+01 -0.96115043506E+00  0.71698201275E+01  0.51100000000E-03 0.  1.
         12    1    3    3    0    0  0.10022003502E+02  0.17773409300E+02  0.78500147787E+01  0.21862236033E+02  0.00000000000E+00 0. -1.
</event>
<event>
 7    1  0.2175276E-009  0.4778727E+02  0.7816164E-02  0.1312668E+00
        -11   -1    0    0    0    0  0.00000000000E+00  0.00000000000E+00  0.45593999997E+02  0.45594000000E+02  0.51100000000E-03 0. -1.
         11   -1    0    0    0    0 -0.00000000000E+00 -0.00000000000E+00 -0.45593999997E+02  0.45594000000E+02  0.51100000000E-03 0.  1.
    9900012    2    1    2    0    0 -0.26710797517E+02  0.19458179718E+02  0.28134246297E+02  0.47787271012E+02  0.19999999853E+02 0.  0.
        -12    1    1    2    0    0  0.26710797517E+02 -0.19458179718E+02 -0.28134246297E+02  0.43400728988E+02  0.00000000000E+00 0.  1.
         11    1    3    3    0    0 -0.44442529713E+01  0.21467617295E+01  0.86832856357E+01  0.99879637609E+01  0.51100000000E-03 0. -1.
        -11    1    3    3    0    0 -0.44413148434E+01  0.10241870499E+02  0.10331463969E+01  0.11211091855E+02  0.51100000000E-03 0.  1.
        -12    1    3    3    0    0 -0.17825229702E+02  0.70695474903E+01  0.18417814265E+02  0.26588215396E+02  0.00000000000E+00 0.  1.
</event>
<event>
 7    1  0.1899036E-009  0.4778727E+02  0.7816164E-02  0.1312668E+00
        -11   -1    0    0    0    0  0.00000000000E+00  0.00000000000E+00  0.45593999997E+02  0.45594000000E+02  0.51100000000E-03 0.  1.
         11   -1    0    0    0    0 -0.00000000000E+00 -0.00000000000E+00 -0.45593999997E+02  0.45594000000E+02  0.51100000000E-03 0. -1.
    9900012    2    1    2    0    0 -0.58005039969E+01 -0.41325225042E+02  0.11924897690E+02  0.47787271246E+02  0.20000000921E+02 0.  0.
        -12    1    1    2    0    0  0.58005039969E+01  0.41325225042E+02 -0.11924897690E+02  0.43400728754E+02  0.00000000000E+00 0.  1.
         11    1    3    3    0    0  0.22558700350E+01 -0.40953080268E+01 -0.29208887631E+01  0.55129020376E+01  0.51100000000E-03 0. -1.
        -11    1    3    3    0    0 -0.44596341384E-01 -0.23836358327E+02  0.72323693227E+01  0.24909458714E+02  0.51100000000E-03 0.  1.
        -12    1    3    3    0    0 -0.80117776905E+01 -0.13393558689E+02  0.76134171301E+01  0.17364910495E+02  0.00000000000E+00 0.  1.
</event>
<event>
 7    1  0.1899036E-009  0.4778726E+02  0.7816164E-02  0.1312668E+00
        -11   -1    0    0    0    0  0.00000000000E+00  0.00000000000E+00  0.45593999997E+02  0.45594000000E+02  0.51100000000E-03 0.  1.
         11   -1    0    0    0    0 -0.00000000000E+00 -0.00000000000E+00 -0.45593999997E+02  0.45594000000E+02  0.51100000000E-03 0. -1.
    9900012    2    1    2    0    0 -0.10693536410E+02 -0.69689677869E+01 -0.41481389890E+02  0.47787263369E+02  0.19999965004E+02 0.  0.
        -12    1    1    2    0    0  0.10693536410E+02  0.69689677869E+01  0.41481389890E+02  0.43400736631E+02  0.00000000000E+00 0.  1.
         11    1    3    3    0    0 -0.37210373805E+01 -0.88554468085E+01 -0.32214883456E+02  0.33616421191E+02  0.51100000000E-03 0. -1.
        -11    1    3    3    0    0 -0.15369644145E+01  0.31199414557E+01 -0.75924452929E+01  0.83511388496E+01  0.51100000000E-03 0.  1.
        -12    1    3    3    0    0 -0.54355346149E+01 -0.12334624340E+01 -0.16740611411E+01  0.58197033284E+01  0.00000000000E+00 0.  1.
</event>
<event>
 7    1  0.1899036E-009  0.4778727E+02  0.7816164E-02  0.1312668E+00
        -11   -1    0    0    0    0  0.00000000000E+00  0.00000000000E+00  0.45593999997E+02  0.45594000000E+02  0.51100000000E-03 0.  1.
         11   -1    0    0    0    0 -0.00000000000E+00 -0.00000000000E+00 -0.45593999997E+02  0.45594000000E+02  0.51100000000E-03 0. -1.
    9900012    2    1    2    0    0  0.19359576673E+02 -0.27704487196E+02 -0.27226669133E+02  0.47787270377E+02  0.19999996955E+02 0.  0.
        -12    1    1    2    0    0 -0.19359576673E+02  0.27704487196E+02  0.27226669133E+02  0.43400729623E+02  0.00000000000E+00 0.  1.
         11    1    3    3    0    0  0.11163642343E+02 -0.17419612350E+02 -0.11209377915E+02  0.23531254924E+02  0.51100000000E-03 0.  1.
        -11    1    3    3    0    0 -0.74886881983E+00  0.14545168524E+01  0.84976590705E+00  0.18435091920E+01  0.51100000000E-03 0. -1.
         12    1    3    3    0    0  0.89448031497E+01 -0.11739391699E+02 -0.16867057124E+02  0.22412506261E+02  0.00000000000E+00 0. -1.
</event>
<event>
 7    1  0.1899036E-009  0.4778727E+02  0.7816164E-02  0.1312668E+00
        -11   -1    0    0    0    0  0.00000000000E+00  0.00000000000E+00  0.45593999997E+02  0.45594000000E+02  0.51100000000E-03 0.  1.
         11   -1    0    0    0    0 -0.00000000000E+00 -0.00000000000E+00 -0.45593999997E+02  0.45594000000E+02  0.51100000000E-03 0. -1.
    9900012    2    1    2    0    0  0.16486023480E+02 -0.31820429266E+02 -0.24480488852E+02  0.47787273932E+02  0.20000013163E+02 0.  0.
        -12    1    1    2    0    0 -0.16486023480E+02  0.31820429266E+02  0.24480488852E+02  0.43400726068E+02  0.00000000000E+00 0.  1.
         11    1    3    3    0    0  0.12625296223E+02 -0.29413434332E+02 -0.18424041291E+02  0.36932282920E+02  0.51100000000E-03 0. -1.
        -11    1    3    3    0    0  0.17111536139E+01 -0.27408935577E+01 -0.75526233335E+01  0.82147832390E+01  0.51100000000E-03 0.  1.
         12    1    3    3    0    0  0.21495736432E+01  0.33389862427E+00  0.14961757726E+01  0.26402077724E+01  0.00000000000E+00 0. -1.
</event>
<event>
 7    1  0.1899036E-009  0.4778727E+02  0.7816164E-02  0.1312668E+00
        -11   -1    0    0    0    0  0.00000000000E+00  0.00000000000E+00  0.45593999997E+02  0.45594000000E+02  0.51100000000E-03 0. -1.
         11   -1    0    0    0    0 -0.00000000000E+00 -0.00000000000E+00 -0.45593999997E+02  0.45594000000E+02  0.51100000000E-03 0.  1.
    9900012    2    1    2    0    0  0.34032167217E+02  0.25948367168E+02 -0.72192208123E+01  0.47787270590E+02  0.19999997929E+02 0.  0.
        -12    1    1    2    0    0 -0.34032167217E+02 -0.25948367168E+02  0.72192208123E+01  0.43400729410E+02  0.00000000000E+00 0.  1.
         11    1    3    3    0    0  0.17496946923E+02  0.73027674832E+01 -0.11049223942E+02  0.21944450654E+02  0.51100000000E-03 0.  1.
        -11    1    3    3    0    0  0.12129855103E+02  0.13461001001E+02  0.17729215607E+00  0.18120799253E+02  0.51100000000E-03 0. -1.
        -12    1    3    3    0    0  0.44053651905E+01  0.51845986836E+01  0.36527109738E+01  0.77220206831E+01  0.00000000000E+00 0.  1.
</event>
<event>
 7    1  0.1899036E-009  0.4778728E+02  0.7816164E-02  0.1312668E+00
        -11   -1    0    0    0    0  0.00000000000E+00  0.00000000000E+00  0.45593999997E+02  0.45594000000E+02  0.51100000000E-03 0.  1.
         11   -1    0    0    0    0 -0.00000000000E+00 -0.00000000000E+00 -0.45593999997E+02  0.45594000000E+02  0.51100000000E-03 0. -1.
    9900012    2    1    2    0    0  0.35971975964E+02 -0.12397108447E+02  0.20879451491E+02  0.47787275960E+02  0.20000022413E+02 0.  0.
        -12    1    1    2    0    0 -0.35971975964E+02  0.12397108447E+02 -0.20879451491E+02  0.43400724040E+02  0.00000000000E+00 0.  1.
         11    1    3    3    0    0  0.12148725580E+02 -0.30859766682E+01  0.77051006790E+01  0.14713373575E+02  0.51100000000E-03 0. -1.
        -11    1    3    3    0    0  0.10585760751E+02 -0.31729383074E+01 -0.28388387766E+01  0.11409858634E+02  0.51100000000E-03 0.  1.
        -12    1    3    3    0    0  0.13237489633E+02 -0.61381934715E+01  0.16013189589E+02  0.21664043752E+02  0.00000000000E+00 0.  1.
</event>
<event>
 7    1  0.1899036E-009  0.4778727E+02  0.7816164E-02  0.1312668E+00
        -11   -1    0    0    0    0  0.00000000000E+00  0.00000000000E+00  0.45593999997E+02  0.45594000000E+02  0.51100000000E-03 0.  1.
         11   -1    0    0    0    0 -0.00000000000E+00 -0.00000000000E+00 -0.45593999997E+02  0.45594000000E+02  0.51100000000E-03 0. -1.
    9900012    2    1    2    0    0  0.20410345490E+02 -0.35986078943E+02 -0.13116531408E+02  0.47787268705E+02  0.19999989336E+02 0.  0.
        -12    1    1    2    0    0 -0.20410345490E+02  0.35986078943E+02  0.13116531408E+02  0.43400731295E+02  0.00000000000E+00 0.  1.
         11    1    3    3    0    0 -0.11193850264E+01 -0.40010585404E+01 -0.35297448281E+01  0.54516594807E+01  0.51100000000E-03 0. -1.
        -11    1    3    3    0    0  0.10337853866E+02 -0.15052447124E+02  0.29231464825E+01  0.18493030379E+02  0.51100000000E-03 0.  1.
         12    1    3    3    0    0  0.11191876651E+02 -0.16932573278E+02 -0.12509933062E+02  0.23842578846E+02  0.00000000000E+00 0. -1.
</event>
<event>
 7    1  0.1899036E-009  0.4778727E+02  0.7816164E-02  0.1312668E+00
        -11   -1    0    0    0    0  0.00000000000E+00  0.00000000000E+00  0.45593999997E+02  0.45594000000E+02  0.51100000000E-03 0. -1.
         11   -1    0    0    0    0 -0.00000000000E+00 -0.00000000000E+00 -0.45593999997E+02  0.45594000000E+02  0.51100000000E-03 0.  1.
    9900012    2    1    2    0    0 -0.37729977106E+02 -0.11652409422E+02  0.18008158784E+02  0.47787267281E+02  0.19999982841E+02 0.  0.
        -12    1    1    2    0    0  0.37729977106E+02  0.11652409422E+02 -0.18008158784E+02  0.43400732719E+02  0.00000000000E+00 0.  1.
         11    1    3    3    0    0 -0.12340219227E+02 -0.96090657935E+01  0.10344448964E+01  0.15674349508E+02  0.51100000000E-03 0. -1.
        -11    1    3    3    0    0 -0.19020410958E+02 -0.56997947973E+01  0.13320386183E+02  0.23910173192E+02  0.51100000000E-03 0.  1.
        -12    1    3    3    0    0 -0.63693469217E+01  0.36564511685E+01  0.36533277044E+01  0.82027445817E+01  0.00000000000E+00 0.  1.
</event>
<event>
 7    1  0.1899036E-009  0.4778727E+02  0.7816164E-02  0.1312668E+00
        -11   -1    0    0    0    0  0.00000000000E+00  0.00000000000E+00  0.45593999997E+02  0.45594000000E+02  0.51100000000E-03 0. -1.
         11   -1    0    0    0    0 -0.00000000000E+00 -0.00000000000E+00 -0.45593999997E+02  0.45594000000E+02  0.51100000000E-03 0.  1.
    9900012    2    1    2    0    0  0.93440130425E+01  0.27468334862E+01  0.42293826053E+02  0.47787269636E+02  0.19999993577E+02 0.  0.
        -12    1    1    2    0    0 -0.93440130425E+01 -0.27468334862E+01 -0.42293826053E+02  0.43400730364E+02  0.00000000000E+00 0.  1.
         11    1    3    3    0    0  0.40563249351E+01 -0.15988987369E+01  0.16551080549E+02  0.17115738861E+02  0.51100000000E-03 0. -1.
        -11    1    3    3    0    0  0.64528541475E+00  0.12242157894E+01 -0.19657122215E+01  0.24039805250E+01  0.51100000000E-03 0.  1.
        -12    1    3    3    0    0  0.46424026926E+01  0.31215164336E+01  0.27708457725E+02  0.28267550250E+02  0.00000000000E+00 0.  1.
</event>
<event>
 7    1  0.1899036E-009  0.4778727E+02  0.7816164E-02  0.1312668E+00
        -11   -1    0    0    0    0  0.00000000000E+00  0.00000000000E+00  0.45593999997E+02  0.45594000000E+02  0.51100000000E-03 0. -1.
         11   -1    0    0    0    0 -0.00000000000E+00 -0.00000000000E+00 -0.45593999997E+02  0.45594000000E+02  0.51100000000E-03 0.  1.
    9900012    2    1    2    0    0 -0.12777117316E+02 -0.33366767862E+02  0.24637924463E+02  0.47787271362E+02  0.20000001447E+02 0.  0.
        -12    1    1    2    0    0  0.12777117316E+02  0.33366767862E+02 -0.24637924463E+02  0.43400728638E+02  0.00000000000E+00 0.  1.
         11    1    3    3    0    0 -0.42260296550E+01 -0.26097209582E+02  0.11011137798E+02  0.28638589883E+02  0.51100000000E-03 0.  1.
        -11    1    3    3    0    0 -0.58917310947E+01 -0.42668593130E+01  0.31442408232E+01  0.79249501137E+01  0.51100000000E-03 0. -1.
        -12    1    3    3    0    0 -0.26593565667E+01 -0.30026989673E+01  0.10482545842E+02  0.11223731365E+02  0.00000000000E+00 0.  1.
</event>
<event>
 7    1  0.1899036E-009  0.4778726E+02  0.7816164E-02  0.1312668E+00
        -11   -1    0    0    0    0  0.00000000000E+00  0.00000000000E+00  0.45593999997E+02  0.45594000000E+02  0.51100000000E-03 0.  1.
         11   -1    0    0    0    0 -0.00000000000E+00 -0.00000000000E+00 -0.45593999997E+02  0.45594000000E+02  0.51100000000E-03 0. -1.
    9900012    2    1    2    0    0 -0.38630074242E+02  0.22464588042E+01 -0.19654379790E+02  0.47787264315E+02  0.19999969316E+02 0.  0.
        -12    1    1    2    0    0  0.38630074242E+02 -0.22464588042E+01  0.19654379790E+02  0.43400735685E+02  0.00000000000E+00 0.  1.
         11    1    3    3    0    0 -0.26706211138E+02 -0.63993409769E+01 -0.16181164089E+02  0.31874807447E+02  0.51100000000E-03 0. -1.
        -11    1    3    3    0    0 -0.57533587116E+01  0.55011551481E+01 -0.41083217875E+01  0.89577984236E+01  0.51100000000E-03 0.  1.
         12    1    3    3    0    0 -0.61705043925E+01  0.31446446330E+01  0.63510608633E+00  0.69546584436E+01  0.00000000000E+00 0. -1.
</event>
<event>
 7    1  0.1899036E-009  0.4778729E+02  0.7816164E-02  0.1312668E+00
        -11   -1    0    0    0    0  0.00000000000E+00  0.00000000000E+00  0.45593999997E+02  0.45594000000E+02  0.51100000000E-03 0.  1.
         11   -1    0    0    0    0 -0.00000000000E+00 -0.00000000000E+00 -0.45593999997E+02  0.45594000000E+02  0.51100000000E-03 0. -1.
    9900012    2    1    2    0    0  0.27012214858E+02  0.22339260775E+02 -0.25591392150E+02  0.47787289457E+02  0.20000083948E+02 0.  0.
        -12    1    1    2    0    0 -0.27012214858E+02 -0.22339260775E+02  0.25591392150E+02  0.43400710543E+02  0.00000000000E+00 0.  1.
         11    1    3    3    0    0  0.16971990545E+02  0.39542714789E+01 -0.99072377807E+01  0.20045899498E+02  0.51100000000E-03 0. -1.
        -11    1    3    3    0    0  0.11189123681E+02  0.13474357303E+02 -0.14007071633E+02  0.22426610298E+02  0.51100000000E-03 0.  1.
        -12    1    3    3    0    0 -0.11488993683E+01  0.49106319931E+01 -0.16770827364E+01  0.53147796600E+01  0.00000000000E+00 0.  1.
</event>
<event>
 7    1  0.1899036E-009  0.4778726E+02  0.7816164E-02  0.1312668E+00
        -11   -1    0    0    0    0  0.00000000000E+00  0.00000000000E+00  0.45593999997E+02  0.45594000000E+02  0.51100000000E-03 0. -1.
         11   -1    0    0    0    0 -0.00000000000E+00 -0.00000000000E+00 -0.45593999997E+02  0.45594000000E+02  0.51100000000E-03 0.  1.
    9900012    2    1    2    0    0 -0.82161174707E+01  0.42063702926E+02 -0.68384750491E+01  0.47787257712E+02  0.19999939213E+02 0.  0.
        -12    1    1    2    0    0  0.82161174707E+01 -0.42063702926E+02  0.68384750491E+01  0.43400742288E+02  0.00000000000E+00 0.  1.
         11    1    3    3    0    0  0.25366453996E+01  0.31588913094E+01  0.37027044385E+01  0.54884592198E+01  0.51100000000E-03 0.  1.
        -11    1    3    3    0    0 -0.62137233706E+01  0.10603540596E+02 -0.27098685216E+01  0.12585261974E+02  0.51100000000E-03 0. -1.
        -12    1    3    3    0    0 -0.45390394997E+01  0.28301271021E+02 -0.78313109660E+01  0.29713536518E+02  0.00000000000E+00 0.  1.
</event>
<event>
 7    1  0.1899036E-009  0.4778728E+02  0.7816164E-02  0.1312668E+00
        -11   -1    0    0    0    0  0.00000000000E+00  0.00000000000E+00  0.45593999997E+02  0.45594000000E+02  0.51100000000E-03 0.  1.
         11   -1    0    0    0    0 -0.00000000000E+00 -0.00000000000E+00 -0.45593999997E+02  0.45594000000E+02  0.51100000000E-03 0. -1.
    9900012    2    1    2    0    0  0.20023809283E+02 -0.33527086019E+02 -0.18936853121E+02  0.47787276029E+02  0.20000022726E+02 0.  0.
        -12    1    1    2    0    0 -0.20023809283E+02  0.33527086019E+02  0.18936853121E+02  0.43400723971E+02  0.00000000000E+00 0.  1.
         11    1    3    3    0    0  0.22618266371E+01 -0.66639848017E+01  0.70721748814E+00  0.70728148576E+01  0.51100000000E-03 0. -1.
        -11    1    3    3    0    0  0.20054543107E+02 -0.26407272731E+02 -0.19256728360E+02  0.38345147538E+02  0.51100000000E-03 0.  1.
        -12    1    3    3    0    0 -0.22925604609E+01 -0.45582848598E+00 -0.38734224837E+00  0.23693136333E+01  0.00000000000E+00 0.  1.
</event>
<event>
 7    1  0.1899036E-009  0.4778727E+02  0.7816164E-02  0.1312668E+00
        -11   -1    0    0    0    0  0.00000000000E+00  0.00000000000E+00  0.45593999997E+02  0.45594000000E+02  0.51100000000E-03 0.  1.
         11   -1    0    0    0    0 -0.00000000000E+00 -0.00000000000E+00 -0.45593999997E+02  0.45594000000E+02  0.51100000000E-03 0. -1.
    9900012    2    1    2    0    0  0.79257124234E+01  0.35721852412E+02 -0.23340002605E+02  0.47787269836E+02  0.19999994491E+02 0.  0.
        -12    1    1    2    0    0 -0.79257124234E+01 -0.35721852412E+02  0.23340002605E+02  0.43400730164E+02  0.00000000000E+00 0.  1.
         11    1    3    3    0    0 -0.12259429187E+01  0.42590544023E+01 -0.10103347227E+02  0.11032683531E+02  0.51100000000E-03 0. -1.
        -11    1    3    3    0    0  0.65770784305E+01  0.67911134164E+01 -0.29849683261E+01  0.99139910371E+01  0.51100000000E-03 0.  1.
         12    1    3    3    0    0  0.25745769117E+01  0.24671684593E+02 -0.10251687052E+02  0.26840595268E+02  0.00000000000E+00 0. -1.
</event>
<event>
 7    1  0.1899036E-009  0.4778727E+02  0.7816164E-02  0.1312668E+00
        -11   -1    0    0    0    0  0.00000000000E+00  0.00000000000E+00  0.45593999997E+02  0.45594000000E+02  0.51100000000E-03 0. -1.
         11   -1    0    0    0    0 -0.00000000000E+00 -0.00000000000E+00 -0.45593999997E+02  0.45594000000E+02  0.51100000000E-03 0.  1.
    9900012    2    1    2    0    0  0.24542869242E+02 -0.15223890044E+02  0.32396049201E+02  0.47787271175E+02  0.20000000596E+02 0.  0.
        -12    1    1    2    0    0 -0.24542869242E+02  0.15223890044E+02 -0.32396049201E+02  0.43400728825E+02  0.00000000000E+00 0.  1.
         11    1    3    3    0    0  0.26659032876E+01  0.35152493672E+01  0.38331292239E+01  0.58443903327E+01  0.51100000000E-03 0. -1.
        -11    1    3    3    0    0  0.32853968917E+01 -0.92228852306E+01  0.10103085825E+02  0.14068681110E+02  0.51100000000E-03 0.  1.
         12    1    3    3    0    0  0.18591569063E+02 -0.95162541805E+01  0.18459834152E+02  0.27874199733E+02  0.00000000000E+00 0. -1.
</event>
<event>
 7    1  0.1899036E-009  0.4778727E+02  0.7816164E-02  0.1312668E+00
        -11   -1    0    0    0    0  0.00000000000E+00  0.00000000000E+00  0.45593999997E+02  0.45594000000E+02  0.51100000000E-03 0.  1.
         11   -1    0    0    0    0 -0.00000000000E+00 -0.00000000000E+00 -0.45593999997E+02  0.45594000000E+02  0.51100000000E-03 0. -1.
    9900012    2    1    2    0    0 -0.39844406251E+02  0.15226353722E+02 -0.80127860613E+01  0.47787270770E+02  0.19999998751E+02 0.  0.
        -12    1    1    2    0    0  0.39844406251E+02 -0.15226353722E+02  0.80127860613E+01  0.43400729230E+02  0.00000000000E+00 0.  1.
         11    1    3    3    0    0 -0.17342820381E+02 -0.21815342340E+01 -0.27666843740E+00  0.17481677725E+02  0.51100000000E-03 0. -1.
        -11    1    3    3    0    0 -0.48351672142E+01  0.62133116682E+00 -0.20033206466E+01  0.52705017107E+01  0.51100000000E-03 0.  1.
         12    1    3    3    0    0 -0.17666418656E+02  0.16786556789E+02 -0.57327969773E+01  0.25035091335E+02  0.00000000000E+00 0. -1.
</event>
<event>
 7    1  0.1899036E-009  0.4778726E+02  0.7816164E-02  0.1312668E+00
        -11   -1    0    0    0    0  0.00000000000E+00  0.00000000000E+00  0.45593999997E+02  0.45594000000E+02  0.51100000000E-03 0.  1.
         11   -1    0    0    0    0 -0.00000000000E+00 -0.00000000000E+00 -0.45593999997E+02  0.45594000000E+02  0.51100000000E-03 0. -1.
    9900012    2    1    2    0    0 -0.22925302237E+02 -0.20768262460E+02 -0.30442302936E+02  0.47787262491E+02  0.19999961004E+02 0.  0.
        -12    1    1    2    0    0  0.22925302237E+02  0.20768262460E+02  0.30442302936E+02  0.43400737509E+02  0.00000000000E+00 0.  1.
         11    1    3    3    0    0 -0.80605583263E+01 -0.16741665087E+01 -0.58035065265E+01  0.10072542990E+02  0.51100000000E-03 0. -1.
        -11    1    3    3    0    0 -0.54088866655E+01 -0.11998041859E+02 -0.37036366761E+01  0.13672087928E+02  0.51100000000E-03 0.  1.
        -12    1    3    3    0    0 -0.94558572455E+01 -0.70960540917E+01 -0.20935159733E+02  0.24042631573E+02  0.00000000000E+00 0.  1.
</event>
<event>
 7    1  0.1899036E-009  0.4778727E+02  0.7816164E-02  0.1312668E+00
        -11   -1    0    0    0    0  0.00000000000E+00  0.00000000000E+00  0.45593999997E+02  0.45594000000E+02  0.51100000000E-03 0. -1.
         11   -1    0    0    0    0 -0.00000000000E+00 -0.00000000000E+00 -0.45593999997E+02  0.45594000000E+02  0.51100000000E-03 0.  1.
    9900012    2    1    2    0    0  0.17471015017E+02  0.36262803089E+02  0.16229474477E+02  0.47787273101E+02  0.20000009375E+02 0.  0.
        -12    1    1    2    0    0 -0.17471015017E+02 -0.36262803089E+02 -0.16229474477E+02  0.43400726899E+02  0.00000000000E+00 0.  1.
         11    1    3    3    0    0  0.57890879694E+00  0.87319477924E+01  0.88972348222E+00  0.87962296344E+01  0.51100000000E-03 0. -1.
        -11    1    3    3    0    0  0.17213503084E+02  0.15862065167E+02  0.63387557344E+01  0.24250559258E+02  0.51100000000E-03 0.  1.
        -12    1    3    3    0    0 -0.32139686424E+00  0.11668790130E+02  0.90009952601E+01  0.14740484209E+02  0.00000000000E+00 0.  1.
</event>
<event>
 7    1  0.1899036E-009  0.4778724E+02  0.7816164E-02  0.1312668E+00
        -11   -1    0    0    0    0  0.00000000000E+00  0.00000000000E+00  0.45593999997E+02  0.45594000000E+02  0.51100000000E-03 0.  1.
         11   -1    0    0    0    0 -0.00000000000E+00 -0.00000000000E+00 -0.45593999997E+02  0.45594000000E+02  0.51100000000E-03 0. -1.
    9900012    2    1    2    0    0  0.35861292901E+02 -0.80724706783E+01 -0.23074414707E+02  0.47787242801E+02  0.19999871226E+02 0.  0.
        -12    1    1    2    0    0 -0.35861292901E+02  0.80724706783E+01  0.23074414707E+02  0.43400757199E+02  0.00000000000E+00 0.  1.
         11    1    3    3    0    0  0.91253304761E+01 -0.64707219205E+01 -0.65234177421E+01  0.12949782924E+02  0.51100000000E-03 0. -1.
        -11    1    3    3    0    0  0.10908291985E+02  0.21261194038E+01  0.69385786614E+00  0.11135199000E+02  0.51100000000E-03 0.  1.
        -12    1    3    3    0    0  0.15827670440E+02 -0.37278681616E+01 -0.17244854831E+02  0.23702260878E+02  0.00000000000E+00 0.  1.
</event>
<event>
 7    1  0.1899036E-009  0.4778727E+02  0.7816164E-02  0.1312668E+00
        -11   -1    0    0    0    0  0.00000000000E+00  0.00000000000E+00  0.45593999997E+02  0.45594000000E+02  0.51100000000E-03 0.  1.
         11   -1    0    0    0    0 -0.00000000000E+00 -0.00000000000E+00 -0.45593999997E+02  0.45594000000E+02  0.51100000000E-03 0. -1.
    9900012    2    1    2    0    0 -0.15479312059E+02 -0.25414467539E+01 -0.40466723053E+02  0.47787265812E+02  0.19999976145E+02 0.  0.
        -12    1    1    2    0    0  0.15479312059E+02  0.25414467539E+01  0.40466723053E+02  0.43400734188E+02  0.00000000000E+00 0.  1.
         11    1    3    3    0    0 -0.76244611014E+01 -0.14840717730E+01 -0.36560204531E+02  0.37376241540E+02  0.51100000000E-03 0. -1.
        -11    1    3    3    0    0 -0.56279516043E+01  0.10689732523E+01 -0.44883669521E+01  0.72774982812E+01  0.51100000000E-03 0.  1.
         12    1    3    3    0    0 -0.22268993532E+01 -0.21263482332E+01  0.58184843014E+00  0.31335259906E+01  0.00000000000E+00 0. -1.
</event>
<event>
 7    1  0.1899036E-009  0.4778728E+02  0.7816164E-02  0.1312668E+00
        -11   -1    0    0    0    0  0.00000000000E+00  0.00000000000E+00  0.45593999997E+02  0.45594000000E+02  0.51100000000E-03 0.  1.
         11   -1    0    0    0    0 -0.00000000000E+00 -0.00000000000E+00 -0.45593999997E+02  0.45594000000E+02  0.51100000000E-03 0. -1.
    9900012    2    1    2    0    0  0.29608299682E+02 -0.18980763091E+00 -0.31732244858E+02  0.47787276495E+02  0.20000024851E+02 0.  0.
        -12    1    1    2    0    0 -0.29608299682E+02  0.18980763091E+00  0.31732244858E+02  0.43400723505E+02  0.00000000000E+00 0.  1.
         11    1    3    3    0    0  0.81902910882E+01  0.50820323454E+01 -0.18088916542E+02  0.20496751518E+02  0.51100000000E-03 0. -1.
        -11    1    3    3    0    0  0.13462552191E+02 -0.32362580609E+01 -0.13099623505E+02  0.19060792585E+02  0.51100000000E-03 0.  1.
         12    1    3    3    0    0  0.79554564026E+01 -0.20355819154E+01 -0.54370481050E+00  0.82297323911E+01  0.00000000000E+00 0. -1.
</event>
<event>
 7    1  0.1899036E-009  0.4778727E+02  0.7816164E-02  0.1312668E+00
        -11   -1    0    0    0    0  0.00000000000E+00  0.00000000000E+00  0.45593999997E+02  0.45594000000E+02  0.51100000000E-03 0.  1.
         11   -1    0    0    0    0 -0.00000000000E+00 -0.00000000000E+00 -0.45593999997E+02  0.45594000000E+02  0.51100000000E-03 0. -1.
    9900012    2    1    2    0    0 -0.20756596120E+02 -0.24999851456E+02 -0.28771424397E+02  0.47787265938E+02  0.19999976719E+02 0.  0.
        -12    1    1    2    0    0  0.20756596120E+02  0.24999851456E+02  0.28771424397E+02  0.43400734062E+02  0.00000000000E+00 0.  1.
         11    1    3    3    0    0 -0.98670937184E+01 -0.10706583598E+02 -0.18587130995E+02  0.23610843053E+02  0.51100000000E-03 0. -1.
        -11    1    3    3    0    0 -0.86641282288E+01 -0.43841976489E+01 -0.10113371511E+02  0.14020292100E+02  0.51100000000E-03 0.  1.
        -12    1    3    3    0    0 -0.22253741727E+01 -0.99090702089E+01 -0.70921890448E-01  0.10156130785E+02  0.00000000000E+00 0.  1.
</event>
<event>
 7    1  0.2064926E-009  0.4778727E+02  0.7816164E-02  0.1312668E+00
        -11   -1    0    0    0    0  0.00000000000E+00  0.00000000000E+00  0.45593999997E+02  0.45594000000E+02  0.51100000000E-03 0. -1.
         11   -1    0    0    0    0 -0.00000000000E+00 -0.00000000000E+00 -0.45593999997E+02  0.45594000000E+02  0.51100000000E-03 0.  1.
    9900012    2    1    2    0    0  0.29204234196E+02  0.11224361421E+02  0.30079055408E+02  0.47787272373E+02  0.20000006059E+02 0.  0.
        -12    1    1    2    0    0 -0.29204234196E+02 -0.11224361421E+02 -0.30079055408E+02  0.43400727627E+02  0.00000000000E+00 0.  1.
         11    1    3    3    0    0  0.18075199546E+02  0.14912696860E+01  0.16098633696E+02  0.24250829492E+02  0.51100000000E-03 0. -1.
        -11    1    3    3    0    0  0.12257592833E+02  0.11458988979E+02  0.13128497765E+02  0.21305268464E+02  0.51100000000E-03 0.  1.
        -12    1    3    3    0    0 -0.11285581829E+01 -0.17258972443E+01  0.85192394627E+00  0.22311744173E+01  0.00000000000E+00 0.  1.
</event>
<event>
 7    1  0.1899036E-009  0.4778726E+02  0.7816164E-02  0.1312668E+00
        -11   -1    0    0    0    0  0.00000000000E+00  0.00000000000E+00  0.45593999997E+02  0.45594000000E+02  0.51100000000E-03 0. -1.
         11   -1    0    0    0    0 -0.00000000000E+00 -0.00000000000E+00 -0.45593999997E+02  0.45594000000E+02  0.51100000000E-03 0.  1.
    9900012    2    1    2    0    0 -0.28963824822E+01 -0.20690624755E+02  0.38041201936E+02  0.47787262345E+02  0.19999960335E+02 0.  0.
        -12    1    1    2    0    0  0.28963824822E+01  0.20690624755E+02 -0.38041201936E+02  0.43400737655E+02  0.00000000000E+00 0.  1.
         11    1    3    3    0    0 -0.22728122024E+01 -0.27756362903E+01  0.24253929894E+02  0.24517808787E+02  0.51100000000E-03 0.  1.
        -11    1    3    3    0    0  0.16314193849E+01 -0.16950246905E+01  0.14166403521E+01  0.27461806312E+01  0.51100000000E-03 0. -1.
         12    1    3    3    0    0 -0.22549896647E+01 -0.16219963774E+02  0.12370631690E+02  0.20523272927E+02  0.00000000000E+00 0. -1.
</event>
<event>
 7    1  0.1899036E-009  0.4778727E+02  0.7816164E-02  0.1312668E+00
        -11   -1    0    0    0    0  0.00000000000E+00  0.00000000000E+00  0.45593999997E+02  0.45594000000E+02  0.51100000000E-03 0. -1.
         11   -1    0    0    0    0 -0.00000000000E+00 -0.00000000000E+00 -0.45593999997E+02  0.45594000000E+02  0.51100000000E-03 0.  1.
    9900012    2    1    2    0    0  0.40084622301E+02 -0.15738787198E+02 -0.53978555126E+01  0.47787271761E+02  0.20000003269E+02 0.  0.
        -12    1    1    2    0    0 -0.40084622301E+02  0.15738787198E+02  0.53978555126E+01  0.43400728239E+02  0.00000000000E+00 0.  1.
         11    1    3    3    0    0  0.13595570413E+02 -0.13635408850E+01 -0.43200841669E+01  0.14330453798E+02  0.51100000000E-03 0. -1.
        -11    1    3    3    0    0  0.13105691897E+02 -0.56134773684E+01 -0.76299967452E+01  0.16170563963E+02  0.51100000000E-03 0.  1.
        -12    1    3    3    0    0  0.13383359991E+02 -0.87617689442E+01  0.65522253995E+01  0.17286254000E+02  0.00000000000E+00 0.  1.
</event>
<event>
 7    1  0.1975345E-009  0.4778727E+02  0.7816164E-02  0.1312668E+00
        -11   -1    0    0    0    0  0.00000000000E+00  0.00000000000E+00  0.45593999997E+02  0.45594000000E+02  0.51100000000E-03 0.  1.
         11   -1    0    0    0    0 -0.00000000000E+00 -0.00000000000E+00 -0.45593999997E+02  0.45594000000E+02  0.51100000000E-03 0. -1.
    9900012    2    1    2    0    0 -0.14536685652E+02 -0.28264101764E+02 -0.29554162268E+02  0.47787272061E+02  0.20000004635E+02 0.  0.
        -12    1    1    2    0    0  0.14536685652E+02  0.28264101764E+02  0.29554162268E+02  0.43400727939E+02  0.00000000000E+00 0.  1.
         11    1    3    3    0    0 -0.97549814996E+01 -0.19081805012E+02 -0.19478846510E+02  0.28960324726E+02  0.51100000000E-03 0. -1.
        -11    1    3    3    0    0 -0.14552129760E+01 -0.85049500262E+01 -0.47219874316E+00  0.86414577282E+01  0.51100000000E-03 0.  1.
        -12    1    3    3    0    0 -0.33264911769E+01 -0.67734672509E+00 -0.96031170146E+01  0.10185489607E+02  0.00000000000E+00 0.  1.
</event>
<event>
 7    1  0.1899036E-009  0.4778728E+02  0.7816164E-02  0.1312668E+00
        -11   -1    0    0    0    0  0.00000000000E+00  0.00000000000E+00  0.45593999997E+02  0.45594000000E+02  0.51100000000E-03 0. -1.
         11   -1    0    0    0    0 -0.00000000000E+00 -0.00000000000E+00 -0.45593999997E+02  0.45594000000E+02  0.51100000000E-03 0.  1.
    9900012    2    1    2    0    0  0.41931569985E+02  0.10708139111E+02 -0.32713656644E+01  0.47787278370E+02  0.20000033402E+02 0.  0.
        -12    1    1    2    0    0 -0.41931569985E+02 -0.10708139111E+02  0.32713656644E+01  0.43400721630E+02  0.00000000000E+00 0.  1.
         11    1    3    3    0    0  0.22406777560E+02 -0.43463227913E+01 -0.35474752822E+01  0.23098458468E+02  0.51100000000E-03 0.  1.
        -11    1    3    3    0    0  0.52478686182E+01  0.38994186731E+01  0.62100397330E+00  0.65674376448E+01  0.51100000000E-03 0. -1.
        -12    1    3    3    0    0  0.14276923807E+02  0.11155043229E+02 -0.34489435556E+00  0.18121382258E+02  0.00000000000E+00 0.  1.
</event>
<event>
 7    1  0.1899036E-009  0.4778727E+02  0.7816164E-02  0.1312668E+00
        -11   -1    0    0    0    0  0.00000000000E+00  0.00000000000E+00  0.45593999997E+02  0.45594000000E+02  0.51100000000E-03 0.  1.
         11   -1    0    0    0    0 -0.00000000000E+00 -0.00000000000E+00 -0.45593999997E+02  0.45594000000E+02  0.51100000000E-03 0. -1.
    9900012    2    1    2    0    0  0.24616011219E+02  0.33790141588E+02 -0.11657698799E+02  0.47787267078E+02  0.19999981918E+02 0.  0.
        -12    1    1    2    0    0 -0.24616011219E+02 -0.33790141588E+02  0.11657698799E+02  0.43400732922E+02  0.00000000000E+00 0.  1.
         11    1    3    3    0    0  0.80604868798E+01  0.21546329364E+02 -0.21431488076E+01  0.23104303600E+02  0.51100000000E-03 0. -1.
        -11    1    3    3    0    0 -0.10411497103E+01  0.18159209504E+01  0.69820144039E-01  0.20943821836E+01  0.51100000000E-03 0.  1.
        -12    1    3    3    0    0  0.17596674049E+02  0.10427891274E+02 -0.95843701351E+01  0.22588581295E+02  0.00000000000E+00 0.  1.
</event>
<event>
 7    1  0.1899036E-009  0.4778727E+02  0.7816164E-02  0.1312668E+00
        -11   -1    0    0    0    0  0.00000000000E+00  0.00000000000E+00  0.45593999997E+02  0.45594000000E+02  0.51100000000E-03 0.  1.
         11   -1    0    0    0    0 -0.00000000000E+00 -0.00000000000E+00 -0.45593999997E+02  0.45594000000E+02  0.51100000000E-03 0. -1.
    9900012    2    1    2    0    0  0.14714410600E+02 -0.49069576769E+01 -0.40534323332E+02  0.47787268659E+02  0.19999989122E+02 0.  0.
        -12    1    1    2    0    0 -0.14714410600E+02  0.49069576769E+01  0.40534323332E+02  0.43400731341E+02  0.00000000000E+00 0.  1.
         11    1    3    3    0    0  0.83876031277E+01 -0.96110500428E+01 -0.15235573981E+02  0.19870754489E+02  0.51100000000E-03 0. -1.
        -11    1    3    3    0    0 -0.65512088641E+00  0.62137329665E+00 -0.13957606818E+02  0.13986782206E+02  0.51100000000E-03 0.  1.
         12    1    3    3    0    0  0.69819283591E+01  0.40827190692E+01 -0.11341142533E+02  0.13929731963E+02  0.00000000000E+00 0. -1.
</event>
<event>
 7    1  0.1899036E-009  0.4778727E+02  0.7816164E-02  0.1312668E+00
        -11   -1    0    0    0    0  0.00000000000E+00  0.00000000000E+00  0.45593999997E+02  0.45594000000E+02  0.51100000000E-03 0.  1.
         11   -1    0    0    0    0 -0.00000000000E+00 -0.00000000000E+00 -0.45593999997E+02  0.45594000000E+02  0.51100000000E-03 0. -1.
    9900012    2    1    2    0    0 -0.15860625345E+01  0.30777265830E+02 -0.30559247046E+02  0.47787271131E+02  0.20000000395E+02 0.  0.
        -12    1    1    2    0    0  0.15860625345E+01 -0.30777265830E+02  0.30559247046E+02  0.43400728869E+02  0.00000000000E+00 0.  1.
         11    1    3    3    0    0 -0.74902217737E+01  0.15056083265E+02 -0.21854823299E+02  0.27575756875E+02  0.51100000000E-03 0. -1.
        -11    1    3    3    0    0  0.53003350874E+00  0.62674981005E+01 -0.66338861597E+01  0.91417128483E+01  0.51100000000E-03 0.  1.
        -12    1    3    3    0    0  0.53741257305E+01  0.94536844643E+01 -0.20705375873E+01  0.11069801408E+02  0.00000000000E+00 0.  1.
</event>
<event>
 7    1  0.1899036E-009  0.4778727E+02  0.7816164E-02  0.1312668E+00
        -11   -1    0    0    0    0  0.00000000000E+00  0.00000000000E+00  0.45593999997E+02  0.45594000000E+02  0.51100000000E-03 0.  1.
         11   -1    0    0    0    0 -0.00000000000E+00 -0.00000000000E+00 -0.45593999997E+02  0.45594000000E+02  0.51100000000E-03 0. -1.
    9900012    2    1    2    0    0  0.40320891503E+02 -0.79162619065E+01 -0.13970751250E+02  0.47787269768E+02  0.19999994182E+02 0.  0.
        -12    1    1    2    0    0 -0.40320891503E+02  0.79162619065E+01  0.13970751250E+02  0.43400730232E+02  0.00000000000E+00 0.  1.
         11    1    3    3    0    0  0.74339888541E+01 -0.57690311599E+01 -0.90379838166E+00  0.94531879587E+01  0.51100000000E-03 0. -1.
        -11    1    3    3    0    0  0.20950379771E+02 -0.15348994996E+01 -0.15538625297E+02  0.26128972528E+02  0.51100000000E-03 0.  1.
         12    1    3    3    0    0  0.11936522878E+02 -0.61233124708E+00  0.24716724287E+01  0.12205109281E+02  0.00000000000E+00 0. -1.
</event>
<event>
 7    1  0.1899036E-009  0.4778727E+02  0.7816164E-02  0.1312668E+00
        -11   -1    0    0    0    0  0.00000000000E+00  0.00000000000E+00  0.45593999997E+02  0.45594000000E+02  0.51100000000E-03 0.  1.
         11   -1    0    0    0    0 -0.00000000000E+00 -0.00000000000E+00 -0.45593999997E+02  0.45594000000E+02  0.51100000000E-03 0. -1.
    9900012    2    1    2    0    0  0.26667384406E+02  0.31474861705E+02 -0.13483594771E+02  0.47787266845E+02  0.19999980853E+02 0.  0.
        -12    1    1    2    0    0 -0.26667384406E+02 -0.31474861705E+02  0.13483594771E+02  0.43400733155E+02  0.00000000000E+00 0.  1.
         11    1    3    3    0    0  0.86590896283E+01  0.70254260157E+01 -0.33893571508E+01  0.11654363391E+02  0.51100000000E-03 0. -1.
        -11    1    3    3    0    0  0.18693060662E+02  0.14717930563E+02 -0.28084433608E+01  0.23956947872E+02  0.51100000000E-03 0.  1.
         12    1    3    3    0    0 -0.68476588399E+00  0.97315051261E+01 -0.72857942598E+01  0.12175955582E+02  0.00000000000E+00 0. -1.
</event>
<event>
 7    1  0.1899036E-009  0.4778728E+02  0.7816164E-02  0.1312668E+00
        -11   -1    0    0    0    0  0.00000000000E+00  0.00000000000E+00  0.45593999997E+02  0.45594000000E+02  0.51100000000E-03 0. -1.
         11   -1    0    0    0    0 -0.00000000000E+00 -0.00000000000E+00 -0.45593999997E+02  0.45594000000E+02  0.51100000000E-03 0.  1.
    9900012    2    1    2    0    0  0.10058407248E+02 -0.41352022966E+02  0.85124070812E+01  0.47787280719E+02  0.20000044112E+02 0.  0.
        -12    1    1    2    0    0 -0.10058407248E+02  0.41352022966E+02 -0.85124070812E+01  0.43400719281E+02  0.00000000000E+00 0.  1.
         11    1    3    3    0    0  0.28687520339E+01 -0.38106058484E+02  0.86808599201E+01  0.39187482193E+02  0.51100000000E-03 0.  1.
        -11    1    3    3    0    0  0.45510045908E+01 -0.19226262845E+01  0.15577523773E+01  0.51802246424E+01  0.51100000000E-03 0. -1.
        -12    1    3    3    0    0  0.26386506234E+01 -0.13233381974E+01 -0.17262052162E+01  0.34195738836E+01  0.00000000000E+00 0.  1.
</event>
<event>
 7    1  0.1899036E-009  0.4778728E+02  0.7816164E-02  0.1312668E+00
        -11   -1    0    0    0    0  0.00000000000E+00  0.00000000000E+00  0.45593999997E+02  0.45594000000E+02  0.51100000000E-03 0.  1.
         11   -1    0    0    0    0 -0.00000000000E+00 -0.00000000000E+00 -0.45593999997E+02  0.45594000000E+02  0.51100000000E-03 0. -1.
    9900012    2    1    2    0    0 -0.73645169080E+01 -0.54086636617E+01 -0.42427968916E+02  0.47787282284E+02  0.20000051247E+02 0.  0.
        -12    1    1    2    0    0  0.73645169080E+01  0.54086636617E+01  0.42427968916E+02  0.43400717716E+02  0.00000000000E+00 0.  1.
         11    1    3    3    0    0 -0.49244274076E+01 -0.78664421702E+01 -0.13822290505E+02  0.16648922270E+02  0.51100000000E-03 0. -1.
        -11    1    3    3    0    0  0.60503909495E+00 -0.10371575573E+01  0.75212748552E+00  0.14168500700E+01  0.51100000000E-03 0.  1.
         12    1    3    3    0    0 -0.30451285954E+01  0.34949360658E+01 -0.29357805897E+02  0.29721509944E+02  0.00000000000E+00 0. -1.
</event>
<event>
 7    1  0.1899036E-009  0.4778727E+02  0.7816164E-02  0.1312668E+00
        -11   -1    0    0    0    0  0.00000000000E+00  0.00000000000E+00  0.45593999997E+02  0.45594000000E+02  0.51100000000E-03 0.  1.
         11   -1    0    0    0    0 -0.00000000000E+00 -0.00000000000E+00 -0.45593999997E+02  0.45594000000E+02  0.51100000000E-03 0. -1.
    9900012    2    1    2    0    0  0.42916792870E+01 -0.91883362511E+01 -0.42199281706E+02  0.47787269469E+02  0.19999992816E+02 0.  0.
        -12    1    1    2    0    0 -0.42916792870E+01  0.91883362511E+01  0.42199281706E+02  0.43400730531E+02  0.00000000000E+00 0.  1.
         11    1    3    3    0    0  0.57940840786E+01 -0.84550189316E+00 -0.46383649501E+01  0.74699875122E+01  0.51100000000E-03 0. -1.
        -11    1    3    3    0    0 -0.10581447321E+01  0.18078732080E+01 -0.19355350594E+02  0.19468376222E+02  0.51100000000E-03 0.  1.
         12    1    3    3    0    0 -0.44426005950E+00 -0.10150707566E+02 -0.18205566161E+02  0.20848905735E+02  0.00000000000E+00 0. -1.
</event>
<event>
 7    1  0.3446219E-009  0.4778727E+02  0.7816164E-02  0.1312668E+00
        -11   -1    0    0    0    0  0.00000000000E+00  0.00000000000E+00  0.45593999997E+02  0.45594000000E+02  0.51100000000E-03 0.  1.
         11   -1    0    0    0    0 -0.00000000000E+00 -0.00000000000E+00 -0.45593999997E+02  0.45594000000E+02  0.51100000000E-03 0. -1.
    9900012    2    1    2    0    0  0.24976895980E+02 -0.20274012176E+02 -0.29133186582E+02  0.47787268866E+02  0.19999990068E+02 0.  0.
        -12    1    1    2    0    0 -0.24976895980E+02  0.20274012176E+02  0.29133186582E+02  0.43400731134E+02  0.00000000000E+00 0.  1.
         11    1    3    3    0    0  0.11043016645E+02 -0.76307873455E+01 -0.87314368268E+01  0.16012967291E+02  0.51100000000E-03 0. -1.
        -11    1    3    3    0    0  0.35615849111E+01  0.29805698954E+01 -0.81288581482E+01  0.93619986667E+01  0.51100000000E-03 0.  1.
        -12    1    3    3    0    0  0.10372294424E+02 -0.15623794726E+02 -0.12272891607E+02  0.22412302909E+02  0.00000000000E+00 0.  1.
</event>
<event>
 7    1  0.1899036E-009  0.4778727E+02  0.7816164E-02  0.1312668E+00
        -11   -1    0    0    0    0  0.00000000000E+00  0.00000000000E+00  0.45593999997E+02  0.45594000000E+02  0.51100000000E-03 0. -1.
         11   -1    0    0    0    0 -0.00000000000E+00 -0.00000000000E+00 -0.45593999997E+02  0.45594000000E+02  0.51100000000E-03 0.  1.
    9900012    2    1    2    0    0  0.71073166139E+01 -0.42475580198E+02  0.53790566907E+01  0.47787272892E+02  0.20000008426E+02 0.  0.
        -12    1    1    2    0    0 -0.71073166139E+01  0.42475580198E+02 -0.53790566907E+01  0.43400727108E+02  0.00000000000E+00 0.  1.
         11    1    3    3    0    0 -0.12590376787E+01 -0.86037657018E+01  0.60734326202E+01  0.10606438808E+02  0.51100000000E-03 0. -1.
        -11    1    3    3    0    0 -0.19621979010E+01 -0.11083441560E+02 -0.39961866972E+01  0.11944136880E+02  0.51100000000E-03 0.  1.
         12    1    3    3    0    0  0.10328552194E+02 -0.22788372936E+02  0.33018107676E+01  0.25236697205E+02  0.00000000000E+00 0. -1.
</event>
<event>
 7    1  0.1899036E-009  0.4778727E+02  0.7816164E-02  0.1312668E+00
        -11   -1    0    0    0    0  0.00000000000E+00  0.00000000000E+00  0.45593999997E+02  0.45594000000E+02  0.51100000000E-03 0.  1.
         11   -1    0    0    0    0 -0.00000000000E+00 -0.00000000000E+00 -0.45593999997E+02  0.45594000000E+02  0.51100000000E-03 0. -1.
    9900012    2    1    2    0    0 -0.40777497940E+02 -0.93520959187E+01 -0.11548044175E+02  0.47787270045E+02  0.19999995445E+02 0.  0.
        -12    1    1    2    0    0  0.40777497940E+02  0.93520959187E+01  0.11548044175E+02  0.43400729955E+02  0.00000000000E+00 0.  1.
         11    1    3    3    0    0 -0.28137804811E+02 -0.24754262528E+01 -0.10699563256E+02  0.30205040124E+02  0.51100000000E-03 0. -1.
        -11    1    3    3    0    0 -0.11367020657E+02 -0.84940673816E+01 -0.31074233467E+01  0.14526335374E+02  0.51100000000E-03 0.  1.
        -12    1    3    3    0    0 -0.12726724722E+01  0.16173977157E+01  0.22589424281E+01  0.30558945476E+01  0.00000000000E+00 0.  1.
</event>
<event>
 7    1  0.1899036E-009  0.4778728E+02  0.7816164E-02  0.1312668E+00
        -11   -1    0    0    0    0  0.00000000000E+00  0.00000000000E+00  0.45593999997E+02  0.45594000000E+02  0.51100000000E-03 0.  1.
         11   -1    0    0    0    0 -0.00000000000E+00 -0.00000000000E+00 -0.45593999997E+02  0.45594000000E+02  0.51100000000E-03 0. -1.
    9900012    2    1    2    0    0 -0.16716217177E+02 -0.13091262381E+02 -0.37852474743E+02  0.47787275218E+02  0.20000019028E+02 0.  0.
        -12    1    1    2    0    0  0.16716217177E+02  0.13091262381E+02  0.37852474743E+02  0.43400724782E+02  0.00000000000E+00 0.  1.
         11    1    3    3    0    0 -0.96428682878E+01 -0.37478146764E+01 -0.93450246798E+01  0.13941323832E+02  0.51100000000E-03 0. -1.
        -11    1    3    3    0    0  0.39380197284E+01 -0.27791151795E+01 -0.43259437167E+01  0.64765168002E+01  0.51100000000E-03 0.  1.
         12    1    3    3    0    0 -0.11011368618E+02 -0.65643325254E+01 -0.24181506346E+02  0.27369434585E+02  0.00000000000E+00 0. -1.
</event>
<event>
 7    1  0.1899036E-009  0.4778727E+02  0.7816164E-02  0.1312668E+00
        -11   -1    0    0    0    0  0.00000000000E+00  0.00000000000E+00  0.45593999997E+02  0.45594000000E+02  0.51100000000E-03 0.  1.
         11   -1    0    0    0    0 -0.00000000000E+00 -0.00000000000E+00 -0.45593999997E+02  0.45594000000E+02  0.51100000000E-03 0. -1.
    9900012    2    1    2    0    0 -0.24119982726E+02 -0.97780740273E+01 -0.34730951881E+02  0.47787270548E+02  0.19999997737E+02 0.  0.
        -12    1    1    2    0    0  0.24119982726E+02  0.97780740273E+01  0.34730951881E+02  0.43400729452E+02  0.00000000000E+00 0.  1.
         11    1    3    3    0    0  0.16432576545E+00 -0.15854372824E+01 -0.63156210228E+01  0.65136536213E+01  0.51100000000E-03 0. -1.
        -11    1    3    3    0    0  0.85264350606E+00 -0.34233836539E+01 -0.72714580112E+01  0.80821196761E+01  0.51100000000E-03 0.  1.
         12    1    3    3    0    0 -0.25136951997E+02 -0.47692530910E+01 -0.21143872847E+02  0.33191497251E+02  0.00000000000E+00 0. -1.
</event>
<event>
 7    1  0.1899036E-009  0.4778727E+02  0.7816164E-02  0.1312668E+00
        -11   -1    0    0    0    0  0.00000000000E+00  0.00000000000E+00  0.45593999997E+02  0.45594000000E+02  0.51100000000E-03 0.  1.
         11   -1    0    0    0    0 -0.00000000000E+00 -0.00000000000E+00 -0.45593999997E+02  0.45594000000E+02  0.51100000000E-03 0. -1.
    9900012    2    1    2    0    0  0.17459376142E+02 -0.15555906797E+01 -0.39703575678E+02  0.47787267296E+02  0.19999982909E+02 0.  0.
        -12    1    1    2    0    0 -0.17459376142E+02  0.15555906797E+01  0.39703575678E+02  0.43400732704E+02  0.00000000000E+00 0.  1.
         11    1    3    3    0    0  0.42243046518E+01 -0.21261713429E+01 -0.18061537407E+02  0.18670417460E+02  0.51100000000E-03 0. -1.
        -11    1    3    3    0    0  0.10934986599E+02 -0.41934975395E+01 -0.72273581972E+01  0.13762051457E+02  0.51100000000E-03 0.  1.
        -12    1    3    3    0    0  0.23000848916E+01  0.47640782027E+01 -0.14414680074E+02  0.15354798379E+02  0.00000000000E+00 0.  1.
</event>
<event>
 7    1  0.1899036E-009  0.4778728E+02  0.7816164E-02  0.1312668E+00
        -11   -1    0    0    0    0  0.00000000000E+00  0.00000000000E+00  0.45593999997E+02  0.45594000000E+02  0.51100000000E-03 0. -1.
         11   -1    0    0    0    0 -0.00000000000E+00 -0.00000000000E+00 -0.45593999997E+02  0.45594000000E+02  0.51100000000E-03 0.  1.
    9900012    2    1    2    0    0 -0.27007593263E+01  0.43148851984E+02 -0.38085945252E+01  0.47787275113E+02  0.20000018549E+02 0.  0.
        -12    1    1    2    0    0  0.27007593263E+01 -0.43148851984E+02  0.38085945252E+01  0.43400724887E+02  0.00000000000E+00 0.  1.
         11    1    3    3    0    0 -0.48259843431E+01  0.14830260076E+02 -0.32779586831E+01  0.15936491213E+02  0.51100000000E-03 0. -1.
        -11    1    3    3    0    0  0.35955352601E+01  0.18819912469E+00 -0.76586176802E+00  0.36810103539E+01  0.51100000000E-03 0.  1.
         12    1    3    3    0    0 -0.14703102432E+01  0.28130392784E+02  0.23522592590E+00  0.28169773546E+02  0.00000000000E+00 0. -1.
</event>
<event>
 7    1  0.1899036E-009  0.4778727E+02  0.7816164E-02  0.1312668E+00
        -11   -1    0    0    0    0  0.00000000000E+00  0.00000000000E+00  0.45593999997E+02  0.45594000000E+02  0.51100000000E-03 0.  1.
         11   -1    0    0    0    0 -0.00000000000E+00 -0.00000000000E+00 -0.45593999997E+02  0.45594000000E+02  0.51100000000E-03 0. -1.
    9900012    2    1    2    0    0 -0.35609353746E+02 -0.12530273885E+01 -0.24779570673E+02  0.47787271037E+02  0.19999999965E+02 0.  0.
        -12    1    1    2    0    0  0.35609353746E+02  0.12530273885E+01  0.24779570673E+02  0.43400728963E+02  0.00000000000E+00 0.  1.
         11    1    3    3    0    0 -0.18648083314E+01  0.29591355447E+01 -0.88861682504E+00  0.36088271512E+01  0.51100000000E-03 0. -1.
        -11    1    3    3    0    0 -0.10010737594E+01 -0.38611143141E+01 -0.49230401966E+01  0.63361405805E+01  0.51100000000E-03 0.  1.
         12    1    3    3    0    0 -0.32743471655E+02 -0.35104861910E+00 -0.18967913651E+02  0.37842303305E+02  0.00000000000E+00 0. -1.
</event>
<event>
 7    1  0.1899036E-009  0.4778727E+02  0.7816164E-02  0.1312668E+00
        -11   -1    0    0    0    0  0.00000000000E+00  0.00000000000E+00  0.45593999997E+02  0.45594000000E+02  0.51100000000E-03 0.  1.
         11   -1    0    0    0    0 -0.00000000000E+00 -0.00000000000E+00 -0.45593999997E+02  0.45594000000E+02  0.51100000000E-03 0. -1.
    9900012    2    1    2    0    0  0.22459782298E+02 -0.18312197696E+02 -0.32308589508E+02  0.47787270037E+02  0.19999995405E+02 0.  0.
        -12    1    1    2    0    0 -0.22459782298E+02  0.18312197696E+02  0.32308589508E+02  0.43400729963E+02  0.00000000000E+00 0.  1.
         11    1    3    3    0    0  0.44282044544E+01 -0.14425350482E+01  0.28117359890E+00  0.46657219065E+01  0.51100000000E-03 0. -1.
        -11    1    3    3    0    0  0.11831775052E+02 -0.38006794991E+01 -0.21734256076E+02  0.25036252775E+02  0.51100000000E-03 0.  1.
         12    1    3    3    0    0  0.61998027914E+01 -0.13068983149E+02 -0.10855507031E+02  0.18085295356E+02  0.00000000000E+00 0. -1.
</event>
<event>
 7    1 -0.1899036E-009  0.4778727E+02  0.7816164E-02  0.1312668E+00
        -11   -1    0    0    0    0  0.00000000000E+00  0.00000000000E+00  0.45593999997E+02  0.45594000000E+02  0.51100000000E-03 0. -1.
         11   -1    0    0    0    0 -0.00000000000E+00 -0.00000000000E+00 -0.45593999997E+02  0.45594000000E+02  0.51100000000E-03 0.  1.
    9900012    2    1    2    0    0 -0.20056681026E+02 -0.32440437046E+02 -0.20711606796E+02  0.47787273444E+02  0.20000010939E+02 0.  0.
        -12    1    1    2    0    0  0.20056681026E+02  0.32440437046E+02  0.20711606796E+02  0.43400726556E+02  0.00000000000E+00 0.  1.
         11    1    3    3    0    0 -0.17459124006E+02 -0.25492998473E+02 -0.82375700430E+01  0.31977672565E+02  0.51100000000E-03 0. -1.
        -11    1    3    3    0    0 -0.16892166493E+01  0.63604159459E+00 -0.11151035853E+01  0.21216639850E+01  0.51100000000E-03 0.  1.
        -12    1    3    3    0    0 -0.90834037084E+00 -0.75834801681E+01 -0.11358933168E+02  0.13687936894E+02  0.00000000000E+00 0.  1.
</event>
<event>
 7    1  0.1899036E-009  0.4778728E+02  0.7816164E-02  0.1312668E+00
        -11   -1    0    0    0    0  0.00000000000E+00  0.00000000000E+00  0.45593999997E+02  0.45594000000E+02  0.51100000000E-03 0.  1.
         11   -1    0    0    0    0 -0.00000000000E+00 -0.00000000000E+00 -0.45593999997E+02  0.45594000000E+02  0.51100000000E-03 0. -1.
    9900012    2    1    2    0    0 -0.42737734801E+02  0.37678372596E+01 -0.65507395853E+01  0.47787276934E+02  0.20000026851E+02 0.  0.
        -12    1    1    2    0    0  0.42737734801E+02 -0.37678372596E+01  0.65507395853E+01  0.43400723066E+02  0.00000000000E+00 0.  1.
         11    1    3    3    0    0 -0.20331624233E+02 -0.31167498317E+01 -0.11405324091E+02  0.23519576768E+02  0.51100000000E-03 0. -1.
        -11    1    3    3    0    0 -0.42604443735E+01  0.29506406308E+01  0.15449964555E+01  0.54078351214E+01  0.51100000000E-03 0.  1.
         12    1    3    3    0    0 -0.18145666195E+02  0.39339464606E+01  0.33095880505E+01  0.18859865044E+02  0.00000000000E+00 0. -1.
</event>
<event>
 7    1  0.1899036E-009  0.4778727E+02  0.7816164E-02  0.1312668E+00
        -11   -1    0    0    0    0  0.00000000000E+00  0.00000000000E+00  0.45593999997E+02  0.45594000000E+02  0.51100000000E-03 0.  1.
         11   -1    0    0    0    0 -0.00000000000E+00 -0.00000000000E+00 -0.45593999997E+02  0.45594000000E+02  0.51100000000E-03 0. -1.
    9900012    2    1    2    0    0  0.50349647829E+01 -0.15383639241E+02 -0.40269293616E+02  0.47787271493E+02  0.20000002044E+02 0.  0.
        -12    1    1    2    0    0 -0.50349647829E+01  0.15383639241E+02  0.40269293616E+02  0.43400728507E+02  0.00000000000E+00 0.  1.
         11    1    3    3    0    0 -0.57808167286E+01 -0.53398933172E+00 -0.10794366935E+02  0.12256481732E+02  0.51100000000E-03 0. -1.
        -11    1    3    3    0    0  0.29306754597E+01 -0.70399013431E+01 -0.65164257269E+01  0.10030596896E+02  0.51100000000E-03 0.  1.
        -12    1    3    3    0    0  0.78851060519E+01 -0.78097485660E+01 -0.22958500954E+02  0.25500192865E+02  0.00000000000E+00 0.  1.
</event>
<event>
 7    1  0.1899036E-009  0.4778727E+02  0.7816164E-02  0.1312668E+00
        -11   -1    0    0    0    0  0.00000000000E+00  0.00000000000E+00  0.45593999997E+02  0.45594000000E+02  0.51100000000E-03 0. -1.
         11   -1    0    0    0    0 -0.00000000000E+00 -0.00000000000E+00 -0.45593999997E+02  0.45594000000E+02  0.51100000000E-03 0.  1.
    9900012    2    1    2    0    0 -0.20084366753E+02  0.33904133390E+02 -0.18186568572E+02  0.47787270453E+02  0.19999997303E+02 0.  0.
        -12    1    1    2    0    0  0.20084366753E+02 -0.33904133390E+02  0.18186568572E+02  0.43400729547E+02  0.00000000000E+00 0.  1.
         11    1    3    3    0    0 -0.21764755583E+01  0.22542681269E+02 -0.96078843476E+01  0.24601239126E+02  0.51100000000E-03 0. -1.
        -11    1    3    3    0    0 -0.87058727448E+01  0.58751080790E+01 -0.62523146370E+01  0.12222951925E+02  0.51100000000E-03 0.  1.
         12    1    3    3    0    0 -0.92020184501E+01  0.54863440416E+01 -0.23263695873E+01  0.10963079401E+02  0.00000000000E+00 0. -1.
</event>
<event>
 7    1  0.1899036E-009  0.4778727E+02  0.7816164E-02  0.1312668E+00
        -11   -1    0    0    0    0  0.00000000000E+00  0.00000000000E+00  0.45593999997E+02  0.45594000000E+02  0.51100000000E-03 0.  1.
         11   -1    0    0    0    0 -0.00000000000E+00 -0.00000000000E+00 -0.45593999997E+02  0.45594000000E+02  0.51100000000E-03 0. -1.
    9900012    2    1    2    0    0  0.20448156473E+02 -0.49489606514E+01 -0.37960561311E+02  0.47787268098E+02  0.19999986564E+02 0.  0.
        -12    1    1    2    0    0 -0.20448156473E+02  0.49489606514E+01  0.37960561311E+02  0.43400731902E+02  0.00000000000E+00 0.  1.
         11    1    3    3    0    0  0.61009154269E+01 -0.35374660452E+01 -0.22737315646E+02  0.23805889147E+02  0.51100000000E-03 0. -1.
        -11    1    3    3    0    0  0.11850659859E+02  0.39522835464E+01 -0.11575662082E+02  0.17030990494E+02  0.51100000000E-03 0.  1.
         12    1    3    3    0    0  0.24965811868E+01 -0.53637781525E+01 -0.36475835830E+01  0.69503884558E+01  0.00000000000E+00 0. -1.
</event>
<event>
 7    1  0.1899036E-009  0.4778727E+02  0.7816164E-02  0.1312668E+00
        -11   -1    0    0    0    0  0.00000000000E+00  0.00000000000E+00  0.45593999997E+02  0.45594000000E+02  0.51100000000E-03 0. -1.
         11   -1    0    0    0    0 -0.00000000000E+00 -0.00000000000E+00 -0.45593999997E+02  0.45594000000E+02  0.51100000000E-03 0.  1.
    9900012    2    1    2    0    0  0.27288264814E+01  0.40776748510E+02  0.14609368089E+02  0.47787270180E+02  0.19999996058E+02 0.  0.
        -12    1    1    2    0    0 -0.27288264814E+01 -0.40776748510E+02 -0.14609368089E+02  0.43400729820E+02  0.00000000000E+00 0.  1.
         11    1    3    3    0    0  0.72879468479E+01  0.64453217626E+01  0.36917984912E+01  0.10406042391E+02  0.51100000000E-03 0. -1.
        -11    1    3    3    0    0 -0.84024385600E+00  0.18395655452E+02  0.10086293963E+02  0.20996177638E+02  0.51100000000E-03 0.  1.
        -12    1    3    3    0    0 -0.37188765105E+01  0.15935771294E+02  0.83127563484E+00  0.16385050150E+02  0.00000000000E+00 0.  1.
</event>
<event>
 7    1  0.2019147E-009  0.4778727E+02  0.7816164E-02  0.1312668E+00
        -11   -1    0    0    0    0  0.00000000000E+00  0.00000000000E+00  0.45593999997E+02  0.45594000000E+02  0.51100000000E-03 0.  1.
         11   -1    0    0    0    0 -0.00000000000E+00 -0.00000000000E+00 -0.45593999997E+02  0.45594000000E+02  0.51100000000E-03 0. -1.
    9900012    2    1    2    0    0 -0.56404655129E+01 -0.16743085814E+02 -0.39641867103E+02  0.47787269578E+02  0.19999993313E+02 0.  0.
        -12    1    1    2    0    0  0.56404655129E+01  0.16743085814E+02  0.39641867103E+02  0.43400730422E+02  0.00000000000E+00 0.  1.
         11    1    3    3    0    0  0.14930207897E+01 -0.10364775419E+02 -0.22464223131E+02  0.24785056016E+02  0.51100000000E-03 0. -1.
        -11    1    3    3    0    0 -0.60501167713E+01 -0.11372396383E+01 -0.16495826654E+02  0.17607087329E+02  0.51100000000E-03 0.  1.
        -12    1    3    3    0    0 -0.10833695312E+01 -0.52410707565E+01 -0.68181731767E+00  0.53951262330E+01  0.00000000000E+00 0.  1.
</event>
<event>
 7    1  0.1899036E-009  0.4778727E+02  0.7816164E-02  0.1312668E+00
        -11   -1    0    0    0    0  0.00000000000E+00  0.00000000000E+00  0.45593999997E+02  0.45594000000E+02  0.51100000000E-03 0.  1.
         11   -1    0    0    0    0 -0.00000000000E+00 -0.00000000000E+00 -0.45593999997E+02  0.45594000000E+02  0.51100000000E-03 0. -1.
    9900012    2    1    2    0    0 -0.42946011118E+02  0.95515664139E+00 -0.61928329455E+01  0.47787269879E+02  0.19999994687E+02 0.  0.
        -12    1    1    2    0    0  0.42946011118E+02 -0.95515664139E+00  0.61928329455E+01  0.43400730121E+02  0.00000000000E+00 0.  1.
         11    1    3    3    0    0 -0.15361094786E+01 -0.85048444868E-01  0.25572006219E+01  0.29843158093E+01  0.51100000000E-03 0.  1.
        -11    1    3    3    0    0 -0.30298747093E+02  0.23265606610E+01 -0.12707774593E+02  0.32938040246E+02  0.51100000000E-03 0. -1.
         12    1    3    3    0    0 -0.11111154546E+02 -0.12863555747E+01  0.39577410252E+01  0.11864913823E+02  0.00000000000E+00 0. -1.
</event>
<event>
 7    1  0.1899036E-009  0.4778727E+02  0.7816164E-02  0.1312668E+00
        -11   -1    0    0    0    0  0.00000000000E+00  0.00000000000E+00  0.45593999997E+02  0.45594000000E+02  0.51100000000E-03 0.  1.
         11   -1    0    0    0    0 -0.00000000000E+00 -0.00000000000E+00 -0.45593999997E+02  0.45594000000E+02  0.51100000000E-03 0. -1.
    9900012    2    1    2    0    0  0.10010247444E+02 -0.12608814538E+01 -0.42211707537E+02  0.47787272712E+02  0.20000007602E+02 0.  0.
        -12    1    1    2    0    0 -0.10010247444E+02  0.12608814538E+01  0.42211707537E+02  0.43400727288E+02  0.00000000000E+00 0.  1.
         11    1    3    3    0    0  0.63340993048E+00 -0.38184266957E+01 -0.13982444850E+02  0.14508285730E+02  0.51100000000E-03 0. -1.
        -11    1    3    3    0    0  0.20688167626E+01  0.76756887790E+01 -0.85670140558E+01  0.11687169509E+02  0.51100000000E-03 0.  1.
        -12    1    3    3    0    0  0.73080207508E+01 -0.51181435372E+01 -0.19662248631E+02  0.21591817473E+02  0.00000000000E+00 0.  1.
</event>
<event>
 7    1  0.1899036E-009  0.4778727E+02  0.7816164E-02  0.1312668E+00
        -11   -1    0    0    0    0  0.00000000000E+00  0.00000000000E+00  0.45593999997E+02  0.45594000000E+02  0.51100000000E-03 0.  1.
         11   -1    0    0    0    0 -0.00000000000E+00 -0.00000000000E+00 -0.45593999997E+02  0.45594000000E+02  0.51100000000E-03 0. -1.
    9900012    2    1    2    0    0  0.23584240211E+02  0.36091113171E+02 -0.49838161086E+01  0.47787271213E+02  0.20000000767E+02 0.  0.
        -12    1    1    2    0    0 -0.23584240211E+02 -0.36091113171E+02  0.49838161086E+01  0.43400728787E+02  0.00000000000E+00 0.  1.
         11    1    3    3    0    0  0.38696692461E+01  0.22967248002E+02  0.82590595825E+00  0.23305598936E+02  0.51100000000E-03 0. -1.
        -11    1    3    3    0    0  0.60798540780E+01  0.28882743485E+01 -0.14955327566E+01  0.68951702524E+01  0.51100000000E-03 0.  1.
         12    1    3    3    0    0  0.13634716887E+02  0.10235590820E+02 -0.43141893103E+01  0.17586502024E+02  0.00000000000E+00 0. -1.
</event>
<event>
 7    1  0.1899036E-009  0.4778727E+02  0.7816164E-02  0.1312668E+00
        -11   -1    0    0    0    0  0.00000000000E+00  0.00000000000E+00  0.45593999997E+02  0.45594000000E+02  0.51100000000E-03 0.  1.
         11   -1    0    0    0    0 -0.00000000000E+00 -0.00000000000E+00 -0.45593999997E+02  0.45594000000E+02  0.51100000000E-03 0. -1.
    9900012    2    1    2    0    0 -0.33644074588E+02 -0.19592974415E+02  0.19178502901E+02  0.47787269881E+02  0.19999994696E+02 0.  0.
        -12    1    1    2    0    0  0.33644074588E+02  0.19592974415E+02 -0.19178502901E+02  0.43400730119E+02  0.00000000000E+00 0.  1.
         11    1    3    3    0    0 -0.28646016037E+01 -0.61067291612E+01  0.52780659826E+01  0.85648154781E+01  0.51100000000E-03 0. -1.
        -11    1    3    3    0    0 -0.90015800088E+01  0.27219331448E+01  0.50160757865E+01  0.10658254044E+02  0.51100000000E-03 0.  1.
         12    1    3    3    0    0 -0.21777892976E+02 -0.16208178398E+02  0.88843611322E+01  0.28564200360E+02  0.00000000000E+00 0. -1.
</event>
<event>
 7    1  0.1899036E-009  0.4778727E+02  0.7816164E-02  0.1312668E+00
        -11   -1    0    0    0    0  0.00000000000E+00  0.00000000000E+00  0.45593999997E+02  0.45594000000E+02  0.51100000000E-03 0. -1.
         11   -1    0    0    0    0 -0.00000000000E+00 -0.00000000000E+00 -0.45593999997E+02  0.45594000000E+02  0.51100000000E-03 0.  1.
    9900012    2    1    2    0    0 -0.11409964872E+01  0.28713785649E+02  0.32524450380E+02  0.47787271529E+02  0.20000002210E+02 0.  0.
        -12    1    1    2    0    0  0.11409964872E+01 -0.28713785649E+02 -0.32524450380E+02  0.43400728471E+02  0.00000000000E+00 0.  1.
         11    1    3    3    0    0 -0.37199669455E+01  0.78624305529E+01  0.31644085930E+01  0.92557792908E+01  0.51100000000E-03 0. -1.
        -11    1    3    3    0    0 -0.28444122205E+01  0.13808240724E+01  0.35901695702E+00  0.31821768391E+01  0.51100000000E-03 0.  1.
         12    1    3    3    0    0  0.54233826788E+01  0.19470531024E+02  0.29001024830E+02  0.35349315399E+02  0.00000000000E+00 0. -1.
</event>
<event>
 7    1  0.1899036E-009  0.4778728E+02  0.7816164E-02  0.1312668E+00
        -11   -1    0    0    0    0  0.00000000000E+00  0.00000000000E+00  0.45593999997E+02  0.45594000000E+02  0.51100000000E-03 0.  1.
         11   -1    0    0    0    0 -0.00000000000E+00 -0.00000000000E+00 -0.45593999997E+02  0.45594000000E+02  0.51100000000E-03 0. -1.
    9900012    2    1    2    0    0 -0.31422368538E+01  0.30645630971E+02 -0.30571139277E+02  0.47787275274E+02  0.20000019282E+02 0.  0.
        -12    1    1    2    0    0  0.31422368538E+01 -0.30645630971E+02  0.30571139277E+02  0.43400724726E+02  0.00000000000E+00 0.  1.
         11    1    3    3    0    0  0.20896962772E+01  0.60659394459E+01 -0.14019981500E+02  0.15418246769E+02  0.51100000000E-03 0. -1.
        -11    1    3    3    0    0 -0.31141588154E+01  0.14746619892E+01 -0.59149625406E+01  0.68453922625E+01  0.51100000000E-03 0.  1.
        -12    1    3    3    0    0 -0.21177743156E+01  0.23105029536E+02 -0.10636195236E+02  0.25523636242E+02  0.00000000000E+00 0.  1.
</event>
<event>
 7    1  0.1899036E-009  0.4778728E+02  0.7816164E-02  0.1312668E+00
        -11   -1    0    0    0    0  0.00000000000E+00  0.00000000000E+00  0.45593999997E+02  0.45594000000E+02  0.51100000000E-03 0. -1.
         11   -1    0    0    0    0 -0.00000000000E+00 -0.00000000000E+00 -0.45593999997E+02  0.45594000000E+02  0.51100000000E-03 0.  1.
    9900012    2    1    2    0    0  0.12201162683E+02  0.38541200593E+02  0.15790178526E+02  0.47787282819E+02  0.20000053683E+02 0.  0.
        -12    1    1    2    0    0 -0.12201162683E+02 -0.38541200593E+02 -0.15790178526E+02  0.43400717181E+02  0.00000000000E+00 0.  1.
         11    1    3    3    0    0  0.10285504932E+00  0.79973638748E+01  0.11474795097E+02  0.13987113029E+02  0.51100000000E-03 0. -1.
        -11    1    3    3    0    0  0.43843898163E+01  0.15779981505E+02 -0.73365091845E+00  0.16394173791E+02  0.51100000000E-03 0.  1.
        -12    1    3    3    0    0  0.77139178173E+01  0.14763855213E+02  0.50490343471E+01  0.17405995998E+02  0.00000000000E+00 0.  1.
</event>
<event>
 7    1  0.1899036E-009  0.4778727E+02  0.7816164E-02  0.1312668E+00
        -11   -1    0    0    0    0  0.00000000000E+00  0.00000000000E+00  0.45593999997E+02  0.45594000000E+02  0.51100000000E-03 0.  1.
         11   -1    0    0    0    0 -0.00000000000E+00 -0.00000000000E+00 -0.45593999997E+02  0.45594000000E+02  0.51100000000E-03 0. -1.
    9900012    2    1    2    0    0  0.25834593858E+02  0.24491870329E+02 -0.24826298278E+02  0.47787273759E+02  0.20000012378E+02 0.  0.
        -12    1    1    2    0    0 -0.25834593858E+02 -0.24491870329E+02  0.24826298278E+02  0.43400726241E+02  0.00000000000E+00 0.  1.
         11    1    3    3    0    0  0.51912272376E+01  0.51934586922E+01 -0.10042041296E+02  0.12440395777E+02  0.51100000000E-03 0. -1.
        -11    1    3    3    0    0  0.21901433100E+02  0.15760224459E+02 -0.89873181832E+01  0.28439925021E+02  0.51100000000E-03 0.  1.
        -12    1    3    3    0    0 -0.12580664797E+01  0.35381871781E+01 -0.57969387989E+01  0.69069529616E+01  0.00000000000E+00 0.  1.
</event>
<event>
 7    1  0.1899036E-009  0.4778727E+02  0.7816164E-02  0.1312668E+00
        -11   -1    0    0    0    0  0.00000000000E+00  0.00000000000E+00  0.45593999997E+02  0.45594000000E+02  0.51100000000E-03 0.  1.
         11   -1    0    0    0    0 -0.00000000000E+00 -0.00000000000E+00 -0.45593999997E+02  0.45594000000E+02  0.51100000000E-03 0. -1.
    9900012    2    1    2    0    0 -0.36787575254E+02  0.47439525945E+01 -0.22534247420E+02  0.47787273208E+02  0.20000009864E+02 0.  0.
        -12    1    1    2    0    0  0.36787575254E+02 -0.47439525945E+01  0.22534247420E+02  0.43400726792E+02  0.00000000000E+00 0.  1.
         11    1    3    3    0    0 -0.25677010828E+02  0.79825735520E+01 -0.20887727274E+02  0.34048898903E+02  0.51100000000E-03 0. -1.
        -11    1    3    3    0    0 -0.10792264007E+02 -0.51470392339E+00 -0.19503271438E+01  0.10979146540E+02  0.51100000000E-03 0.  1.
        -12    1    3    3    0    0 -0.31830041922E+00 -0.27239170341E+01  0.30380699757E+00  0.27592277647E+01  0.00000000000E+00 0.  1.
</event>
<event>
 7    1  0.1899036E-009  0.4778726E+02  0.7816164E-02  0.1312668E+00
        -11   -1    0    0    0    0  0.00000000000E+00  0.00000000000E+00  0.45593999997E+02  0.45594000000E+02  0.51100000000E-03 0.  1.
         11   -1    0    0    0    0 -0.00000000000E+00 -0.00000000000E+00 -0.45593999997E+02  0.45594000000E+02  0.51100000000E-03 0. -1.
    9900012    2    1    2    0    0  0.38522741434E+02  0.19800501548E+02  0.27501263314E+01  0.47787255029E+02  0.19999926980E+02 0.  0.
        -12    1    1    2    0    0 -0.38522741434E+02 -0.19800501548E+02 -0.27501263314E+01  0.43400744971E+02  0.00000000000E+00 0.  1.
         11    1    3    3    0    0  0.11723138098E+02  0.55387369782E+01  0.35294560259E+01  0.13437508485E+02  0.51100000000E-03 0. -1.
        -11    1    3    3    0    0  0.14702020321E+02  0.22346881627E+01 -0.66758478344E+01  0.16300618923E+02  0.51100000000E-03 0.  1.
        -12    1    3    3    0    0  0.12097583015E+02  0.12027076407E+02  0.58965181399E+01  0.18049127621E+02  0.00000000000E+00 0.  1.
</event>
<event>
 7    1  0.1899036E-009  0.4778727E+02  0.7816164E-02  0.1312668E+00
        -11   -1    0    0    0    0  0.00000000000E+00  0.00000000000E+00  0.45593999997E+02  0.45594000000E+02  0.51100000000E-03 0.  1.
         11   -1    0    0    0    0 -0.00000000000E+00 -0.00000000000E+00 -0.45593999997E+02  0.45594000000E+02  0.51100000000E-03 0. -1.
    9900012    2    1    2    0    0 -0.78515060430E+01 -0.19038302676E+01 -0.42642145384E+02  0.47787270977E+02  0.19999999691E+02 0.  0.
        -12    1    1    2    0    0  0.78515060430E+01  0.19038302676E+01  0.42642145384E+02  0.43400729023E+02  0.00000000000E+00 0.  1.
         11    1    3    3    0    0  0.15414761426E+01 -0.24134520389E+01 -0.12755258573E+02  0.13072777859E+02  0.51100000000E-03 0. -1.
        -11    1    3    3    0    0 -0.10759084852E+02 -0.41399061845E+01 -0.14167796054E+02  0.18265354510E+02  0.51100000000E-03 0.  1.
         12    1    3    3    0    0  0.13661026668E+01  0.46495279558E+01 -0.15719090757E+02  0.16449138608E+02  0.00000000000E+00 0. -1.
</event>
<event>
 7    1  0.1899036E-009  0.4778727E+02  0.7816164E-02  0.1312668E+00
        -11   -1    0    0    0    0  0.00000000000E+00  0.00000000000E+00  0.45593999997E+02  0.45594000000E+02  0.51100000000E-03 0.  1.
         11   -1    0    0    0    0 -0.00000000000E+00 -0.00000000000E+00 -0.45593999997E+02  0.45594000000E+02  0.51100000000E-03 0. -1.
    9900012    2    1    2    0    0 -0.27720131016E+02 -0.33386268372E+02 -0.75811360448E+00  0.47787270563E+02  0.19999997807E+02 0.  0.
        -12    1    1    2    0    0  0.27720131016E+02  0.33386268372E+02  0.75811360448E+00  0.43400729437E+02  0.00000000000E+00 0.  1.
         11    1    3    3    0    0 -0.21409744929E+02 -0.10795407890E+02  0.13475681203E+01  0.24015285747E+02  0.51100000000E-03 0. -1.
        -11    1    3    3    0    0 -0.13705311196E+00 -0.54932949745E+01 -0.70766696260E+00  0.55403850068E+01  0.51100000000E-03 0.  1.
        -12    1    3    3    0    0 -0.61733329756E+01 -0.17097565508E+02 -0.13980147621E+01  0.18231599809E+02  0.00000000000E+00 0.  1.
</event>
<event>
 7    1  0.1899036E-009  0.4778727E+02  0.7816164E-02  0.1312668E+00
        -11   -1    0    0    0    0  0.00000000000E+00  0.00000000000E+00  0.45593999997E+02  0.45594000000E+02  0.51100000000E-03 0. -1.
         11   -1    0    0    0    0 -0.00000000000E+00 -0.00000000000E+00 -0.45593999997E+02  0.45594000000E+02  0.51100000000E-03 0.  1.
    9900012    2    1    2    0    0 -0.10377067558E+02 -0.39252274102E+02  0.15336192634E+02  0.47787270078E+02  0.19999995594E+02 0.  0.
        -12    1    1    2    0    0  0.10377067558E+02  0.39252274102E+02 -0.15336192634E+02  0.43400729922E+02  0.00000000000E+00 0.  1.
         11    1    3    3    0    0 -0.93677133926E+00 -0.34421644574E+01  0.69782321134E+01  0.78372036073E+01  0.51100000000E-03 0. -1.
        -11    1    3    3    0    0 -0.94107584979E+01 -0.12309402469E+02  0.21489156786E+01  0.15642941012E+02  0.51100000000E-03 0.  1.
        -12    1    3    3    0    0 -0.29537720700E-01 -0.23500707176E+02  0.62090448421E+01  0.24307125459E+02  0.00000000000E+00 0.  1.
</event>
<event>
 7    1  0.1899036E-009  0.4778727E+02  0.7816164E-02  0.1312668E+00
        -11   -1    0    0    0    0  0.00000000000E+00  0.00000000000E+00  0.45593999997E+02  0.45594000000E+02  0.51100000000E-03 0.  1.
         11   -1    0    0    0    0 -0.00000000000E+00 -0.00000000000E+00 -0.45593999997E+02  0.45594000000E+02  0.51100000000E-03 0. -1.
    9900012    2    1    2    0    0 -0.25765468299E+02  0.20376239679E+02 -0.28364989165E+02  0.47787272927E+02  0.20000008586E+02 0.  0.
        -12    1    1    2    0    0  0.25765468299E+02 -0.20376239679E+02  0.28364989165E+02  0.43400727073E+02  0.00000000000E+00 0.  1.
         11    1    3    3    0    0 -0.17963424411E+02  0.10318376446E+02 -0.20239007522E+02  0.28961542341E+02  0.51100000000E-03 0. -1.
        -11    1    3    3    0    0 -0.28307117991E+01  0.10001486829E+02 -0.90343358252E+01  0.13771778830E+02  0.51100000000E-03 0.  1.
        -12    1    3    3    0    0 -0.49713320884E+01  0.56376404377E-01  0.90835418248E+00  0.50539517561E+01  0.00000000000E+00 0.  1.
</event>
<event>
 7    1  0.1899036E-009  0.4778727E+02  0.7816164E-02  0.1312668E+00
        -11   -1    0    0    0    0  0.00000000000E+00  0.00000000000E+00  0.45593999997E+02  0.45594000000E+02  0.51100000000E-03 0.  1.
         11   -1    0    0    0    0 -0.00000000000E+00 -0.00000000000E+00 -0.45593999997E+02  0.45594000000E+02  0.51100000000E-03 0. -1.
    9900012    2    1    2    0    0 -0.32765884480E+02 -0.14507384643E+02 -0.24485827262E+02  0.47787272683E+02  0.20000007471E+02 0.  0.
        -12    1    1    2    0    0  0.32765884480E+02  0.14507384643E+02  0.24485827262E+02  0.43400727317E+02  0.00000000000E+00 0.  1.
         11    1    3    3    0    0 -0.30009679074E+02 -0.97161656433E+01 -0.15200762364E+02  0.35014966651E+02  0.51100000000E-03 0. -1.
        -11    1    3    3    0    0 -0.12565810296E+01 -0.40147183035E+01 -0.10095141062E+01  0.43262082627E+01  0.51100000000E-03 0.  1.
         12    1    3    3    0    0 -0.14996243764E+01 -0.77650069634E+00 -0.82755507925E+01  0.84460977689E+01  0.00000000000E+00 0. -1.
</event>
<event>
 7    1  0.1899036E-009  0.4778726E+02  0.7816164E-02  0.1312668E+00
        -11   -1    0    0    0    0  0.00000000000E+00  0.00000000000E+00  0.45593999997E+02  0.45594000000E+02  0.51100000000E-03 0. -1.
         11   -1    0    0    0    0 -0.00000000000E+00 -0.00000000000E+00 -0.45593999997E+02  0.45594000000E+02  0.51100000000E-03 0.  1.
    9900012    2    1    2    0    0 -0.15858183503E+02  0.39948615799E+02 -0.60208412762E+01  0.47787257864E+02  0.19999939903E+02 0.  0.
        -12    1    1    2    0    0  0.15858183503E+02 -0.39948615799E+02  0.60208412762E+01  0.43400742136E+02  0.00000000000E+00 0.  1.
         11    1    3    3    0    0 -0.77859155958E+01  0.14704648633E+02 -0.10025170202E+02  0.19425529875E+02  0.51100000000E-03 0. -1.
        -11    1    3    3    0    0 -0.23690158681E+01  0.17426796807E+02 -0.70264366013E+00  0.17601113360E+02  0.51100000000E-03 0.  1.
        -12    1    3    3    0    0 -0.57032520396E+01  0.78171703593E+01  0.47069725860E+01  0.10760614628E+02  0.00000000000E+00 0.  1.
</event>
<event>
 7    1  0.1899036E-009  0.4778726E+02  0.7816164E-02  0.1312668E+00
        -11   -1    0    0    0    0  0.00000000000E+00  0.00000000000E+00  0.45593999997E+02  0.45594000000E+02  0.51100000000E-03 0.  1.
         11   -1    0    0    0    0 -0.00000000000E+00 -0.00000000000E+00 -0.45593999997E+02  0.45594000000E+02  0.51100000000E-03 0. -1.
    9900012    2    1    2    0    0  0.21250756732E+02  0.30093103159E+02 -0.22944163247E+02  0.47787260991E+02  0.19999954164E+02 0.  0.
        -12    1    1    2    0    0 -0.21250756732E+02 -0.30093103159E+02  0.22944163247E+02  0.43400739009E+02  0.00000000000E+00 0.  1.
         11    1    3    3    0    0 -0.11834544564E+01  0.68359459276E+01 -0.60781977728E+00  0.69642060795E+01  0.51100000000E-03 0. -1.
        -11    1    3    3    0    0  0.78667150600E+01  0.17679304550E+01 -0.37382255441E+01  0.88873569979E+01  0.51100000000E-03 0.  1.
         12    1    3    3    0    0  0.14567496128E+02  0.21489226776E+02 -0.18598117925E+02  0.31935697914E+02  0.00000000000E+00 0. -1.
</event>
<event>
 7    1  0.1899036E-009  0.4778727E+02  0.7816164E-02  0.1312668E+00
        -11   -1    0    0    0    0  0.00000000000E+00  0.00000000000E+00  0.45593999997E+02  0.45594000000E+02  0.51100000000E-03 0. -1.
         11   -1    0    0    0    0 -0.00000000000E+00 -0.00000000000E+00 -0.45593999997E+02  0.45594000000E+02  0.51100000000E-03 0.  1.
    9900012    2    1    2    0    0  0.10373154318E+02  0.41692572137E+02 -0.61441443145E+01  0.47787269461E+02  0.19999992782E+02 0.  0.
        -12    1    1    2    0    0 -0.10373154318E+02 -0.41692572137E+02  0.61441443145E+01  0.43400730539E+02  0.00000000000E+00 0.  1.
         11    1    3    3    0    0  0.45093942243E+01  0.28534937941E+02  0.25666811661E+01  0.29002847654E+02  0.51100000000E-03 0. -1.
        -11    1    3    3    0    0  0.67217662630E-02  0.16539128796E+01  0.15710575409E+01  0.22811609003E+01  0.51100000000E-03 0.  1.
        -12    1    3    3    0    0  0.58570383276E+01  0.11503721317E+02 -0.10281883022E+02  0.16503260907E+02  0.00000000000E+00 0.  1.
</event>
<event>
 7    1  0.1899036E-009  0.4778727E+02  0.7816164E-02  0.1312668E+00
        -11   -1    0    0    0    0  0.00000000000E+00  0.00000000000E+00  0.45593999997E+02  0.45594000000E+02  0.51100000000E-03 0.  1.
         11   -1    0    0    0    0 -0.00000000000E+00 -0.00000000000E+00 -0.45593999997E+02  0.45594000000E+02  0.51100000000E-03 0. -1.
    9900012    2    1    2    0    0  0.19241845891E+02  0.22044788573E+02 -0.32053114686E+02  0.47787268467E+02  0.19999988247E+02 0.  0.
        -12    1    1    2    0    0 -0.19241845891E+02 -0.22044788573E+02  0.32053114686E+02  0.43400731533E+02  0.00000000000E+00 0.  1.
         11    1    3    3    0    0  0.38447493392E+01  0.14562399904E+02 -0.13478005984E+02  0.20211438198E+02  0.51100000000E-03 0. -1.
        -11    1    3    3    0    0  0.83730382085E+01  0.50832198087E+01 -0.17528759590E+02  0.20079947846E+02  0.51100000000E-03 0.  1.
        -12    1    3    3    0    0  0.70240583433E+01  0.23991688604E+01 -0.10463491119E+01  0.74958824227E+01  0.00000000000E+00 0.  1.
</event>
<event>
 7    1  0.1899036E-009  0.4778727E+02  0.7816164E-02  0.1312668E+00
        -11   -1    0    0    0    0  0.00000000000E+00  0.00000000000E+00  0.45593999997E+02  0.45594000000E+02  0.51100000000E-03 0.  1.
         11   -1    0    0    0    0 -0.00000000000E+00 -0.00000000000E+00 -0.45593999997E+02  0.45594000000E+02  0.51100000000E-03 0. -1.
    9900012    2    1    2    0    0  0.29118276162E+02 -0.32181478085E+02 -0.31860672290E+00  0.47787273639E+02  0.20000011832E+02 0.  0.
        -12    1    1    2    0    0 -0.29118276162E+02  0.32181478085E+02  0.31860672290E+00  0.43400726361E+02  0.00000000000E+00 0.  1.
         11    1    3    3    0    0  0.12324280104E+02 -0.98638485063E+01 -0.52616158472E+01  0.16639350619E+02  0.51100000000E-03 0.  1.
        -11    1    3    3    0    0  0.17859906653E+02 -0.22536052332E+02  0.62712600406E+01  0.29430912713E+02  0.51100000000E-03 0. -1.
         12    1    3    3    0    0 -0.10659105957E+01  0.21842275332E+00 -0.13282509163E+01  0.17170103069E+01  0.00000000000E+00 0. -1.
</event>
<event>
 7    1  0.1899036E-009  0.4778728E+02  0.7816164E-02  0.1312668E+00
        -11   -1    0    0    0    0  0.00000000000E+00  0.00000000000E+00  0.45593999997E+02  0.45594000000E+02  0.51100000000E-03 0.  1.
         11   -1    0    0    0    0 -0.00000000000E+00 -0.00000000000E+00 -0.45593999997E+02  0.45594000000E+02  0.51100000000E-03 0. -1.
    9900012    2    1    2    0    0 -0.38677245221E+02  0.25637977297E+01 -0.19522304359E+02  0.47787277378E+02  0.20000028876E+02 0.  0.
        -12    1    1    2    0    0  0.38677245221E+02 -0.25637977297E+01  0.19522304359E+02  0.43400722622E+02  0.00000000000E+00 0.  1.
         11    1    3    3    0    0 -0.12686332676E+02 -0.21797825402E+00 -0.23497862191E+01  0.12903954697E+02  0.51100000000E-03 0. -1.
        -11    1    3    3    0    0 -0.85608067115E+01 -0.30713421838E+01 -0.13269092580E+02  0.16086931731E+02  0.51100000000E-03 0.  1.
        -12    1    3    3    0    0 -0.17430105833E+02  0.58531181676E+01 -0.39034255602E+01  0.18796390949E+02  0.00000000000E+00 0.  1.
</event>
<event>
 7    1  0.1899036E-009  0.4778727E+02  0.7816164E-02  0.1312668E+00
        -11   -1    0    0    0    0  0.00000000000E+00  0.00000000000E+00  0.45593999997E+02  0.45594000000E+02  0.51100000000E-03 0. -1.
         11   -1    0    0    0    0 -0.00000000000E+00 -0.00000000000E+00 -0.45593999997E+02  0.45594000000E+02  0.51100000000E-03 0.  1.
    9900012    2    1    2    0    0  0.42319837020E+02 -0.68284228955E+01 -0.67843514251E+01  0.47787269720E+02  0.19999993960E+02 0.  0.
        -12    1    1    2    0    0 -0.42319837020E+02  0.68284228955E+01  0.67843514251E+01  0.43400730280E+02  0.00000000000E+00 0.  1.
         11    1    3    3    0    0  0.18124231142E+02 -0.32518421814E+01  0.18418592838E+01  0.18505531010E+02  0.51100000000E-03 0. -1.
        -11    1    3    3    0    0 -0.28058736938E+00 -0.34765382495E+01 -0.73232333782E+00  0.35638946680E+01  0.51100000000E-03 0.  1.
         12    1    3    3    0    0  0.24476193247E+02 -0.10004246456E+00 -0.78938873711E+01  0.25717844042E+02  0.00000000000E+00 0. -1.
</event>
<event>
 7    1  0.1899036E-009  0.4778727E+02  0.7816164E-02  0.1312668E+00
        -11   -1    0    0    0    0  0.00000000000E+00  0.00000000000E+00  0.45593999997E+02  0.45594000000E+02  0.51100000000E-03 0.  1.
         11   -1    0    0    0    0 -0.00000000000E+00 -0.00000000000E+00 -0.45593999997E+02  0.45594000000E+02  0.51100000000E-03 0. -1.
    9900012    2    1    2    0    0 -0.25151928720E+00 -0.17024421102E+01 -0.43366599559E+02  0.47787268112E+02  0.19999986631E+02 0.  0.
        -12    1    1    2    0    0  0.25151928720E+00  0.17024421102E+01  0.43366599559E+02  0.43400731888E+02  0.00000000000E+00 0.  1.
         11    1    3    3    0    0  0.72711469075E+01  0.21970310927E+01 -0.29441256054E+02  0.30405329817E+02  0.51100000000E-03 0. -1.
        -11    1    3    3    0    0 -0.87636952089E+00  0.15677566746E+01 -0.24760336279E+01  0.30588604603E+01  0.51100000000E-03 0.  1.
         12    1    3    3    0    0 -0.66462966738E+01 -0.54672298775E+01 -0.11449309877E+02  0.14323077835E+02  0.00000000000E+00 0. -1.
</event>
<event>
 7    1  0.1899036E-009  0.4778727E+02  0.7816164E-02  0.1312668E+00
        -11   -1    0    0    0    0  0.00000000000E+00  0.00000000000E+00  0.45593999997E+02  0.45594000000E+02  0.51100000000E-03 0.  1.
         11   -1    0    0    0    0 -0.00000000000E+00 -0.00000000000E+00 -0.45593999997E+02  0.45594000000E+02  0.51100000000E-03 0. -1.
    9900012    2    1    2    0    0  0.17650347655E+02 -0.39423081696E+02 -0.42319383640E+01  0.47787269072E+02  0.19999991006E+02 0.  0.
        -12    1    1    2    0    0 -0.17650347655E+02  0.39423081696E+02  0.42319383640E+01  0.43400730928E+02  0.00000000000E+00 0.  1.
         11    1    3    3    0    0  0.86417066230E+01 -0.15785660110E+02 -0.31346794515E+01  0.18267248671E+02  0.51100000000E-03 0. -1.
        -11    1    3    3    0    0  0.12584421086E+02 -0.20123315451E+02 -0.34468673921E+01  0.23983251946E+02  0.51100000000E-03 0.  1.
        -12    1    3    3    0    0 -0.35757800539E+01 -0.35141061351E+01  0.23496084796E+01  0.55367684555E+01  0.00000000000E+00 0.  1.
</event>
<event>
 7    1  0.1899036E-009  0.4778728E+02  0.7816164E-02  0.1312668E+00
        -11   -1    0    0    0    0  0.00000000000E+00  0.00000000000E+00  0.45593999997E+02  0.45594000000E+02  0.51100000000E-03 0.  1.
         11   -1    0    0    0    0 -0.00000000000E+00 -0.00000000000E+00 -0.45593999997E+02  0.45594000000E+02  0.51100000000E-03 0. -1.
    9900012    2    1    2    0    0  0.12434438227E+01 -0.43370276643E+02 -0.10465656616E+01  0.47787281708E+02  0.20000048619E+02 0.  0.
        -12    1    1    2    0    0 -0.12434438227E+01  0.43370276643E+02  0.10465656616E+01  0.43400718292E+02  0.00000000000E+00 0.  1.
         11    1    3    3    0    0  0.12326880800E+01 -0.18796067714E+02  0.62897955385E+01  0.19858832030E+02  0.51100000000E-03 0.  1.
        -11    1    3    3    0    0  0.38470915905E+01 -0.21428557598E+02 -0.45609373067E+01  0.22243770899E+02  0.51100000000E-03 0. -1.
        -12    1    3    3    0    0 -0.38363358478E+01 -0.31456513306E+01 -0.27754238935E+01  0.56846787789E+01  0.00000000000E+00 0.  1.
</event>
<event>
 7    1  0.1899036E-009  0.4778727E+02  0.7816164E-02  0.1312668E+00
        -11   -1    0    0    0    0  0.00000000000E+00  0.00000000000E+00  0.45593999997E+02  0.45594000000E+02  0.51100000000E-03 0. -1.
         11   -1    0    0    0    0 -0.00000000000E+00 -0.00000000000E+00 -0.45593999997E+02  0.45594000000E+02  0.51100000000E-03 0.  1.
    9900012    2    1    2    0    0 -0.27681449342E+02  0.30919825265E+02  0.12701379719E+02  0.47787270987E+02  0.19999999737E+02 0.  0.
        -12    1    1    2    0    0  0.27681449342E+02 -0.30919825265E+02 -0.12701379719E+02  0.43400729013E+02  0.00000000000E+00 0.  1.
         11    1    3    3    0    0 -0.63634449371E+01  0.92896670143E+01  0.10306279453E+02  0.15264689356E+02  0.51100000000E-03 0. -1.
        -11    1    3    3    0    0 -0.35652121744E+01  0.94735342799E+01  0.41393223004E+01  0.10935839198E+02  0.51100000000E-03 0.  1.
        -12    1    3    3    0    0 -0.17752792231E+02  0.12156623971E+02 -0.17442220345E+01  0.21586742433E+02  0.00000000000E+00 0.  1.
</event>
<event>
 7    1  0.1899036E-009  0.4778727E+02  0.7816164E-02  0.1312668E+00
        -11   -1    0    0    0    0  0.00000000000E+00  0.00000000000E+00  0.45593999997E+02  0.45594000000E+02  0.51100000000E-03 0.  1.
         11   -1    0    0    0    0 -0.00000000000E+00 -0.00000000000E+00 -0.45593999997E+02  0.45594000000E+02  0.51100000000E-03 0. -1.
    9900012    2    1    2    0    0 -0.42368539472E+02 -0.70347614867E+01  0.62483730793E+01  0.47787272215E+02  0.20000005336E+02 0.  0.
        -12    1    1    2    0    0  0.42368539472E+02  0.70347614867E+01 -0.62483730793E+01  0.43400727785E+02  0.00000000000E+00 0.  1.
         11    1    3    3    0    0 -0.12515552265E+02 -0.66432697048E+01 -0.84773511375E+00  0.14194743251E+02  0.51100000000E-03 0. -1.
        -11    1    3    3    0    0  0.21872512668E+00  0.25209999373E+01 -0.10909507383E+00  0.25328212257E+01  0.51100000000E-03 0.  1.
         12    1    3    3    0    0 -0.30071712333E+02 -0.29124917192E+01  0.72052032668E+01  0.31059707738E+02  0.00000000000E+00 0. -1.
</event>
<event>
 7    1  0.2035670E-009  0.4778728E+02  0.7816164E-02  0.1312668E+00
        -11   -1    0    0    0    0  0.00000000000E+00  0.00000000000E+00  0.45593999997E+02  0.45594000000E+02  0.51100000000E-03 0.  1.
         11   -1    0    0    0    0 -0.00000000000E+00 -0.00000000000E+00 -0.45593999997E+02  0.45594000000E+02  0.51100000000E-03 0. -1.
    9900012    2    1    2    0    0 -0.37047529496E+02  0.20893871231E+02  0.86342112283E+01  0.47787275348E+02  0.20000019623E+02 0.  0.
        -12    1    1    2    0    0  0.37047529496E+02 -0.20893871231E+02 -0.86342112283E+01  0.43400724652E+02  0.00000000000E+00 0.  1.
         11    1    3    3    0    0 -0.17316286128E+02  0.14850584775E+02 -0.68858047892E+00  0.22822527835E+02  0.51100000000E-03 0. -1.
        -11    1    3    3    0    0 -0.49652927332E+00 -0.18487187916E+01 -0.48792512661E+00  0.19754426541E+01  0.51100000000E-03 0.  1.
        -12    1    3    3    0    0 -0.19234714095E+02  0.78920052472E+01  0.98107168338E+01  0.22989304859E+02  0.00000000000E+00 0.  1.
</event>
<event>
 7    1  0.1899036E-009  0.4778727E+02  0.7816164E-02  0.1312668E+00
        -11   -1    0    0    0    0  0.00000000000E+00  0.00000000000E+00  0.45593999997E+02  0.45594000000E+02  0.51100000000E-03 0.  1.
         11   -1    0    0    0    0 -0.00000000000E+00 -0.00000000000E+00 -0.45593999997E+02  0.45594000000E+02  0.51100000000E-03 0. -1.
    9900012    2    1    2    0    0  0.74256382216E+01 -0.18173685090E+02 -0.38706595847E+02  0.47787268499E+02  0.19999988396E+02 0.  0.
        -12    1    1    2    0    0 -0.74256382216E+01  0.18173685090E+02  0.38706595847E+02  0.43400731501E+02  0.00000000000E+00 0.  1.
         11    1    3    3    0    0 -0.44237726993E+01 -0.31454488347E+01 -0.12728841412E+02  0.13837883408E+02  0.51100000000E-03 0.  1.
        -11    1    3    3    0    0  0.46940406627E+01 -0.11513427586E+02 -0.21418220658E+02  0.24765564984E+02  0.51100000000E-03 0. -1.
        -12    1    3    3    0    0  0.71553702582E+01 -0.35148086691E+01 -0.45595337764E+01  0.91838201077E+01  0.00000000000E+00 0.  1.
</event>
<event>
 7    1  0.1899036E-009  0.4778727E+02  0.7816164E-02  0.1312668E+00
        -11   -1    0    0    0    0  0.00000000000E+00  0.00000000000E+00  0.45593999997E+02  0.45594000000E+02  0.51100000000E-03 0.  1.
         11   -1    0    0    0    0 -0.00000000000E+00 -0.00000000000E+00 -0.45593999997E+02  0.45594000000E+02  0.51100000000E-03 0. -1.
    9900012    2    1    2    0    0  0.15450186821E+02 -0.53270163685E+01 -0.40206198054E+02  0.47787265696E+02  0.19999975615E+02 0.  0.
        -12    1    1    2    0    0 -0.15450186821E+02  0.53270163685E+01  0.40206198054E+02  0.43400734304E+02  0.00000000000E+00 0.  1.
         11    1    3    3    0    0 -0.91239125967E+00  0.37240170090E+01 -0.70469293614E+01  0.80224668388E+01  0.51100000000E-03 0.  1.
        -11    1    3    3    0    0  0.79987838397E+00 -0.23600591942E+01 -0.13873854537E+02  0.14095869069E+02  0.51100000000E-03 0. -1.
        -12    1    3    3    0    0  0.15562699696E+02 -0.66909741833E+01 -0.19285414155E+02  0.25668929789E+02  0.00000000000E+00 0.  1.
</event>
<event>
 7    1  0.1899036E-009  0.4778727E+02  0.7816164E-02  0.1312668E+00
        -11   -1    0    0    0    0  0.00000000000E+00  0.00000000000E+00  0.45593999997E+02  0.45594000000E+02  0.51100000000E-03 0.  1.
         11   -1    0    0    0    0 -0.00000000000E+00 -0.00000000000E+00 -0.45593999997E+02  0.45594000000E+02  0.51100000000E-03 0. -1.
    9900012    2    1    2    0    0 -0.12456006801E+02  0.37718083027E+02 -0.17487631297E+02  0.47787272575E+02  0.20000006977E+02 0.  0.
        -12    1    1    2    0    0  0.12456006801E+02 -0.37718083027E+02  0.17487631297E+02  0.43400727425E+02  0.00000000000E+00 0.  1.
         11    1    3    3    0    0 -0.68082165119E+01  0.28136109893E+02 -0.95967867007E+01  0.30497390170E+02  0.51100000000E-03 0. -1.
        -11    1    3    3    0    0 -0.83232743695E+01  0.73093553754E+01 -0.33947337524E+01  0.11585671743E+02  0.51100000000E-03 0.  1.
        -12    1    3    3    0    0  0.26754840805E+01  0.22726177591E+01 -0.44961108440E+01  0.57042106611E+01  0.00000000000E+00 0.  1.
</event>
<event>
 7    1  0.1899036E-009  0.4778727E+02  0.7816164E-02  0.1312668E+00
        -11   -1    0    0    0    0  0.00000000000E+00  0.00000000000E+00  0.45593999997E+02  0.45594000000E+02  0.51100000000E-03 0.  1.
         11   -1    0    0    0    0 -0.00000000000E+00 -0.00000000000E+00 -0.45593999997E+02  0.45594000000E+02  0.51100000000E-03 0. -1.
    9900012    2    1    2    0    0  0.12749160333E+02  0.27110359479E+02 -0.31402396523E+02  0.47787272038E+02  0.20000004529E+02 0.  0.
        -12    1    1    2    0    0 -0.12749160333E+02 -0.27110359479E+02  0.31402396523E+02  0.43400727962E+02  0.00000000000E+00 0.  1.
         11    1    3    3    0    0  0.23055450129E+01  0.10464707910E+02 -0.23513916958E+01  0.10970628633E+02  0.51100000000E-03 0.  1.
        -11    1    3    3    0    0  0.95862387917E+01  0.17922621332E+02 -0.23567120866E+02  0.31121142585E+02  0.51100000000E-03 0. -1.
        -12    1    3    3    0    0  0.85737652812E+00 -0.12769697631E+01 -0.54838839612E+01  0.56955008197E+01  0.00000000000E+00 0.  1.
</event>
<event>
 7    1  0.1899036E-009  0.4778727E+02  0.7816164E-02  0.1312668E+00
        -11   -1    0    0    0    0  0.00000000000E+00  0.00000000000E+00  0.45593999997E+02  0.45594000000E+02  0.51100000000E-03 0.  1.
         11   -1    0    0    0    0 -0.00000000000E+00 -0.00000000000E+00 -0.45593999997E+02  0.45594000000E+02  0.51100000000E-03 0. -1.
    9900012    2    1    2    0    0  0.15142509184E+02  0.30583685175E+02 -0.26813543801E+02  0.47787268273E+02  0.19999987365E+02 0.  0.
        -12    1    1    2    0    0 -0.15142509184E+02 -0.30583685175E+02  0.26813543801E+02  0.43400731727E+02  0.00000000000E+00 0.  1.
         11    1    3    3    0    0 -0.29856969659E+01  0.65376235301E+01 -0.57934095172E+01  0.92313867804E+01  0.51100000000E-03 0.  1.
        -11    1    3    3    0    0  0.13338093563E+02  0.16474341410E+02 -0.78016874241E+01  0.22587053630E+02  0.51100000000E-03 0. -1.
         12    1    3    3    0    0  0.47901125866E+01  0.75717202347E+01 -0.13218446860E+02  0.15968827862E+02  0.00000000000E+00 0. -1.
</event>
<event>
 7    1  0.2225628E-009  0.4778727E+02  0.7816164E-02  0.1312668E+00
        -11   -1    0    0    0    0  0.00000000000E+00  0.00000000000E+00  0.45593999997E+02  0.45594000000E+02  0.51100000000E-03 0. -1.
         11   -1    0    0    0    0 -0.00000000000E+00 -0.00000000000E+00 -0.45593999997E+02  0.45594000000E+02  0.51100000000E-03 0.  1.
    9900012    2    1    2    0    0  0.29523451927E+02  0.18511313414E+02  0.25871221774E+02  0.47787273577E+02  0.20000011546E+02 0.  0.
        -12    1    1    2    0    0 -0.29523451927E+02 -0.18511313414E+02 -0.25871221774E+02  0.43400726423E+02  0.00000000000E+00 0.  1.
         11    1    3    3    0    0  0.15473953824E+02  0.22381482507E+01  0.13171744470E+02  0.20443762060E+02  0.51100000000E-03 0. -1.
        -11    1    3    3    0    0  0.96833445626E+01  0.78789453705E+01  0.13337993758E+01  0.12554838235E+02  0.51100000000E-03 0.  1.
        -12    1    3    3    0    0  0.43661535406E+01  0.83942197929E+01  0.11365677928E+02  0.14788673282E+02  0.00000000000E+00 0.  1.
</event>
<event>
 7    1  0.1899036E-009  0.4778726E+02  0.7816164E-02  0.1312668E+00
        -11   -1    0    0    0    0  0.00000000000E+00  0.00000000000E+00  0.45593999997E+02  0.45594000000E+02  0.51100000000E-03 0.  1.
         11   -1    0    0    0    0 -0.00000000000E+00 -0.00000000000E+00 -0.45593999997E+02  0.45594000000E+02  0.51100000000E-03 0. -1.
    9900012    2    1    2    0    0  0.11192467267E+02 -0.37360056814E+02 -0.19041501278E+02  0.47787263375E+02  0.19999965034E+02 0.  0.
        -12    1    1    2    0    0 -0.11192467267E+02  0.37360056814E+02  0.19041501278E+02  0.43400736625E+02  0.00000000000E+00 0.  1.
         11    1    3    3    0    0  0.62042741926E+01 -0.16761435426E+02 -0.55694958771E+01  0.18720524041E+02  0.51100000000E-03 0. -1.
        -11    1    3    3    0    0 -0.48158404577E+00 -0.76537642079E+01 -0.12893487613E+02  0.15001801652E+02  0.51100000000E-03 0.  1.
        -12    1    3    3    0    0  0.54697771204E+01 -0.12944857180E+02 -0.57851778790E+00  0.14064937682E+02  0.00000000000E+00 0.  1.
</event>
<event>
 7    1  0.1899036E-009  0.4778729E+02  0.7816164E-02  0.1312668E+00
        -11   -1    0    0    0    0  0.00000000000E+00  0.00000000000E+00  0.45593999997E+02  0.45594000000E+02  0.51100000000E-03 0.  1.
         11   -1    0    0    0    0 -0.00000000000E+00 -0.00000000000E+00 -0.45593999997E+02  0.45594000000E+02  0.51100000000E-03 0. -1.
    9900012    2    1    2    0    0 -0.55656023226E+01  0.21067251623E+02 -0.37534207488E+02  0.47787288578E+02  0.20000079943E+02 0.  0.
        -12    1    1    2    0    0  0.55656023226E+01 -0.21067251623E+02  0.37534207488E+02  0.43400711422E+02  0.00000000000E+00 0.  1.
         11    1    3    3    0    0 -0.11756803619E+00  0.10865689606E+02 -0.17582890955E+02  0.20669665877E+02  0.51100000000E-03 0. -1.
        -11    1    3    3    0    0 -0.13632784894E+01  0.12655154682E+02 -0.10374167328E+02  0.16420560778E+02  0.51100000000E-03 0.  1.
        -12    1    3    3    0    0 -0.40847557970E+01 -0.24535926649E+01 -0.95771492049E+01  0.10697061923E+02  0.00000000000E+00 0.  1.
</event>
<event>
 7    1  0.2030231E-009  0.4778727E+02  0.7816164E-02  0.1312668E+00
        -11   -1    0    0    0    0  0.00000000000E+00  0.00000000000E+00  0.45593999997E+02  0.45594000000E+02  0.51100000000E-03 0.  1.
         11   -1    0    0    0    0 -0.00000000000E+00 -0.00000000000E+00 -0.45593999997E+02  0.45594000000E+02  0.51100000000E-03 0. -1.
    9900012    2    1    2    0    0  0.39009196280E+02  0.18920413665E+02  0.19808986807E+01  0.47787269508E+02  0.19999992992E+02 0.  0.
        -12    1    1    2    0    0 -0.39009196280E+02 -0.18920413665E+02 -0.19808986807E+01  0.43400730492E+02  0.00000000000E+00 0.  1.
         11    1    3    3    0    0  0.91918387344E+01  0.56942869671E+01 -0.23629044883E+01  0.11067886938E+02  0.51100000000E-03 0. -1.
        -11    1    3    3    0    0  0.55303907229E+01  0.20809170480E+01  0.77883184091E+01  0.97761618855E+01  0.51100000000E-03 0.  1.
        -12    1    3    3    0    0  0.24286966823E+02  0.11145209650E+02 -0.34445152402E+01  0.26943220684E+02  0.00000000000E+00 0.  1.
</event>
<event>
 7    1  0.1899036E-009  0.4778727E+02  0.7816164E-02  0.1312668E+00
        -11   -1    0    0    0    0  0.00000000000E+00  0.00000000000E+00  0.45593999997E+02  0.45594000000E+02  0.51100000000E-03 0.  1.
         11   -1    0    0    0    0 -0.00000000000E+00 -0.00000000000E+00 -0.45593999997E+02  0.45594000000E+02  0.51100000000E-03 0. -1.
    9900012    2    1    2    0    0 -0.94594002027E+01 -0.39949394016E+02 -0.14077957209E+02  0.47787271739E+02  0.20000003167E+02 0.  0.
        -12    1    1    2    0    0  0.94594002027E+01  0.39949394016E+02  0.14077957209E+02  0.43400728261E+02  0.00000000000E+00 0.  1.
         11    1    3    3    0    0 -0.20672475591E+01 -0.55301823639E+01 -0.54781021955E+01  0.80539452055E+01  0.51100000000E-03 0. -1.
        -11    1    3    3    0    0 -0.60466448574E+01 -0.54291674448E+01 -0.69029950673E+01  0.10662509758E+02  0.51100000000E-03 0.  1.
         12    1    3    3    0    0 -0.13455077862E+01 -0.28990044207E+02 -0.16968599458E+01  0.29070816776E+02  0.00000000000E+00 0. -1.
</event>
<event>
 7    1  0.1899036E-009  0.4778732E+02  0.7816164E-02  0.1312668E+00
        -11   -1    0    0    0    0  0.00000000000E+00  0.00000000000E+00  0.45593999997E+02  0.45594000000E+02  0.51100000000E-03 0. -1.
         11   -1    0    0    0    0 -0.00000000000E+00 -0.00000000000E+00 -0.45593999997E+02  0.45594000000E+02  0.51100000000E-03 0.  1.
    9900012    2    1    2    0    0  0.38213359716E+02  0.22556867154E+01  0.20451650595E+02  0.47787320335E+02  0.20000224732E+02 0.  0.
        -12    1    1    2    0    0 -0.38213359716E+02 -0.22556867154E+01 -0.20451650595E+02  0.43400679665E+02  0.00000000000E+00 0.  1.
         11    1    3    3    0    0  0.36478384668E+02  0.38788228026E+01  0.16057736680E+02  0.40044584177E+02  0.51100000000E-03 0. -1.
        -11    1    3    3    0    0  0.36818114321E+01 -0.18317649465E+01  0.17904608983E+01  0.44851810142E+01  0.51100000000E-03 0.  1.
        -12    1    3    3    0    0 -0.19468363839E+01  0.20862885936E+00  0.26034530162E+01  0.32575551437E+01  0.00000000000E+00 0.  1.
</event>
<event>
 7    1  0.1899036E-009  0.4778727E+02  0.7816164E-02  0.1312668E+00
        -11   -1    0    0    0    0  0.00000000000E+00  0.00000000000E+00  0.45593999997E+02  0.45594000000E+02  0.51100000000E-03 0.  1.
         11   -1    0    0    0    0 -0.00000000000E+00 -0.00000000000E+00 -0.45593999997E+02  0.45594000000E+02  0.51100000000E-03 0. -1.
    9900012    2    1    2    0    0  0.41274816548E+02 -0.10791716756E+02 -0.79719145519E+01  0.47787273587E+02  0.20000011592E+02 0.  0.
        -12    1    1    2    0    0 -0.41274816548E+02  0.10791716756E+02  0.79719145519E+01  0.43400726413E+02  0.00000000000E+00 0.  1.
         11    1    3    3    0    0  0.39269850063E+02 -0.78179361889E+01 -0.75193108456E+01  0.40740413425E+02  0.51100000000E-03 0. -1.
        -11    1    3    3    0    0  0.17088662428E+01 -0.17638666285E+01 -0.31979411521E+01  0.40321554029E+01  0.51100000000E-03 0.  1.
         12    1    3    3    0    0  0.29610024208E+00 -0.12099139382E+01  0.27453374458E+01  0.30147047588E+01  0.00000000000E+00 0. -1.
</event>
<event>
 7    1  0.1899036E-009  0.4778727E+02  0.7816164E-02  0.1312668E+00
        -11   -1    0    0    0    0  0.00000000000E+00  0.00000000000E+00  0.45593999997E+02  0.45594000000E+02  0.51100000000E-03 0. -1.
         11   -1    0    0    0    0 -0.00000000000E+00 -0.00000000000E+00 -0.45593999997E+02  0.45594000000E+02  0.51100000000E-03 0.  1.
    9900012    2    1    2    0    0  0.10195624098E+02 -0.42086835325E+02 -0.28932262744E+01  0.47787271703E+02  0.20000003004E+02 0.  0.
        -12    1    1    2    0    0 -0.10195624098E+02  0.42086835325E+02  0.28932262744E+01  0.43400728297E+02  0.00000000000E+00 0.  1.
         11    1    3    3    0    0  0.29239733847E+01 -0.22577865212E+02  0.58826810500E+01  0.23514156470E+02  0.51100000000E-03 0. -1.
        -11    1    3    3    0    0 -0.12136259086E+01 -0.80798002335E+01 -0.48722731580E+01  0.95128915503E+01  0.51100000000E-03 0.  1.
        -12    1    3    3    0    0  0.84852766217E+01 -0.11429169879E+02 -0.39036341665E+01  0.14760223683E+02  0.00000000000E+00 0.  1.
</event>
<event>
 7    1  0.1899036E-009  0.4778727E+02  0.7816164E-02  0.1312668E+00
        -11   -1    0    0    0    0  0.00000000000E+00  0.00000000000E+00  0.45593999997E+02  0.45594000000E+02  0.51100000000E-03 0.  1.
         11   -1    0    0    0    0 -0.00000000000E+00 -0.00000000000E+00 -0.45593999997E+02  0.45594000000E+02  0.51100000000E-03 0. -1.
    9900012    2    1    2    0    0 -0.93882024130E+01 -0.21656778859E+02 -0.36420717597E+02  0.47787273217E+02  0.20000009904E+02 0.  0.
        -12    1    1    2    0    0  0.93882024130E+01  0.21656778859E+02  0.36420717597E+02  0.43400726783E+02  0.00000000000E+00 0.  1.
         11    1    3    3    0    0 -0.10027495525E+02 -0.30498589006E+01 -0.14564656461E+02  0.17943843621E+02  0.51100000000E-03 0. -1.
        -11    1    3    3    0    0 -0.29308704826E+01 -0.14617147678E+02 -0.17053899490E+02  0.22651412674E+02  0.51100000000E-03 0.  1.
        -12    1    3    3    0    0  0.35701635943E+01 -0.39897722802E+01 -0.48021616453E+01  0.71920169219E+01  0.00000000000E+00 0.  1.
</event>
<event>
 7    1  0.1899036E-009  0.4778727E+02  0.7816164E-02  0.1312668E+00
        -11   -1    0    0    0    0  0.00000000000E+00  0.00000000000E+00  0.45593999997E+02  0.45594000000E+02  0.51100000000E-03 0.  1.
         11   -1    0    0    0    0 -0.00000000000E+00 -0.00000000000E+00 -0.45593999997E+02  0.45594000000E+02  0.51100000000E-03 0. -1.
    9900012    2    1    2    0    0  0.19616440651E+01  0.30697865000E+02 -0.30617253280E+02  0.47787272340E+02  0.20000005907E+02 0.  0.
        -12    1    1    2    0    0 -0.19616440651E+01 -0.30697865000E+02  0.30617253280E+02  0.43400727660E+02  0.00000000000E+00 0.  1.
         11    1    3    3    0    0 -0.10589017941E+01  0.80697584892E+01 -0.14962001192E+02  0.17032432446E+02  0.51100000000E-03 0. -1.
        -11    1    3    3    0    0  0.79247796955E+01  0.12306313860E+02 -0.11429311630E+02  0.18570855086E+02  0.51100000000E-03 0.  1.
        -12    1    3    3    0    0 -0.49042338362E+01  0.10321792651E+02 -0.42259404578E+01  0.12183984808E+02  0.00000000000E+00 0.  1.
</event>
<event>
 7    1  0.1899036E-009  0.4778727E+02  0.7816164E-02  0.1312668E+00
        -11   -1    0    0    0    0  0.00000000000E+00  0.00000000000E+00  0.45593999997E+02  0.45594000000E+02  0.51100000000E-03 0.  1.
         11   -1    0    0    0    0 -0.00000000000E+00 -0.00000000000E+00 -0.45593999997E+02  0.45594000000E+02  0.51100000000E-03 0. -1.
    9900012    2    1    2    0    0 -0.14128386219E+02  0.19524838820E+02 -0.36094221309E+02  0.47787269130E+02  0.19999991272E+02 0.  0.
        -12    1    1    2    0    0  0.14128386219E+02 -0.19524838820E+02  0.36094221309E+02  0.43400730870E+02  0.00000000000E+00 0.  1.
         11    1    3    3    0    0 -0.31472041162E+01  0.18382892166E+02 -0.19490610132E+02  0.26976276647E+02  0.51100000000E-03 0. -1.
        -11    1    3    3    0    0 -0.51472255957E+01  0.35299221669E+01 -0.80990766705E+01  0.10224936431E+02  0.51100000000E-03 0.  1.
        -12    1    3    3    0    0 -0.58339565074E+01 -0.23879755123E+01 -0.85045345066E+01  0.10586056053E+02  0.00000000000E+00 0.  1.
</event>
<event>
 7    1  0.1899036E-009  0.4778727E+02  0.7816164E-02  0.1312668E+00
        -11   -1    0    0    0    0  0.00000000000E+00  0.00000000000E+00  0.45593999997E+02  0.45594000000E+02  0.51100000000E-03 0. -1.
         11   -1    0    0    0    0 -0.00000000000E+00 -0.00000000000E+00 -0.45593999997E+02  0.45594000000E+02  0.51100000000E-03 0.  1.
    9900012    2    1    2    0    0  0.20134954208E+02  0.29773728568E+02  0.24325552313E+02  0.47787265108E+02  0.19999972933E+02 0.  0.
        -12    1    1    2    0    0 -0.20134954208E+02 -0.29773728568E+02 -0.24325552313E+02  0.43400734892E+02  0.00000000000E+00 0.  1.
         11    1    3    3    0    0  0.55380945043E+01  0.11964912763E+02  0.52378447053E+01  0.14186777138E+02  0.51100000000E-03 0. -1.
        -11    1    3    3    0    0  0.10969221998E+02  0.15276720455E+02  0.59311413250E+01  0.19720052149E+02  0.51100000000E-03 0.  1.
         12    1    3    3    0    0  0.36276377064E+01  0.25320953506E+01  0.13156566283E+02  0.13880435820E+02  0.00000000000E+00 0. -1.
</event>
<event>
 7    1  0.1899036E-009  0.4778727E+02  0.7816164E-02  0.1312668E+00
        -11   -1    0    0    0    0  0.00000000000E+00  0.00000000000E+00  0.45593999997E+02  0.45594000000E+02  0.51100000000E-03 0.  1.
         11   -1    0    0    0    0 -0.00000000000E+00 -0.00000000000E+00 -0.45593999997E+02  0.45594000000E+02  0.51100000000E-03 0. -1.
    9900012    2    1    2    0    0 -0.46226474730E+01 -0.68954098536E+01 -0.42599386525E+02  0.47787270985E+02  0.19999999730E+02 0.  0.
        -12    1    1    2    0    0  0.46226474730E+01  0.68954098536E+01  0.42599386525E+02  0.43400729015E+02  0.00000000000E+00 0.  1.
         11    1    3    3    0    0 -0.12042859288E+02 -0.57015919598E+01 -0.21027420621E+02  0.24893594135E+02  0.51100000000E-03 0. -1.
        -11    1    3    3    0    0  0.23691824821E+01 -0.36190328266E+00 -0.91405075415E+01  0.94494908856E+01  0.51100000000E-03 0.  1.
         12    1    3    3    0    0  0.50510293328E+01 -0.83191461118E+00 -0.12431458362E+02  0.13444185965E+02  0.00000000000E+00 0. -1.
</event>
<event>
 7    1  0.1899036E-009  0.4778727E+02  0.7816164E-02  0.1312668E+00
        -11   -1    0    0    0    0  0.00000000000E+00  0.00000000000E+00  0.45593999997E+02  0.45594000000E+02  0.51100000000E-03 0.  1.
         11   -1    0    0    0    0 -0.00000000000E+00 -0.00000000000E+00 -0.45593999997E+02  0.45594000000E+02  0.51100000000E-03 0. -1.
    9900012    2    1    2    0    0  0.26769296438E+01  0.36173525492E+02 -0.23831360496E+02  0.47787266805E+02  0.19999980668E+02 0.  0.
        -12    1    1    2    0    0 -0.26769296438E+01 -0.36173525492E+02  0.23831360496E+02  0.43400733195E+02  0.00000000000E+00 0.  1.
         11    1    3    3    0    0  0.44714947050E+01  0.27244067866E+02 -0.17745833846E+02  0.32819934765E+02  0.51100000000E-03 0. -1.
        -11    1    3    3    0    0 -0.45786057691E+01  0.95133764609E+01 -0.34988408068E+01  0.11122492964E+02  0.51100000000E-03 0.  1.
         12    1    3    3    0    0  0.27840407079E+01 -0.58391883559E+00 -0.25866858435E+01  0.38448390763E+01  0.00000000000E+00 0. -1.
</event>
<event>
 7    1  0.1899036E-009  0.4778727E+02  0.7816164E-02  0.1312668E+00
        -11   -1    0    0    0    0  0.00000000000E+00  0.00000000000E+00  0.45593999997E+02  0.45594000000E+02  0.51100000000E-03 0.  1.
         11   -1    0    0    0    0 -0.00000000000E+00 -0.00000000000E+00 -0.45593999997E+02  0.45594000000E+02  0.51100000000E-03 0. -1.
    9900012    2    1    2    0    0  0.21482648950E+02 -0.15410451497E+02 -0.34418555587E+02  0.47787272011E+02  0.20000004409E+02 0.  0.
        -12    1    1    2    0    0 -0.21482648950E+02  0.15410451497E+02  0.34418555587E+02  0.43400727989E+02  0.00000000000E+00 0.  1.
         11    1    3    3    0    0  0.55012738466E+01 -0.53896008562E+01 -0.12738345283E+02  0.14885471176E+02  0.51100000000E-03 0. -1.
        -11    1    3    3    0    0  0.13094687852E+02 -0.74538857524E+01 -0.51456110503E+01  0.15921952647E+02  0.51100000000E-03 0.  1.
        -12    1    3    3    0    0  0.28866872516E+01 -0.25669648883E+01 -0.16534599254E+02  0.16979848189E+02  0.00000000000E+00 0.  1.
</event>
<event>
 7    1  0.1899036E-009  0.4778727E+02  0.7816164E-02  0.1312668E+00
        -11   -1    0    0    0    0  0.00000000000E+00  0.00000000000E+00  0.45593999997E+02  0.45594000000E+02  0.51100000000E-03 0. -1.
         11   -1    0    0    0    0 -0.00000000000E+00 -0.00000000000E+00 -0.45593999997E+02  0.45594000000E+02  0.51100000000E-03 0.  1.
    9900012    2    1    2    0    0 -0.14482448173E+02 -0.35063685553E+02  0.21081270909E+02  0.47787270366E+02  0.19999996906E+02 0.  0.
        -12    1    1    2    0    0  0.14482448173E+02  0.35063685553E+02 -0.21081270909E+02  0.43400729634E+02  0.00000000000E+00 0.  1.
         11    1    3    3    0    0 -0.24515302147E+01 -0.10705775038E+02  0.92716518811E+01  0.14373139825E+02  0.51100000000E-03 0. -1.
        -11    1    3    3    0    0 -0.11073321874E+02 -0.54825806679E+01  0.44970599082E+01  0.13149170932E+02  0.51100000000E-03 0.  1.
         12    1    3    3    0    0 -0.95759608431E+00 -0.18875329847E+02  0.73125591198E+01  0.20264959609E+02  0.00000000000E+00 0. -1.
</event>
<event>
 7    1  0.1899036E-009  0.4778727E+02  0.7816164E-02  0.1312668E+00
        -11   -1    0    0    0    0  0.00000000000E+00  0.00000000000E+00  0.45593999997E+02  0.45594000000E+02  0.51100000000E-03 0. -1.
         11   -1    0    0    0    0 -0.00000000000E+00 -0.00000000000E+00 -0.45593999997E+02  0.45594000000E+02  0.51100000000E-03 0.  1.
    9900012    2    1    2    0    0  0.10436100324E+02 -0.11739324039E+02  0.40458614839E+02  0.47787269205E+02  0.19999991612E+02 0.  0.
        -12    1    1    2    0    0 -0.10436100324E+02  0.11739324039E+02 -0.40458614839E+02  0.43400730795E+02  0.00000000000E+00 0.  1.
         11    1    3    3    0    0  0.62677919253E+01 -0.10106460067E+02  0.40794444842E+02  0.42492499114E+02  0.51100000000E-03 0. -1.
        -11    1    3    3    0    0  0.27548996682E+01 -0.15040416851E+01  0.10514031530E+01  0.33101453780E+01  0.51100000000E-03 0.  1.
         12    1    3    3    0    0  0.14134087305E+01 -0.12882228687E+00 -0.13872331562E+01  0.19846247128E+01  0.00000000000E+00 0. -1.
</event>
<event>
 7    1  0.1899036E-009  0.4778727E+02  0.7816164E-02  0.1312668E+00
        -11   -1    0    0    0    0  0.00000000000E+00  0.00000000000E+00  0.45593999997E+02  0.45594000000E+02  0.51100000000E-03 0. -1.
         11   -1    0    0    0    0 -0.00000000000E+00 -0.00000000000E+00 -0.45593999997E+02  0.45594000000E+02  0.51100000000E-03 0.  1.
    9900012    2    1    2    0    0 -0.29734520202E+02 -0.17913455885E+01  0.31563782995E+02  0.47787274112E+02  0.20000013985E+02 0.  0.
        -12    1    1    2    0    0  0.29734520202E+02  0.17913455885E+01 -0.31563782995E+02  0.43400725888E+02  0.00000000000E+00 0.  1.
         11    1    3    3    0    0 -0.11537294040E+02 -0.21915774429E+01  0.94585676483E+01  0.15079014148E+02  0.51100000000E-03 0. -1.
        -11    1    3    3    0    0 -0.79806209189E+01  0.71278876509E+01  0.15417049589E+02  0.18766526341E+02  0.51100000000E-03 0.  1.
         12    1    3    3    0    0 -0.10216605244E+02 -0.67276557965E+01  0.66881657578E+01  0.13941733624E+02  0.00000000000E+00 0. -1.
</event>
<event>
 7    1  0.1899036E-009  0.4778728E+02  0.7816164E-02  0.1312668E+00
        -11   -1    0    0    0    0  0.00000000000E+00  0.00000000000E+00  0.45593999997E+02  0.45594000000E+02  0.51100000000E-03 0.  1.
         11   -1    0    0    0    0 -0.00000000000E+00 -0.00000000000E+00 -0.45593999997E+02  0.45594000000E+02  0.51100000000E-03 0. -1.
    9900012    2    1    2    0    0  0.33326557588E+02 -0.20354738183E+01 -0.27727606789E+02  0.47787276820E+02  0.20000026332E+02 0.  0.
        -12    1    1    2    0    0 -0.33326557588E+02  0.20354738183E+01  0.27727606789E+02  0.43400723180E+02  0.00000000000E+00 0.  1.
         11    1    3    3    0    0  0.30437897968E+01 -0.53356647548E+01 -0.21861039938E+01  0.65202013493E+01  0.51100000000E-03 0. -1.
        -11    1    3    3    0    0  0.23926032163E+02 -0.20633055585E+01 -0.17664647137E+02  0.29811943975E+02  0.51100000000E-03 0.  1.
         12    1    3    3    0    0  0.63567356286E+01  0.53634964949E+01 -0.78768556585E+01  0.11455131495E+02  0.00000000000E+00 0. -1.
</event>
<event>
 7    1  0.1899036E-009  0.4778727E+02  0.7816164E-02  0.1312668E+00
        -11   -1    0    0    0    0  0.00000000000E+00  0.00000000000E+00  0.45593999997E+02  0.45594000000E+02  0.51100000000E-03 0.  1.
         11   -1    0    0    0    0 -0.00000000000E+00 -0.00000000000E+00 -0.45593999997E+02  0.45594000000E+02  0.51100000000E-03 0. -1.
    9900012    2    1    2    0    0  0.19944473157E+02  0.24324259171E+02 -0.29902706521E+02  0.47787269003E+02  0.19999990694E+02 0.  0.
        -12    1    1    2    0    0 -0.19944473157E+02 -0.24324259171E+02  0.29902706521E+02  0.43400730997E+02  0.00000000000E+00 0.  1.
         11    1    3    3    0    0  0.45833721093E+01  0.98127663962E+01 -0.13032204576E+02  0.16945088982E+02  0.51100000000E-03 0. -1.
        -11    1    3    3    0    0  0.15332708200E+01  0.36534485345E+01  0.24981869789E+01  0.46839666997E+01  0.51100000000E-03 0.  1.
        -12    1    3    3    0    0  0.13827830228E+02  0.10858044241E+02 -0.19368688924E+02  0.26158213322E+02  0.00000000000E+00 0.  1.
</event>
<event>
 7    1  0.1899036E-009  0.4778727E+02  0.7816164E-02  0.1312668E+00
        -11   -1    0    0    0    0  0.00000000000E+00  0.00000000000E+00  0.45593999997E+02  0.45594000000E+02  0.51100000000E-03 0.  1.
         11   -1    0    0    0    0 -0.00000000000E+00 -0.00000000000E+00 -0.45593999997E+02  0.45594000000E+02  0.51100000000E-03 0. -1.
    9900012    2    1    2    0    0  0.10547810819E+02 -0.33088572959E+02 -0.26029089293E+02  0.47787268866E+02  0.19999990068E+02 0.  0.
        -12    1    1    2    0    0 -0.10547810819E+02  0.33088572959E+02  0.26029089293E+02  0.43400731134E+02  0.00000000000E+00 0.  1.
         11    1    3    3    0    0 -0.53581739887E+00 -0.22049757599E+02 -0.15497005756E+02  0.26956188494E+02  0.51100000000E-03 0. -1.
        -11    1    3    3    0    0  0.80951019971E+01 -0.12225034098E+02 -0.77785148125E+01  0.16597813952E+02  0.51100000000E-03 0.  1.
        -12    1    3    3    0    0  0.29885262208E+01  0.11862187374E+01 -0.27535687245E+01  0.42332664203E+01  0.00000000000E+00 0.  1.
</event>
<event>
 7    1  0.1899036E-009  0.4778727E+02  0.7816164E-02  0.1312668E+00
        -11   -1    0    0    0    0  0.00000000000E+00  0.00000000000E+00  0.45593999997E+02  0.45594000000E+02  0.51100000000E-03 0. -1.
         11   -1    0    0    0    0 -0.00000000000E+00 -0.00000000000E+00 -0.45593999997E+02  0.45594000000E+02  0.51100000000E-03 0.  1.
    9900012    2    1    2    0    0 -0.25037353160E+02 -0.31908197676E+02 -0.15447375533E+02  0.47787267943E+02  0.19999985860E+02 0.  0.
        -12    1    1    2    0    0  0.25037353160E+02  0.31908197676E+02  0.15447375533E+02  0.43400732057E+02  0.00000000000E+00 0.  1.
         11    1    3    3    0    0 -0.44266765325E+01 -0.25859431262E+01 -0.79514338228E+01  0.94608597429E+01  0.51100000000E-03 0. -1.
        -11    1    3    3    0    0 -0.18069911519E+02 -0.16379976926E+02 -0.44902226842E+01  0.24798940429E+02  0.51100000000E-03 0.  1.
         12    1    3    3    0    0 -0.25407651082E+01 -0.12942277624E+02 -0.30057190264E+01  0.13527467771E+02  0.00000000000E+00 0. -1.
</event>
<event>
 7    1  0.1899036E-009  0.4778727E+02  0.7816164E-02  0.1312668E+00
        -11   -1    0    0    0    0  0.00000000000E+00  0.00000000000E+00  0.45593999997E+02  0.45594000000E+02  0.51100000000E-03 0. -1.
         11   -1    0    0    0    0 -0.00000000000E+00 -0.00000000000E+00 -0.45593999997E+02  0.45594000000E+02  0.51100000000E-03 0.  1.
    9900012    2    1    2    0    0 -0.26332076249E+02 -0.94451401905E+01  0.33181836282E+02  0.47787272220E+02  0.20000005360E+02 0.  0.
        -12    1    1    2    0    0  0.26332076249E+02  0.94451401905E+01 -0.33181836282E+02  0.43400727780E+02  0.00000000000E+00 0.  1.
         11    1    3    3    0    0 -0.49400504798E+01  0.24025244752E+01 -0.61397656758E+00  0.55274940148E+01  0.51100000000E-03 0.  1.
        -11    1    3    3    0    0 -0.45266595105E+01 -0.51018874110E+01  0.12746108503E+02  0.14456250680E+02  0.51100000000E-03 0. -1.
         12    1    3    3    0    0 -0.16865366259E+02 -0.67457772547E+01  0.21049704346E+02  0.27803527526E+02  0.00000000000E+00 0. -1.
</event>
<event>
 7    1  0.1899036E-009  0.4778727E+02  0.7816164E-02  0.1312668E+00
        -11   -1    0    0    0    0  0.00000000000E+00  0.00000000000E+00  0.45593999997E+02  0.45594000000E+02  0.51100000000E-03 0. -1.
         11   -1    0    0    0    0 -0.00000000000E+00 -0.00000000000E+00 -0.45593999997E+02  0.45594000000E+02  0.51100000000E-03 0.  1.
    9900012    2    1    2    0    0  0.33343079397E+02  0.15744298392E+02  0.22890590798E+02  0.47787273939E+02  0.20000013198E+02 0.  0.
        -12    1    1    2    0    0 -0.33343079397E+02 -0.15744298392E+02 -0.22890590798E+02  0.43400726061E+02  0.00000000000E+00 0.  1.
         11    1    3    3    0    0  0.89865851527E+01  0.18952448790E+01  0.90629478444E+01  0.12903010879E+02  0.51100000000E-03 0. -1.
        -11    1    3    3    0    0  0.23036425642E+02  0.12698668905E+02  0.61560311139E+01  0.27015362623E+02  0.51100000000E-03 0.  1.
         12    1    3    3    0    0  0.13200686026E+01  0.11503846072E+01  0.76716118400E+01  0.78689004368E+01  0.00000000000E+00 0. -1.
</event>
<event>
 7    1  0.1899036E-009  0.4778727E+02  0.7816164E-02  0.1312668E+00
        -11   -1    0    0    0    0  0.00000000000E+00  0.00000000000E+00  0.45593999997E+02  0.45594000000E+02  0.51100000000E-03 0.  1.
         11   -1    0    0    0    0 -0.00000000000E+00 -0.00000000000E+00 -0.45593999997E+02  0.45594000000E+02  0.51100000000E-03 0. -1.
    9900012    2    1    2    0    0  0.12429398551E+01  0.19369143810E+02 -0.38818999425E+02  0.47787270193E+02  0.19999996119E+02 0.  0.
        -12    1    1    2    0    0 -0.12429398551E+01 -0.19369143810E+02  0.38818999425E+02  0.43400729807E+02  0.00000000000E+00 0.  1.
         11    1    3    3    0    0 -0.14169239907E+01  0.60959388797E+01 -0.22916828224E+02  0.23756034192E+02  0.51100000000E-03 0. -1.
        -11    1    3    3    0    0  0.53648029178E+01  0.10123992332E+01 -0.46505672572E+01  0.71717388846E+01  0.51100000000E-03 0.  1.
        -12    1    3    3    0    0 -0.27049390721E+01  0.12260805697E+02 -0.11251603944E+02  0.16859497117E+02  0.00000000000E+00 0.  1.
</event>
<event>
 7    1  0.1899036E-009  0.4778727E+02  0.7816164E-02  0.1312668E+00
        -11   -1    0    0    0    0  0.00000000000E+00  0.00000000000E+00  0.45593999997E+02  0.45594000000E+02  0.51100000000E-03 0.  1.
         11   -1    0    0    0    0 -0.00000000000E+00 -0.00000000000E+00 -0.45593999997E+02  0.45594000000E+02  0.51100000000E-03 0. -1.
    9900012    2    1    2    0    0 -0.12871756159E+02  0.69081022467E+01 -0.40868316340E+02  0.47787271161E+02  0.20000000533E+02 0.  0.
        -12    1    1    2    0    0  0.12871756159E+02 -0.69081022467E+01  0.40868316340E+02  0.43400728839E+02  0.00000000000E+00 0.  1.
         11    1    3    3    0    0 -0.49384305825E+00  0.79748171438E+00  0.91120284638E+00  0.13077266302E+01  0.51100000000E-03 0. -1.
        -11    1    3    3    0    0 -0.95773615912E+01 -0.28873392015E+01 -0.28433540771E+02  0.30141811886E+02  0.51100000000E-03 0.  1.
        -12    1    3    3    0    0 -0.28005515092E+01  0.89979597338E+01 -0.13345978415E+02  0.16337732645E+02  0.00000000000E+00 0.  1.
</event>
<event>
 7    1  0.1899036E-009  0.4778727E+02  0.7816164E-02  0.1312668E+00
        -11   -1    0    0    0    0  0.00000000000E+00  0.00000000000E+00  0.45593999997E+02  0.45594000000E+02  0.51100000000E-03 0.  1.
         11   -1    0    0    0    0 -0.00000000000E+00 -0.00000000000E+00 -0.45593999997E+02  0.45594000000E+02  0.51100000000E-03 0. -1.
    9900012    2    1    2    0    0 -0.43103568186E+02 -0.10417025809E+01 -0.49619146598E+01  0.47787270378E+02  0.19999996963E+02 0.  0.
        -12    1    1    2    0    0  0.43103568186E+02  0.10417025809E+01  0.49619146598E+01  0.43400729622E+02  0.00000000000E+00 0.  1.
         11    1    3    3    0    0 -0.38511543061E+01 -0.15158398228E+01 -0.11631472894E+01  0.42990780100E+01  0.51100000000E-03 0. -1.
        -11    1    3    3    0    0 -0.13650230455E+02 -0.74899160263E+01 -0.57669593216E+01  0.16603778294E+02  0.51100000000E-03 0.  1.
         12    1    3    3    0    0 -0.25602183425E+02  0.79640532681E+01  0.19681919513E+01  0.26884414074E+02  0.00000000000E+00 0. -1.
</event>
<event>
 7    1  0.1899036E-009  0.4778728E+02  0.7816164E-02  0.1312668E+00
        -11   -1    0    0    0    0  0.00000000000E+00  0.00000000000E+00  0.45593999997E+02  0.45594000000E+02  0.51100000000E-03 0.  1.
         11   -1    0    0    0    0 -0.00000000000E+00 -0.00000000000E+00 -0.45593999997E+02  0.45594000000E+02  0.51100000000E-03 0. -1.
    9900012    2    1    2    0    0 -0.24741649525E+02 -0.35625639321E+02  0.15122565655E+01  0.47787282055E+02  0.20000050201E+02 0.  0.
        -12    1    1    2    0    0  0.24741649525E+02  0.35625639321E+02 -0.15122565655E+01  0.43400717945E+02  0.00000000000E+00 0.  1.
         11    1    3    3    0    0 -0.22011357548E+01 -0.14258787420E+01 -0.34019538878E+01  0.42955115311E+01  0.51100000000E-03 0. -1.
        -11    1    3    3    0    0 -0.18161805329E+01  0.11817187494E+01 -0.17045718342E+00  0.21734826531E+01  0.51100000000E-03 0.  1.
         12    1    3    3    0    0 -0.20724333237E+02 -0.35381479329E+02  0.50846676367E+01  0.41318287871E+02  0.00000000000E+00 0. -1.
</event>
<event>
 7    1  0.1899036E-009  0.4778728E+02  0.7816164E-02  0.1312668E+00
        -11   -1    0    0    0    0  0.00000000000E+00  0.00000000000E+00  0.45593999997E+02  0.45594000000E+02  0.51100000000E-03 0.  1.
         11   -1    0    0    0    0 -0.00000000000E+00 -0.00000000000E+00 -0.45593999997E+02  0.45594000000E+02  0.51100000000E-03 0. -1.
    9900012    2    1    2    0    0 -0.11947573376E+02  0.40616022821E+02 -0.95507617756E+01  0.47787275699E+02  0.20000021223E+02 0.  0.
        -12    1    1    2    0    0  0.11947573376E+02 -0.40616022821E+02  0.95507617756E+01  0.43400724301E+02  0.00000000000E+00 0.  1.
         11    1    3    3    0    0  0.55790103966E+00  0.26718403194E+00  0.19392337023E+01  0.20355020241E+01  0.51100000000E-03 0. -1.
        -11    1    3    3    0    0 -0.10386772642E+02  0.16387690401E+02 -0.95332420068E+01  0.21617681328E+02  0.51100000000E-03 0.  1.
         12    1    3    3    0    0 -0.21187017743E+01  0.23961148387E+02 -0.19567534711E+01  0.24134092347E+02  0.00000000000E+00 0. -1.
</event>
<event>
 7    1  0.1899036E-009  0.4778728E+02  0.7816164E-02  0.1312668E+00
        -11   -1    0    0    0    0  0.00000000000E+00  0.00000000000E+00  0.45593999997E+02  0.45594000000E+02  0.51100000000E-03 0. -1.
         11   -1    0    0    0    0 -0.00000000000E+00 -0.00000000000E+00 -0.45593999997E+02  0.45594000000E+02  0.51100000000E-03 0.  1.
    9900012    2    1    2    0    0  0.25506840264E+02 -0.50711680422E+01  0.34746320223E+02  0.47787280944E+02  0.20000045135E+02 0.  0.
        -12    1    1    2    0    0 -0.25506840264E+02  0.50711680422E+01 -0.34746320223E+02  0.43400719056E+02  0.00000000000E+00 0.  1.
         11    1    3    3    0    0  0.91785055403E+01 -0.34320751476E+01  0.27168601020E+02  0.28881776009E+02  0.51100000000E-03 0. -1.
        -11    1    3    3    0    0  0.29119839163E+01  0.99909436808E+00  0.34475494471E+01  0.46220598586E+01  0.51100000000E-03 0.  1.
        -12    1    3    3    0    0  0.13416350808E+02 -0.26381872627E+01  0.41301697551E+01  0.14283445076E+02  0.00000000000E+00 0.  1.
</event>
<event>
 7    1  0.1899036E-009  0.4778727E+02  0.7816164E-02  0.1312668E+00
        -11   -1    0    0    0    0  0.00000000000E+00  0.00000000000E+00  0.45593999997E+02  0.45594000000E+02  0.51100000000E-03 0.  1.
         11   -1    0    0    0    0 -0.00000000000E+00 -0.00000000000E+00 -0.45593999997E+02  0.45594000000E+02  0.51100000000E-03 0. -1.
    9900012    2    1    2    0    0  0.39576783696E+02 -0.14621283259E+02 -0.10174451303E+02  0.47787271997E+02  0.20000004344E+02 0.  0.
        -12    1    1    2    0    0 -0.39576783696E+02  0.14621283259E+02  0.10174451303E+02  0.43400728003E+02  0.00000000000E+00 0.  1.
         11    1    3    3    0    0  0.60639792082E+01  0.60451165512E+00 -0.38694332819E+01  0.72187112674E+01  0.51100000000E-03 0. -1.
        -11    1    3    3    0    0  0.13787796113E+02 -0.11232866217E+02 -0.95457641545E+01  0.20184207159E+02  0.51100000000E-03 0.  1.
         12    1    3    3    0    0  0.19725008375E+02 -0.39929286965E+01  0.32407461337E+01  0.20384353570E+02  0.00000000000E+00 0. -1.
</event>
<event>
 7    1  0.1899036E-009  0.4778726E+02  0.7816164E-02  0.1312668E+00
        -11   -1    0    0    0    0  0.00000000000E+00  0.00000000000E+00  0.45593999997E+02  0.45594000000E+02  0.51100000000E-03 0.  1.
         11   -1    0    0    0    0 -0.00000000000E+00 -0.00000000000E+00 -0.45593999997E+02  0.45594000000E+02  0.51100000000E-03 0. -1.
    9900012    2    1    2    0    0  0.10801514121E+02 -0.38390288907E+02 -0.17121242430E+02  0.47787263462E+02  0.19999965429E+02 0.  0.
        -12    1    1    2    0    0 -0.10801514121E+02  0.38390288907E+02  0.17121242430E+02  0.43400736538E+02  0.00000000000E+00 0.  1.
         11    1    3    3    0    0  0.49864229938E+01 -0.28369950778E+02 -0.64372614141E+01  0.29515366441E+02  0.51100000000E-03 0. -1.
        -11    1    3    3    0    0  0.24005201081E+01 -0.20875137379E+00  0.10250317826E+01  0.26185424079E+01  0.51100000000E-03 0.  1.
        -12    1    3    3    0    0  0.34145710188E+01 -0.98115867558E+01 -0.11709012799E+02  0.15653354613E+02  0.00000000000E+00 0.  1.
</event>
<event>
 7    1  0.1899036E-009  0.4778727E+02  0.7816164E-02  0.1312668E+00
        -11   -1    0    0    0    0  0.00000000000E+00  0.00000000000E+00  0.45593999997E+02  0.45594000000E+02  0.51100000000E-03 0.  1.
         11   -1    0    0    0    0 -0.00000000000E+00 -0.00000000000E+00 -0.45593999997E+02  0.45594000000E+02  0.51100000000E-03 0. -1.
    9900012    2    1    2    0    0  0.55224631472E+01  0.26573958976E+02 -0.33866656573E+02  0.47787270487E+02  0.19999997457E+02 0.  0.
        -12    1    1    2    0    0 -0.55224631472E+01 -0.26573958976E+02  0.33866656573E+02  0.43400729513E+02  0.00000000000E+00 0.  1.
         11    1    3    3    0    0 -0.19110792600E+01  0.31198432667E+01 -0.16939808980E+02  0.17330400298E+02  0.51100000000E-03 0. -1.
        -11    1    3    3    0    0  0.17923816297E+01  0.49681839037E+01 -0.91898116948E+00  0.53609709809E+01  0.51100000000E-03 0.  1.
         12    1    3    3    0    0  0.56411607775E+01  0.18485931806E+02 -0.16007866424E+02  0.25095899208E+02  0.00000000000E+00 0. -1.
</event>
<event>
 7    1  0.1899036E-009  0.4778727E+02  0.7816164E-02  0.1312668E+00
        -11   -1    0    0    0    0  0.00000000000E+00  0.00000000000E+00  0.45593999997E+02  0.45594000000E+02  0.51100000000E-03 0. -1.
         11   -1    0    0    0    0 -0.00000000000E+00 -0.00000000000E+00 -0.45593999997E+02  0.45594000000E+02  0.51100000000E-03 0.  1.
    9900012    2    1    2    0    0  0.17547093804E+02 -0.20213938502E+02  0.34163128668E+02  0.47787272228E+02  0.20000005398E+02 0.  0.
        -12    1    1    2    0    0 -0.17547093804E+02  0.20213938502E+02 -0.34163128668E+02  0.43400727772E+02  0.00000000000E+00 0.  1.
         11    1    3    3    0    0  0.15801406040E+02 -0.13463841969E+02  0.19146217849E+02  0.28240699914E+02  0.51100000000E-03 0.  1.
        -11    1    3    3    0    0  0.21778128702E+01  0.23328743117E+01  0.23945522117E+01  0.39898686704E+01  0.51100000000E-03 0. -1.
         12    1    3    3    0    0 -0.43212510697E+00 -0.90829708443E+01  0.12622358607E+02  0.15556703644E+02  0.00000000000E+00 0. -1.
</event>
<event>
 7    1  0.1899036E-009  0.4778727E+02  0.7816164E-02  0.1312668E+00
        -11   -1    0    0    0    0  0.00000000000E+00  0.00000000000E+00  0.45593999997E+02  0.45594000000E+02  0.51100000000E-03 0. -1.
         11   -1    0    0    0    0 -0.00000000000E+00 -0.00000000000E+00 -0.45593999997E+02  0.45594000000E+02  0.51100000000E-03 0.  1.
    9900012    2    1    2    0    0 -0.13721891549E+02 -0.88930817675E+01  0.40202562308E+02  0.47787271583E+02  0.20000002454E+02 0.  0.
        -12    1    1    2    0    0  0.13721891549E+02  0.88930817675E+01 -0.40202562308E+02  0.43400728417E+02  0.00000000000E+00 0.  1.
         11    1    3    3    0    0 -0.11784013888E+02 -0.12495431482E+02  0.33966380266E+02  0.38061972884E+02  0.51100000000E-03 0. -1.
        -11    1    3    3    0    0 -0.13275269889E+01  0.19424500971E+01  0.72943171155E+01  0.76643657747E+01  0.51100000000E-03 0.  1.
         12    1    3    3    0    0 -0.61035067241E+00  0.16598996174E+01 -0.10581350731E+01  0.20609329237E+01  0.00000000000E+00 0. -1.
</event>
<event>
 7    1  0.1899036E-009  0.4778727E+02  0.7816164E-02  0.1312668E+00
        -11   -1    0    0    0    0  0.00000000000E+00  0.00000000000E+00  0.45593999997E+02  0.45594000000E+02  0.51100000000E-03 0. -1.
         11   -1    0    0    0    0 -0.00000000000E+00 -0.00000000000E+00 -0.45593999997E+02  0.45594000000E+02  0.51100000000E-03 0.  1.
    9900012    2    1    2    0    0 -0.29570035997E+02  0.29184827025E+02  0.12549188508E+02  0.47787270864E+02  0.19999999177E+02 0.  0.
        -12    1    1    2    0    0  0.29570035997E+02 -0.29184827025E+02 -0.12549188508E+02  0.43400729136E+02  0.00000000000E+00 0.  1.
         11    1    3    3    0    0 -0.13058347940E+02  0.11947966027E+02  0.10876022462E+02  0.20774075381E+02  0.51100000000E-03 0. -1.
        -11    1    3    3    0    0 -0.76028658010E+00  0.92131425359E+01  0.12701525418E+01  0.93313085262E+01  0.51100000000E-03 0.  1.
        -12    1    3    3    0    0 -0.15751401477E+02  0.80237184624E+01  0.40301350433E+00  0.17681886956E+02  0.00000000000E+00 0.  1.
</event>
<event>
 7    1  0.1899036E-009  0.4778730E+02  0.7816164E-02  0.1312668E+00
        -11   -1    0    0    0    0  0.00000000000E+00  0.00000000000E+00  0.45593999997E+02  0.45594000000E+02  0.51100000000E-03 0.  1.
         11   -1    0    0    0    0 -0.00000000000E+00 -0.00000000000E+00 -0.45593999997E+02  0.45594000000E+02  0.51100000000E-03 0. -1.
    9900012    2    1    2    0    0  0.11394381817E+02  0.31975271854E+02  0.27043862219E+02  0.47787303798E+02  0.20000149335E+02 0.  0.
        -12    1    1    2    0    0 -0.11394381817E+02 -0.31975271854E+02 -0.27043862219E+02  0.43400696202E+02  0.00000000000E+00 0.  1.
         11    1    3    3    0    0  0.98473693171E+01  0.21337468487E+02  0.13853466958E+02  0.27279603936E+02  0.51100000000E-03 0. -1.
        -11    1    3    3    0    0  0.52509309134E+01  0.14152608807E+01  0.67356983874E+01  0.86570706273E+01  0.51100000000E-03 0.  1.
         12    1    3    3    0    0 -0.37039184132E+01  0.92225424862E+01  0.64546968735E+01  0.11850629234E+02  0.00000000000E+00 0. -1.
</event>
<event>
 7    1  0.1899036E-009  0.4778726E+02  0.7816164E-02  0.1312668E+00
        -11   -1    0    0    0    0  0.00000000000E+00  0.00000000000E+00  0.45593999997E+02  0.45594000000E+02  0.51100000000E-03 0.  1.
         11   -1    0    0    0    0 -0.00000000000E+00 -0.00000000000E+00 -0.45593999997E+02  0.45594000000E+02  0.51100000000E-03 0. -1.
    9900012    2    1    2    0    0  0.40767620543E+02 -0.12103910954E+02  0.86672116403E+01  0.47787261496E+02  0.19999956464E+02 0.  0.
        -12    1    1    2    0    0 -0.40767620543E+02  0.12103910954E+02 -0.86672116403E+01  0.43400738504E+02  0.00000000000E+00 0.  1.
         11    1    3    3    0    0  0.25557707117E+02 -0.77486592872E+00  0.72985099921E+01  0.26590694964E+02  0.51100000000E-03 0. -1.
        -11    1    3    3    0    0  0.60076369700E+01 -0.26885572310E+01 -0.37501095683E+01  0.75751807888E+01  0.51100000000E-03 0.  1.
        -12    1    3    3    0    0  0.92022764552E+01 -0.86404877947E+01  0.51188112165E+01  0.13621385743E+02  0.00000000000E+00 0.  1.
</event>
<event>
 7    1  0.1899036E-009  0.4778727E+02  0.7816164E-02  0.1312668E+00
        -11   -1    0    0    0    0  0.00000000000E+00  0.00000000000E+00  0.45593999997E+02  0.45594000000E+02  0.51100000000E-03 0.  1.
         11   -1    0    0    0    0 -0.00000000000E+00 -0.00000000000E+00 -0.45593999997E+02  0.45594000000E+02  0.51100000000E-03 0. -1.
    9900012    2    1    2    0    0 -0.17352005472E+02  0.32467035861E+02 -0.22987441219E+02  0.47787274600E+02  0.20000016211E+02 0.  0.
        -12    1    1    2    0    0  0.17352005472E+02 -0.32467035861E+02  0.22987441219E+02  0.43400725400E+02  0.00000000000E+00 0.  1.
         11    1    3    3    0    0 -0.14585685381E+02  0.10511242312E+02 -0.16256246409E+02  0.24238275116E+02  0.51100000000E-03 0. -1.
        -11    1    3    3    0    0 -0.66196619149E+00  0.79641963093E+01 -0.46549236473E+01  0.92485099619E+01  0.51100000000E-03 0.  1.
        -12    1    3    3    0    0 -0.21043538985E+01  0.13991597240E+02 -0.20762711619E+01  0.14300489522E+02  0.00000000000E+00 0.  1.
</event>
<event>
 7    1  0.1899036E-009  0.4778727E+02  0.7816164E-02  0.1312668E+00
        -11   -1    0    0    0    0  0.00000000000E+00  0.00000000000E+00  0.45593999997E+02  0.45594000000E+02  0.51100000000E-03 0.  1.
         11   -1    0    0    0    0 -0.00000000000E+00 -0.00000000000E+00 -0.45593999997E+02  0.45594000000E+02  0.51100000000E-03 0. -1.
    9900012    2    1    2    0    0  0.10130375121E+02 -0.20580729082E+02 -0.36843346217E+02  0.47787273392E+02  0.20000010703E+02 0.  0.
        -12    1    1    2    0    0 -0.10130375121E+02  0.20580729082E+02  0.36843346217E+02  0.43400726608E+02  0.00000000000E+00 0.  1.
         11    1    3    3    0    0 -0.19694340891E+01 -0.79450959861E+01 -0.75071438568E+01  0.11106774059E+02  0.51100000000E-03 0. -1.
        -11    1    3    3    0    0  0.68297255032E+01 -0.28227004165E+01 -0.22331434756E+02  0.23522452394E+02  0.51100000000E-03 0.  1.
         12    1    3    3    0    0  0.52700837073E+01 -0.98129326797E+01 -0.70047676038E+01  0.13158046939E+02  0.00000000000E+00 0. -1.
</event>
<event>
 7    1  0.1899036E-009  0.4778729E+02  0.7816164E-02  0.1312668E+00
        -11   -1    0    0    0    0  0.00000000000E+00  0.00000000000E+00  0.45593999997E+02  0.45594000000E+02  0.51100000000E-03 0.  1.
         11   -1    0    0    0    0 -0.00000000000E+00 -0.00000000000E+00 -0.45593999997E+02  0.45594000000E+02  0.51100000000E-03 0. -1.
    9900012    2    1    2    0    0 -0.79837113079E+01 -0.41765385036E+02 -0.86910614595E+01  0.47787290527E+02  0.20000088828E+02 0.  0.
        -12    1    1    2    0    0  0.79837113079E+01  0.41765385036E+02  0.86910614595E+01  0.43400709473E+02  0.00000000000E+00 0.  1.
         11    1    3    3    0    0 -0.13136880718E+02 -0.25498815336E+02 -0.45963540076E+01  0.29049848347E+02  0.51100000000E-03 0. -1.
        -11    1    3    3    0    0  0.12398117063E+01 -0.77045521700E+01 -0.50188145018E+01  0.92782410226E+01  0.51100000000E-03 0.  1.
        -12    1    3    3    0    0  0.39133577036E+01 -0.85620175301E+01  0.92410704992E+00  0.94592011577E+01  0.00000000000E+00 0.  1.
</event>
<event>
 7    1  0.1899036E-009  0.4778727E+02  0.7816164E-02  0.1312668E+00
        -11   -1    0    0    0    0  0.00000000000E+00  0.00000000000E+00  0.45593999997E+02  0.45594000000E+02  0.51100000000E-03 0.  1.
         11   -1    0    0    0    0 -0.00000000000E+00 -0.00000000000E+00 -0.45593999997E+02  0.45594000000E+02  0.51100000000E-03 0. -1.
    9900012    2    1    2    0    0 -0.10658751426E+02  0.41881165988E+02 -0.39977740805E+01  0.47787271388E+02  0.20000001564E+02 0.  0.
        -12    1    1    2    0    0  0.10658751426E+02 -0.41881165988E+02  0.39977740805E+01  0.43400728612E+02  0.00000000000E+00 0.  1.
         11    1    3    3    0    0 -0.67536552567E+01  0.14025304065E+02 -0.64275304097E+00  0.15579927637E+02  0.51100000000E-03 0. -1.
        -11    1    3    3    0    0  0.19333374086E+01  0.24524879487E+02  0.20327395473E+00  0.24601805380E+02  0.51100000000E-03 0.  1.
        -12    1    3    3    0    0 -0.58384335784E+01  0.33309824358E+01 -0.35582949942E+01  0.76055383703E+01  0.00000000000E+00 0.  1.
</event>
<event>
 7    1  0.1899036E-009  0.4778727E+02  0.7816164E-02  0.1312668E+00
        -11   -1    0    0    0    0  0.00000000000E+00  0.00000000000E+00  0.45593999997E+02  0.45594000000E+02  0.51100000000E-03 0. -1.
         11   -1    0    0    0    0 -0.00000000000E+00 -0.00000000000E+00 -0.45593999997E+02  0.45594000000E+02  0.51100000000E-03 0.  1.
    9900012    2    1    2    0    0  0.20514819825E+01  0.21296726007E+02  0.37760616645E+02  0.47787270901E+02  0.19999999345E+02 0.  0.
        -12    1    1    2    0    0 -0.20514819825E+01 -0.21296726007E+02 -0.37760616645E+02  0.43400729099E+02  0.00000000000E+00 0.  1.
         11    1    3    3    0    0  0.22291825283E+01  0.98136194011E+01  0.55307963324E+01  0.11483296078E+02  0.51100000000E-03 0. -1.
        -11    1    3    3    0    0 -0.52702370703E+01  0.10159244620E+02  0.22401563844E+02  0.25155828607E+02  0.51100000000E-03 0.  1.
         12    1    3    3    0    0  0.50925365245E+01  0.13238619853E+01  0.98282564690E+01  0.11148146215E+02  0.00000000000E+00 0. -1.
</event>
<event>
 7    1  0.1899036E-009  0.4778727E+02  0.7816164E-02  0.1312668E+00
        -11   -1    0    0    0    0  0.00000000000E+00  0.00000000000E+00  0.45593999997E+02  0.45594000000E+02  0.51100000000E-03 0.  1.
         11   -1    0    0    0    0 -0.00000000000E+00 -0.00000000000E+00 -0.45593999997E+02  0.45594000000E+02  0.51100000000E-03 0. -1.
    9900012    2    1    2    0    0 -0.17231847489E+02  0.97659681707E+01 -0.38617513707E+02  0.47787273426E+02  0.20000010860E+02 0.  0.
        -12    1    1    2    0    0  0.17231847489E+02 -0.97659681707E+01  0.38617513707E+02  0.43400726574E+02  0.00000000000E+00 0.  1.
         11    1    3    3    0    0 -0.23071664569E+01 -0.11340759866E+01 -0.21110509102E+02  0.21266469858E+02  0.51100000000E-03 0. -1.
        -11    1    3    3    0    0 -0.23549187821E+01  0.24241698141E+01 -0.23630425110E-01  0.33797633669E+01  0.51100000000E-03 0.  1.
         12    1    3    3    0    0 -0.12569762250E+02  0.84758743432E+01 -0.17483374180E+02  0.23141040202E+02  0.00000000000E+00 0. -1.
</event>
<event>
 7    1  0.1899036E-009  0.4778727E+02  0.7816164E-02  0.1312668E+00
        -11   -1    0    0    0    0  0.00000000000E+00  0.00000000000E+00  0.45593999997E+02  0.45594000000E+02  0.51100000000E-03 0. -1.
         11   -1    0    0    0    0 -0.00000000000E+00 -0.00000000000E+00 -0.45593999997E+02  0.45594000000E+02  0.51100000000E-03 0.  1.
    9900012    2    1    2    0    0  0.80515046429E+01 -0.20787310681E+02  0.37238208155E+02  0.47787272368E+02  0.20000006036E+02 0.  0.
        -12    1    1    2    0    0 -0.80515046429E+01  0.20787310681E+02 -0.37238208155E+02  0.43400727632E+02  0.00000000000E+00 0.  1.
         11    1    3    3    0    0  0.36113419125E+01 -0.19060113483E+00  0.18063372185E+02  0.18421822227E+02  0.51100000000E-03 0. -1.
        -11    1    3    3    0    0  0.48053710065E+01 -0.12835661647E+02  0.15738733834E+02  0.20869919583E+02  0.51100000000E-03 0.  1.
        -12    1    3    3    0    0 -0.36520827606E+00 -0.77610478998E+01  0.34361021354E+01  0.84955305586E+01  0.00000000000E+00 0.  1.
</event>
<event>
 7    1  0.1899036E-009  0.4778727E+02  0.7816164E-02  0.1312668E+00
        -11   -1    0    0    0    0  0.00000000000E+00  0.00000000000E+00  0.45593999997E+02  0.45594000000E+02  0.51100000000E-03 0. -1.
         11   -1    0    0    0    0 -0.00000000000E+00 -0.00000000000E+00 -0.45593999997E+02  0.45594000000E+02  0.51100000000E-03 0.  1.
    9900012    2    1    2    0    0 -0.62295379324E+01  0.39384299152E+02 -0.17137477067E+02  0.47787270942E+02  0.19999999534E+02 0.  0.
        -12    1    1    2    0    0  0.62295379324E+01 -0.39384299152E+02  0.17137477067E+02  0.43400729058E+02  0.00000000000E+00 0.  1.
         11    1    3    3    0    0  0.25561839825E+01  0.15285906680E+02 -0.23187484038E+01  0.15670660930E+02  0.51100000000E-03 0. -1.
        -11    1    3    3    0    0 -0.14570778956E+01  0.19307955117E+02 -0.77204355704E+01  0.20845271225E+02  0.51100000000E-03 0.  1.
        -12    1    3    3    0    0 -0.73286440193E+01  0.47904373548E+01 -0.70982930929E+01  0.11271338787E+02  0.00000000000E+00 0.  1.
</event>
<event>
 7    1  0.1899036E-009  0.4778728E+02  0.7816164E-02  0.1312668E+00
        -11   -1    0    0    0    0  0.00000000000E+00  0.00000000000E+00  0.45593999997E+02  0.45594000000E+02  0.51100000000E-03 0.  1.
         11   -1    0    0    0    0 -0.00000000000E+00 -0.00000000000E+00 -0.45593999997E+02  0.45594000000E+02  0.51100000000E-03 0. -1.
    9900012    2    1    2    0    0 -0.71911931545E+01  0.21951995416E+01 -0.42744481800E+02  0.47787275532E+02  0.20000020460E+02 0.  0.
        -12    1    1    2    0    0  0.71911931545E+01 -0.21951995416E+01  0.42744481800E+02  0.43400724468E+02  0.00000000000E+00 0.  1.
         11    1    3    3    0    0 -0.47820714666E+01 -0.16596398019E+01 -0.49655778875E+01  0.70908092487E+01  0.51100000000E-03 0. -1.
        -11    1    3    3    0    0  0.60974202123E+01  0.12916760392E+01 -0.14712592615E+02  0.15978339775E+02  0.51100000000E-03 0.  1.
        -12    1    3    3    0    0 -0.85065419001E+01  0.25631633043E+01 -0.23066311297E+02  0.24718126508E+02  0.00000000000E+00 0.  1.
</event>
<event>
 7    1  0.3363258E-009  0.4778730E+02  0.7816164E-02  0.1312668E+00
        -11   -1    0    0    0    0  0.00000000000E+00  0.00000000000E+00  0.45593999997E+02  0.45594000000E+02  0.51100000000E-03 0.  1.
         11   -1    0    0    0    0 -0.00000000000E+00 -0.00000000000E+00 -0.45593999997E+02  0.45594000000E+02  0.51100000000E-03 0. -1.
    9900012    2    1    2    0    0 -0.24903180993E+01  0.26530270840E+02 -0.34257315422E+02  0.47787301676E+02  0.20000139661E+02 0.  0.
        -12    1    1    2    0    0  0.24903180993E+01 -0.26530270840E+02  0.34257315422E+02  0.43400698324E+02  0.00000000000E+00 0.  1.
         11    1    3    3    0    0 -0.50739912259E+01  0.20239323919E+02 -0.21341797902E+02  0.29847076199E+02  0.51100000000E-03 0. -1.
        -11    1    3    3    0    0  0.27610273153E+01  0.51566377476E+01 -0.14698482428E+02  0.15819594516E+02  0.51100000000E-03 0.  1.
        -12    1    3    3    0    0 -0.17735418871E+00  0.11343091732E+01  0.17829649082E+01  0.21206309610E+01  0.00000000000E+00 0.  1.
</event>
<event>
 7    1  0.1899036E-009  0.4778729E+02  0.7816164E-02  0.1312668E+00
        -11   -1    0    0    0    0  0.00000000000E+00  0.00000000000E+00  0.45593999997E+02  0.45594000000E+02  0.51100000000E-03 0.  1.
         11   -1    0    0    0    0 -0.00000000000E+00 -0.00000000000E+00 -0.45593999997E+02  0.45594000000E+02  0.51100000000E-03 0. -1.
    9900012    2    1    2    0    0 -0.71415102191E+01 -0.22279951382E+02 -0.36554395394E+02  0.47787294655E+02  0.20000107652E+02 0.  0.
        -12    1    1    2    0    0  0.71415102191E+01  0.22279951382E+02  0.36554395394E+02  0.43400705345E+02  0.00000000000E+00 0.  1.
         11    1    3    3    0    0 -0.44828001560E+01 -0.73352739342E+01 -0.11496949787E+02  0.14355542330E+02  0.51100000000E-03 0. -1.
        -11    1    3    3    0    0 -0.76768240047E+01 -0.13810378284E+02 -0.13505657548E+02  0.20786124247E+02  0.51100000000E-03 0.  1.
         12    1    3    3    0    0  0.50181139416E+01 -0.11342991631E+01 -0.11551788060E+02  0.12645628078E+02  0.00000000000E+00 0. -1.
</event>
<event>
 7    1  0.1899036E-009  0.4778727E+02  0.7816164E-02  0.1312668E+00
        -11   -1    0    0    0    0  0.00000000000E+00  0.00000000000E+00  0.45593999997E+02  0.45594000000E+02  0.51100000000E-03 0.  1.
         11   -1    0    0    0    0 -0.00000000000E+00 -0.00000000000E+00 -0.45593999997E+02  0.45594000000E+02  0.51100000000E-03 0. -1.
    9900012    2    1    2    0    0  0.35176522710E+02  0.17304619201E+01 -0.25362198013E+02  0.47787270323E+02  0.19999996709E+02 0.  0.
        -12    1    1    2    0    0 -0.35176522710E+02 -0.17304619201E+01  0.25362198013E+02  0.43400729677E+02  0.00000000000E+00 0.  1.
         11    1    3    3    0    0  0.73482944991E+01 -0.28113384519E+01 -0.22062044140E+01  0.81711929431E+01  0.51100000000E-03 0. -1.
        -11    1    3    3    0    0  0.46513859052E+01  0.11967989146E+01  0.20402943349E+01  0.52182870480E+01  0.51100000000E-03 0.  1.
         12    1    3    3    0    0  0.23176842306E+02  0.33450014574E+01 -0.25196287934E+02  0.34397790332E+02  0.00000000000E+00 0. -1.
</event>
<event>
 7    1  0.1899036E-009  0.4778727E+02  0.7816164E-02  0.1312668E+00
        -11   -1    0    0    0    0  0.00000000000E+00  0.00000000000E+00  0.45593999997E+02  0.45594000000E+02  0.51100000000E-03 0.  1.
         11   -1    0    0    0    0 -0.00000000000E+00 -0.00000000000E+00 -0.45593999997E+02  0.45594000000E+02  0.51100000000E-03 0. -1.
    9900012    2    1    2    0    0  0.42747794999E+02 -0.51547609903E+01 -0.54477188404E+01  0.47787272141E+02  0.20000004998E+02 0.  0.
        -12    1    1    2    0    0 -0.42747794999E+02  0.51547609903E+01  0.54477188404E+01  0.43400727859E+02  0.00000000000E+00 0.  1.
         11    1    3    3    0    0  0.13692296493E+01 -0.31681935352E+01 -0.36923167384E+01  0.50542500202E+01  0.51100000000E-03 0. -1.
        -11    1    3    3    0    0  0.13362850301E+02  0.23316504774E+01  0.32482356086E+01  0.13948239923E+02  0.51100000000E-03 0.  1.
         12    1    3    3    0    0  0.28015715049E+02 -0.43182179325E+01 -0.50036377105E+01  0.28784782197E+02  0.00000000000E+00 0. -1.
</event>
<event>
 7    1  0.1899036E-009  0.4778727E+02  0.7816164E-02  0.1312668E+00
        -11   -1    0    0    0    0  0.00000000000E+00  0.00000000000E+00  0.45593999997E+02  0.45594000000E+02  0.51100000000E-03 0.  1.
         11   -1    0    0    0    0 -0.00000000000E+00 -0.00000000000E+00 -0.45593999997E+02  0.45594000000E+02  0.51100000000E-03 0. -1.
    9900012    2    1    2    0    0  0.45384714909E+01  0.31307155163E+02 -0.29713424383E+02  0.47787271015E+02  0.19999999865E+02 0.  0.
        -12    1    1    2    0    0 -0.45384714909E+01 -0.31307155163E+02  0.29713424383E+02  0.43400728985E+02  0.00000000000E+00 0.  1.
         11    1    3    3    0    0  0.22521906681E+00  0.52839952244E+01 -0.10868458464E+02  0.12086964830E+02  0.51100000000E-03 0. -1.
        -11    1    3    3    0    0 -0.62304876666E+00  0.20692879503E+02 -0.19455864218E+02  0.28409753688E+02  0.51100000000E-03 0.  1.
        -12    1    3    3    0    0  0.49363011908E+01  0.53302804360E+01  0.61089829923E+00  0.72905524965E+01  0.00000000000E+00 0.  1.
</event>
<event>
 7    1  0.1899036E-009  0.4778727E+02  0.7816164E-02  0.1312668E+00
        -11   -1    0    0    0    0  0.00000000000E+00  0.00000000000E+00  0.45593999997E+02  0.45594000000E+02  0.51100000000E-03 0.  1.
         11   -1    0    0    0    0 -0.00000000000E+00 -0.00000000000E+00 -0.45593999997E+02  0.45594000000E+02  0.51100000000E-03 0. -1.
    9900012    2    1    2    0    0  0.20974043979E+02 -0.23323581400E+02 -0.29995385952E+02  0.47787272488E+02  0.20000006581E+02 0.  0.
        -12    1    1    2    0    0 -0.20974043979E+02  0.23323581400E+02  0.29995385952E+02  0.43400727512E+02  0.00000000000E+00 0.  1.
         11    1    3    3    0    0  0.19647995510E+02 -0.11237058095E+02 -0.13548431193E+02  0.26379446360E+02  0.51100000000E-03 0. -1.
        -11    1    3    3    0    0  0.90621752414E+00 -0.10031342909E+01 -0.60711412356E+01  0.62198283554E+01  0.51100000000E-03 0.  1.
        -12    1    3    3    0    0  0.41983094515E+00 -0.11083389014E+02 -0.10375813524E+02  0.15187997773E+02  0.00000000000E+00 0.  1.
</event>
<event>
 7    1  0.1899036E-009  0.4778728E+02  0.7816164E-02  0.1312668E+00
        -11   -1    0    0    0    0  0.00000000000E+00  0.00000000000E+00  0.45593999997E+02  0.45594000000E+02  0.51100000000E-03 0.  1.
         11   -1    0    0    0    0 -0.00000000000E+00 -0.00000000000E+00 -0.45593999997E+02  0.45594000000E+02  0.51100000000E-03 0. -1.
    9900012    2    1    2    0    0  0.13957169503E+02  0.24552398239E+02 -0.32954509522E+02  0.47787279526E+02  0.20000038672E+02 0.  0.
        -12    1    1    2    0    0 -0.13957169503E+02 -0.24552398239E+02  0.32954509522E+02  0.43400720474E+02  0.00000000000E+00 0.  1.
         11    1    3    3    0    0  0.12455254986E+02  0.15113190929E+02 -0.13705863199E+02  0.23903819844E+02  0.51100000000E-03 0. -1.
        -11    1    3    3    0    0 -0.87612982622E+00 -0.12056312585E+01  0.27891008581E+00  0.15162260059E+01  0.51100000000E-03 0.  1.
         12    1    3    3    0    0  0.23780443430E+01  0.10644838568E+02 -0.19527556409E+02  0.22367233676E+02  0.00000000000E+00 0. -1.
</event>
<event>
 7    1  0.1899036E-009  0.4778727E+02  0.7816164E-02  0.1312668E+00
        -11   -1    0    0    0    0  0.00000000000E+00  0.00000000000E+00  0.45593999997E+02  0.45594000000E+02  0.51100000000E-03 0.  1.
         11   -1    0    0    0    0 -0.00000000000E+00 -0.00000000000E+00 -0.45593999997E+02  0.45594000000E+02  0.51100000000E-03 0. -1.
    9900012    2    1    2    0    0  0.35397495873E+02  0.24714408551E+02 -0.44540791418E+01  0.47787268150E+02  0.19999986804E+02 0.  0.
        -12    1    1    2    0    0 -0.35397495873E+02 -0.24714408551E+02  0.44540791418E+01  0.43400731850E+02  0.00000000000E+00 0.  1.
         11    1    3    3    0    0  0.21880801174E+02  0.14033611404E+02 -0.48796319426E+00  0.25999034932E+02  0.51100000000E-03 0. -1.
        -11    1    3    3    0    0  0.83450677937E+01  0.45741650035E+01  0.41576660674E+01  0.10385053170E+02  0.51100000000E-03 0.  1.
        -12    1    3    3    0    0  0.51716269055E+01  0.61066321437E+01 -0.81237820149E+01  0.11403180048E+02  0.00000000000E+00 0.  1.
</event>
<event>
 7    1  0.1899036E-009  0.4778728E+02  0.7816164E-02  0.1312668E+00
        -11   -1    0    0    0    0  0.00000000000E+00  0.00000000000E+00  0.45593999997E+02  0.45594000000E+02  0.51100000000E-03 0.  1.
         11   -1    0    0    0    0 -0.00000000000E+00 -0.00000000000E+00 -0.45593999997E+02  0.45594000000E+02  0.51100000000E-03 0. -1.
    9900012    2    1    2    0    0  0.58099588716E+01  0.47064175754E+00 -0.43007506740E+02  0.47787276945E+02  0.20000026901E+02 0.  0.
        -12    1    1    2    0    0 -0.58099588716E+01 -0.47064175754E+00  0.43007506740E+02  0.43400723055E+02  0.00000000000E+00 0.  1.
         11    1    3    3    0    0  0.56320460145E+01  0.37582569395E+01 -0.18210194748E+02  0.19428217380E+02  0.51100000000E-03 0. -1.
        -11    1    3    3    0    0 -0.37328098973E+00  0.93866329185E-01  0.16481961042E+01  0.16925425383E+01  0.51100000000E-03 0.  1.
         12    1    3    3    0    0  0.55119384685E+00 -0.33814815112E+01 -0.26445508096E+02  0.26666517026E+02  0.00000000000E+00 0. -1.
</event>
<event>
 7    1  0.1899036E-009  0.4778726E+02  0.7816164E-02  0.1312668E+00
        -11   -1    0    0    0    0  0.00000000000E+00  0.00000000000E+00  0.45593999997E+02  0.45594000000E+02  0.51100000000E-03 0.  1.
         11   -1    0    0    0    0 -0.00000000000E+00 -0.00000000000E+00 -0.45593999997E+02  0.45594000000E+02  0.51100000000E-03 0. -1.
    9900012    2    1    2    0    0  0.14628823857E+02  0.18390944159E+02 -0.36488285122E+02  0.47787259619E+02  0.19999947905E+02 0.  0.
        -12    1    1    2    0    0 -0.14628823857E+02 -0.18390944159E+02  0.36488285122E+02  0.43400740381E+02  0.00000000000E+00 0.  1.
         11    1    3    3    0    0  0.61788797671E+01  0.36178173387E+01 -0.12337096152E+02  0.14264329609E+02  0.51100000000E-03 0. -1.
        -11    1    3    3    0    0  0.81750923555E+01  0.13829133443E+02 -0.26492965991E+02  0.30983129508E+02  0.51100000000E-03 0.  1.
        -12    1    3    3    0    0  0.27485173482E+00  0.94399337641E+00  0.23417770213E+01  0.25398005016E+01  0.00000000000E+00 0.  1.
</event>
<event>
 7    1  0.1899036E-009  0.4778727E+02  0.7816164E-02  0.1312668E+00
        -11   -1    0    0    0    0  0.00000000000E+00  0.00000000000E+00  0.45593999997E+02  0.45594000000E+02  0.51100000000E-03 0.  1.
         11   -1    0    0    0    0 -0.00000000000E+00 -0.00000000000E+00 -0.45593999997E+02  0.45594000000E+02  0.51100000000E-03 0. -1.
    9900012    2    1    2    0    0  0.43356310580E+02  0.15572964884E+01 -0.11952123830E+01  0.47787269912E+02  0.19999994839E+02 0.  0.
        -12    1    1    2    0    0 -0.43356310580E+02 -0.15572964884E+01  0.11952123830E+01  0.43400730088E+02  0.00000000000E+00 0.  1.
         11    1    3    3    0    0  0.29938036293E+02 -0.56784517245E+01 -0.54677899252E+01  0.30958481196E+02  0.51100000000E-03 0. -1.
        -11    1    3    3    0    0 -0.34044046340E+00  0.11609462991E+01  0.58167071219E+00  0.13423997531E+01  0.51100000000E-03 0.  1.
        -12    1    3    3    0    0  0.13758714751E+02  0.60748019137E+01  0.36909068300E+01  0.15486388963E+02  0.00000000000E+00 0.  1.
</event>
<event>
 7    1  0.1899036E-009  0.4778727E+02  0.7816164E-02  0.1312668E+00
        -11   -1    0    0    0    0  0.00000000000E+00  0.00000000000E+00  0.45593999997E+02  0.45594000000E+02  0.51100000000E-03 0.  1.
         11   -1    0    0    0    0 -0.00000000000E+00 -0.00000000000E+00 -0.45593999997E+02  0.45594000000E+02  0.51100000000E-03 0. -1.
    9900012    2    1    2    0    0  0.30405476601E+02  0.27253257465E+02 -0.14710197541E+02  0.47787274643E+02  0.20000016409E+02 0.  0.
        -12    1    1    2    0    0 -0.30405476601E+02 -0.27253257465E+02  0.14710197541E+02  0.43400725357E+02  0.00000000000E+00 0.  1.
         11    1    3    3    0    0 -0.99749455010E+00  0.51653157866E+01 -0.31773538224E+00  0.52703357186E+01  0.51100000000E-03 0. -1.
        -11    1    3    3    0    0  0.12557237963E+02  0.34565181625E+01 -0.17043547241E+01  0.13135317596E+02  0.51100000000E-03 0.  1.
         12    1    3    3    0    0  0.18845733188E+02  0.18631423515E+02 -0.12688107435E+02  0.29381621328E+02  0.00000000000E+00 0. -1.
</event>
<event>
 7    1  0.1899036E-009  0.4778727E+02  0.7816164E-02  0.1312668E+00
        -11   -1    0    0    0    0  0.00000000000E+00  0.00000000000E+00  0.45593999997E+02  0.45594000000E+02  0.51100000000E-03 0. -1.
         11   -1    0    0    0    0 -0.00000000000E+00 -0.00000000000E+00 -0.45593999997E+02  0.45594000000E+02  0.51100000000E-03 0.  1.
    9900012    2    1    2    0    0 -0.34495634370E+01 -0.32852856019E+02  0.28149842064E+02  0.47787271380E+02  0.20000001530E+02 0.  0.
        -12    1    1    2    0    0  0.34495634370E+01  0.32852856019E+02 -0.28149842064E+02  0.43400728620E+02  0.00000000000E+00 0.  1.
         11    1    3    3    0    0  0.24562151926E+01 -0.76829599866E+00  0.57717436547E+01  0.63195171407E+01  0.51100000000E-03 0. -1.
        -11    1    3    3    0    0 -0.17723900406E+01 -0.11227287214E+01 -0.11212561916E+01  0.23788867031E+01  0.51100000000E-03 0.  1.
        -12    1    3    3    0    0 -0.41333885890E+01 -0.30961831299E+02  0.23499354601E+02  0.39088867536E+02  0.00000000000E+00 0.  1.
</event>
<event>
 7    1  0.1899036E-009  0.4778727E+02  0.7816164E-02  0.1312668E+00
        -11   -1    0    0    0    0  0.00000000000E+00  0.00000000000E+00  0.45593999997E+02  0.45594000000E+02  0.51100000000E-03 0.  1.
         11   -1    0    0    0    0 -0.00000000000E+00 -0.00000000000E+00 -0.45593999997E+02  0.45594000000E+02  0.51100000000E-03 0. -1.
    9900012    2    1    2    0    0  0.19765409409E+02  0.37332380860E+02 -0.99621963043E+01  0.47787269304E+02  0.19999992063E+02 0.  0.
        -12    1    1    2    0    0 -0.19765409409E+02 -0.37332380860E+02  0.99621963043E+01  0.43400730696E+02  0.00000000000E+00 0.  1.
         11    1    3    3    0    0  0.95930864545E+01  0.15709196445E+02 -0.99367387905E+00  0.18433489868E+02  0.51100000000E-03 0. -1.
        -11    1    3    3    0    0  0.82124764122E+01  0.93405680203E+01 -0.11176417663E+02  0.16721342405E+02  0.51100000000E-03 0.  1.
        -12    1    3    3    0    0  0.19598465426E+01  0.12282616394E+02  0.22078952382E+01  0.12632437031E+02  0.00000000000E+00 0.  1.
</event>
<event>
 7    1  0.1899036E-009  0.4778727E+02  0.7816164E-02  0.1312668E+00
        -11   -1    0    0    0    0  0.00000000000E+00  0.00000000000E+00  0.45593999997E+02  0.45594000000E+02  0.51100000000E-03 0.  1.
         11   -1    0    0    0    0 -0.00000000000E+00 -0.00000000000E+00 -0.45593999997E+02  0.45594000000E+02  0.51100000000E-03 0. -1.
    9900012    2    1    2    0    0 -0.17038172636E+02 -0.26649702282E+02 -0.29717288843E+02  0.47787271727E+02  0.20000003110E+02 0.  0.
        -12    1    1    2    0    0  0.17038172636E+02  0.26649702282E+02  0.29717288843E+02  0.43400728273E+02  0.00000000000E+00 0.  1.
         11    1    3    3    0    0 -0.22557407630E+01  0.24747448757E+01 -0.13878916474E+01  0.36247720033E+01  0.51100000000E-03 0. -1.
        -11    1    3    3    0    0 -0.27922262208E+01 -0.12031060694E+02 -0.65057161543E+01  0.13959487513E+02  0.51100000000E-03 0.  1.
         12    1    3    3    0    0 -0.11990205652E+02 -0.17093386464E+02 -0.21823681041E+02  0.30203012210E+02  0.00000000000E+00 0. -1.
</event>
<event>
 7    1  0.1899036E-009  0.4778727E+02  0.7816164E-02  0.1312668E+00
        -11   -1    0    0    0    0  0.00000000000E+00  0.00000000000E+00  0.45593999997E+02  0.45594000000E+02  0.51100000000E-03 0.  1.
         11   -1    0    0    0    0 -0.00000000000E+00 -0.00000000000E+00 -0.45593999997E+02  0.45594000000E+02  0.51100000000E-03 0. -1.
    9900012    2    1    2    0    0 -0.30155698888E+01  0.53829038844E+00 -0.43292496422E+02  0.47787266541E+02  0.19999979467E+02 0.  0.
        -12    1    1    2    0    0  0.30155698888E+01 -0.53829038844E+00  0.43292496422E+02  0.43400733459E+02  0.00000000000E+00 0.  1.
         11    1    3    3    0    0 -0.22353770756E+01 -0.31664234782E+01 -0.18271077977E+02  0.18677672205E+02  0.51100000000E-03 0. -1.
        -11    1    3    3    0    0  0.65781252618E+01  0.35384813230E+01 -0.13751181421E+02  0.15648884074E+02  0.51100000000E-03 0.  1.
        -12    1    3    3    0    0 -0.73583180751E+01  0.16623254361E+00 -0.11270237025E+02  0.13460710262E+02  0.00000000000E+00 0.  1.
</event>
<event>
 7    1  0.1899036E-009  0.4778727E+02  0.7816164E-02  0.1312668E+00
        -11   -1    0    0    0    0  0.00000000000E+00  0.00000000000E+00  0.45593999997E+02  0.45594000000E+02  0.51100000000E-03 0.  1.
         11   -1    0    0    0    0 -0.00000000000E+00 -0.00000000000E+00 -0.45593999997E+02  0.45594000000E+02  0.51100000000E-03 0. -1.
    9900012    2    1    2    0    0 -0.87571488821E+01  0.18670027611E+02 -0.38188551528E+02  0.47787273562E+02  0.20000011478E+02 0.  0.
        -12    1    1    2    0    0  0.87571488821E+01 -0.18670027611E+02  0.38188551528E+02  0.43400726438E+02  0.00000000000E+00 0.  1.
         11    1    3    3    0    0  0.49860390344E+00  0.35213188106E+01 -0.23248768594E+01  0.42489227683E+01  0.51100000000E-03 0. -1.
        -11    1    3    3    0    0  0.40160873625E+01  0.47946292316E+01 -0.17707584315E+02  0.18779669052E+02  0.51100000000E-03 0.  1.
         12    1    3    3    0    0 -0.13271840148E+02  0.10354079568E+02 -0.18156090354E+02  0.24758681741E+02  0.00000000000E+00 0. -1.
</event>
<event>
 7    1  0.1899036E-009  0.4778727E+02  0.7816164E-02  0.1312668E+00
        -11   -1    0    0    0    0  0.00000000000E+00  0.00000000000E+00  0.45593999997E+02  0.45594000000E+02  0.51100000000E-03 0. -1.
         11   -1    0    0    0    0 -0.00000000000E+00 -0.00000000000E+00 -0.45593999997E+02  0.45594000000E+02  0.51100000000E-03 0.  1.
    9900012    2    1    2    0    0 -0.30872304915E+02 -0.13755565815E+02  0.27226978633E+02  0.47787272274E+02  0.20000005606E+02 0.  0.
        -12    1    1    2    0    0  0.30872304915E+02  0.13755565815E+02 -0.27226978633E+02  0.43400727726E+02  0.00000000000E+00 0.  1.
         11    1    3    3    0    0 -0.28818092815E+02 -0.10728137197E+02  0.15660764618E+02  0.34508476493E+02  0.51100000000E-03 0. -1.
        -11    1    3    3    0    0  0.39029737027E+00 -0.28074972802E+01  0.21768403480E+01  0.35739344115E+01  0.51100000000E-03 0.  1.
        -12    1    3    3    0    0 -0.24445094704E+01 -0.21993133836E+00  0.93893736668E+01  0.97048613694E+01  0.00000000000E+00 0.  1.
</event>
<event>
 7    1  0.1899036E-009  0.4778727E+02  0.7816164E-02  0.1312668E+00
        -11   -1    0    0    0    0  0.00000000000E+00  0.00000000000E+00  0.45593999997E+02  0.45594000000E+02  0.51100000000E-03 0.  1.
         11   -1    0    0    0    0 -0.00000000000E+00 -0.00000000000E+00 -0.45593999997E+02  0.45594000000E+02  0.51100000000E-03 0. -1.
    9900012    2    1    2    0    0  0.92722644830E+01 -0.38166818129E+02 -0.18464621139E+02  0.47787272719E+02  0.20000007635E+02 0.  0.
        -12    1    1    2    0    0 -0.92722644830E+01  0.38166818129E+02  0.18464621139E+02  0.43400727281E+02  0.00000000000E+00 0.  1.
         11    1    3    3    0    0  0.11427526126E+02 -0.19555770492E+02 -0.11445482896E+02  0.25377462282E+02  0.51100000000E-03 0. -1.
        -11    1    3    3    0    0  0.10535261051E+01 -0.12796819613E+02 -0.12965283022E+00  0.12840767874E+02  0.51100000000E-03 0.  1.
         12    1    3    3    0    0 -0.32087877476E+01 -0.58142280230E+01 -0.68894854137E+01  0.95690425633E+01  0.00000000000E+00 0. -1.
</event>
<event>
 7    1  0.1899036E-009  0.4778727E+02  0.7816164E-02  0.1312668E+00
        -11   -1    0    0    0    0  0.00000000000E+00  0.00000000000E+00  0.45593999997E+02  0.45594000000E+02  0.51100000000E-03 0.  1.
         11   -1    0    0    0    0 -0.00000000000E+00 -0.00000000000E+00 -0.45593999997E+02  0.45594000000E+02  0.51100000000E-03 0. -1.
    9900012    2    1    2    0    0  0.11565648048E+02  0.14134212104E+02 -0.39371098928E+02  0.47787267318E+02  0.19999983009E+02 0.  0.
        -12    1    1    2    0    0 -0.11565648048E+02 -0.14134212104E+02  0.39371098928E+02  0.43400732682E+02  0.00000000000E+00 0.  1.
         11    1    3    3    0    0  0.40616840836E+00 -0.39599504282E+01 -0.38384719319E+01  0.55299228930E+01  0.51100000000E-03 0.  1.
        -11    1    3    3    0    0  0.10298145146E+02  0.88556248601E+01 -0.20464067316E+02  0.24561187603E+02  0.51100000000E-03 0. -1.
        -12    1    3    3    0    0  0.86133449371E+00  0.92385376725E+01 -0.15068559680E+02  0.17696156822E+02  0.00000000000E+00 0.  1.
</event>
<event>
 7    1  0.1899036E-009  0.4778728E+02  0.7816164E-02  0.1312668E+00
        -11   -1    0    0    0    0  0.00000000000E+00  0.00000000000E+00  0.45593999997E+02  0.45594000000E+02  0.51100000000E-03 0. -1.
         11   -1    0    0    0    0 -0.00000000000E+00 -0.00000000000E+00 -0.45593999997E+02  0.45594000000E+02  0.51100000000E-03 0.  1.
    9900012    2    1    2    0    0  0.11853275219E+02  0.28182310810E+02  0.30803895934E+02  0.47787276726E+02  0.20000025904E+02 0.  0.
        -12    1    1    2    0    0 -0.11853275219E+02 -0.28182310810E+02 -0.30803895934E+02  0.43400723274E+02  0.00000000000E+00 0.  1.
         11    1    3    3    0    0  0.44801612401E+01 -0.90500616708E+00  0.42605638133E+00  0.45904689522E+01  0.51100000000E-03 0. -1.
        -11    1    3    3    0    0  0.49242529345E+01  0.13541677861E+02  0.10426901657E+02  0.17786106507E+02  0.51100000000E-03 0.  1.
         12    1    3    3    0    0  0.24488610443E+01  0.15545639116E+02  0.19950937896E+02  0.25410701267E+02  0.00000000000E+00 0. -1.
</event>
<event>
 7    1  0.1899036E-009  0.4778727E+02  0.7816164E-02  0.1312668E+00
        -11   -1    0    0    0    0  0.00000000000E+00  0.00000000000E+00  0.45593999997E+02  0.45594000000E+02  0.51100000000E-03 0.  1.
         11   -1    0    0    0    0 -0.00000000000E+00 -0.00000000000E+00 -0.45593999997E+02  0.45594000000E+02  0.51100000000E-03 0. -1.
    9900012    2    1    2    0    0 -0.77118575216E+01  0.26319539596E+02 -0.33636773043E+02  0.47787269456E+02  0.19999992758E+02 0.  0.
        -12    1    1    2    0    0  0.77118575216E+01 -0.26319539596E+02  0.33636773043E+02  0.43400730544E+02  0.00000000000E+00 0.  1.
         11    1    3    3    0    0 -0.34760317317E+01  0.12248254815E+01 -0.53476817750E+01  0.64946666341E+01  0.51100000000E-03 0. -1.
        -11    1    3    3    0    0  0.21997837064E+01  0.21448663078E+02 -0.15628119419E+02  0.26629350594E+02  0.51100000000E-03 0.  1.
        -12    1    3    3    0    0 -0.64356094964E+01  0.36460510366E+01 -0.12660971849E+02  0.14663252228E+02  0.00000000000E+00 0.  1.
</event>
<event>
 7    1  0.1899036E-009  0.4778727E+02  0.7816164E-02  0.1312668E+00
        -11   -1    0    0    0    0  0.00000000000E+00  0.00000000000E+00  0.45593999997E+02  0.45594000000E+02  0.51100000000E-03 0. -1.
         11   -1    0    0    0    0 -0.00000000000E+00 -0.00000000000E+00 -0.45593999997E+02  0.45594000000E+02  0.51100000000E-03 0.  1.
    9900012    2    1    2    0    0  0.28172995939E+02  0.27605367448E+02 -0.18106614497E+02  0.47787268432E+02  0.19999988088E+02 0.  0.
        -12    1    1    2    0    0 -0.28172995939E+02 -0.27605367448E+02  0.18106614497E+02  0.43400731568E+02  0.00000000000E+00 0.  1.
         11    1    3    3    0    0  0.20639747310E+01  0.47933730658E+01  0.22755649491E+01  0.56933832768E+01  0.51100000000E-03 0. -1.
        -11    1    3    3    0    0  0.82093840176E+01  0.19669121813E+01 -0.90413539373E+01  0.12369673025E+02  0.51100000000E-03 0.  1.
        -12    1    3    3    0    0  0.17899637190E+02  0.20845082201E+02 -0.11340825509E+02  0.29724212130E+02  0.00000000000E+00 0.  1.
</event>
<event>
 7    1  0.1899036E-009  0.4778727E+02  0.7816164E-02  0.1312668E+00
        -11   -1    0    0    0    0  0.00000000000E+00  0.00000000000E+00  0.45593999997E+02  0.45594000000E+02  0.51100000000E-03 0.  1.
         11   -1    0    0    0    0 -0.00000000000E+00 -0.00000000000E+00 -0.45593999997E+02  0.45594000000E+02  0.51100000000E-03 0. -1.
    9900012    2    1    2    0    0  0.13613935605E+02  0.75356204078E+01 -0.40515409373E+02  0.47787271731E+02  0.20000003131E+02 0.  0.
        -12    1    1    2    0    0 -0.13613935605E+02 -0.75356204078E+01  0.40515409373E+02  0.43400728269E+02  0.00000000000E+00 0.  1.
         11    1    3    3    0    0  0.21868853229E+01  0.13940499160E+00  0.20343536642E+00  0.22007470042E+01  0.51100000000E-03 0. -1.
        -11    1    3    3    0    0 -0.43833202397E+00  0.53721647518E+01 -0.33958026287E+01  0.63705388185E+01  0.51100000000E-03 0.  1.
         12    1    3    3    0    0  0.11865382307E+02  0.20240506644E+01 -0.37323042111E+02  0.39215985908E+02  0.00000000000E+00 0. -1.
</event>
<event>
 7    1  0.1899036E-009  0.4778727E+02  0.7816164E-02  0.1312668E+00
        -11   -1    0    0    0    0  0.00000000000E+00  0.00000000000E+00  0.45593999997E+02  0.45594000000E+02  0.51100000000E-03 0.  1.
         11   -1    0    0    0    0 -0.00000000000E+00 -0.00000000000E+00 -0.45593999997E+02  0.45594000000E+02  0.51100000000E-03 0. -1.
    9900012    2    1    2    0    0 -0.19443171814E+02  0.14071227663E+02 -0.36160569161E+02  0.47787272584E+02  0.20000007021E+02 0.  0.
        -12    1    1    2    0    0  0.19443171814E+02 -0.14071227663E+02  0.36160569161E+02  0.43400727416E+02  0.00000000000E+00 0.  1.
         11    1    3    3    0    0 -0.14547315469E+02  0.12392075470E+02 -0.18478851186E+02  0.26582999515E+02  0.51100000000E-03 0. -1.
        -11    1    3    3    0    0 -0.19113678355E+01 -0.87166277657E+00  0.84634155343E+00  0.22648216894E+01  0.51100000000E-03 0.  1.
         12    1    3    3    0    0 -0.29844885096E+01  0.25508149700E+01 -0.18528059529E+02  0.18939451380E+02  0.00000000000E+00 0. -1.
</event>
<event>
 7    1  0.1899036E-009  0.4778727E+02  0.7816164E-02  0.1312668E+00
        -11   -1    0    0    0    0  0.00000000000E+00  0.00000000000E+00  0.45593999997E+02  0.45594000000E+02  0.51100000000E-03 0.  1.
         11   -1    0    0    0    0 -0.00000000000E+00 -0.00000000000E+00 -0.45593999997E+02  0.45594000000E+02  0.51100000000E-03 0. -1.
    9900012    2    1    2    0    0 -0.33519192936E+02 -0.87434667013E+00 -0.27555808087E+02  0.47787270323E+02  0.19999996709E+02 0.  0.
        -12    1    1    2    0    0  0.33519192936E+02  0.87434667013E+00  0.27555808087E+02  0.43400729677E+02  0.00000000000E+00 0.  1.
         11    1    3    3    0    0 -0.58085556955E+01 -0.84302132865E+01 -0.63736794112E+01  0.12059502677E+02  0.51100000000E-03 0.  1.
        -11    1    3    3    0    0 -0.13056066356E+02  0.28422668818E+01 -0.10428577636E+02  0.16949766414E+02  0.51100000000E-03 0. -1.
        -12    1    3    3    0    0 -0.14654570885E+02  0.47135997346E+01 -0.10753551040E+02  0.18778001232E+02  0.00000000000E+00 0.  1.
</event>
<event>
 7    1  0.1899036E-009  0.4778727E+02  0.7816164E-02  0.1312668E+00
        -11   -1    0    0    0    0  0.00000000000E+00  0.00000000000E+00  0.45593999997E+02  0.45594000000E+02  0.51100000000E-03 0. -1.
         11   -1    0    0    0    0 -0.00000000000E+00 -0.00000000000E+00 -0.45593999997E+02  0.45594000000E+02  0.51100000000E-03 0.  1.
    9900012    2    1    2    0    0  0.35609026951E+02  0.92746645949E+01  0.23013065264E+02  0.47787269861E+02  0.19999994606E+02 0.  0.
        -12    1    1    2    0    0 -0.35609026951E+02 -0.92746645949E+01 -0.23013065264E+02  0.43400730139E+02  0.00000000000E+00 0.  1.
         11    1    3    3    0    0  0.91625224365E+01  0.68231906978E+01  0.12571878968E+01  0.11492966126E+02  0.51100000000E-03 0. -1.
        -11    1    3    3    0    0  0.88608591283E+01 -0.46388320320E+01  0.61900927105E+01  0.11762263181E+02  0.51100000000E-03 0.  1.
         12    1    3    3    0    0  0.17585645386E+02  0.70903059291E+01  0.15565784657E+02  0.24532040555E+02  0.00000000000E+00 0. -1.
</event>
<event>
 7    1  0.1899036E-009  0.4778727E+02  0.7816164E-02  0.1312668E+00
        -11   -1    0    0    0    0  0.00000000000E+00  0.00000000000E+00  0.45593999997E+02  0.45594000000E+02  0.51100000000E-03 0.  1.
         11   -1    0    0    0    0 -0.00000000000E+00 -0.00000000000E+00 -0.45593999997E+02  0.45594000000E+02  0.51100000000E-03 0. -1.
    9900012    2    1    2    0    0 -0.32215058311E+02 -0.76674413543E+01 -0.28053945643E+02  0.47787268381E+02  0.19999987858E+02 0.  0.
        -12    1    1    2    0    0  0.32215058311E+02  0.76674413543E+01  0.28053945643E+02  0.43400731619E+02  0.00000000000E+00 0.  1.
         11    1    3    3    0    0 -0.82514868204E+01  0.60342215508E+00 -0.12056863155E+02  0.14622554580E+02  0.51100000000E-03 0. -1.
        -11    1    3    3    0    0 -0.10086253055E+01  0.23338479181E+00  0.23531887587E+01  0.25708541505E+01  0.51100000000E-03 0.  1.
         12    1    3    3    0    0 -0.22954946185E+02 -0.85042483012E+01 -0.18350271247E+02  0.30593859651E+02  0.00000000000E+00 0. -1.
</event>
<event>
 7    1  0.1899036E-009  0.4778727E+02  0.7816164E-02  0.1312668E+00
        -11   -1    0    0    0    0  0.00000000000E+00  0.00000000000E+00  0.45593999997E+02  0.45594000000E+02  0.51100000000E-03 0.  1.
         11   -1    0    0    0    0 -0.00000000000E+00 -0.00000000000E+00 -0.45593999997E+02  0.45594000000E+02  0.51100000000E-03 0. -1.
    9900012    2    1    2    0    0 -0.43188042352E+02 -0.10201790691E-01 -0.42914156083E+01  0.47787270119E+02  0.19999995783E+02 0.  0.
        -12    1    1    2    0    0  0.43188042352E+02  0.10201790691E-01  0.42914156083E+01  0.43400729881E+02  0.00000000000E+00 0.  1.
         11    1    3    3    0    0 -0.53902288199E+01  0.47201752289E+01  0.39649468109E+01  0.81887376559E+01  0.51100000000E-03 0. -1.
        -11    1    3    3    0    0 -0.94730839088E+01 -0.19025921813E+01 -0.51910826120E+01  0.10968432645E+02  0.51100000000E-03 0.  1.
        -12    1    3    3    0    0 -0.28324729623E+02 -0.28277848382E+01 -0.30652798073E+01  0.28630099818E+02  0.00000000000E+00 0.  1.
</event>
<event>
 7    1  0.1899036E-009  0.4778727E+02  0.7816164E-02  0.1312668E+00
        -11   -1    0    0    0    0  0.00000000000E+00  0.00000000000E+00  0.45593999997E+02  0.45594000000E+02  0.51100000000E-03 0.  1.
         11   -1    0    0    0    0 -0.00000000000E+00 -0.00000000000E+00 -0.45593999997E+02  0.45594000000E+02  0.51100000000E-03 0. -1.
    9900012    2    1    2    0    0 -0.39685426880E+02 -0.14217367915E+02 -0.10322635814E+02  0.47787268817E+02  0.19999989842E+02 0.  0.
        -12    1    1    2    0    0  0.39685426880E+02  0.14217367915E+02  0.10322635814E+02  0.43400731183E+02  0.00000000000E+00 0.  1.
         11    1    3    3    0    0 -0.13792521161E+02 -0.10577002140E+02  0.17106929236E+01  0.17465196386E+02  0.51100000000E-03 0. -1.
        -11    1    3    3    0    0 -0.53641950395E+00  0.10835655700E+01 -0.25839959115E+01  0.28528749290E+01  0.51100000000E-03 0.  1.
         12    1    3    3    0    0 -0.25356486215E+02 -0.47239313456E+01 -0.94493328260E+01  0.27469197502E+02  0.00000000000E+00 0. -1.
</event>
<event>
 7    1  0.1899036E-009  0.4778727E+02  0.7816164E-02  0.1312668E+00
        -11   -1    0    0    0    0  0.00000000000E+00  0.00000000000E+00  0.45593999997E+02  0.45594000000E+02  0.51100000000E-03 0.  1.
         11   -1    0    0    0    0 -0.00000000000E+00 -0.00000000000E+00 -0.45593999997E+02  0.45594000000E+02  0.51100000000E-03 0. -1.
    9900012    2    1    2    0    0  0.10318843634E+02  0.32668553132E+02 -0.26644152458E+02  0.47787265469E+02  0.19999974578E+02 0.  0.
        -12    1    1    2    0    0 -0.10318843634E+02 -0.32668553132E+02  0.26644152458E+02  0.43400734531E+02  0.00000000000E+00 0.  1.
         11    1    3    3    0    0  0.19684366936E+01  0.12524888187E+02 -0.88894261891E+00  0.12709751624E+02  0.51100000000E-03 0. -1.
        -11    1    3    3    0    0 -0.23713287806E+00  0.45084859574E+01 -0.11015824727E+01  0.46471670763E+01  0.51100000000E-03 0.  1.
        -12    1    3    3    0    0  0.85875398183E+01  0.15635178987E+02 -0.24653627366E+02  0.30430346768E+02  0.00000000000E+00 0.  1.
</event>
<event>
 7    1  0.1899036E-009  0.4778727E+02  0.7816164E-02  0.1312668E+00
        -11   -1    0    0    0    0  0.00000000000E+00  0.00000000000E+00  0.45593999997E+02  0.45594000000E+02  0.51100000000E-03 0.  1.
         11   -1    0    0    0    0 -0.00000000000E+00 -0.00000000000E+00 -0.45593999997E+02  0.45594000000E+02  0.51100000000E-03 0. -1.
    9900012    2    1    2    0    0  0.10122425458E+02 -0.24986608810E+02 -0.34012193915E+02  0.47787268994E+02  0.19999990649E+02 0.  0.
        -12    1    1    2    0    0 -0.10122425458E+02  0.24986608810E+02  0.34012193915E+02  0.43400731006E+02  0.00000000000E+00 0.  1.
         11    1    3    3    0    0  0.90613195238E+01 -0.37436585584E+01 -0.70779724699E+01  0.12092153880E+02  0.51100000000E-03 0. -1.
        -11    1    3    3    0    0  0.25614073468E+01 -0.15892098049E+02 -0.12991478772E+02  0.20685698173E+02  0.51100000000E-03 0.  1.
         12    1    3    3    0    0 -0.15003014124E+01 -0.53508522034E+01 -0.13942742673E+02  0.15009416940E+02  0.00000000000E+00 0. -1.
</event>
<event>
 7    1  0.1899036E-009  0.4778727E+02  0.7816164E-02  0.1312668E+00
        -11   -1    0    0    0    0  0.00000000000E+00  0.00000000000E+00  0.45593999997E+02  0.45594000000E+02  0.51100000000E-03 0. -1.
         11   -1    0    0    0    0 -0.00000000000E+00 -0.00000000000E+00 -0.45593999997E+02  0.45594000000E+02  0.51100000000E-03 0.  1.
    9900012    2    1    2    0    0  0.53448054305E+01  0.26414033393E+02  0.34019921738E+02  0.47787272123E+02  0.20000004918E+02 0.  0.
        -12    1    1    2    0    0 -0.53448054305E+01 -0.26414033393E+02 -0.34019921738E+02  0.43400727877E+02  0.00000000000E+00 0.  1.
         11    1    3    3    0    0  0.33689240688E+01 -0.17218385980E+00  0.31004452743E+01  0.45817090504E+01  0.51100000000E-03 0. -1.
        -11    1    3    3    0    0  0.37561841700E+01  0.78669098125E+01  0.23946380197E+01  0.90405465003E+01  0.51100000000E-03 0.  1.
         12    1    3    3    0    0 -0.17803028083E+01  0.18719307440E+02  0.28524838444E+02  0.34165016572E+02  0.00000000000E+00 0. -1.
</event>
<event>
 7    1  0.1899036E-009  0.4778727E+02  0.7816164E-02  0.1312668E+00
        -11   -1    0    0    0    0  0.00000000000E+00  0.00000000000E+00  0.45593999997E+02  0.45594000000E+02  0.51100000000E-03 0.  1.
         11   -1    0    0    0    0 -0.00000000000E+00 -0.00000000000E+00 -0.45593999997E+02  0.45594000000E+02  0.51100000000E-03 0. -1.
    9900012    2    1    2    0    0 -0.37910574360E+02 -0.20984067142E+02  0.24658662467E+01  0.47787271682E+02  0.20000002909E+02 0.  0.
        -12    1    1    2    0    0  0.37910574360E+02  0.20984067142E+02 -0.24658662467E+01  0.43400728318E+02  0.00000000000E+00 0.  1.
         11    1    3    3    0    0 -0.11022758179E+02 -0.50857422021E+01  0.23798433552E+01  0.12370514390E+02  0.51100000000E-03 0. -1.
        -11    1    3    3    0    0 -0.56556301418E+01 -0.12522809901E+02 -0.16921937052E+01  0.13844509378E+02  0.51100000000E-03 0.  1.
        -12    1    3    3    0    0 -0.21232186040E+02 -0.33755150384E+01  0.17782165967E+01  0.21572247914E+02  0.00000000000E+00 0.  1.
</event>
<event>
 7    1  0.1899036E-009  0.4778726E+02  0.7816164E-02  0.1312668E+00
        -11   -1    0    0    0    0  0.00000000000E+00  0.00000000000E+00  0.45593999997E+02  0.45594000000E+02  0.51100000000E-03 0.  1.
         11   -1    0    0    0    0 -0.00000000000E+00 -0.00000000000E+00 -0.45593999997E+02  0.45594000000E+02  0.51100000000E-03 0. -1.
    9900012    2    1    2    0    0 -0.65163396262E+01 -0.32520348208E+02 -0.27992653319E+02  0.47787258422E+02  0.19999942448E+02 0.  0.
        -12    1    1    2    0    0  0.65163396262E+01  0.32520348208E+02  0.27992653319E+02  0.43400741578E+02  0.00000000000E+00 0.  1.
         11    1    3    3    0    0 -0.90271786106E+01 -0.10334320307E+02 -0.11270034267E+02  0.17756739636E+02  0.51100000000E-03 0. -1.
        -11    1    3    3    0    0  0.42771666628E+01 -0.20758891344E+02 -0.11011919626E+02  0.23884892686E+02  0.51100000000E-03 0.  1.
         12    1    3    3    0    0 -0.17663276784E+01 -0.14271365570E+01 -0.57106994265E+01  0.61456260998E+01  0.00000000000E+00 0. -1.
</event>
<event>
 7    1  0.1899036E-009  0.4778727E+02  0.7816164E-02  0.1312668E+00
        -11   -1    0    0    0    0  0.00000000000E+00  0.00000000000E+00  0.45593999997E+02  0.45594000000E+02  0.51100000000E-03 0.  1.
         11   -1    0    0    0    0 -0.00000000000E+00 -0.00000000000E+00 -0.45593999997E+02  0.45594000000E+02  0.51100000000E-03 0. -1.
    9900012    2    1    2    0    0 -0.19991519619E+02  0.37382748220E+02  0.93001415461E+01  0.47787270122E+02  0.19999995796E+02 0.  0.
        -12    1    1    2    0    0  0.19991519619E+02 -0.37382748220E+02 -0.93001415461E+01  0.43400729878E+02  0.00000000000E+00 0.  1.
         11    1    3    3    0    0  0.16983591981E+01  0.61212379607E+01  0.11063573784E+01  0.64481008868E+01  0.51100000000E-03 0.  1.
        -11    1    3    3    0    0 -0.15410282968E+02  0.29897530157E+02  0.45217037575E+01  0.33937957154E+02  0.51100000000E-03 0. -1.
         12    1    3    3    0    0 -0.62795958485E+01  0.13639801027E+01  0.36720804103E+01  0.74012120819E+01  0.00000000000E+00 0. -1.
</event>
<event>
 7    1  0.1899036E-009  0.4778729E+02  0.7816164E-02  0.1312668E+00
        -11   -1    0    0    0    0  0.00000000000E+00  0.00000000000E+00  0.45593999997E+02  0.45594000000E+02  0.51100000000E-03 0.  1.
         11   -1    0    0    0    0 -0.00000000000E+00 -0.00000000000E+00 -0.45593999997E+02  0.45594000000E+02  0.51100000000E-03 0. -1.
    9900012    2    1    2    0    0  0.19910861074E+02 -0.48390755082E+01 -0.38259153118E+02  0.47787287589E+02  0.20000075433E+02 0.  0.
        -12    1    1    2    0    0 -0.19910861074E+02  0.48390755082E+01  0.38259153118E+02  0.43400712411E+02  0.00000000000E+00 0.  1.
         11    1    3    3    0    0  0.47437476844E+01  0.22749309710E+01 -0.14048530736E+02  0.15001322245E+02  0.51100000000E-03 0. -1.
        -11    1    3    3    0    0 -0.36839035878E+00 -0.36850848047E+01  0.13166740608E+00  0.37057924984E+01  0.51100000000E-03 0.  1.
         12    1    3    3    0    0  0.15535503748E+02 -0.34289216745E+01 -0.24342289788E+02  0.29080172845E+02  0.00000000000E+00 0. -1.
</event>
<event>
 7    1  0.1899036E-009  0.4778727E+02  0.7816164E-02  0.1312668E+00
        -11   -1    0    0    0    0  0.00000000000E+00  0.00000000000E+00  0.45593999997E+02  0.45594000000E+02  0.51100000000E-03 0.  1.
         11   -1    0    0    0    0 -0.00000000000E+00 -0.00000000000E+00 -0.45593999997E+02  0.45594000000E+02  0.51100000000E-03 0. -1.
    9900012    2    1    2    0    0  0.31771413109E+02 -0.25416875342E+02 -0.15105745359E+02  0.47787265145E+02  0.19999973104E+02 0.  0.
        -12    1    1    2    0    0 -0.31771413109E+02  0.25416875342E+02  0.15105745359E+02  0.43400734855E+02  0.00000000000E+00 0.  1.
         11    1    3    3    0    0  0.22691214830E+02 -0.17264799309E+02 -0.10463468232E+02  0.30371840466E+02  0.51100000000E-03 0. -1.
        -11    1    3    3    0    0  0.48908873291E+01 -0.59312424609E+01  0.31385678139E+01  0.83036753417E+01  0.51100000000E-03 0.  1.
         12    1    3    3    0    0  0.41893109505E+01 -0.22208335717E+01 -0.77808449406E+01  0.91117493372E+01  0.00000000000E+00 0. -1.
</event>
<event>
 7    1  0.1899036E-009  0.4778727E+02  0.7816164E-02  0.1312668E+00
        -11   -1    0    0    0    0  0.00000000000E+00  0.00000000000E+00  0.45593999997E+02  0.45594000000E+02  0.51100000000E-03 0.  1.
         11   -1    0    0    0    0 -0.00000000000E+00 -0.00000000000E+00 -0.45593999997E+02  0.45594000000E+02  0.51100000000E-03 0. -1.
    9900012    2    1    2    0    0 -0.30516379786E+01  0.39155833476E+02 -0.18469751189E+02  0.47787268456E+02  0.19999988198E+02 0.  0.
        -12    1    1    2    0    0  0.30516379786E+01 -0.39155833476E+02  0.18469751189E+02  0.43400731544E+02  0.00000000000E+00 0.  1.
         11    1    3    3    0    0 -0.83887532405E+00  0.39608752693E+02 -0.18374153187E+02  0.43671117542E+02  0.51100000000E-03 0. -1.
        -11    1    3    3    0    0 -0.21389044446E+01  0.11820763442E+01  0.20392721594E+00  0.24523057063E+01  0.51100000000E-03 0.  1.
         12    1    3    3    0    0 -0.73858209995E-01 -0.16349955611E+01 -0.29952521791E+00  0.16638452080E+01  0.00000000000E+00 0. -1.
</event>
<event>
 7    1  0.1899036E-009  0.4778724E+02  0.7816164E-02  0.1312668E+00
        -11   -1    0    0    0    0  0.00000000000E+00  0.00000000000E+00  0.45593999997E+02  0.45594000000E+02  0.51100000000E-03 0. -1.
         11   -1    0    0    0    0 -0.00000000000E+00 -0.00000000000E+00 -0.45593999997E+02  0.45594000000E+02  0.51100000000E-03 0.  1.
    9900012    2    1    2    0    0  0.34932891212E+02 -0.96002537198E+01  0.23898838745E+02  0.47787236720E+02  0.19999843500E+02 0.  0.
        -12    1    1    2    0    0 -0.34932891212E+02  0.96002537198E+01 -0.23898838745E+02  0.43400763280E+02  0.00000000000E+00 0.  1.
         11    1    3    3    0    0  0.78600968551E+01 -0.61566352784E+00  0.12568447078E+01  0.79837223794E+01  0.51100000000E-03 0. -1.
        -11    1    3    3    0    0  0.12419224763E+02 -0.10236007806E+01  0.19019388671E+02  0.22738118831E+02  0.51100000000E-03 0.  1.
        -12    1    3    3    0    0  0.14653569594E+02 -0.79609894113E+01  0.36226053656E+01  0.17065395509E+02  0.00000000000E+00 0.  1.
</event>
<event>
 7    1  0.1899036E-009  0.4778727E+02  0.7816164E-02  0.1312668E+00
        -11   -1    0    0    0    0  0.00000000000E+00  0.00000000000E+00  0.45593999997E+02  0.45594000000E+02  0.51100000000E-03 0.  1.
         11   -1    0    0    0    0 -0.00000000000E+00 -0.00000000000E+00 -0.45593999997E+02  0.45594000000E+02  0.51100000000E-03 0. -1.
    9900012    2    1    2    0    0  0.12521522104E+01  0.45671451839E+01 -0.43141589806E+02  0.47787268770E+02  0.19999989629E+02 0.  0.
        -12    1    1    2    0    0 -0.12521522104E+01 -0.45671451839E+01  0.43141589806E+02  0.43400731230E+02  0.00000000000E+00 0.  1.
         11    1    3    3    0    0 -0.28353329522E+01  0.34038446527E+01 -0.13325305166E+02  0.14042401127E+02  0.51100000000E-03 0. -1.
        -11    1    3    3    0    0  0.62282624670E+01 -0.53023736046E+01 -0.21450733953E+02  0.22957360619E+02  0.51100000000E-03 0.  1.
        -12    1    3    3    0    0 -0.21407773044E+01  0.64656741358E+01 -0.83655506869E+01  0.10787507024E+02  0.00000000000E+00 0.  1.
</event>
<event>
 7    1  0.1899036E-009  0.4778726E+02  0.7816164E-02  0.1312668E+00
        -11   -1    0    0    0    0  0.00000000000E+00  0.00000000000E+00  0.45593999997E+02  0.45594000000E+02  0.51100000000E-03 0.  1.
         11   -1    0    0    0    0 -0.00000000000E+00 -0.00000000000E+00 -0.45593999997E+02  0.45594000000E+02  0.51100000000E-03 0. -1.
    9900012    2    1    2    0    0  0.22407366446E+02 -0.14775983113E+02 -0.34105779058E+02  0.47787263679E+02  0.19999966419E+02 0.  0.
        -12    1    1    2    0    0 -0.22407366446E+02  0.14775983113E+02  0.34105779058E+02  0.43400736321E+02  0.00000000000E+00 0.  1.
         11    1    3    3    0    0  0.13549223719E+00 -0.61973323080E+01 -0.35119943664E+01  0.71245624829E+01  0.51100000000E-03 0. -1.
        -11    1    3    3    0    0  0.53295966715E+01 -0.47313312954E+01 -0.23518467275E+01  0.75047504821E+01  0.51100000000E-03 0.  1.
        -12    1    3    3    0    0  0.16942277538E+02 -0.38473195096E+01 -0.28241937964E+02  0.33157950714E+02  0.00000000000E+00 0.  1.
</event>
<event>
 7    1  0.1899036E-009  0.4778727E+02  0.7816164E-02  0.1312668E+00
        -11   -1    0    0    0    0  0.00000000000E+00  0.00000000000E+00  0.45593999997E+02  0.45594000000E+02  0.51100000000E-03 0. -1.
         11   -1    0    0    0    0 -0.00000000000E+00 -0.00000000000E+00 -0.45593999997E+02  0.45594000000E+02  0.51100000000E-03 0.  1.
    9900012    2    1    2    0    0  0.29343632349E+02  0.26713425080E+00  0.31976604221E+02  0.47787270310E+02  0.19999996652E+02 0.  0.
        -12    1    1    2    0    0 -0.29343632349E+02 -0.26713425080E+00 -0.31976604221E+02  0.43400729690E+02  0.00000000000E+00 0.  1.
         11    1    3    3    0    0  0.40513026226E+01 -0.53207328073E+01  0.22971367071E+01  0.70710740244E+01  0.51100000000E-03 0.  1.
        -11    1    3    3    0    0  0.91773185183E+01  0.55118435703E+01  0.66306939891E+01  0.12592446060E+02  0.51100000000E-03 0. -1.
         12    1    3    3    0    0  0.16115011208E+02  0.76023487749E-01  0.23048773524E+02  0.28123750226E+02  0.00000000000E+00 0. -1.
</event>
<event>
 7    1  0.1899036E-009  0.4778729E+02  0.7816164E-02  0.1312668E+00
        -11   -1    0    0    0    0  0.00000000000E+00  0.00000000000E+00  0.45593999997E+02  0.45594000000E+02  0.51100000000E-03 0. -1.
         11   -1    0    0    0    0 -0.00000000000E+00 -0.00000000000E+00 -0.45593999997E+02  0.45594000000E+02  0.51100000000E-03 0.  1.
    9900012    2    1    2    0    0 -0.30233368105E+02  0.14533678723E+02  0.27537930094E+02  0.47787286203E+02  0.20000069116E+02 0.  0.
        -12    1    1    2    0    0  0.30233368105E+02 -0.14533678723E+02 -0.27537930094E+02  0.43400713797E+02  0.00000000000E+00 0.  1.
         11    1    3    3    0    0 -0.81068976982E+01  0.35910607274E+01  0.30369063914E+01  0.93723160493E+01  0.51100000000E-03 0. -1.
        -11    1    3    3    0    0 -0.16043175685E+01  0.67910077106E+01  0.12408549328E+02  0.14236000747E+02  0.51100000000E-03 0.  1.
        -12    1    3    3    0    0 -0.20522152838E+02  0.41516102846E+01  0.12092474375E+02  0.24178969407E+02  0.00000000000E+00 0.  1.
</event>
<event>
 7    1  0.1899036E-009  0.4778728E+02  0.7816164E-02  0.1312668E+00
        -11   -1    0    0    0    0  0.00000000000E+00  0.00000000000E+00  0.45593999997E+02  0.45594000000E+02  0.51100000000E-03 0. -1.
         11   -1    0    0    0    0 -0.00000000000E+00 -0.00000000000E+00 -0.45593999997E+02  0.45594000000E+02  0.51100000000E-03 0.  1.
    9900012    2    1    2    0    0  0.28742463001E+02  0.17744685541E+02  0.27251050879E+02  0.47787276293E+02  0.20000023930E+02 0.  0.
        -12    1    1    2    0    0 -0.28742463001E+02 -0.17744685541E+02 -0.27251050879E+02  0.43400723707E+02  0.00000000000E+00 0.  1.
         11    1    3    3    0    0  0.19772363063E+01  0.27981837912E+01  0.48205589092E+01  0.59141427442E+01  0.51100000000E-03 0. -1.
        -11    1    3    3    0    0  0.66232622014E+01  0.42228445437E+01 -0.23381320081E+01  0.81955402371E+01  0.51100000000E-03 0.  1.
         12    1    3    3    0    0  0.20141964493E+02  0.10723657206E+02  0.24768623978E+02  0.33677593312E+02  0.00000000000E+00 0. -1.
</event>
<event>
 7    1  0.1899036E-009  0.4778727E+02  0.7816164E-02  0.1312668E+00
        -11   -1    0    0    0    0  0.00000000000E+00  0.00000000000E+00  0.45593999997E+02  0.45594000000E+02  0.51100000000E-03 0.  1.
         11   -1    0    0    0    0 -0.00000000000E+00 -0.00000000000E+00 -0.45593999997E+02  0.45594000000E+02  0.51100000000E-03 0. -1.
    9900012    2    1    2    0    0  0.12788679610E+02  0.14287773757E+02 -0.38934979969E+02  0.47787268782E+02  0.19999989683E+02 0.  0.
        -12    1    1    2    0    0 -0.12788679610E+02 -0.14287773757E+02  0.38934979969E+02  0.43400731218E+02  0.00000000000E+00 0.  1.
         11    1    3    3    0    0 -0.12253099587E+01  0.30023493981E+01 -0.16207983138E+02  0.16529192481E+02  0.51100000000E-03 0. -1.
        -11    1    3    3    0    0  0.28538790518E+01  0.45345565595E+00  0.85127987952E+00  0.30124616792E+01  0.51100000000E-03 0.  1.
         12    1    3    3    0    0  0.11160110517E+02  0.10831968703E+02 -0.23578276711E+02  0.28245614622E+02  0.00000000000E+00 0. -1.
</event>
<event>
 7    1  0.1899036E-009  0.4778727E+02  0.7816164E-02  0.1312668E+00
        -11   -1    0    0    0    0  0.00000000000E+00  0.00000000000E+00  0.45593999997E+02  0.45594000000E+02  0.51100000000E-03 0.  1.
         11   -1    0    0    0    0 -0.00000000000E+00 -0.00000000000E+00 -0.45593999997E+02  0.45594000000E+02  0.51100000000E-03 0. -1.
    9900012    2    1    2    0    0 -0.97726454202E+01  0.87944385452E+01 -0.41361530609E+02  0.47787274636E+02  0.20000016373E+02 0.  0.
        -12    1    1    2    0    0  0.97726454202E+01 -0.87944385452E+01  0.41361530609E+02  0.43400725364E+02  0.00000000000E+00 0.  1.
         11    1    3    3    0    0 -0.30746557070E+01  0.44341140884E+01 -0.20113446531E+02  0.20824639422E+02  0.51100000000E-03 0. -1.
        -11    1    3    3    0    0 -0.56741398236E+01 -0.47618022970E+01 -0.99872942033E+01  0.12434495149E+02  0.51100000000E-03 0.  1.
        -12    1    3    3    0    0 -0.10238498895E+01  0.91221267537E+01 -0.11260789875E+02  0.14528140064E+02  0.00000000000E+00 0.  1.
</event>
<event>
 7    1  0.3099604E-009  0.4778727E+02  0.7816164E-02  0.1312668E+00
        -11   -1    0    0    0    0  0.00000000000E+00  0.00000000000E+00  0.45593999997E+02  0.45594000000E+02  0.51100000000E-03 0. -1.
         11   -1    0    0    0    0 -0.00000000000E+00 -0.00000000000E+00 -0.45593999997E+02  0.45594000000E+02  0.51100000000E-03 0.  1.
    9900012    2    1    2    0    0 -0.42934893556E+01 -0.31891477548E+02  0.29122553093E+02  0.47787268558E+02  0.19999988664E+02 0.  0.
        -12    1    1    2    0    0  0.42934893556E+01  0.31891477548E+02 -0.29122553093E+02  0.43400731442E+02  0.00000000000E+00 0.  1.
         11    1    3    3    0    0 -0.14562464581E+01 -0.94696946113E+01  0.11227455827E+02  0.14759794524E+02  0.51100000000E-03 0. -1.
        -11    1    3    3    0    0 -0.20220206970E+01 -0.11188857012E+02 -0.58585750673E+00  0.11385179762E+02  0.51100000000E-03 0.  1.
        -12    1    3    3    0    0 -0.81522220041E+00 -0.11232925925E+02  0.18480954772E+02  0.21642294272E+02  0.00000000000E+00 0.  1.
</event>
<event>
 7    1  0.1899036E-009  0.4778727E+02  0.7816164E-02  0.1312668E+00
        -11   -1    0    0    0    0  0.00000000000E+00  0.00000000000E+00  0.45593999997E+02  0.45594000000E+02  0.51100000000E-03 0.  1.
         11   -1    0    0    0    0 -0.00000000000E+00 -0.00000000000E+00 -0.45593999997E+02  0.45594000000E+02  0.51100000000E-03 0. -1.
    9900012    2    1    2    0    0 -0.25409883851E+01  0.71981558311E+00 -0.43320300401E+02  0.47787272088E+02  0.20000004760E+02 0.  0.
        -12    1    1    2    0    0  0.25409883851E+01 -0.71981558311E+00  0.43320300401E+02  0.43400727912E+02  0.00000000000E+00 0.  1.
         11    1    3    3    0    0 -0.26920250238E+01 -0.48015294896E+01 -0.14540107454E+02  0.15547231561E+02  0.51100000000E-03 0. -1.
        -11    1    3    3    0    0  0.50285007451E+01 -0.18240167493E+01 -0.14521546062E+02  0.15475404911E+02  0.51100000000E-03 0.  1.
         12    1    3    3    0    0 -0.48774641064E+01  0.73453618220E+01 -0.14258646885E+02  0.16764635617E+02  0.00000000000E+00 0. -1.
</event>
<event>
 7    1  0.1899036E-009  0.4778727E+02  0.7816164E-02  0.1312668E+00
        -11   -1    0    0    0    0  0.00000000000E+00  0.00000000000E+00  0.45593999997E+02  0.45594000000E+02  0.51100000000E-03 0.  1.
         11   -1    0    0    0    0 -0.00000000000E+00 -0.00000000000E+00 -0.45593999997E+02  0.45594000000E+02  0.51100000000E-03 0. -1.
    9900012    2    1    2    0    0  0.33057248484E+01  0.20102669989E+02 -0.38322035224E+02  0.47787267965E+02  0.19999985961E+02 0.  0.
        -12    1    1    2    0    0 -0.33057248484E+01 -0.20102669989E+02  0.38322035224E+02  0.43400732035E+02  0.00000000000E+00 0.  1.
         11    1    3    3    0    0 -0.11881855689E+01  0.12956928119E+02 -0.15314189332E+02  0.20095227453E+02  0.51100000000E-03 0. -1.
        -11    1    3    3    0    0  0.35920064513E+01  0.23434744754E+00  0.53883990139E-01  0.36000462244E+01  0.51100000000E-03 0.  1.
         12    1    3    3    0    0  0.90190396603E+00  0.69113944225E+01 -0.23061729882E+02  0.24091994288E+02  0.00000000000E+00 0. -1.
</event>
<event>
 7    1  0.1899036E-009  0.4778727E+02  0.7816164E-02  0.1312668E+00
        -11   -1    0    0    0    0  0.00000000000E+00  0.00000000000E+00  0.45593999997E+02  0.45594000000E+02  0.51100000000E-03 0.  1.
         11   -1    0    0    0    0 -0.00000000000E+00 -0.00000000000E+00 -0.45593999997E+02  0.45594000000E+02  0.51100000000E-03 0. -1.
    9900012    2    1    2    0    0  0.40562998475E+01 -0.19828562900E+02 -0.38392681373E+02  0.47787268921E+02  0.19999990318E+02 0.  0.
        -12    1    1    2    0    0 -0.40562998475E+01  0.19828562900E+02  0.38392681373E+02  0.43400731079E+02  0.00000000000E+00 0.  1.
         11    1    3    3    0    0 -0.59901706113E-01 -0.50845275003E+00 -0.12068674391E+02  0.12079528726E+02  0.51100000000E-03 0. -1.
        -11    1    3    3    0    0  0.73387057392E+01 -0.16437130954E+02 -0.25643083641E+02  0.31330554013E+02  0.51100000000E-03 0.  1.
        -12    1    3    3    0    0 -0.32225041856E+01 -0.28829791965E+01 -0.68092334168E+00  0.43771861819E+01  0.00000000000E+00 0.  1.
</event>
<event>
 7    1  0.1899036E-009  0.4778727E+02  0.7816164E-02  0.1312668E+00
        -11   -1    0    0    0    0  0.00000000000E+00  0.00000000000E+00  0.45593999997E+02  0.45594000000E+02  0.51100000000E-03 0. -1.
         11   -1    0    0    0    0 -0.00000000000E+00 -0.00000000000E+00 -0.45593999997E+02  0.45594000000E+02  0.51100000000E-03 0.  1.
    9900012    2    1    2    0    0  0.40328041329E+02  0.13673471633E+02  0.83850235155E+01  0.47787270014E+02  0.19999995303E+02 0.  0.
        -12    1    1    2    0    0 -0.40328041329E+02 -0.13673471633E+02 -0.83850235155E+01  0.43400729986E+02  0.00000000000E+00 0.  1.
         11    1    3    3    0    0  0.18603473199E+02  0.64699547431E+01  0.65587128611E+01  0.20759726494E+02  0.51100000000E-03 0. -1.
        -11    1    3    3    0    0 -0.12341784010E+00  0.41619589574E+01  0.26810784638E+01  0.49523041422E+01  0.51100000000E-03 0.  1.
         12    1    3    3    0    0  0.21847985970E+02  0.30415579327E+01 -0.85476780949E+00  0.22075239378E+02  0.00000000000E+00 0. -1.
</event>
<event>
 7    1  0.1899036E-009  0.4778727E+02  0.7816164E-02  0.1312668E+00
        -11   -1    0    0    0    0  0.00000000000E+00  0.00000000000E+00  0.45593999997E+02  0.45594000000E+02  0.51100000000E-03 0.  1.
         11   -1    0    0    0    0 -0.00000000000E+00 -0.00000000000E+00 -0.45593999997E+02  0.45594000000E+02  0.51100000000E-03 0. -1.
    9900012    2    1    2    0    0 -0.31437164811E+02  0.29888241588E+02  0.14217705428E+01  0.47787265581E+02  0.19999975092E+02 0.  0.
        -12    1    1    2    0    0  0.31437164811E+02 -0.29888241588E+02 -0.14217705428E+01  0.43400734419E+02  0.00000000000E+00 0.  1.
         11    1    3    3    0    0 -0.32068092447E+02  0.22682212242E+02 -0.16250768266E+01  0.39312672007E+02  0.51100000000E-03 0. -1.
        -11    1    3    3    0    0  0.88588802715E+00  0.22042541896E+01 -0.38046279044E+00  0.24058857673E+01  0.51100000000E-03 0.  1.
         12    1    3    3    0    0 -0.25496039140E+00  0.50017751565E+01  0.34273101598E+01  0.60687078072E+01  0.00000000000E+00 0. -1.
</event>
<event>
 7    1  0.1899036E-009  0.4778727E+02  0.7816164E-02  0.1312668E+00
        -11   -1    0    0    0    0  0.00000000000E+00  0.00000000000E+00  0.45593999997E+02  0.45594000000E+02  0.51100000000E-03 0. -1.
         11   -1    0    0    0    0 -0.00000000000E+00 -0.00000000000E+00 -0.45593999997E+02  0.45594000000E+02  0.51100000000E-03 0.  1.
    9900012    2    1    2    0    0 -0.22890392466E+02 -0.34983945598E+02 -0.11652323198E+02  0.47787272439E+02  0.20000006360E+02 0.  0.
        -12    1    1    2    0    0  0.22890392466E+02  0.34983945598E+02  0.11652323198E+02  0.43400727561E+02  0.00000000000E+00 0.  1.
         11    1    3    3    0    0 -0.10652450251E+02 -0.13261112037E+02 -0.64543745156E+01  0.18193150894E+02  0.51100000000E-03 0. -1.
        -11    1    3    3    0    0 -0.80590767925E+01 -0.54173240608E+01 -0.79352647865E+01  0.12540516186E+02  0.51100000000E-03 0.  1.
         12    1    3    3    0    0 -0.41788654228E+01 -0.16305509500E+02  0.27373161040E+01  0.17053605359E+02  0.00000000000E+00 0. -1.
</event>
<event>
 7    1  0.1899036E-009  0.4778727E+02  0.7816164E-02  0.1312668E+00
        -11   -1    0    0    0    0  0.00000000000E+00  0.00000000000E+00  0.45593999997E+02  0.45594000000E+02  0.51100000000E-03 0.  1.
         11   -1    0    0    0    0 -0.00000000000E+00 -0.00000000000E+00 -0.45593999997E+02  0.45594000000E+02  0.51100000000E-03 0. -1.
    9900012    2    1    2    0    0 -0.23285902608E+02  0.36098556266E+02  0.61874314958E+01  0.47787270360E+02  0.19999996879E+02 0.  0.
        -12    1    1    2    0    0  0.23285902608E+02 -0.36098556266E+02 -0.61874314958E+01  0.43400729640E+02  0.00000000000E+00 0.  1.
         11    1    3    3    0    0  0.80179675363E+00  0.91015805684E-01 -0.14486156670E+01  0.16582067189E+01  0.51100000000E-03 0.  1.
        -11    1    3    3    0    0 -0.19891988777E+02  0.33009052056E+02  0.21495383785E+01  0.38599342619E+02  0.51100000000E-03 0. -1.
        -12    1    3    3    0    0 -0.41957105853E+01  0.29984884044E+01  0.54865087843E+01  0.75297210218E+01  0.00000000000E+00 0.  1.
</event>
<event>
 7    1  0.1899036E-009  0.4778727E+02  0.7816164E-02  0.1312668E+00
        -11   -1    0    0    0    0  0.00000000000E+00  0.00000000000E+00  0.45593999997E+02  0.45594000000E+02  0.51100000000E-03 0.  1.
         11   -1    0    0    0    0 -0.00000000000E+00 -0.00000000000E+00 -0.45593999997E+02  0.45594000000E+02  0.51100000000E-03 0. -1.
    9900012    2    1    2    0    0  0.22293560674E+02  0.33694831133E+02  0.15851770770E+02  0.47787272711E+02  0.20000007599E+02 0.  0.
        -12    1    1    2    0    0 -0.22293560674E+02 -0.33694831133E+02 -0.15851770770E+02  0.43400727289E+02  0.00000000000E+00 0.  1.
         11    1    3    3    0    0  0.10205636670E+02  0.28893008424E+02  0.13341936702E+02  0.33421074652E+02  0.51100000000E-03 0.  1.
        -11    1    3    3    0    0  0.67666755265E+01  0.54866410429E+01  0.86397195568E+00  0.87542889726E+01  0.51100000000E-03 0. -1.
        -12    1    3    3    0    0  0.53212484772E+01 -0.68481833361E+00  0.16458621127E+01  0.56119090869E+01  0.00000000000E+00 0.  1.
</event>
<event>
 7    1  0.1899036E-009  0.4778728E+02  0.7816164E-02  0.1312668E+00
        -11   -1    0    0    0    0  0.00000000000E+00  0.00000000000E+00  0.45593999997E+02  0.45594000000E+02  0.51100000000E-03 0. -1.
         11   -1    0    0    0    0 -0.00000000000E+00 -0.00000000000E+00 -0.45593999997E+02  0.45594000000E+02  0.51100000000E-03 0.  1.
    9900012    2    1    2    0    0 -0.25512130937E+01  0.16172857697E+02  0.40193936479E+02  0.47787279453E+02  0.20000038337E+02 0.  0.
        -12    1    1    2    0    0  0.25512130937E+01 -0.16172857697E+02 -0.40193936479E+02  0.43400720547E+02  0.00000000000E+00 0.  1.
         11    1    3    3    0    0  0.12776315667E+00  0.50066314225E+01  0.31596533120E+02  0.31990992281E+02  0.51100000000E-03 0. -1.
        -11    1    3    3    0    0  0.18162043319E+01  0.22101081349E+01  0.48105484654E+00  0.29007913006E+01  0.51100000000E-03 0.  1.
         12    1    3    3    0    0 -0.44951805823E+01  0.89561181393E+01  0.81163485122E+01  0.12895495871E+02  0.00000000000E+00 0. -1.
</event>
<event>
 7    1  0.1899036E-009  0.4778727E+02  0.7816164E-02  0.1312668E+00
        -11   -1    0    0    0    0  0.00000000000E+00  0.00000000000E+00  0.45593999997E+02  0.45594000000E+02  0.51100000000E-03 0.  1.
         11   -1    0    0    0    0 -0.00000000000E+00 -0.00000000000E+00 -0.45593999997E+02  0.45594000000E+02  0.51100000000E-03 0. -1.
    9900012    2    1    2    0    0  0.58895882987E+01 -0.14086372617E+01 -0.42976181386E+02  0.47787266414E+02  0.19999978890E+02 0.  0.
        -12    1    1    2    0    0 -0.58895882987E+01  0.14086372617E+01  0.42976181386E+02  0.43400733586E+02  0.00000000000E+00 0.  1.
         11    1    3    3    0    0 -0.17567856716E+01 -0.30869531541E+01 -0.82828903316E+01  0.90123164712E+01  0.51100000000E-03 0. -1.
        -11    1    3    3    0    0 -0.15774029988E+01 -0.49758348780E+01 -0.16623412999E+02  0.17423690566E+02  0.51100000000E-03 0.  1.
        -12    1    3    3    0    0  0.92237769691E+01  0.66541507704E+01 -0.18069878055E+02  0.21351259377E+02  0.00000000000E+00 0.  1.
</event>
<event>
 7    1  0.1899036E-009  0.4778726E+02  0.7816164E-02  0.1312668E+00
        -11   -1    0    0    0    0  0.00000000000E+00  0.00000000000E+00  0.45593999997E+02  0.45594000000E+02  0.51100000000E-03 0.  1.
         11   -1    0    0    0    0 -0.00000000000E+00 -0.00000000000E+00 -0.45593999997E+02  0.45594000000E+02  0.51100000000E-03 0. -1.
    9900012    2    1    2    0    0  0.39608748276E+02  0.16589466731E+02  0.62897406938E+01  0.47787260554E+02  0.19999952172E+02 0.  0.
        -12    1    1    2    0    0 -0.39608748276E+02 -0.16589466731E+02 -0.62897406938E+01  0.43400739446E+02  0.00000000000E+00 0.  1.
         11    1    3    3    0    0  0.38430551650E+01  0.67019306916E+01  0.22736016147E+01  0.80532113197E+01  0.51100000000E-03 0. -1.
        -11    1    3    3    0    0  0.31629291133E+01  0.28109248759E+01 -0.35517523081E+01  0.55245238667E+01  0.51100000000E-03 0.  1.
         12    1    3    3    0    0  0.32602763998E+02  0.70766111639E+01  0.75678913872E+01  0.34209525368E+02  0.00000000000E+00 0. -1.
</event>
<event>
 7    1  0.1899036E-009  0.4778727E+02  0.7816164E-02  0.1312668E+00
        -11   -1    0    0    0    0  0.00000000000E+00  0.00000000000E+00  0.45593999997E+02  0.45594000000E+02  0.51100000000E-03 0.  1.
         11   -1    0    0    0    0 -0.00000000000E+00 -0.00000000000E+00 -0.45593999997E+02  0.45594000000E+02  0.51100000000E-03 0. -1.
    9900012    2    1    2    0    0  0.79785436584E+01  0.81988283575E+01 -0.41865800483E+02  0.47787271948E+02  0.20000004120E+02 0.  0.
        -12    1    1    2    0    0 -0.79785436584E+01 -0.81988283575E+01  0.41865800483E+02  0.43400728052E+02  0.00000000000E+00 0.  1.
         11    1    3    3    0    0  0.56769192028E+01  0.85525282816E+01 -0.78577174254E+01  0.12927369224E+02  0.51100000000E-03 0. -1.
        -11    1    3    3    0    0 -0.15433753458E+01 -0.24750363638E+01 -0.87619629034E+01  0.92347066354E+01  0.51100000000E-03 0.  1.
         12    1    3    3    0    0  0.38449998014E+01  0.21213364396E+01 -0.25246120154E+02  0.25625196089E+02  0.00000000000E+00 0. -1.
</event>
<event>
 7    1  0.1899036E-009  0.4778726E+02  0.7816164E-02  0.1312668E+00
        -11   -1    0    0    0    0  0.00000000000E+00  0.00000000000E+00  0.45593999997E+02  0.45594000000E+02  0.51100000000E-03 0. -1.
         11   -1    0    0    0    0 -0.00000000000E+00 -0.00000000000E+00 -0.45593999997E+02  0.45594000000E+02  0.51100000000E-03 0.  1.
    9900012    2    1    2    0    0 -0.36739840644E+02 -0.22991332617E+02  0.22817852476E+01  0.47787264868E+02  0.19999971840E+02 0.  0.
        -12    1    1    2    0    0  0.36739840644E+02  0.22991332617E+02 -0.22817852476E+01  0.43400735132E+02  0.00000000000E+00 0.  1.
         11    1    3    3    0    0  0.59124181393E+00  0.83062302059E+00 -0.96289525614E-02  0.10196050523E+01  0.51100000000E-03 0. -1.
        -11    1    3    3    0    0 -0.23460657826E+02 -0.62203637189E+01  0.20324893382E+01  0.24356239521E+02  0.51100000000E-03 0.  1.
        -12    1    3    3    0    0 -0.13870424632E+02 -0.17601591919E+02  0.25892486198E+00  0.22411420295E+02  0.00000000000E+00 0.  1.
</event>
<event>
 7    1  0.1899036E-009  0.4778729E+02  0.7816164E-02  0.1312668E+00
        -11   -1    0    0    0    0  0.00000000000E+00  0.00000000000E+00  0.45593999997E+02  0.45594000000E+02  0.51100000000E-03 0. -1.
         11   -1    0    0    0    0 -0.00000000000E+00 -0.00000000000E+00 -0.45593999997E+02  0.45594000000E+02  0.51100000000E-03 0.  1.
    9900012    2    1    2    0    0 -0.29131719861E+02 -0.19483289112E+02  0.25600112136E+02  0.47787292655E+02  0.20000098532E+02 0.  0.
        -12    1    1    2    0    0  0.29131719861E+02  0.19483289112E+02 -0.25600112136E+02  0.43400707345E+02  0.00000000000E+00 0.  1.
         11    1    3    3    0    0  0.54210217810E+00 -0.28647798910E+00 -0.20058217398E+00  0.64511850026E+00  0.51100000000E-03 0. -1.
        -11    1    3    3    0    0 -0.11660579799E+01 -0.90980987168E+01  0.51317517156E+01  0.10510469419E+02  0.51100000000E-03 0.  1.
         12    1    3    3    0    0 -0.28507764059E+02 -0.10098712406E+02  0.20668942595E+02  0.36631704736E+02  0.00000000000E+00 0. -1.
</event>
<event>
 7    1  0.1899036E-009  0.4778727E+02  0.7816164E-02  0.1312668E+00
        -11   -1    0    0    0    0  0.00000000000E+00  0.00000000000E+00  0.45593999997E+02  0.45594000000E+02  0.51100000000E-03 0.  1.
         11   -1    0    0    0    0 -0.00000000000E+00 -0.00000000000E+00 -0.45593999997E+02  0.45594000000E+02  0.51100000000E-03 0. -1.
    9900012    2    1    2    0    0  0.14956837546E+02 -0.15391010980E+02 -0.37723112010E+02  0.47787269729E+02  0.19999994002E+02 0.  0.
        -12    1    1    2    0    0 -0.14956837546E+02  0.15391010980E+02  0.37723112010E+02  0.43400730271E+02  0.00000000000E+00 0.  1.
         11    1    3    3    0    0  0.42184447503E+01 -0.10030258843E+02 -0.26590605728E+02  0.28730848957E+02  0.51100000000E-03 0. -1.
        -11    1    3    3    0    0  0.60706919979E+01 -0.66690543579E+01 -0.10976811142E+02  0.14206335575E+02  0.51100000000E-03 0.  1.
        -12    1    3    3    0    0  0.46677007975E+01  0.13083022209E+01 -0.15569514002E+00  0.48500851964E+01  0.00000000000E+00 0.  1.
</event>
<event>
 7    1  0.1899036E-009  0.4778727E+02  0.7816164E-02  0.1312668E+00
        -11   -1    0    0    0    0  0.00000000000E+00  0.00000000000E+00  0.45593999997E+02  0.45594000000E+02  0.51100000000E-03 0.  1.
         11   -1    0    0    0    0 -0.00000000000E+00 -0.00000000000E+00 -0.45593999997E+02  0.45594000000E+02  0.51100000000E-03 0. -1.
    9900012    2    1    2    0    0  0.26077251781E+02 -0.25788141531E+02 -0.23207154689E+02  0.47787270366E+02  0.19999996906E+02 0.  0.
        -12    1    1    2    0    0 -0.26077251781E+02  0.25788141531E+02  0.23207154689E+02  0.43400729634E+02  0.00000000000E+00 0.  1.
         11    1    3    3    0    0  0.57193296010E+01 -0.14543685924E+02 -0.84955608413E+01  0.17787751000E+02  0.51100000000E-03 0. -1.
        -11    1    3    3    0    0  0.60214726103E+01 -0.96138160046E+01 -0.39970089617E+01  0.12027454904E+02  0.51100000000E-03 0.  1.
        -12    1    3    3    0    0  0.14336449569E+02 -0.16306396019E+01 -0.10714584886E+02  0.17972064462E+02  0.00000000000E+00 0.  1.
</event>
<event>
 7    1  0.1899036E-009  0.4778727E+02  0.7816164E-02  0.1312668E+00
        -11   -1    0    0    0    0  0.00000000000E+00  0.00000000000E+00  0.45593999997E+02  0.45594000000E+02  0.51100000000E-03 0.  1.
         11   -1    0    0    0    0 -0.00000000000E+00 -0.00000000000E+00 -0.45593999997E+02  0.45594000000E+02  0.51100000000E-03 0. -1.
    9900012    2    1    2    0    0 -0.21510440467E+02  0.16363676348E+02 -0.33958128217E+02  0.47787269306E+02  0.19999992075E+02 0.  0.
        -12    1    1    2    0    0  0.21510440467E+02 -0.16363676348E+02  0.33958128217E+02  0.43400730694E+02  0.00000000000E+00 0.  1.
         11    1    3    3    0    0 -0.38180367894E+01  0.56060916591E+01 -0.58163691933E+01  0.89350892256E+01  0.51100000000E-03 0.  1.
        -11    1    3    3    0    0 -0.95871643390E+01 -0.32888283172E+01 -0.75360563755E+01  0.12630212101E+02  0.51100000000E-03 0. -1.
         12    1    3    3    0    0 -0.81052393389E+01  0.14046413007E+02 -0.20605702648E+02  0.26221967980E+02  0.00000000000E+00 0. -1.
</event>
<event>
 7    1  0.1899036E-009  0.4778726E+02  0.7816164E-02  0.1312668E+00
        -11   -1    0    0    0    0  0.00000000000E+00  0.00000000000E+00  0.45593999997E+02  0.45594000000E+02  0.51100000000E-03 0.  1.
         11   -1    0    0    0    0 -0.00000000000E+00 -0.00000000000E+00 -0.45593999997E+02  0.45594000000E+02  0.51100000000E-03 0. -1.
    9900012    2    1    2    0    0 -0.22567126392E+02  0.36992593717E+02 -0.24282980831E+01  0.47787264809E+02  0.19999971572E+02 0.  0.
        -12    1    1    2    0    0  0.22567126392E+02 -0.36992593717E+02  0.24282980831E+01  0.43400735191E+02  0.00000000000E+00 0.  1.
         11    1    3    3    0    0 -0.21242099528E+02  0.29322808261E+02 -0.40271964836E+01  0.36431746986E+02  0.51100000000E-03 0. -1.
        -11    1    3    3    0    0  0.13501687940E+01  0.24676835928E+01 -0.28514590746E+01  0.40054010039E+01  0.51100000000E-03 0.  1.
        -12    1    3    3    0    0 -0.26751956580E+01  0.52021018636E+01  0.44503574752E+01  0.73501168198E+01  0.00000000000E+00 0.  1.
</event>
<event>
 7    1  0.1899036E-009  0.4778727E+02  0.7816164E-02  0.1312668E+00
        -11   -1    0    0    0    0  0.00000000000E+00  0.00000000000E+00  0.45593999997E+02  0.45594000000E+02  0.51100000000E-03 0. -1.
         11   -1    0    0    0    0 -0.00000000000E+00 -0.00000000000E+00 -0.45593999997E+02  0.45594000000E+02  0.51100000000E-03 0.  1.
    9900012    2    1    2    0    0  0.63363880624E+01 -0.19061531219E+01  0.42893358942E+02  0.47787268731E+02  0.19999989452E+02 0.  0.
        -12    1    1    2    0    0 -0.63363880624E+01  0.19061531219E+01 -0.42893358942E+02  0.43400731269E+02  0.00000000000E+00 0.  1.
         11    1    3    3    0    0 -0.36170319384E+01  0.23894394308E+01  0.12498796443E+02  0.13229219691E+02  0.51100000000E-03 0. -1.
        -11    1    3    3    0    0  0.40904302139E+01 -0.66489891144E+01  0.25192398658E+02  0.26374184840E+02  0.51100000000E-03 0.  1.
        -12    1    3    3    0    0  0.58629897870E+01  0.23533965617E+01  0.52021638400E+01  0.81838641996E+01  0.00000000000E+00 0.  1.
</event>
<event>
 7    1  0.1899036E-009  0.4778727E+02  0.7816164E-02  0.1312668E+00
        -11   -1    0    0    0    0  0.00000000000E+00  0.00000000000E+00  0.45593999997E+02  0.45594000000E+02  0.51100000000E-03 0.  1.
         11   -1    0    0    0    0 -0.00000000000E+00 -0.00000000000E+00 -0.45593999997E+02  0.45594000000E+02  0.51100000000E-03 0. -1.
    9900012    2    1    2    0    0  0.39812437609E+02 -0.13761123384E+01 -0.17224962580E+02  0.47787271787E+02  0.20000003386E+02 0.  0.
        -12    1    1    2    0    0 -0.39812437609E+02  0.13761123384E+01  0.17224962580E+02  0.43400728213E+02  0.00000000000E+00 0.  1.
         11    1    3    3    0    0  0.20166782442E+02 -0.63345348387E+01 -0.47907441789E+01  0.21674332187E+02  0.51100000000E-03 0. -1.
        -11    1    3    3    0    0  0.18136167388E+01  0.35366076604E+01  0.54503272412E+00  0.40117153875E+01  0.51100000000E-03 0.  1.
         12    1    3    3    0    0  0.17832038428E+02  0.14218148399E+01 -0.12979251125E+02  0.22101224213E+02  0.00000000000E+00 0. -1.
</event>
<event>
 7    1  0.1899036E-009  0.4778727E+02  0.7816164E-02  0.1312668E+00
        -11   -1    0    0    0    0  0.00000000000E+00  0.00000000000E+00  0.45593999997E+02  0.45594000000E+02  0.51100000000E-03 0.  1.
         11   -1    0    0    0    0 -0.00000000000E+00 -0.00000000000E+00 -0.45593999997E+02  0.45594000000E+02  0.51100000000E-03 0. -1.
    9900012    2    1    2    0    0 -0.17771551309E+02  0.19928144249E+02 -0.34214975751E+02  0.47787268039E+02  0.19999986295E+02 0.  0.
        -12    1    1    2    0    0  0.17771551309E+02 -0.19928144249E+02  0.34214975751E+02  0.43400731961E+02  0.00000000000E+00 0.  1.
         11    1    3    3    0    0 -0.70519832510E+01  0.45237472706E+01 -0.11868614061E+02  0.14527861409E+02  0.51100000000E-03 0. -1.
        -11    1    3    3    0    0 -0.65295924622E+00  0.14186494557E+02 -0.15512976923E+02  0.21031772081E+02  0.51100000000E-03 0.  1.
        -12    1    3    3    0    0 -0.10066608812E+02  0.12179024218E+01 -0.68333847677E+01  0.12227634549E+02  0.00000000000E+00 0.  1.
</event>
<event>
 7    1  0.1899036E-009  0.4778727E+02  0.7816164E-02  0.1312668E+00
        -11   -1    0    0    0    0  0.00000000000E+00  0.00000000000E+00  0.45593999997E+02  0.45594000000E+02  0.51100000000E-03 0.  1.
         11   -1    0    0    0    0 -0.00000000000E+00 -0.00000000000E+00 -0.45593999997E+02  0.45594000000E+02  0.51100000000E-03 0. -1.
    9900012    2    1    2    0    0  0.13896204293E+02 -0.22545503260E+02 -0.34383418035E+02  0.47787266748E+02  0.19999980410E+02 0.  0.
        -12    1    1    2    0    0 -0.13896204293E+02  0.22545503260E+02  0.34383418035E+02  0.43400733252E+02  0.00000000000E+00 0.  1.
         11    1    3    3    0    0  0.17141637524E+02 -0.18656406918E+02 -0.27512767781E+02  0.37401198475E+02  0.51100000000E-03 0. -1.
        -11    1    3    3    0    0 -0.25491184771E+01 -0.23931060073E+01 -0.18665311479E+00  0.35013998656E+01  0.51100000000E-03 0.  1.
         12    1    3    3    0    0 -0.69631475412E+00 -0.14959903347E+01 -0.66839971398E+01  0.68846684076E+01  0.00000000000E+00 0. -1.
</event>
<event>
 7    1  0.1899036E-009  0.4778727E+02  0.7816164E-02  0.1312668E+00
        -11   -1    0    0    0    0  0.00000000000E+00  0.00000000000E+00  0.45593999997E+02  0.45594000000E+02  0.51100000000E-03 0.  1.
         11   -1    0    0    0    0 -0.00000000000E+00 -0.00000000000E+00 -0.45593999997E+02  0.45594000000E+02  0.51100000000E-03 0. -1.
    9900012    2    1    2    0    0 -0.10330314434E+02  0.97198847560E+01 -0.41017455159E+02  0.47787272083E+02  0.20000004736E+02 0.  0.
        -12    1    1    2    0    0  0.10330314434E+02 -0.97198847560E+01  0.41017455159E+02  0.43400727917E+02  0.00000000000E+00 0.  1.
         11    1    3    3    0    0 -0.79833401114E+01  0.86757071478E+01 -0.30998856876E+02  0.33165203779E+02  0.51100000000E-03 0. -1.
        -11    1    3    3    0    0  0.38611695436E+01  0.10623855466E+01 -0.60448680340E+01  0.72510497932E+01  0.51100000000E-03 0.  1.
         12    1    3    3    0    0 -0.62081438660E+01 -0.18207938403E-01 -0.39737302495E+01  0.73710185108E+01  0.00000000000E+00 0. -1.
</event>
<event>
 7    1  0.1899036E-009  0.4778727E+02  0.7816164E-02  0.1312668E+00
        -11   -1    0    0    0    0  0.00000000000E+00  0.00000000000E+00  0.45593999997E+02  0.45594000000E+02  0.51100000000E-03 0.  1.
         11   -1    0    0    0    0 -0.00000000000E+00 -0.00000000000E+00 -0.45593999997E+02  0.45594000000E+02  0.51100000000E-03 0. -1.
    9900012    2    1    2    0    0 -0.29648162731E+02  0.49929285652E+01 -0.31299848528E+02  0.47787269513E+02  0.19999993016E+02 0.  0.
        -12    1    1    2    0    0  0.29648162731E+02 -0.49929285652E+01  0.31299848528E+02  0.43400730487E+02  0.00000000000E+00 0.  1.
         11    1    3    3    0    0 -0.15161611244E+02  0.95977195718E+01 -0.84823427656E+01  0.19847942351E+02  0.51100000000E-03 0. -1.
        -11    1    3    3    0    0 -0.25921250015E+01 -0.43279752333E-01 -0.79424159207E+01  0.83548163403E+01  0.51100000000E-03 0.  1.
         12    1    3    3    0    0 -0.11894426485E+02 -0.45615112543E+01 -0.14875089841E+02  0.19584510822E+02  0.00000000000E+00 0. -1.
</event>
<event>
 7    1  0.1899036E-009  0.4778727E+02  0.7816164E-02  0.1312668E+00
        -11   -1    0    0    0    0  0.00000000000E+00  0.00000000000E+00  0.45593999997E+02  0.45594000000E+02  0.51100000000E-03 0.  1.
         11   -1    0    0    0    0 -0.00000000000E+00 -0.00000000000E+00 -0.45593999997E+02  0.45594000000E+02  0.51100000000E-03 0. -1.
    9900012    2    1    2    0    0  0.53789360815E+01  0.34901207721E+02  0.25230850251E+02  0.47787273530E+02  0.20000011332E+02 0.  0.
        -12    1    1    2    0    0 -0.53789360815E+01 -0.34901207721E+02 -0.25230850251E+02  0.43400726470E+02  0.00000000000E+00 0.  1.
         11    1    3    3    0    0 -0.12547964489E+00  0.22825393291E+02  0.19717730080E+02  0.30162944216E+02  0.51100000000E-03 0. -1.
        -11    1    3    3    0    0 -0.23571629312E+01  0.34803935748E-01  0.87689206363E+00  0.25152272960E+01  0.51100000000E-03 0.  1.
         12    1    3    3    0    0  0.78615786576E+01  0.12041010494E+02  0.46362281077E+01  0.15109102017E+02  0.00000000000E+00 0. -1.
</event>
<event>
 7    1  0.3048192E-009  0.4778727E+02  0.7816164E-02  0.1312668E+00
        -11   -1    0    0    0    0  0.00000000000E+00  0.00000000000E+00  0.45593999997E+02  0.45594000000E+02  0.51100000000E-03 0.  1.
         11   -1    0    0    0    0 -0.00000000000E+00 -0.00000000000E+00 -0.45593999997E+02  0.45594000000E+02  0.51100000000E-03 0. -1.
    9900012    2    1    2    0    0  0.25615761196E+02  0.57297479694E+01 -0.34563363826E+02  0.47787270140E+02  0.19999995875E+02 0.  0.
        -12    1    1    2    0    0 -0.25615761196E+02 -0.57297479694E+01  0.34563363826E+02  0.43400729860E+02  0.00000000000E+00 0.  1.
         11    1    3    3    0    0  0.12023928921E+02  0.77340836154E+00 -0.15979614975E+02  0.20013023815E+02  0.51100000000E-03 0. -1.
        -11    1    3    3    0    0  0.86642628133E+01  0.93993641249E+01 -0.74009508394E+01  0.14771309002E+02  0.51100000000E-03 0.  1.
        -12    1    3    3    0    0  0.49275694613E+01 -0.44430245171E+01 -0.11182798012E+02  0.13002937323E+02  0.00000000000E+00 0.  1.
</event>
<event>
 7    1  0.1899036E-009  0.4778727E+02  0.7816164E-02  0.1312668E+00
        -11   -1    0    0    0    0  0.00000000000E+00  0.00000000000E+00  0.45593999997E+02  0.45594000000E+02  0.51100000000E-03 0.  1.
         11   -1    0    0    0    0 -0.00000000000E+00 -0.00000000000E+00 -0.45593999997E+02  0.45594000000E+02  0.51100000000E-03 0. -1.
    9900012    2    1    2    0    0 -0.19576911475E+02 -0.22019270357E+02 -0.31867212256E+02  0.47787274811E+02  0.20000017172E+02 0.  0.
        -12    1    1    2    0    0  0.19576911475E+02  0.22019270357E+02  0.31867212256E+02  0.43400725189E+02  0.00000000000E+00 0.  1.
         11    1    3    3    0    0 -0.14334972075E+02 -0.15199226977E+02 -0.30941490178E+02  0.37334752440E+02  0.51100000000E-03 0. -1.
        -11    1    3    3    0    0 -0.53085935220E+01 -0.24282466095E+01 -0.14883146673E+01  0.60243362778E+01  0.51100000000E-03 0.  1.
         12    1    3    3    0    0  0.66654122530E-01 -0.43917967712E+01  0.56259258865E+00  0.44281860928E+01  0.00000000000E+00 0. -1.
</event>
<event>
 7    1  0.1899036E-009  0.4778727E+02  0.7816164E-02  0.1312668E+00
        -11   -1    0    0    0    0  0.00000000000E+00  0.00000000000E+00  0.45593999997E+02  0.45594000000E+02  0.51100000000E-03 0.  1.
         11   -1    0    0    0    0 -0.00000000000E+00 -0.00000000000E+00 -0.45593999997E+02  0.45594000000E+02  0.51100000000E-03 0. -1.
    9900012    2    1    2    0    0  0.33354487958E+02  0.71911468350E+01 -0.26821424224E+02  0.47787271237E+02  0.20000000878E+02 0.  0.
        -12    1    1    2    0    0 -0.33354487958E+02 -0.71911468350E+01  0.26821424224E+02  0.43400728763E+02  0.00000000000E+00 0.  1.
         11    1    3    3    0    0 -0.16125317538E+00 -0.85685286638E+00 -0.50160885669E+01  0.50913008351E+01  0.51100000000E-03 0. -1.
        -11    1    3    3    0    0  0.69367489516E+01  0.72912035817E+01 -0.49643594683E+01  0.11221630937E+02  0.51100000000E-03 0.  1.
        -12    1    3    3    0    0  0.26578992182E+02  0.75679611971E+00 -0.16840976189E+02  0.31474339465E+02  0.00000000000E+00 0.  1.
</event>
<event>
 7    1  0.1899036E-009  0.4778727E+02  0.7816164E-02  0.1312668E+00
        -11   -1    0    0    0    0  0.00000000000E+00  0.00000000000E+00  0.45593999997E+02  0.45594000000E+02  0.51100000000E-03 0. -1.
         11   -1    0    0    0    0 -0.00000000000E+00 -0.00000000000E+00 -0.45593999997E+02  0.45594000000E+02  0.51100000000E-03 0.  1.
    9900012    2    1    2    0    0 -0.40565975308E+02  0.13049403147E+02  0.82303032909E+01  0.47787272271E+02  0.20000005591E+02 0.  0.
        -12    1    1    2    0    0  0.40565975308E+02 -0.13049403147E+02 -0.82303032909E+01  0.43400727729E+02  0.00000000000E+00 0.  1.
         11    1    3    3    0    0 -0.62384717093E+01 -0.14431066807E+01 -0.14036801203E+01  0.65552577600E+01  0.51100000000E-03 0. -1.
        -11    1    3    3    0    0 -0.15876521953E+02  0.63288335521E+01  0.12049041709E+02  0.20911659184E+02  0.51100000000E-03 0.  1.
         12    1    3    3    0    0 -0.18450981646E+02  0.81636762755E+01 -0.24150582981E+01  0.20320355327E+02  0.00000000000E+00 0. -1.
</event>
<event>
 7    1  0.1899036E-009  0.4778727E+02  0.7816164E-02  0.1312668E+00
        -11   -1    0    0    0    0  0.00000000000E+00  0.00000000000E+00  0.45593999997E+02  0.45594000000E+02  0.51100000000E-03 0. -1.
         11   -1    0    0    0    0 -0.00000000000E+00 -0.00000000000E+00 -0.45593999997E+02  0.45594000000E+02  0.51100000000E-03 0.  1.
    9900012    2    1    2    0    0 -0.75891241946E+01  0.41309753318E+02  0.10933096478E+02  0.47787272773E+02  0.20000007880E+02 0.  0.
        -12    1    1    2    0    0  0.75891241946E+01 -0.41309753318E+02 -0.10933096478E+02  0.43400727227E+02  0.00000000000E+00 0.  1.
         11    1    3    3    0    0 -0.22908460952E+00  0.16826323660E+02  0.81808790775E+01  0.18711077745E+02  0.51100000000E-03 0. -1.
        -11    1    3    3    0    0 -0.10435664246E+02  0.14860216021E+02  0.47686706398E+01  0.18774166517E+02  0.51100000000E-03 0.  1.
         12    1    3    3    0    0  0.30756246613E+01  0.96232136374E+01 -0.20164532393E+01  0.10302028511E+02  0.00000000000E+00 0. -1.
</event>
<event>
 7    1  0.1899036E-009  0.4778727E+02  0.7816164E-02  0.1312668E+00
        -11   -1    0    0    0    0  0.00000000000E+00  0.00000000000E+00  0.45593999997E+02  0.45594000000E+02  0.51100000000E-03 0.  1.
         11   -1    0    0    0    0 -0.00000000000E+00 -0.00000000000E+00 -0.45593999997E+02  0.45594000000E+02  0.51100000000E-03 0. -1.
    9900012    2    1    2    0    0 -0.67813152203E+00 -0.33814840867E+02 -0.27197792234E+02  0.47787271577E+02  0.20000002429E+02 0.  0.
        -12    1    1    2    0    0  0.67813152203E+00  0.33814840867E+02  0.27197792234E+02  0.43400728423E+02  0.00000000000E+00 0.  1.
         11    1    3    3    0    0  0.22874980108E+01 -0.82595585220E+00 -0.33890211035E+00  0.24555457887E+01  0.51100000000E-03 0. -1.
        -11    1    3    3    0    0 -0.22354345497E+01 -0.25348440224E+02 -0.27695602978E+02  0.37610995919E+02  0.51100000000E-03 0.  1.
        -12    1    3    3    0    0 -0.73019498313E+00 -0.76404447912E+01  0.83671285450E+00  0.77207298698E+01  0.00000000000E+00 0.  1.
</event>
<event>
 7    1  0.1899036E-009  0.4778727E+02  0.7816164E-02  0.1312668E+00
        -11   -1    0    0    0    0  0.00000000000E+00  0.00000000000E+00  0.45593999997E+02  0.45594000000E+02  0.51100000000E-03 0.  1.
         11   -1    0    0    0    0 -0.00000000000E+00 -0.00000000000E+00 -0.45593999997E+02  0.45594000000E+02  0.51100000000E-03 0. -1.
    9900012    2    1    2    0    0 -0.18791086167E+02  0.32498284260E+02  0.21780273638E+02  0.47787265917E+02  0.19999976623E+02 0.  0.
        -12    1    1    2    0    0  0.18791086167E+02 -0.32498284260E+02 -0.21780273638E+02  0.43400734083E+02  0.00000000000E+00 0.  1.
         11    1    3    3    0    0 -0.68570304088E+01  0.20325177047E+02  0.19219198910E+02  0.28801203014E+02  0.51100000000E-03 0. -1.
        -11    1    3    3    0    0 -0.11206986480E+01 -0.72909999248E+00  0.16546716403E+01  0.21273200880E+01  0.51100000000E-03 0.  1.
         12    1    3    3    0    0 -0.10813357110E+02  0.12902207206E+02  0.90640308745E+00  0.16858742816E+02  0.00000000000E+00 0. -1.
</event>
<event>
 7    1  0.1899036E-009  0.4778727E+02  0.7816164E-02  0.1312668E+00
        -11   -1    0    0    0    0  0.00000000000E+00  0.00000000000E+00  0.45593999997E+02  0.45594000000E+02  0.51100000000E-03 0.  1.
         11   -1    0    0    0    0 -0.00000000000E+00 -0.00000000000E+00 -0.45593999997E+02  0.45594000000E+02  0.51100000000E-03 0. -1.
    9900012    2    1    2    0    0 -0.28071715228E+02 -0.14282689648E+02 -0.29859783810E+02  0.47787272949E+02  0.20000008682E+02 0.  0.
        -12    1    1    2    0    0  0.28071715228E+02  0.14282689648E+02  0.29859783810E+02  0.43400727051E+02  0.00000000000E+00 0.  1.
         11    1    3    3    0    0 -0.10522688717E+02 -0.91651671459E+01 -0.12839672803E+02  0.18962712480E+02  0.51100000000E-03 0. -1.
        -11    1    3    3    0    0 -0.67813961386E+01 -0.48346721965E+01 -0.15958565039E+02  0.18001032948E+02  0.51100000000E-03 0.  1.
        -12    1    3    3    0    0 -0.10767630373E+02 -0.28285030528E+00 -0.10615459669E+01  0.10823527520E+02  0.00000000000E+00 0.  1.
</event>
<event>
 7    1  0.1899036E-009  0.4778727E+02  0.7816164E-02  0.1312668E+00
        -11   -1    0    0    0    0  0.00000000000E+00  0.00000000000E+00  0.45593999997E+02  0.45594000000E+02  0.51100000000E-03 0. -1.
         11   -1    0    0    0    0 -0.00000000000E+00 -0.00000000000E+00 -0.45593999997E+02  0.45594000000E+02  0.51100000000E-03 0.  1.
    9900012    2    1    2    0    0  0.31521214836E+02  0.20486368221E+02 -0.21687441375E+02  0.47787269811E+02  0.19999994375E+02 0.  0.
        -12    1    1    2    0    0 -0.31521214836E+02 -0.20486368221E+02  0.21687441375E+02  0.43400730189E+02  0.00000000000E+00 0.  1.
         11    1    3    3    0    0  0.95023455755E+01  0.25848092733E+01 -0.16799040244E+01  0.99898892991E+01  0.51100000000E-03 0. -1.
        -11    1    3    3    0    0  0.69289702604E+01  0.12845951038E+02 -0.15426455394E+02  0.21236869196E+02  0.51100000000E-03 0.  1.
        -12    1    3    3    0    0  0.15089899000E+02  0.50556079092E+01 -0.45810819560E+01  0.16560511316E+02  0.00000000000E+00 0.  1.
</event>
<event>
 7    1  0.1899036E-009  0.4778727E+02  0.7816164E-02  0.1312668E+00
        -11   -1    0    0    0    0  0.00000000000E+00  0.00000000000E+00  0.45593999997E+02  0.45594000000E+02  0.51100000000E-03 0.  1.
         11   -1    0    0    0    0 -0.00000000000E+00 -0.00000000000E+00 -0.45593999997E+02  0.45594000000E+02  0.51100000000E-03 0. -1.
    9900012    2    1    2    0    0 -0.25872835739E+01 -0.80166496636E+01 -0.42575374747E+02  0.47787271400E+02  0.20000001621E+02 0.  0.
        -12    1    1    2    0    0  0.25872835739E+01  0.80166496636E+01  0.42575374747E+02  0.43400728600E+02  0.00000000000E+00 0.  1.
         11    1    3    3    0    0  0.85100267895E+00 -0.15391158681E+01 -0.54364132940E+00  0.18408230146E+01  0.51100000000E-03 0. -1.
        -11    1    3    3    0    0 -0.53922349745E+01 -0.70601725550E+01 -0.83147814270E+01  0.12167901420E+02  0.51100000000E-03 0.  1.
         12    1    3    3    0    0  0.19539487216E+01  0.58263875950E+00 -0.33716951991E+02  0.33778546965E+02  0.00000000000E+00 0. -1.
</event>
<event>
 7    1  0.1899036E-009  0.4778733E+02  0.7816164E-02  0.1312667E+00
        -11   -1    0    0    0    0  0.00000000000E+00  0.00000000000E+00  0.45593999997E+02  0.45594000000E+02  0.51100000000E-03 0.  1.
         11   -1    0    0    0    0 -0.00000000000E+00 -0.00000000000E+00 -0.45593999997E+02  0.45594000000E+02  0.51100000000E-03 0. -1.
    9900012    2    1    2    0    0 -0.16628894140E+02  0.33872401829E+01 -0.39945265921E+02  0.47787334269E+02  0.20000288264E+02 0.  0.
        -12    1    1    2    0    0  0.16628894140E+02 -0.33872401829E+01  0.39945265921E+02  0.43400665731E+02  0.00000000000E+00 0.  1.
         11    1    3    3    0    0 -0.11523638951E+02 -0.26882555758E+00 -0.23784868909E+02  0.26430787183E+02  0.51100000000E-03 0. -1.
        -11    1    3    3    0    0 -0.57672984536E+01  0.78174388606E+01 -0.10572615636E+02  0.14358073806E+02  0.51100000000E-03 0.  1.
        -12    1    3    3    0    0  0.66204326399E+00 -0.41613731201E+01 -0.55877813766E+01  0.69984732793E+01  0.00000000000E+00 0.  1.
</event>
<event>
 7    1  0.1899036E-009  0.4778727E+02  0.7816164E-02  0.1312668E+00
        -11   -1    0    0    0    0  0.00000000000E+00  0.00000000000E+00  0.45593999997E+02  0.45594000000E+02  0.51100000000E-03 0.  1.
         11   -1    0    0    0    0 -0.00000000000E+00 -0.00000000000E+00 -0.45593999997E+02  0.45594000000E+02  0.51100000000E-03 0. -1.
    9900012    2    1    2    0    0 -0.39358152023E+02  0.15379155856E+02 -0.99015468615E+01  0.47787271944E+02  0.20000004102E+02 0.  0.
        -12    1    1    2    0    0  0.39358152023E+02 -0.15379155856E+02  0.99015468615E+01  0.43400728056E+02  0.00000000000E+00 0.  1.
         11    1    3    3    0    0 -0.18223265924E+02  0.56417857185E+01 -0.91275139292E+01  0.21147781865E+02  0.51100000000E-03 0. -1.
        -11    1    3    3    0    0 -0.17920782935E+02  0.12769883258E+02  0.59575400378E+00  0.22013162029E+02  0.51100000000E-03 0.  1.
         12    1    3    3    0    0 -0.32141031639E+01 -0.30325131200E+01 -0.13697869361E+01  0.46263280495E+01  0.00000000000E+00 0. -1.
</event>
<event>
 7    1  0.1899036E-009  0.4778727E+02  0.7816164E-02  0.1312668E+00
        -11   -1    0    0    0    0  0.00000000000E+00  0.00000000000E+00  0.45593999997E+02  0.45594000000E+02  0.51100000000E-03 0.  1.
         11   -1    0    0    0    0 -0.00000000000E+00 -0.00000000000E+00 -0.45593999997E+02  0.45594000000E+02  0.51100000000E-03 0. -1.
    9900012    2    1    2    0    0 -0.26578790103E+02  0.10425899247E+02 -0.32687794922E+02  0.47787269645E+02  0.19999993620E+02 0.  0.
        -12    1    1    2    0    0  0.26578790103E+02 -0.10425899247E+02  0.32687794922E+02  0.43400730355E+02  0.00000000000E+00 0.  1.
         11    1    3    3    0    0  0.25093549903E+00  0.30219479444E+01 -0.56898421714E+01  0.64474368706E+01  0.51100000000E-03 0.  1.
        -11    1    3    3    0    0 -0.83943861910E+01  0.76399612035E+01 -0.16787068621E+02  0.20264264109E+02  0.51100000000E-03 0. -1.
         12    1    3    3    0    0 -0.18435339411E+02 -0.23600990097E+00 -0.10210884129E+02  0.21075568666E+02  0.00000000000E+00 0. -1.
</event>
<event>
 7    1  0.1899036E-009  0.4778728E+02  0.7816164E-02  0.1312668E+00
        -11   -1    0    0    0    0  0.00000000000E+00  0.00000000000E+00  0.45593999997E+02  0.45594000000E+02  0.51100000000E-03 0.  1.
         11   -1    0    0    0    0 -0.00000000000E+00 -0.00000000000E+00 -0.45593999997E+02  0.45594000000E+02  0.51100000000E-03 0. -1.
    9900012    2    1    2    0    0  0.38901352562E+02  0.16762656567E+02  0.94509791029E+01  0.47787275439E+02  0.20000020039E+02 0.  0.
        -12    1    1    2    0    0 -0.38901352562E+02 -0.16762656567E+02 -0.94509791029E+01  0.43400724561E+02  0.00000000000E+00 0.  1.
         11    1    3    3    0    0  0.13068173954E+02  0.12032817296E+02  0.58603783761E+01  0.18705878690E+02  0.51100000000E-03 0. -1.
        -11    1    3    3    0    0  0.35758240340E+01  0.51249002798E+01 -0.10642558535E+01  0.63390662706E+01  0.51100000000E-03 0.  1.
        -12    1    3    3    0    0  0.22257354574E+02 -0.39506100866E+00  0.46548565804E+01  0.22742330479E+02  0.00000000000E+00 0.  1.
</event>
<event>
 7    1  0.1899036E-009  0.4778728E+02  0.7816164E-02  0.1312668E+00
        -11   -1    0    0    0    0  0.00000000000E+00  0.00000000000E+00  0.45593999997E+02  0.45594000000E+02  0.51100000000E-03 0.  1.
         11   -1    0    0    0    0 -0.00000000000E+00 -0.00000000000E+00 -0.45593999997E+02  0.45594000000E+02  0.51100000000E-03 0. -1.
    9900012    2    1    2    0    0 -0.94695606406E+01  0.27817928645E+02 -0.31939207726E+02  0.47787277391E+02  0.20000028934E+02 0.  0.
        -12    1    1    2    0    0  0.94695606406E+01 -0.27817928645E+02  0.31939207726E+02  0.43400722609E+02  0.00000000000E+00 0.  1.
         11    1    3    3    0    0 -0.54550343400E+01  0.15048835462E+02 -0.84618045815E+01  0.18105993081E+02  0.51100000000E-03 0. -1.
        -11    1    3    3    0    0  0.71784116972E+00  0.41542224657E+01  0.14700754277E-01  0.42158126871E+01  0.51100000000E-03 0.  1.
         12    1    3    3    0    0 -0.47323674703E+01  0.86148707180E+01 -0.23492103899E+02  0.25465471623E+02  0.00000000000E+00 0. -1.
</event>
<event>
 7    1  0.1899036E-009  0.4778727E+02  0.7816164E-02  0.1312668E+00
        -11   -1    0    0    0    0  0.00000000000E+00  0.00000000000E+00  0.45593999997E+02  0.45594000000E+02  0.51100000000E-03 0.  1.
         11   -1    0    0    0    0 -0.00000000000E+00 -0.00000000000E+00 -0.45593999997E+02  0.45594000000E+02  0.51100000000E-03 0. -1.
    9900012    2    1    2    0    0  0.35505368214E+02 -0.77943679098E+01 -0.23711596106E+02  0.47787272667E+02  0.20000007397E+02 0.  0.
        -12    1    1    2    0    0 -0.35505368214E+02  0.77943679098E+01  0.23711596106E+02  0.43400727333E+02  0.00000000000E+00 0.  1.
         11    1    3    3    0    0  0.76360009461E+01 -0.67737958775E+01 -0.53195424040E+01  0.11510445373E+02  0.51100000000E-03 0. -1.
        -11    1    3    3    0    0  0.83805285675E+01 -0.66283277278E+01 -0.39991218265E+01  0.11408810770E+02  0.51100000000E-03 0.  1.
         12    1    3    3    0    0  0.19488838701E+02  0.56077556956E+01 -0.14392931876E+02  0.24868016524E+02  0.00000000000E+00 0. -1.
</event>
<event>
 7    1  0.1899036E-009  0.4778727E+02  0.7816164E-02  0.1312668E+00
        -11   -1    0    0    0    0  0.00000000000E+00  0.00000000000E+00  0.45593999997E+02  0.45594000000E+02  0.51100000000E-03 0.  1.
         11   -1    0    0    0    0 -0.00000000000E+00 -0.00000000000E+00 -0.45593999997E+02  0.45594000000E+02  0.51100000000E-03 0. -1.
    9900012    2    1    2    0    0  0.69719446589E+01  0.20575999564E+02 -0.37571848498E+02  0.47787267634E+02  0.19999984448E+02 0.  0.
        -12    1    1    2    0    0 -0.69719446589E+01 -0.20575999564E+02  0.37571848498E+02  0.43400732366E+02  0.00000000000E+00 0.  1.
         11    1    3    3    0    0  0.47224407265E+01  0.21759892461E+01 -0.23250063546E+02  0.23824395706E+02  0.51100000000E-03 0. -1.
        -11    1    3    3    0    0  0.17905987247E+01  0.76969880070E+01 -0.32148102385E+01  0.85314051189E+01  0.51100000000E-03 0.  1.
        -12    1    3    3    0    0  0.45890520768E+00  0.10703022310E+02 -0.11106974714E+02  0.15431466809E+02  0.00000000000E+00 0.  1.
</event>
<event>
 7    1  0.1899036E-009  0.4778727E+02  0.7816164E-02  0.1312668E+00
        -11   -1    0    0    0    0  0.00000000000E+00  0.00000000000E+00  0.45593999997E+02  0.45594000000E+02  0.51100000000E-03 0. -1.
         11   -1    0    0    0    0 -0.00000000000E+00 -0.00000000000E+00 -0.45593999997E+02  0.45594000000E+02  0.51100000000E-03 0.  1.
    9900012    2    1    2    0    0 -0.16936317617E+02  0.39598571761E+02 -0.53607724159E+01  0.47787267048E+02  0.19999981777E+02 0.  0.
        -12    1    1    2    0    0  0.16936317617E+02 -0.39598571761E+02  0.53607724159E+01  0.43400732952E+02  0.00000000000E+00 0.  1.
         11    1    3    3    0    0  0.10165116883E+01  0.27464220547E+01  0.46094984094E+01  0.54610993365E+01  0.51100000000E-03 0.  1.
        -11    1    3    3    0    0 -0.94306177385E+01  0.16692592244E+02 -0.33747371472E+01  0.19467101423E+02  0.51100000000E-03 0. -1.
        -12    1    3    3    0    0 -0.85222115667E+01  0.20159557462E+02 -0.65955336782E+01  0.22859066288E+02  0.00000000000E+00 0.  1.
</event>
<event>
 7    1  0.1899036E-009  0.4778727E+02  0.7816164E-02  0.1312668E+00
        -11   -1    0    0    0    0  0.00000000000E+00  0.00000000000E+00  0.45593999997E+02  0.45594000000E+02  0.51100000000E-03 0.  1.
         11   -1    0    0    0    0 -0.00000000000E+00 -0.00000000000E+00 -0.45593999997E+02  0.45594000000E+02  0.51100000000E-03 0. -1.
    9900012    2    1    2    0    0 -0.23785204463E+02  0.35666878531E+02 -0.67647267319E+01  0.47787266098E+02  0.19999977449E+02 0.  0.
        -12    1    1    2    0    0  0.23785204463E+02 -0.35666878531E+02  0.67647267319E+01  0.43400733902E+02  0.00000000000E+00 0.  1.
         11    1    3    3    0    0 -0.56651094357E+01  0.16327453440E+02 -0.29539747920E+01  0.17532973737E+02  0.51100000000E-03 0. -1.
        -11    1    3    3    0    0  0.42300715280E+00 -0.15996701041E+01 -0.14242003039E+01  0.21831688574E+01  0.51100000000E-03 0.  1.
         12    1    3    3    0    0 -0.18543102180E+02  0.20939095195E+02 -0.23865516360E+01  0.28071123503E+02  0.00000000000E+00 0. -1.
</event>
<event>
 7    1  0.1899036E-009  0.4778727E+02  0.7816164E-02  0.1312668E+00
        -11   -1    0    0    0    0  0.00000000000E+00  0.00000000000E+00  0.45593999997E+02  0.45594000000E+02  0.51100000000E-03 0.  1.
         11   -1    0    0    0    0 -0.00000000000E+00 -0.00000000000E+00 -0.45593999997E+02  0.45594000000E+02  0.51100000000E-03 0. -1.
    9900012    2    1    2    0    0  0.31102539018E+02  0.31108443244E+01 -0.30109430318E+02  0.47787273280E+02  0.20000010192E+02 0.  0.
        -12    1    1    2    0    0 -0.31102539018E+02 -0.31108443244E+01  0.30109430318E+02  0.43400726720E+02  0.00000000000E+00 0.  1.
         11    1    3    3    0    0  0.12092556374E+02  0.58618683657E+01 -0.15797719255E+02  0.20740283371E+02  0.51100000000E-03 0. -1.
        -11    1    3    3    0    0  0.51486893388E+00 -0.40323407298E+01 -0.45255537820E+01  0.60832145347E+01  0.51100000000E-03 0.  1.
         12    1    3    3    0    0  0.18495113710E+02  0.12813166885E+01 -0.97861572806E+01  0.20963775374E+02  0.00000000000E+00 0. -1.
</event>
<event>
 7    1  0.1899036E-009  0.4778727E+02  0.7816164E-02  0.1312668E+00
        -11   -1    0    0    0    0  0.00000000000E+00  0.00000000000E+00  0.45593999997E+02  0.45594000000E+02  0.51100000000E-03 0.  1.
         11   -1    0    0    0    0 -0.00000000000E+00 -0.00000000000E+00 -0.45593999997E+02  0.45594000000E+02  0.51100000000E-03 0. -1.
    9900012    2    1    2    0    0 -0.28618076413E+02  0.24297284003E+02 -0.21777774203E+02  0.47787265482E+02  0.19999974639E+02 0.  0.
        -12    1    1    2    0    0  0.28618076413E+02 -0.24297284003E+02  0.21777774203E+02  0.43400734518E+02  0.00000000000E+00 0.  1.
         11    1    3    3    0    0 -0.91853340525E-01  0.70776261216E+01 -0.62089456726E+01  0.94155315930E+01  0.51100000000E-03 0.  1.
        -11    1    3    3    0    0 -0.21915520348E+02  0.16875007457E+02 -0.15592761663E+02  0.31752009784E+02  0.51100000000E-03 0. -1.
        -12    1    3    3    0    0 -0.66107027246E+01  0.34465042408E+00  0.23933133303E-01  0.66197241047E+01  0.00000000000E+00 0.  1.
</event>
<event>
 7    1  0.1899036E-009  0.4778726E+02  0.7816164E-02  0.1312668E+00
        -11   -1    0    0    0    0  0.00000000000E+00  0.00000000000E+00  0.45593999997E+02  0.45594000000E+02  0.51100000000E-03 0.  1.
         11   -1    0    0    0    0 -0.00000000000E+00 -0.00000000000E+00 -0.45593999997E+02  0.45594000000E+02  0.51100000000E-03 0. -1.
    9900012    2    1    2    0    0 -0.43295832837E+02 -0.28730316233E+01  0.91678090973E+00  0.47787263382E+02  0.19999965064E+02 0.  0.
        -12    1    1    2    0    0  0.43295832837E+02  0.28730316233E+01 -0.91678090973E+00  0.43400736618E+02  0.00000000000E+00 0.  1.
         11    1    3    3    0    0 -0.16646445761E+02 -0.64688362394E+01 -0.23939325434E+01  0.18018904297E+02  0.51100000000E-03 0. -1.
        -11    1    3    3    0    0 -0.53520138424E+00  0.53509103134E-04  0.33654327921E+01  0.34077233842E+01  0.51100000000E-03 0.  1.
        -12    1    3    3    0    0 -0.26114185691E+02  0.35957511069E+01 -0.54719338907E-01  0.26360635701E+02  0.00000000000E+00 0.  1.
</event>
<event>
 7    1  0.1899036E-009  0.4778727E+02  0.7816164E-02  0.1312668E+00
        -11   -1    0    0    0    0  0.00000000000E+00  0.00000000000E+00  0.45593999997E+02  0.45594000000E+02  0.51100000000E-03 0. -1.
         11   -1    0    0    0    0 -0.00000000000E+00 -0.00000000000E+00 -0.45593999997E+02  0.45594000000E+02  0.51100000000E-03 0.  1.
    9900012    2    1    2    0    0  0.84873049795E+01  0.11122672336E+02  0.41083756852E+02  0.47787271172E+02  0.20000000581E+02 0.  0.
        -12    1    1    2    0    0 -0.84873049795E+01 -0.11122672336E+02 -0.41083756852E+02  0.43400728828E+02  0.00000000000E+00 0.  1.
         11    1    3    3    0    0  0.45261295601E+01  0.90739462634E+01  0.28214091224E+02  0.29980948841E+02  0.51100000000E-03 0. -1.
        -11    1    3    3    0    0 -0.28941210960E+01  0.33204176337E+01  0.18746543672E+01  0.47870073572E+01  0.51100000000E-03 0.  1.
         12    1    3    3    0    0  0.68552965154E+01 -0.12716915608E+01  0.10995011262E+02  0.13019314974E+02  0.00000000000E+00 0. -1.
</event>
<event>
 7    1  0.1899036E-009  0.4778727E+02  0.7816164E-02  0.1312668E+00
        -11   -1    0    0    0    0  0.00000000000E+00  0.00000000000E+00  0.45593999997E+02  0.45594000000E+02  0.51100000000E-03 0.  1.
         11   -1    0    0    0    0 -0.00000000000E+00 -0.00000000000E+00 -0.45593999997E+02  0.45594000000E+02  0.51100000000E-03 0. -1.
    9900012    2    1    2    0    0  0.15818281984E+02  0.13551348771E+02 -0.38075792903E+02  0.47787273006E+02  0.20000008941E+02 0.  0.
        -12    1    1    2    0    0 -0.15818281984E+02 -0.13551348771E+02  0.38075792903E+02  0.43400726994E+02  0.00000000000E+00 0.  1.
         11    1    3    3    0    0  0.67585008520E+00  0.50863290519E+01 -0.68009474947E+01  0.85194133395E+01  0.51100000000E-03 0. -1.
        -11    1    3    3    0    0  0.12183738560E+02 -0.20989687801E+01 -0.12904304921E+02  0.17870932852E+02  0.51100000000E-03 0.  1.
        -12    1    3    3    0    0  0.29586933385E+01  0.10563988499E+02 -0.18370540487E+02  0.21396926814E+02  0.00000000000E+00 0.  1.
</event>
<event>
 7    1  0.1899036E-009  0.4778727E+02  0.7816164E-02  0.1312668E+00
        -11   -1    0    0    0    0  0.00000000000E+00  0.00000000000E+00  0.45593999997E+02  0.45594000000E+02  0.51100000000E-03 0.  1.
         11   -1    0    0    0    0 -0.00000000000E+00 -0.00000000000E+00 -0.45593999997E+02  0.45594000000E+02  0.51100000000E-03 0. -1.
    9900012    2    1    2    0    0 -0.35782593292E+02  0.13838598953E+02  0.20290949553E+02  0.47787269159E+02  0.19999991406E+02 0.  0.
        -12    1    1    2    0    0  0.35782593292E+02 -0.13838598953E+02 -0.20290949553E+02  0.43400730841E+02  0.00000000000E+00 0.  1.
         11    1    3    3    0    0 -0.23294217010E+02  0.68687877360E+01  0.49716851635E+01  0.24789482542E+02  0.51100000000E-03 0. -1.
        -11    1    3    3    0    0 -0.63627081821E+01 -0.14045397801E+01  0.79104289353E+01  0.10248496163E+02  0.51100000000E-03 0.  1.
        -12    1    3    3    0    0 -0.61256681006E+01  0.83743509972E+01  0.74088354547E+01  0.12749290455E+02  0.00000000000E+00 0.  1.
</event>
<event>
 7    1  0.1899036E-009  0.4778727E+02  0.7816164E-02  0.1312668E+00
        -11   -1    0    0    0    0  0.00000000000E+00  0.00000000000E+00  0.45593999997E+02  0.45594000000E+02  0.51100000000E-03 0.  1.
         11   -1    0    0    0    0 -0.00000000000E+00 -0.00000000000E+00 -0.45593999997E+02  0.45594000000E+02  0.51100000000E-03 0. -1.
    9900012    2    1    2    0    0  0.38173090411E+02 -0.15151069774E+02 -0.14031511237E+02  0.47787273572E+02  0.20000011526E+02 0.  0.
        -12    1    1    2    0    0 -0.38173090411E+02  0.15151069774E+02  0.14031511237E+02  0.43400726428E+02  0.00000000000E+00 0.  1.
         11    1    3    3    0    0  0.11853319449E+02 -0.81560398372E+01 -0.14202900314E+01  0.14458194625E+02  0.51100000000E-03 0. -1.
        -11    1    3    3    0    0  0.17632940978E+02 -0.62232692008E+01 -0.89095739535E+00  0.18720136015E+02  0.51100000000E-03 0.  1.
        -12    1    3    3    0    0  0.86868299840E+01 -0.77176073640E+00 -0.11720263810E+02  0.14608942932E+02  0.00000000000E+00 0.  1.
</event>
<event>
 7    1  0.1899036E-009  0.4778727E+02  0.7816164E-02  0.1312668E+00
        -11   -1    0    0    0    0  0.00000000000E+00  0.00000000000E+00  0.45593999997E+02  0.45594000000E+02  0.51100000000E-03 0. -1.
         11   -1    0    0    0    0 -0.00000000000E+00 -0.00000000000E+00 -0.45593999997E+02  0.45594000000E+02  0.51100000000E-03 0.  1.
    9900012    2    1    2    0    0 -0.20819593871E+02  0.23037847868E+02  0.30322029990E+02  0.47787269291E+02  0.19999992006E+02 0.  0.
        -12    1    1    2    0    0  0.20819593871E+02 -0.23037847868E+02 -0.30322029990E+02  0.43400730709E+02  0.00000000000E+00 0.  1.
         11    1    3    3    0    0 -0.15115317716E+02  0.13327914029E+02  0.11585825995E+02  0.23245160491E+02  0.51100000000E-03 0. -1.
        -11    1    3    3    0    0 -0.44949455705E+01  0.87196387178E+00  0.99654272351E+00  0.46859315334E+01  0.51100000000E-03 0.  1.
        -12    1    3    3    0    0 -0.12093305849E+01  0.88379699670E+01  0.17739661272E+02  0.19856177266E+02  0.00000000000E+00 0.  1.
</event>
<event>
 7    1  0.1899036E-009  0.4778727E+02  0.7816164E-02  0.1312668E+00
        -11   -1    0    0    0    0  0.00000000000E+00  0.00000000000E+00  0.45593999997E+02  0.45594000000E+02  0.51100000000E-03 0.  1.
         11   -1    0    0    0    0 -0.00000000000E+00 -0.00000000000E+00 -0.45593999997E+02  0.45594000000E+02  0.51100000000E-03 0. -1.
    9900012    2    1    2    0    0 -0.27689173407E+02 -0.22303266449E+02 -0.24889698396E+02  0.47787272995E+02  0.20000008895E+02 0.  0.
        -12    1    1    2    0    0  0.27689173407E+02  0.22303266449E+02  0.24889698396E+02  0.43400727005E+02  0.00000000000E+00 0.  1.
         11    1    3    3    0    0 -0.14832705833E+01 -0.15327319818E+01 -0.58855949019E+01  0.62601586690E+01  0.51100000000E-03 0. -1.
        -11    1    3    3    0    0 -0.11829663478E+01 -0.55992453206E+01 -0.88762367378E+01  0.10561180636E+02  0.51100000000E-03 0.  1.
         12    1    3    3    0    0 -0.25022936476E+02 -0.15171289147E+02 -0.10127866756E+02  0.30965933690E+02  0.00000000000E+00 0. -1.
</event>
<event>
 7    1  0.1899036E-009  0.4778727E+02  0.7816164E-02  0.1312668E+00
        -11   -1    0    0    0    0  0.00000000000E+00  0.00000000000E+00  0.45593999997E+02  0.45594000000E+02  0.51100000000E-03 0.  1.
         11   -1    0    0    0    0 -0.00000000000E+00 -0.00000000000E+00 -0.45593999997E+02  0.45594000000E+02  0.51100000000E-03 0. -1.
    9900012    2    1    2    0    0 -0.29929191427E+02  0.29296257470E+02  0.11384028409E+02  0.47787270697E+02  0.19999998416E+02 0.  0.
        -12    1    1    2    0    0  0.29929191427E+02 -0.29296257470E+02 -0.11384028409E+02  0.43400729303E+02  0.00000000000E+00 0.  1.
         11    1    3    3    0    0 -0.14893251920E+02  0.15163000361E+02 -0.12147882659E+00  0.21254182884E+02  0.51100000000E-03 0. -1.
        -11    1    3    3    0    0 -0.10067508288E+02  0.15729599376E+02  0.93723829156E+01  0.20895372249E+02  0.51100000000E-03 0.  1.
        -12    1    3    3    0    0 -0.49684312184E+01 -0.15963422673E+01  0.21331243204E+01  0.56377155633E+01  0.00000000000E+00 0.  1.
</event>
<event>
 7    1  0.1899036E-009  0.4778727E+02  0.7816164E-02  0.1312668E+00
        -11   -1    0    0    0    0  0.00000000000E+00  0.00000000000E+00  0.45593999997E+02  0.45594000000E+02  0.51100000000E-03 0.  1.
         11   -1    0    0    0    0 -0.00000000000E+00 -0.00000000000E+00 -0.45593999997E+02  0.45594000000E+02  0.51100000000E-03 0. -1.
    9900012    2    1    2    0    0 -0.33105067432E+02  0.25656361933E+02 -0.11376694690E+02  0.47787267525E+02  0.19999983953E+02 0.  0.
        -12    1    1    2    0    0  0.33105067432E+02 -0.25656361933E+02  0.11376694690E+02  0.43400732475E+02  0.00000000000E+00 0.  1.
         11    1    3    3    0    0 -0.15950099136E+02  0.15889475284E+02 -0.48154149267E+01  0.23023234100E+02  0.51100000000E-03 0. -1.
        -11    1    3    3    0    0 -0.60332991405E+00  0.29464072424E+01 -0.61630920242E+01  0.68577712256E+01  0.51100000000E-03 0.  1.
        -12    1    3    3    0    0 -0.16551638382E+02  0.68204794065E+01 -0.39818773882E+00  0.17906262199E+02  0.00000000000E+00 0.  1.
</event>
<event>
 7    1  0.1899036E-009  0.4778727E+02  0.7816164E-02  0.1312668E+00
        -11   -1    0    0    0    0  0.00000000000E+00  0.00000000000E+00  0.45593999997E+02  0.45594000000E+02  0.51100000000E-03 0. -1.
         11   -1    0    0    0    0 -0.00000000000E+00 -0.00000000000E+00 -0.45593999997E+02  0.45594000000E+02  0.51100000000E-03 0.  1.
    9900012    2    1    2    0    0 -0.59025167884E+01 -0.15873070039E+01  0.42968175774E+02  0.47787269853E+02  0.19999994569E+02 0.  0.
        -12    1    1    2    0    0  0.59025167884E+01  0.15873070039E+01 -0.42968175774E+02  0.43400730147E+02  0.00000000000E+00 0.  1.
         11    1    3    3    0    0 -0.54279675307E+01 -0.52246842906E+00  0.17075714415E+02  0.17925284595E+02  0.51100000000E-03 0. -1.
        -11    1    3    3    0    0 -0.13762941878E+01  0.33761300596E+01  0.71696929060E-01  0.36465847832E+01  0.51100000000E-03 0.  1.
         12    1    3    3    0    0  0.90174493007E+00 -0.44409686344E+01  0.25820764430E+02  0.26215400475E+02  0.00000000000E+00 0. -1.
</event>
<event>
 7    1  0.1899036E-009  0.4778727E+02  0.7816164E-02  0.1312668E+00
        -11   -1    0    0    0    0  0.00000000000E+00  0.00000000000E+00  0.45593999997E+02  0.45594000000E+02  0.51100000000E-03 0.  1.
         11   -1    0    0    0    0 -0.00000000000E+00 -0.00000000000E+00 -0.45593999997E+02  0.45594000000E+02  0.51100000000E-03 0. -1.
    9900012    2    1    2    0    0 -0.23923989879E+02 -0.31823343474E+02 -0.17278336493E+02  0.47787269666E+02  0.19999993715E+02 0.  0.
        -12    1    1    2    0    0  0.23923989879E+02  0.31823343474E+02  0.17278336493E+02  0.43400730334E+02  0.00000000000E+00 0.  1.
         11    1    3    3    0    0 -0.22659406317E+02 -0.34397593113E+02 -0.16113835940E+02  0.44230066872E+02  0.51100000000E-03 0. -1.
        -11    1    3    3    0    0  0.30110543183E+00  0.60989904678E+00 -0.74784962788E+00  0.10109009127E+01  0.51100000000E-03 0.  1.
         12    1    3    3    0    0 -0.15656889943E+01  0.19643505921E+01 -0.41665092484E+00  0.25463018809E+01  0.00000000000E+00 0. -1.
</event>
<event>
 7    1  0.1899036E-009  0.4778728E+02  0.7816164E-02  0.1312668E+00
        -11   -1    0    0    0    0  0.00000000000E+00  0.00000000000E+00  0.45593999997E+02  0.45594000000E+02  0.51100000000E-03 0.  1.
         11   -1    0    0    0    0 -0.00000000000E+00 -0.00000000000E+00 -0.45593999997E+02  0.45594000000E+02  0.51100000000E-03 0. -1.
    9900012    2    1    2    0    0  0.28850309483E+02 -0.32423408999E+02  0.67512260065E-01  0.47787281500E+02  0.20000047671E+02 0.  0.
        -12    1    1    2    0    0 -0.28850309483E+02  0.32423408999E+02 -0.67512260065E-01  0.43400718500E+02  0.00000000000E+00 0.  1.
         11    1    3    3    0    0  0.72639905336E+01 -0.34480381035E+01  0.13991220280E+01  0.81616216492E+01  0.51100000000E-03 0.  1.
        -11    1    3    3    0    0  0.16154200148E+01 -0.15308178257E+02 -0.76612672121E-01  0.15393367829E+02  0.51100000000E-03 0. -1.
         12    1    3    3    0    0  0.19970898935E+02 -0.13667192639E+02 -0.12549970958E+01  0.24232292021E+02  0.00000000000E+00 0. -1.
</event>
<event>
 7    1  0.1899036E-009  0.4778727E+02  0.7816164E-02  0.1312668E+00
        -11   -1    0    0    0    0  0.00000000000E+00  0.00000000000E+00  0.45593999997E+02  0.45594000000E+02  0.51100000000E-03 0.  1.
         11   -1    0    0    0    0 -0.00000000000E+00 -0.00000000000E+00 -0.45593999997E+02  0.45594000000E+02  0.51100000000E-03 0. -1.
    9900012    2    1    2    0    0  0.29079484944E+02  0.32128099206E+02 -0.24066791625E+01  0.47787270653E+02  0.19999998217E+02 0.  0.
        -12    1    1    2    0    0 -0.29079484944E+02 -0.32128099206E+02  0.24066791625E+01  0.43400729347E+02  0.00000000000E+00 0.  1.
         11    1    3    3    0    0  0.78646338948E+01  0.94476265648E+00 -0.67439606820E+00  0.79498335262E+01  0.51100000000E-03 0. -1.
        -11    1    3    3    0    0  0.10504517243E+02  0.53156285985E+01 -0.12141881811E+01  0.11835330292E+02  0.51100000000E-03 0.  1.
         12    1    3    3    0    0  0.10710333806E+02  0.25867707951E+02 -0.51809491325E+00  0.28002106835E+02  0.00000000000E+00 0. -1.
</event>
<event>
 7    1  0.1899036E-009  0.4778727E+02  0.7816164E-02  0.1312668E+00
        -11   -1    0    0    0    0  0.00000000000E+00  0.00000000000E+00  0.45593999997E+02  0.45594000000E+02  0.51100000000E-03 0. -1.
         11   -1    0    0    0    0 -0.00000000000E+00 -0.00000000000E+00 -0.45593999997E+02  0.45594000000E+02  0.51100000000E-03 0.  1.
    9900012    2    1    2    0    0  0.18867653330E+02 -0.39028607062E+02 -0.20983468766E+01  0.47787267622E+02  0.19999984394E+02 0.  0.
        -12    1    1    2    0    0 -0.18867653330E+02  0.39028607062E+02  0.20983468766E+01  0.43400732378E+02  0.00000000000E+00 0.  1.
         11    1    3    3    0    0  0.28389681225E+01 -0.31966622673E+01 -0.32881109879E+01  0.53935205369E+01  0.51100000000E-03 0. -1.
        -11    1    3    3    0    0  0.50193180814E+01 -0.14338427761E+02 -0.72229620350E+01  0.16821273599E+02  0.51100000000E-03 0.  1.
         12    1    3    3    0    0  0.11009367126E+02 -0.21493517034E+02  0.84127261463E+01  0.25572473486E+02  0.00000000000E+00 0. -1.
</event>
<event>
 7    1  0.1899036E-009  0.4778727E+02  0.7816164E-02  0.1312668E+00
        -11   -1    0    0    0    0  0.00000000000E+00  0.00000000000E+00  0.45593999997E+02  0.45594000000E+02  0.51100000000E-03 0. -1.
         11   -1    0    0    0    0 -0.00000000000E+00 -0.00000000000E+00 -0.45593999997E+02  0.45594000000E+02  0.51100000000E-03 0.  1.
    9900012    2    1    2    0    0 -0.38851046644E+02  0.16471728618E+02 -0.10144044329E+02  0.47787270694E+02  0.19999998400E+02 0.  0.
        -12    1    1    2    0    0  0.38851046644E+02 -0.16471728618E+02  0.10144044329E+02  0.43400729306E+02  0.00000000000E+00 0.  1.
         11    1    3    3    0    0 -0.26515001183E+02  0.17967529338E+02 -0.50909836177E+01  0.32431397021E+02  0.51100000000E-03 0. -1.
        -11    1    3    3    0    0  0.10152424001E+01  0.89046003172E-01 -0.86297262453E-01  0.10227872703E+01  0.51100000000E-03 0.  1.
        -12    1    3    3    0    0 -0.13351287861E+02 -0.15848467229E+01 -0.49667634488E+01  0.14333086403E+02  0.00000000000E+00 0.  1.
</event>
<event>
 7    1  0.1899036E-009  0.4778727E+02  0.7816164E-02  0.1312668E+00
        -11   -1    0    0    0    0  0.00000000000E+00  0.00000000000E+00  0.45593999997E+02  0.45594000000E+02  0.51100000000E-03 0. -1.
         11   -1    0    0    0    0 -0.00000000000E+00 -0.00000000000E+00 -0.45593999997E+02  0.45594000000E+02  0.51100000000E-03 0.  1.
    9900012    2    1    2    0    0 -0.35383975578E+02 -0.13309546576E+02  0.21317914941E+02  0.47787271259E+02  0.20000000980E+02 0.  0.
        -12    1    1    2    0    0  0.35383975578E+02  0.13309546576E+02 -0.21317914941E+02  0.43400728741E+02  0.00000000000E+00 0.  1.
         11    1    3    3    0    0 -0.15409438696E+01  0.10010619057E+01  0.56891034737E+01  0.59785057952E+01  0.51100000000E-03 0. -1.
        -11    1    3    3    0    0  0.81666404118E+00 -0.16685377846E+01  0.10917164470E+01  0.21547165838E+01  0.51100000000E-03 0.  1.
         12    1    3    3    0    0 -0.34659695750E+02 -0.12642070697E+02  0.14537095021E+02  0.39654048880E+02  0.00000000000E+00 0. -1.
</event>
<event>
 7    1  0.1899036E-009  0.4778727E+02  0.7816164E-02  0.1312668E+00
        -11   -1    0    0    0    0  0.00000000000E+00  0.00000000000E+00  0.45593999997E+02  0.45594000000E+02  0.51100000000E-03 0. -1.
         11   -1    0    0    0    0 -0.00000000000E+00 -0.00000000000E+00 -0.45593999997E+02  0.45594000000E+02  0.51100000000E-03 0.  1.
    9900012    2    1    2    0    0 -0.16955216884E+02  0.33517754511E+02  0.21741762374E+02  0.47787268691E+02  0.19999989269E+02 0.  0.
        -12    1    1    2    0    0  0.16955216884E+02 -0.33517754511E+02 -0.21741762374E+02  0.43400731309E+02  0.00000000000E+00 0.  1.
         11    1    3    3    0    0 -0.76998946580E+01  0.24524225836E+02  0.22505419181E+02  0.34164600442E+02  0.51100000000E-03 0. -1.
        -11    1    3    3    0    0 -0.47073189138E+01  0.17637951488E+01  0.17510457149E+00  0.50299589019E+01  0.51100000000E-03 0.  1.
         12    1    3    3    0    0 -0.45480033127E+01  0.72297335264E+01 -0.93876137869E+00  0.85927093470E+01  0.00000000000E+00 0. -1.
</event>
<event>
 7    1  0.1899036E-009  0.4778727E+02  0.7816164E-02  0.1312668E+00
        -11   -1    0    0    0    0  0.00000000000E+00  0.00000000000E+00  0.45593999997E+02  0.45594000000E+02  0.51100000000E-03 0.  1.
         11   -1    0    0    0    0 -0.00000000000E+00 -0.00000000000E+00 -0.45593999997E+02  0.45594000000E+02  0.51100000000E-03 0. -1.
    9900012    2    1    2    0    0  0.26114101599E+02 -0.16262632837E+02 -0.30613779627E+02  0.47787273829E+02  0.20000012698E+02 0.  0.
        -12    1    1    2    0    0 -0.26114101599E+02  0.16262632837E+02  0.30613779627E+02  0.43400726171E+02  0.00000000000E+00 0.  1.
         11    1    3    3    0    0  0.42284190842E+00  0.38835117173E+01 -0.35875477417E+01  0.53038625169E+01  0.51100000000E-03 0. -1.
        -11    1    3    3    0    0  0.18132911145E+02 -0.15182773935E+02 -0.20897045132E+02  0.31559556183E+02  0.51100000000E-03 0.  1.
         12    1    3    3    0    0  0.75583485451E+01 -0.49633706197E+01 -0.61291867531E+01  0.10923855130E+02  0.00000000000E+00 0. -1.
</event>
<event>
 7    1  0.1899036E-009  0.4778730E+02  0.7816164E-02  0.1312668E+00
        -11   -1    0    0    0    0  0.00000000000E+00  0.00000000000E+00  0.45593999997E+02  0.45594000000E+02  0.51100000000E-03 0.  1.
         11   -1    0    0    0    0 -0.00000000000E+00 -0.00000000000E+00 -0.45593999997E+02  0.45594000000E+02  0.51100000000E-03 0. -1.
    9900012    2    1    2    0    0  0.31930940030E+02 -0.29167094047E+02 -0.36492190772E+01  0.47787296017E+02  0.20000113858E+02 0.  0.
        -12    1    1    2    0    0 -0.31930940030E+02  0.29167094047E+02  0.36492190772E+01  0.43400703983E+02  0.00000000000E+00 0.  1.
         11    1    3    3    0    0  0.84448840940E+01 -0.16191633145E+02 -0.40853974959E+01  0.18712977428E+02  0.51100000000E-03 0. -1.
        -11    1    3    3    0    0  0.52799938654E+01 -0.39641556980E+01  0.49655799770E+01  0.82613467658E+01  0.51100000000E-03 0.  1.
        -12    1    3    3    0    0  0.18206062071E+02 -0.90113052038E+01 -0.45294015583E+01  0.20812971822E+02  0.00000000000E+00 0.  1.
</event>
<event>
 7    1  0.1899036E-009  0.4778727E+02  0.7816164E-02  0.1312668E+00
        -11   -1    0    0    0    0  0.00000000000E+00  0.00000000000E+00  0.45593999997E+02  0.45594000000E+02  0.51100000000E-03 0. -1.
         11   -1    0    0    0    0 -0.00000000000E+00 -0.00000000000E+00 -0.45593999997E+02  0.45594000000E+02  0.51100000000E-03 0.  1.
    9900012    2    1    2    0    0 -0.41982772636E+02  0.28314143331E+00  0.10999562166E+02  0.47787265730E+02  0.19999975770E+02 0.  0.
        -12    1    1    2    0    0  0.41982772636E+02 -0.28314143331E+00 -0.10999562166E+02  0.43400734270E+02  0.00000000000E+00 0.  1.
         11    1    3    3    0    0 -0.83244675313E+01 -0.62577181969E+01  0.67157928795E+01  0.12391838886E+02  0.51100000000E-03 0. -1.
        -11    1    3    3    0    0 -0.15478677212E+01  0.48045925936E+00  0.20896605188E+01  0.26445069346E+01  0.51100000000E-03 0.  1.
        -12    1    3    3    0    0 -0.32110437384E+02  0.60604003709E+01  0.21941087681E+01  0.32750919910E+02  0.00000000000E+00 0.  1.
</event>
<event>
 7    1  0.1899036E-009  0.4778727E+02  0.7816164E-02  0.1312668E+00
        -11   -1    0    0    0    0  0.00000000000E+00  0.00000000000E+00  0.45593999997E+02  0.45594000000E+02  0.51100000000E-03 0.  1.
         11   -1    0    0    0    0 -0.00000000000E+00 -0.00000000000E+00 -0.45593999997E+02  0.45594000000E+02  0.51100000000E-03 0. -1.
    9900012    2    1    2    0    0  0.20152764677E+02  0.30871924988E+02 -0.22900077200E+02  0.47787271753E+02  0.20000003231E+02 0.  0.
        -12    1    1    2    0    0 -0.20152764677E+02 -0.30871924988E+02  0.22900077200E+02  0.43400728247E+02  0.00000000000E+00 0.  1.
         11    1    3    3    0    0  0.29869960846E+01  0.16086043437E+01 -0.36340097024E+01  0.49714967889E+01  0.51100000000E-03 0. -1.
        -11    1    3    3    0    0  0.10205604515E+02  0.29382458608E+02 -0.14121753271E+02  0.34160022732E+02  0.51100000000E-03 0.  1.
        -12    1    3    3    0    0  0.69601640774E+01 -0.11913796362E+00 -0.51443142270E+01  0.86557522321E+01  0.00000000000E+00 0.  1.
</event>
<event>
 7    1  0.1899036E-009  0.4778727E+02  0.7816164E-02  0.1312668E+00
        -11   -1    0    0    0    0  0.00000000000E+00  0.00000000000E+00  0.45593999997E+02  0.45594000000E+02  0.51100000000E-03 0.  1.
         11   -1    0    0    0    0 -0.00000000000E+00 -0.00000000000E+00 -0.45593999997E+02  0.45594000000E+02  0.51100000000E-03 0. -1.
    9900012    2    1    2    0    0 -0.24746389638E+02 -0.33762809175E+02 -0.11459155687E+02  0.47787270369E+02  0.19999996919E+02 0.  0.
        -12    1    1    2    0    0  0.24746389638E+02  0.33762809175E+02  0.11459155687E+02  0.43400729631E+02  0.00000000000E+00 0.  1.
         11    1    3    3    0    0 -0.97976066515E+01 -0.12740484670E+02 -0.16948016445E+01  0.16161231345E+02  0.51100000000E-03 0. -1.
        -11    1    3    3    0    0  0.25062535091E+01 -0.76070640375E+01 -0.17526385060E+01  0.81988091767E+01  0.51100000000E-03 0.  1.
         12    1    3    3    0    0 -0.17455036495E+02 -0.13415260467E+02 -0.80117155361E+01  0.23427229847E+02  0.00000000000E+00 0. -1.
</event>
<event>
 7    1  0.1899036E-009  0.4778727E+02  0.7816164E-02  0.1312668E+00
        -11   -1    0    0    0    0  0.00000000000E+00  0.00000000000E+00  0.45593999997E+02  0.45594000000E+02  0.51100000000E-03 0. -1.
         11   -1    0    0    0    0 -0.00000000000E+00 -0.00000000000E+00 -0.45593999997E+02  0.45594000000E+02  0.51100000000E-03 0.  1.
    9900012    2    1    2    0    0  0.16431372479E+02 -0.23670847639E+02  0.32454957772E+02  0.47787270588E+02  0.19999997920E+02 0.  0.
        -12    1    1    2    0    0 -0.16431372479E+02  0.23670847639E+02 -0.32454957772E+02  0.43400729412E+02  0.00000000000E+00 0.  1.
         11    1    3    3    0    0  0.71197311078E+01 -0.54457990643E+01  0.65642738762E+01  0.11110220082E+02  0.51100000000E-03 0. -1.
        -11    1    3    3    0    0 -0.12289549075E+01 -0.80871309361E+01  0.18635245200E+02  0.20351520357E+02  0.51100000000E-03 0.  1.
        -12    1    3    3    0    0  0.10540596279E+02 -0.10137917638E+02  0.72554386961E+01  0.16325530148E+02  0.00000000000E+00 0.  1.
</event>
<event>
 7    1  0.1899036E-009  0.4778729E+02  0.7816164E-02  0.1312668E+00
        -11   -1    0    0    0    0  0.00000000000E+00  0.00000000000E+00  0.45593999997E+02  0.45594000000E+02  0.51100000000E-03 0.  1.
         11   -1    0    0    0    0 -0.00000000000E+00 -0.00000000000E+00 -0.45593999997E+02  0.45594000000E+02  0.51100000000E-03 0. -1.
    9900012    2    1    2    0    0  0.15956433551E+02 -0.34895481759E+02 -0.20281010368E+02  0.47787288020E+02  0.20000077398E+02 0.  0.
        -12    1    1    2    0    0 -0.15956433551E+02  0.34895481759E+02  0.20281010368E+02  0.43400711980E+02  0.00000000000E+00 0.  1.
         11    1    3    3    0    0  0.67501695147E+01 -0.99268888341E+01 -0.32363353392E+01  0.12433092016E+02  0.51100000000E-03 0. -1.
        -11    1    3    3    0    0  0.32011919705E+01 -0.14782552460E+02 -0.17976542080E+02  0.23493138417E+02  0.51100000000E-03 0.  1.
        -12    1    3    3    0    0  0.60050720657E+01 -0.10186040465E+02  0.93186705152E+00  0.11861057587E+02  0.00000000000E+00 0.  1.
</event>
<event>
 7    1  0.1899036E-009  0.4778727E+02  0.7816164E-02  0.1312668E+00
        -11   -1    0    0    0    0  0.00000000000E+00  0.00000000000E+00  0.45593999997E+02  0.45594000000E+02  0.51100000000E-03 0. -1.
         11   -1    0    0    0    0 -0.00000000000E+00 -0.00000000000E+00 -0.45593999997E+02  0.45594000000E+02  0.51100000000E-03 0.  1.
    9900012    2    1    2    0    0 -0.67049916158E+01 -0.17892163229E+02  0.38968410965E+02  0.47787268776E+02  0.19999989660E+02 0.  0.
        -12    1    1    2    0    0  0.67049916158E+01  0.17892163229E+02 -0.38968410965E+02  0.43400731224E+02  0.00000000000E+00 0.  1.
         11    1    3    3    0    0  0.29277431314E+01 -0.30234296133E+01  0.51096605273E+01  0.66197762376E+01  0.51100000000E-03 0. -1.
        -11    1    3    3    0    0 -0.81424768286E+01 -0.34402872362E+01  0.25334959571E+02  0.26832735267E+02  0.51100000000E-03 0.  1.
        -12    1    3    3    0    0 -0.14902579186E+01 -0.11428446379E+02  0.85237908670E+01  0.14334757272E+02  0.00000000000E+00 0.  1.
</event>
<event>
 7    1  0.1899036E-009  0.4778728E+02  0.7816164E-02  0.1312668E+00
        -11   -1    0    0    0    0  0.00000000000E+00  0.00000000000E+00  0.45593999997E+02  0.45594000000E+02  0.51100000000E-03 0. -1.
         11   -1    0    0    0    0 -0.00000000000E+00 -0.00000000000E+00 -0.45593999997E+02  0.45594000000E+02  0.51100000000E-03 0.  1.
    9900012    2    1    2    0    0 -0.35085263907E+02  0.23671661425E+02 -0.96072458015E+01  0.47787280306E+02  0.20000042229E+02 0.  0.
        -12    1    1    2    0    0  0.35085263907E+02 -0.23671661425E+02  0.96072458015E+01  0.43400719694E+02  0.00000000000E+00 0.  1.
         11    1    3    3    0    0 -0.15102690925E+02  0.21674388868E+02 -0.40305602720E+01  0.26722945615E+02  0.51100000000E-03 0. -1.
        -11    1    3    3    0    0 -0.55389462414E+01  0.66870845551E+00 -0.29934498535E+01  0.63314957750E+01  0.51100000000E-03 0.  1.
         12    1    3    3    0    0 -0.14443626740E+02  0.13285641020E+01 -0.25832356760E+01  0.14732838916E+02  0.00000000000E+00 0. -1.
</event>
<event>
 7    1  0.1899036E-009  0.4778727E+02  0.7816164E-02  0.1312668E+00
        -11   -1    0    0    0    0  0.00000000000E+00  0.00000000000E+00  0.45593999997E+02  0.45594000000E+02  0.51100000000E-03 0.  1.
         11   -1    0    0    0    0 -0.00000000000E+00 -0.00000000000E+00 -0.45593999997E+02  0.45594000000E+02  0.51100000000E-03 0. -1.
    9900012    2    1    2    0    0 -0.24672010401E+02 -0.11951215448E+02 -0.33646449540E+02  0.47787271728E+02  0.20000003116E+02 0.  0.
        -12    1    1    2    0    0  0.24672010401E+02  0.11951215448E+02  0.33646449540E+02  0.43400728272E+02  0.00000000000E+00 0.  1.
         11    1    3    3    0    0 -0.84366509665E+01 -0.33199397747E+01 -0.20374511004E+02  0.22300667670E+02  0.51100000000E-03 0. -1.
        -11    1    3    3    0    0 -0.10631426409E+02  0.62055847320E+00 -0.45047354997E+01  0.11563086201E+02  0.51100000000E-03 0.  1.
        -12    1    3    3    0    0 -0.56039330260E+01 -0.92518341461E+01 -0.87672030360E+01  0.13923517857E+02  0.00000000000E+00 0.  1.
</event>
<event>
 7    1  0.1935610E-009  0.4778727E+02  0.7816164E-02  0.1312668E+00
        -11   -1    0    0    0    0  0.00000000000E+00  0.00000000000E+00  0.45593999997E+02  0.45594000000E+02  0.51100000000E-03 0. -1.
         11   -1    0    0    0    0 -0.00000000000E+00 -0.00000000000E+00 -0.45593999997E+02  0.45594000000E+02  0.51100000000E-03 0.  1.
    9900012    2    1    2    0    0  0.26351797313E+02 -0.34349014295E+02  0.30579585657E+01  0.47787272872E+02  0.20000008331E+02 0.  0.
        -12    1    1    2    0    0 -0.26351797313E+02  0.34349014295E+02 -0.30579585657E+01  0.43400727128E+02  0.00000000000E+00 0.  1.
         11    1    3    3    0    0  0.12109896456E+02 -0.10983316713E+02 -0.87249648303E+00  0.16372052057E+02  0.51100000000E-03 0. -1.
        -11    1    3    3    0    0 -0.91631046272E+00  0.94462524680E+00  0.23857348318E+01  0.27246417507E+01  0.51100000000E-03 0.  1.
        -12    1    3    3    0    0  0.15158211320E+02 -0.24310322829E+02  0.15447202169E+01  0.28690579064E+02  0.00000000000E+00 0.  1.
</event>
<event>
 7    1  0.1899036E-009  0.4778726E+02  0.7816164E-02  0.1312668E+00
        -11   -1    0    0    0    0  0.00000000000E+00  0.00000000000E+00  0.45593999997E+02  0.45594000000E+02  0.51100000000E-03 0. -1.
         11   -1    0    0    0    0 -0.00000000000E+00 -0.00000000000E+00 -0.45593999997E+02  0.45594000000E+02  0.51100000000E-03 0.  1.
    9900012    2    1    2    0    0  0.41290627436E+02 -0.52840897655E+01 -0.12279526867E+02  0.47787259237E+02  0.19999946166E+02 0.  0.
        -12    1    1    2    0    0 -0.41290627436E+02  0.52840897655E+01  0.12279526867E+02  0.43400740763E+02  0.00000000000E+00 0.  1.
         11    1    3    3    0    0  0.16090333498E+02 -0.54734184879E+01 -0.15113728067E+01  0.17062865822E+02  0.51100000000E-03 0. -1.
        -11    1    3    3    0    0  0.21307288752E+02  0.56220711051E+01 -0.74445413471E+01  0.23260039416E+02  0.51100000000E-03 0.  1.
         12    1    3    3    0    0  0.38930051853E+01 -0.54327423827E+01 -0.33236127131E+01  0.74643539999E+01  0.00000000000E+00 0. -1.
</event>
<event>
 7    1  0.1899036E-009  0.4778726E+02  0.7816164E-02  0.1312668E+00
        -11   -1    0    0    0    0  0.00000000000E+00  0.00000000000E+00  0.45593999997E+02  0.45594000000E+02  0.51100000000E-03 0. -1.
         11   -1    0    0    0    0 -0.00000000000E+00 -0.00000000000E+00 -0.45593999997E+02  0.45594000000E+02  0.51100000000E-03 0.  1.
    9900012    2    1    2    0    0  0.42774607134E+02 -0.24316514815E+01  0.69313781542E+01  0.47787263284E+02  0.19999964617E+02 0.  0.
        -12    1    1    2    0    0 -0.42774607134E+02  0.24316514815E+01 -0.69313781542E+01  0.43400736716E+02  0.00000000000E+00 0.  1.
         11    1    3    3    0    0  0.16297543455E+02  0.80041875761E+01  0.59348721928E+01  0.19102346705E+02  0.51100000000E-03 0. -1.
        -11    1    3    3    0    0  0.46870555700E+01 -0.25698247490E+01 -0.98004172836E+00  0.54344246436E+01  0.51100000000E-03 0.  1.
         12    1    3    3    0    0  0.21790008108E+02 -0.78660143087E+01  0.19765476897E+01  0.23250491935E+02  0.00000000000E+00 0. -1.
</event>
<event>
 7    1  0.1899036E-009  0.4778727E+02  0.7816164E-02  0.1312668E+00
        -11   -1    0    0    0    0  0.00000000000E+00  0.00000000000E+00  0.45593999997E+02  0.45594000000E+02  0.51100000000E-03 0.  1.
         11   -1    0    0    0    0 -0.00000000000E+00 -0.00000000000E+00 -0.45593999997E+02  0.45594000000E+02  0.51100000000E-03 0. -1.
    9900012    2    1    2    0    0 -0.42153742762E+02  0.80556503189E+01  0.64646389056E+01  0.47787273196E+02  0.20000009811E+02 0.  0.
        -12    1    1    2    0    0  0.42153742762E+02 -0.80556503189E+01 -0.64646389056E+01  0.43400726804E+02  0.00000000000E+00 0.  1.
         11    1    3    3    0    0 -0.45849056277E+01  0.79846826770E+00 -0.44211173324E+01  0.64191268813E+01  0.51100000000E-03 0. -1.
        -11    1    3    3    0    0 -0.90697340623E+01  0.61798001798E+01  0.57497830548E+01  0.12389915725E+02  0.51100000000E-03 0.  1.
        -12    1    3    3    0    0 -0.28499103072E+02  0.10773818714E+01  0.51359731832E+01  0.28978230590E+02  0.00000000000E+00 0.  1.
</event>
<event>
 7    1  0.1899036E-009  0.4778728E+02  0.7816164E-02  0.1312668E+00
        -11   -1    0    0    0    0  0.00000000000E+00  0.00000000000E+00  0.45593999997E+02  0.45594000000E+02  0.51100000000E-03 0.  1.
         11   -1    0    0    0    0 -0.00000000000E+00 -0.00000000000E+00 -0.45593999997E+02  0.45594000000E+02  0.51100000000E-03 0. -1.
    9900012    2    1    2    0    0 -0.45822860745E+00  0.19934427290E+02 -0.38549077644E+02  0.47787277056E+02  0.20000027408E+02 0.  0.
        -12    1    1    2    0    0  0.45822860745E+00 -0.19934427290E+02  0.38549077644E+02  0.43400722944E+02  0.00000000000E+00 0.  1.
         11    1    3    3    0    0  0.60512431090E+01  0.39587069336E+01 -0.66496463846E+01  0.98237824208E+01  0.51100000000E-03 0. -1.
        -11    1    3    3    0    0  0.24124807877E+01  0.72526891393E+01 -0.84013734219E+01  0.11358020908E+02  0.51100000000E-03 0.  1.
        -12    1    3    3    0    0 -0.89219525041E+01  0.87230312175E+01 -0.23498057838E+02  0.26605473727E+02  0.00000000000E+00 0.  1.
</event>
<event>
 7    1  0.1899036E-009  0.4778723E+02  0.7816164E-02  0.1312668E+00
        -11   -1    0    0    0    0  0.00000000000E+00  0.00000000000E+00  0.45593999997E+02  0.45594000000E+02  0.51100000000E-03 0. -1.
         11   -1    0    0    0    0 -0.00000000000E+00 -0.00000000000E+00 -0.45593999997E+02  0.45594000000E+02  0.51100000000E-03 0.  1.
    9900012    2    1    2    0    0 -0.36879987885E+02 -0.19812995193E+02  0.11442820206E+02  0.47787234809E+02  0.19999834787E+02 0.  0.
        -12    1    1    2    0    0  0.36879987885E+02  0.19812995193E+02 -0.11442820206E+02  0.43400765191E+02  0.00000000000E+00 0.  1.
         11    1    3    3    0    0 -0.17055261923E+02 -0.97827458715E+01 -0.38089949608E+01  0.20027294348E+02  0.51100000000E-03 0. -1.
        -11    1    3    3    0    0 -0.25126091763E+01  0.58524210468E+00  0.33268054474E+01  0.42099106808E+01  0.51100000000E-03 0.  1.
        -12    1    3    3    0    0 -0.17312116786E+02 -0.10615491426E+02  0.11925009720E+02  0.23550029780E+02  0.00000000000E+00 0.  1.
</event>
<event>
 7    1  0.2228213E-009  0.4778728E+02  0.7816164E-02  0.1312668E+00
        -11   -1    0    0    0    0  0.00000000000E+00  0.00000000000E+00  0.45593999997E+02  0.45594000000E+02  0.51100000000E-03 0. -1.
         11   -1    0    0    0    0 -0.00000000000E+00 -0.00000000000E+00 -0.45593999997E+02  0.45594000000E+02  0.51100000000E-03 0.  1.
    9900012    2    1    2    0    0  0.19523949555E+02  0.10190081796E+02  0.37397858317E+02  0.47787283647E+02  0.20000057462E+02 0.  0.
        -12    1    1    2    0    0 -0.19523949555E+02 -0.10190081796E+02 -0.37397858317E+02  0.43400716353E+02  0.00000000000E+00 0.  1.
         11    1    3    3    0    0  0.13044504637E+02  0.52323285326E+00  0.16982594008E+02  0.21420582937E+02  0.51100000000E-03 0. -1.
        -11    1    3    3    0    0 -0.19576010692E+01 -0.73580428445E+00  0.74029399274E+01  0.76926672696E+01  0.51100000000E-03 0.  1.
        -12    1    3    3    0    0  0.84370459873E+01  0.10402653227E+02  0.13012324381E+02  0.18674033441E+02  0.00000000000E+00 0.  1.
</event>
<event>
 7    1  0.2739882E-009  0.4778727E+02  0.7816164E-02  0.1312668E+00
        -11   -1    0    0    0    0  0.00000000000E+00  0.00000000000E+00  0.45593999997E+02  0.45594000000E+02  0.51100000000E-03 0. -1.
         11   -1    0    0    0    0 -0.00000000000E+00 -0.00000000000E+00 -0.45593999997E+02  0.45594000000E+02  0.51100000000E-03 0.  1.
    9900012    2    1    2    0    0  0.13912107968E+02 -0.90644627448E-01  0.41110439461E+02  0.47787271928E+02  0.20000004026E+02 0.  0.
        -12    1    1    2    0    0 -0.13912107968E+02  0.90644627448E-01 -0.41110439461E+02  0.43400728072E+02  0.00000000000E+00 0.  1.
         11    1    3    3    0    0  0.52607797794E+01  0.19394015770E+01  0.12881716358E+02  0.14049046194E+02  0.51100000000E-03 0. -1.
        -11    1    3    3    0    0 -0.33239669054E+01 -0.34410615986E+00  0.36292648257E+00  0.33613808071E+01  0.51100000000E-03 0.  1.
        -12    1    3    3    0    0  0.11975295094E+02 -0.16859400446E+01  0.27865796620E+02  0.30376844927E+02  0.00000000000E+00 0.  1.
</event>
<event>
 7    1  0.1899036E-009  0.4778727E+02  0.7816164E-02  0.1312668E+00
        -11   -1    0    0    0    0  0.00000000000E+00  0.00000000000E+00  0.45593999997E+02  0.45594000000E+02  0.51100000000E-03 0. -1.
         11   -1    0    0    0    0 -0.00000000000E+00 -0.00000000000E+00 -0.45593999997E+02  0.45594000000E+02  0.51100000000E-03 0.  1.
    9900012    2    1    2    0    0  0.25968665508E+01 -0.33753289828E+02  0.27158703127E+02  0.47787269066E+02  0.19999990978E+02 0.  0.
        -12    1    1    2    0    0 -0.25968665508E+01  0.33753289828E+02 -0.27158703127E+02  0.43400730934E+02  0.00000000000E+00 0.  1.
         11    1    3    3    0    0 -0.38908156492E+00 -0.18023116862E+02  0.21617531569E+02  0.28147855998E+02  0.51100000000E-03 0. -1.
        -11    1    3    3    0    0  0.11902910690E+01  0.12357754373E+01  0.99483635183E+00  0.19833389495E+01  0.51100000000E-03 0.  1.
         12    1    3    3    0    0  0.17956570467E+01 -0.16965948404E+02  0.45463352058E+01  0.17656074118E+02  0.00000000000E+00 0. -1.
</event>
<event>
 7    1  0.1899036E-009  0.4778727E+02  0.7816164E-02  0.1312668E+00
        -11   -1    0    0    0    0  0.00000000000E+00  0.00000000000E+00  0.45593999997E+02  0.45594000000E+02  0.51100000000E-03 0.  1.
         11   -1    0    0    0    0 -0.00000000000E+00 -0.00000000000E+00 -0.45593999997E+02  0.45594000000E+02  0.51100000000E-03 0. -1.
    9900012    2    1    2    0    0  0.35317450433E+02  0.23796034237E+02 -0.83695709605E+01  0.47787271106E+02  0.20000000279E+02 0.  0.
        -12    1    1    2    0    0 -0.35317450433E+02 -0.23796034237E+02  0.83695709605E+01  0.43400728894E+02  0.00000000000E+00 0.  1.
         11    1    3    3    0    0  0.10322119604E+02  0.44743189037E+01  0.45876283503E+01  0.12149568589E+02  0.51100000000E-03 0. -1.
        -11    1    3    3    0    0  0.58243427509E+01 -0.20426724601E+00 -0.20026789873E+01  0.61624197337E+01  0.51100000000E-03 0.  1.
         12    1    3    3    0    0  0.19170988078E+02  0.19525982580E+02 -0.10954520323E+02  0.29475282783E+02  0.00000000000E+00 0. -1.
</event>
<event>
 7    1  0.1899036E-009  0.4778727E+02  0.7816164E-02  0.1312668E+00
        -11   -1    0    0    0    0  0.00000000000E+00  0.00000000000E+00  0.45593999997E+02  0.45594000000E+02  0.51100000000E-03 0. -1.
         11   -1    0    0    0    0 -0.00000000000E+00 -0.00000000000E+00 -0.45593999997E+02  0.45594000000E+02  0.51100000000E-03 0.  1.
    9900012    2    1    2    0    0 -0.37656520287E+02 -0.21025325514E+02 -0.48523550798E+01  0.47787272092E+02  0.20000004778E+02 0.  0.
        -12    1    1    2    0    0  0.37656520287E+02  0.21025325514E+02  0.48523550798E+01  0.43400727908E+02  0.00000000000E+00 0.  1.
         11    1    3    3    0    0 -0.19110552659E+02 -0.11948303960E+02  0.27583798320E+01  0.22706471545E+02  0.51100000000E-03 0. -1.
        -11    1    3    3    0    0 -0.16973585332E+01 -0.63305095905E+01 -0.38473364040E+01  0.75998931132E+01  0.51100000000E-03 0.  1.
         12    1    3    3    0    0 -0.16848609095E+02 -0.27465119633E+01 -0.37633985078E+01  0.17480907434E+02  0.00000000000E+00 0. -1.
</event>
<event>
 7    1  0.1899036E-009  0.4778727E+02  0.7816164E-02  0.1312668E+00
        -11   -1    0    0    0    0  0.00000000000E+00  0.00000000000E+00  0.45593999997E+02  0.45594000000E+02  0.51100000000E-03 0. -1.
         11   -1    0    0    0    0 -0.00000000000E+00 -0.00000000000E+00 -0.45593999997E+02  0.45594000000E+02  0.51100000000E-03 0.  1.
    9900012    2    1    2    0    0  0.15193085117E+02  0.40041968595E+02 -0.70309502236E+01  0.47787270221E+02  0.19999996245E+02 0.  0.
        -12    1    1    2    0    0 -0.15193085117E+02 -0.40041968595E+02  0.70309502236E+01  0.43400729779E+02  0.00000000000E+00 0.  1.
         11    1    3    3    0    0  0.50736851676E+01  0.20072684878E+01  0.41541424977E+01  0.68577188710E+01  0.51100000000E-03 0.  1.
        -11    1    3    3    0    0  0.52597801985E+01  0.20942584065E+02 -0.65725900892E+01  0.22571133242E+02  0.51100000000E-03 0. -1.
        -12    1    3    3    0    0  0.48596197509E+01  0.17092116042E+02 -0.46125026322E+01  0.18358418108E+02  0.00000000000E+00 0.  1.
</event>
<event>
 7    1  0.1899036E-009  0.4778727E+02  0.7816164E-02  0.1312668E+00
        -11   -1    0    0    0    0  0.00000000000E+00  0.00000000000E+00  0.45593999997E+02  0.45594000000E+02  0.51100000000E-03 0. -1.
         11   -1    0    0    0    0 -0.00000000000E+00 -0.00000000000E+00 -0.45593999997E+02  0.45594000000E+02  0.51100000000E-03 0.  1.
    9900012    2    1    2    0    0 -0.33789032559E+02 -0.27200245746E+02 -0.14390948166E+01  0.47787273234E+02  0.20000009984E+02 0.  0.
        -12    1    1    2    0    0  0.33789032559E+02  0.27200245746E+02  0.14390948166E+01  0.43400726766E+02  0.00000000000E+00 0.  1.
         11    1    3    3    0    0 -0.31572640368E+01 -0.70623972624E+01  0.42585555744E+01  0.88306889386E+01  0.51100000000E-03 0. -1.
        -11    1    3    3    0    0 -0.71211268788E+01 -0.10713315763E+02  0.52256416492E+00  0.12874729366E+02  0.51100000000E-03 0.  1.
         12    1    3    3    0    0 -0.23510641643E+02 -0.94245327207E+01 -0.62202145559E+01  0.26081854930E+02  0.00000000000E+00 0. -1.
</event>
<event>
 7    1  0.1899036E-009  0.4778727E+02  0.7816164E-02  0.1312668E+00
        -11   -1    0    0    0    0  0.00000000000E+00  0.00000000000E+00  0.45593999997E+02  0.45594000000E+02  0.51100000000E-03 0. -1.
         11   -1    0    0    0    0 -0.00000000000E+00 -0.00000000000E+00 -0.45593999997E+02  0.45594000000E+02  0.51100000000E-03 0.  1.
    9900012    2    1    2    0    0 -0.43109863946E+02 -0.35937750323E+01  0.34996579533E+01  0.47787271962E+02  0.20000004184E+02 0.  0.
        -12    1    1    2    0    0  0.43109863946E+02  0.35937750323E+01 -0.34996579533E+01  0.43400728038E+02  0.00000000000E+00 0.  1.
         11    1    3    3    0    0 -0.47612640579E+01 -0.20842651024E+01  0.31702880122E+01  0.60880639605E+01  0.51100000000E-03 0. -1.
        -11    1    3    3    0    0 -0.20082527161E+02  0.21823501930E+01 -0.74149987790E+01  0.21518660662E+02  0.51100000000E-03 0.  1.
        -12    1    3    3    0    0 -0.18266072727E+02 -0.36918601230E+01  0.77443687201E+01  0.20180547339E+02  0.00000000000E+00 0.  1.
</event>
<event>
 7    1  0.1899036E-009  0.4778727E+02  0.7816164E-02  0.1312668E+00
        -11   -1    0    0    0    0  0.00000000000E+00  0.00000000000E+00  0.45593999997E+02  0.45594000000E+02  0.51100000000E-03 0. -1.
         11   -1    0    0    0    0 -0.00000000000E+00 -0.00000000000E+00 -0.45593999997E+02  0.45594000000E+02  0.51100000000E-03 0.  1.
    9900012    2    1    2    0    0  0.57512025703E+01 -0.81299577355E+00  0.43010300690E+02  0.47787271221E+02  0.20000000805E+02 0.  0.
        -12    1    1    2    0    0 -0.57512025703E+01  0.81299577355E+00 -0.43010300690E+02  0.43400728779E+02  0.00000000000E+00 0.  1.
         11    1    3    3    0    0  0.83611671561E-01  0.85986653732E+00  0.23742463031E+00  0.89595317390E+00  0.51100000000E-03 0. -1.
        -11    1    3    3    0    0  0.52965723842E+00  0.70121739172E+01  0.78471430476E+01  0.10537019223E+02  0.51100000000E-03 0.  1.
         12    1    3    3    0    0  0.51379336603E+01 -0.86850362280E+01  0.34925733012E+02  0.36354298824E+02  0.00000000000E+00 0. -1.
</event>
<event>
 7    1  0.1899036E-009  0.4778727E+02  0.7816164E-02  0.1312668E+00
        -11   -1    0    0    0    0  0.00000000000E+00  0.00000000000E+00  0.45593999997E+02  0.45594000000E+02  0.51100000000E-03 0.  1.
         11   -1    0    0    0    0 -0.00000000000E+00 -0.00000000000E+00 -0.45593999997E+02  0.45594000000E+02  0.51100000000E-03 0. -1.
    9900012    2    1    2    0    0  0.15203227610E+02 -0.14035109066E+02 -0.38151029518E+02  0.47787268791E+02  0.19999989724E+02 0.  0.
        -12    1    1    2    0    0 -0.15203227610E+02  0.14035109066E+02  0.38151029518E+02  0.43400731209E+02  0.00000000000E+00 0.  1.
         11    1    3    3    0    0  0.10400749076E+02 -0.19831119547E+01 -0.14138282522E+02  0.17663503257E+02  0.51100000000E-03 0. -1.
        -11    1    3    3    0    0  0.24900789515E+00 -0.20223944910E+01  0.13691135153E+01  0.24549045782E+01  0.51100000000E-03 0.  1.
         12    1    3    3    0    0  0.45534706386E+01 -0.10029602620E+02 -0.25381860511E+02  0.27668860956E+02  0.00000000000E+00 0. -1.
</event>
<event>
 7    1  0.1899036E-009  0.4778724E+02  0.7816164E-02  0.1312668E+00
        -11   -1    0    0    0    0  0.00000000000E+00  0.00000000000E+00  0.45593999997E+02  0.45594000000E+02  0.51100000000E-03 0. -1.
         11   -1    0    0    0    0 -0.00000000000E+00 -0.00000000000E+00 -0.45593999997E+02  0.45594000000E+02  0.51100000000E-03 0.  1.
    9900012    2    1    2    0    0 -0.19600757483E+02  0.78595921618E+01  0.37916528404E+02  0.47787239533E+02  0.19999856328E+02 0.  0.
        -12    1    1    2    0    0  0.19600757483E+02 -0.78595921618E+01 -0.37916528404E+02  0.43400760467E+02  0.00000000000E+00 0.  1.
         11    1    3    3    0    0 -0.55741752348E+01 -0.39861548875E+01  0.11236322766E+02  0.13161147742E+02  0.51100000000E-03 0. -1.
        -11    1    3    3    0    0 -0.16185329742E+01  0.56134458761E+01  0.16224899067E+02  0.17244644780E+02  0.51100000000E-03 0.  1.
        -12    1    3    3    0    0 -0.12408049274E+02  0.62323011733E+01  0.10455306571E+02  0.17381447012E+02  0.00000000000E+00 0.  1.
</event>
<event>
 7    1  0.1899036E-009  0.4778727E+02  0.7816164E-02  0.1312668E+00
        -11   -1    0    0    0    0  0.00000000000E+00  0.00000000000E+00  0.45593999997E+02  0.45594000000E+02  0.51100000000E-03 0.  1.
         11   -1    0    0    0    0 -0.00000000000E+00 -0.00000000000E+00 -0.45593999997E+02  0.45594000000E+02  0.51100000000E-03 0. -1.
    9900012    2    1    2    0    0 -0.23965549248E+02  0.31394477199E+02 -0.17990621552E+02  0.47787271744E+02  0.20000003188E+02 0.  0.
        -12    1    1    2    0    0  0.23965549248E+02 -0.31394477199E+02  0.17990621552E+02  0.43400728256E+02  0.00000000000E+00 0.  1.
         11    1    3    3    0    0 -0.14114940386E+02  0.16547706195E+02 -0.10293763447E+02  0.24062827943E+02  0.51100000000E-03 0. -1.
        -11    1    3    3    0    0 -0.73405630543E+01  0.13555927348E+02 -0.11324363886E+02  0.19128205611E+02  0.51100000000E-03 0.  1.
        -12    1    3    3    0    0 -0.25100458081E+01  0.12908436557E+01  0.36275057819E+01  0.45962381901E+01  0.00000000000E+00 0.  1.
</event>
<event>
 7    1  0.1899036E-009  0.4778727E+02  0.7816164E-02  0.1312668E+00
        -11   -1    0    0    0    0  0.00000000000E+00  0.00000000000E+00  0.45593999997E+02  0.45594000000E+02  0.51100000000E-03 0.  1.
         11   -1    0    0    0    0 -0.00000000000E+00 -0.00000000000E+00 -0.45593999997E+02  0.45594000000E+02  0.51100000000E-03 0. -1.
    9900012    2    1    2    0    0 -0.40003114057E+02 -0.61893044611E+00 -0.16822339007E+02  0.47787270757E+02  0.19999998691E+02 0.  0.
        -12    1    1    2    0    0  0.40003114057E+02  0.61893044611E+00  0.16822339007E+02  0.43400729243E+02  0.00000000000E+00 0.  1.
         11    1    3    3    0    0 -0.31927822592E+02 -0.16859861684E+01 -0.88727713635E+01  0.33180634062E+02  0.51100000000E-03 0. -1.
        -11    1    3    3    0    0  0.28569438917E+00 -0.13182514520E+01  0.13271917945E+01  0.18923124729E+01  0.51100000000E-03 0.  1.
        -12    1    3    3    0    0 -0.83609858534E+01  0.23853071743E+01 -0.92767594380E+01  0.12714324222E+02  0.00000000000E+00 0.  1.
</event>
<event>
 7    1  0.1899036E-009  0.4778727E+02  0.7816164E-02  0.1312668E+00
        -11   -1    0    0    0    0  0.00000000000E+00  0.00000000000E+00  0.45593999997E+02  0.45594000000E+02  0.51100000000E-03 0. -1.
         11   -1    0    0    0    0 -0.00000000000E+00 -0.00000000000E+00 -0.45593999997E+02  0.45594000000E+02  0.51100000000E-03 0.  1.
    9900012    2    1    2    0    0  0.22286897049E+01 -0.24568077185E+02  0.35708063868E+02  0.47787270749E+02  0.19999998652E+02 0.  0.
        -12    1    1    2    0    0 -0.22286897049E+01  0.24568077185E+02 -0.35708063868E+02  0.43400729251E+02  0.00000000000E+00 0.  1.
         11    1    3    3    0    0 -0.73545763537E+01 -0.11968465247E+02  0.12727657279E+02  0.18955928196E+02  0.51100000000E-03 0. -1.
        -11    1    3    3    0    0  0.29128813794E+01 -0.17386053663E+00  0.65998016074E+01  0.72161268652E+01  0.51100000000E-03 0.  1.
         12    1    3    3    0    0  0.66703846792E+01 -0.12425751401E+02  0.16380604981E+02  0.21615215687E+02  0.00000000000E+00 0. -1.
</event>
<event>
 7    1  0.1899036E-009  0.4778727E+02  0.7816164E-02  0.1312668E+00
        -11   -1    0    0    0    0  0.00000000000E+00  0.00000000000E+00  0.45593999997E+02  0.45594000000E+02  0.51100000000E-03 0.  1.
         11   -1    0    0    0    0 -0.00000000000E+00 -0.00000000000E+00 -0.45593999997E+02  0.45594000000E+02  0.51100000000E-03 0. -1.
    9900012    2    1    2    0    0 -0.32427521368E+01 -0.36702009952E+02 -0.22936219954E+02  0.47787272336E+02  0.20000005890E+02 0.  0.
        -12    1    1    2    0    0  0.32427521368E+01  0.36702009952E+02  0.22936219954E+02  0.43400727664E+02  0.00000000000E+00 0.  1.
         11    1    3    3    0    0 -0.44537820429E+01 -0.19858928502E+02 -0.20793926750E+02  0.29096401937E+02  0.51100000000E-03 0. -1.
        -11    1    3    3    0    0  0.35557104656E+01 -0.35080965920E+01 -0.10747959303E+01  0.51093057422E+01  0.51100000000E-03 0.  1.
         12    1    3    3    0    0 -0.23446805595E+01 -0.13334984858E+02 -0.10674972732E+01  0.13581564657E+02  0.00000000000E+00 0. -1.
</event>
<event>
 7    1  0.1899036E-009  0.4778727E+02  0.7816164E-02  0.1312668E+00
        -11   -1    0    0    0    0  0.00000000000E+00  0.00000000000E+00  0.45593999997E+02  0.45594000000E+02  0.51100000000E-03 0.  1.
         11   -1    0    0    0    0 -0.00000000000E+00 -0.00000000000E+00 -0.45593999997E+02  0.45594000000E+02  0.51100000000E-03 0. -1.
    9900012    2    1    2    0    0  0.19937912526E+02  0.15245469230E+02 -0.35407321711E+02  0.47787272833E+02  0.20000008154E+02 0.  0.
        -12    1    1    2    0    0 -0.19937912526E+02 -0.15245469230E+02  0.35407321711E+02  0.43400727167E+02  0.00000000000E+00 0.  1.
         11    1    3    3    0    0  0.13783912375E+02  0.25668244258E+01 -0.13912408966E+02  0.19751960700E+02  0.51100000000E-03 0. -1.
        -11    1    3    3    0    0 -0.22099014075E+01  0.42347546196E+00 -0.46418765279E+00  0.22974912701E+01  0.51100000000E-03 0.  1.
        -12    1    3    3    0    0  0.83639015587E+01  0.12255169342E+02 -0.21030725091E+02  0.25737820863E+02  0.00000000000E+00 0.  1.
</event>
<event>
 7    1  0.1899036E-009  0.4778727E+02  0.7816164E-02  0.1312668E+00
        -11   -1    0    0    0    0  0.00000000000E+00  0.00000000000E+00  0.45593999997E+02  0.45594000000E+02  0.51100000000E-03 0. -1.
         11   -1    0    0    0    0 -0.00000000000E+00 -0.00000000000E+00 -0.45593999997E+02  0.45594000000E+02  0.51100000000E-03 0.  1.
    9900012    2    1    2    0    0 -0.12338309427E+02  0.40920761783E+02  0.75419274620E+01  0.47787270810E+02  0.19999998929E+02 0.  0.
        -12    1    1    2    0    0  0.12338309427E+02 -0.40920761783E+02 -0.75419274620E+01  0.43400729190E+02  0.00000000000E+00 0.  1.
         11    1    3    3    0    0 -0.12980671544E+02  0.21420219250E+02  0.96748498977E+01  0.26850071644E+02  0.51100000000E-03 0. -1.
        -11    1    3    3    0    0  0.20030818064E+01  0.93305460955E+00 -0.29724011724E+00  0.22296366466E+01  0.51100000000E-03 0.  1.
         12    1    3    3    0    0 -0.13607196903E+01  0.18567487923E+02 -0.18356823185E+01  0.18707562519E+02  0.00000000000E+00 0. -1.
</event>
<event>
 7    1  0.1899036E-009  0.4778727E+02  0.7816164E-02  0.1312668E+00
        -11   -1    0    0    0    0  0.00000000000E+00  0.00000000000E+00  0.45593999997E+02  0.45594000000E+02  0.51100000000E-03 0.  1.
         11   -1    0    0    0    0 -0.00000000000E+00 -0.00000000000E+00 -0.45593999997E+02  0.45594000000E+02  0.51100000000E-03 0. -1.
    9900012    2    1    2    0    0  0.21751267691E+02 -0.12526342773E+01 -0.37535802843E+02  0.47787271505E+02  0.20000002100E+02 0.  0.
        -12    1    1    2    0    0 -0.21751267691E+02  0.12526342773E+01  0.37535802843E+02  0.43400728495E+02  0.00000000000E+00 0.  1.
         11    1    3    3    0    0  0.82625313063E+00 -0.94489745084E+00  0.11455191225E+01  0.16993350905E+01  0.51100000000E-03 0. -1.
        -11    1    3    3    0    0  0.11161322819E+02  0.66767105899E+01 -0.21512962190E+02  0.25138837161E+02  0.51100000000E-03 0.  1.
         12    1    3    3    0    0  0.97636917413E+01 -0.69844474163E+01 -0.17168359776E+02  0.20949099254E+02  0.00000000000E+00 0. -1.
</event>
<event>
 7    1  0.1899036E-009  0.4778727E+02  0.7816164E-02  0.1312668E+00
        -11   -1    0    0    0    0  0.00000000000E+00  0.00000000000E+00  0.45593999997E+02  0.45594000000E+02  0.51100000000E-03 0. -1.
         11   -1    0    0    0    0 -0.00000000000E+00 -0.00000000000E+00 -0.45593999997E+02  0.45594000000E+02  0.51100000000E-03 0.  1.
    9900012    2    1    2    0    0 -0.58337531794E+01 -0.28843928267E+02 -0.31900129994E+02  0.47787272268E+02  0.20000005578E+02 0.  0.
        -12    1    1    2    0    0  0.58337531794E+01  0.28843928267E+02  0.31900129994E+02  0.43400727732E+02  0.00000000000E+00 0.  1.
         11    1    3    3    0    0 -0.30123750982E+01 -0.19459655191E+02 -0.12691018200E+02  0.23426790798E+02  0.51100000000E-03 0. -1.
        -11    1    3    3    0    0  0.85438259140E+00 -0.36174264516E+01  0.25919380349E+00  0.37259797951E+01  0.51100000000E-03 0.  1.
        -12    1    3    3    0    0 -0.36757606726E+01 -0.57668466248E+01 -0.19468305598E+02  0.20634501675E+02  0.00000000000E+00 0.  1.
</event>
<event>
 7    1  0.1899036E-009  0.4778727E+02  0.7816164E-02  0.1312668E+00
        -11   -1    0    0    0    0  0.00000000000E+00  0.00000000000E+00  0.45593999997E+02  0.45594000000E+02  0.51100000000E-03 0.  1.
         11   -1    0    0    0    0 -0.00000000000E+00 -0.00000000000E+00 -0.45593999997E+02  0.45594000000E+02  0.51100000000E-03 0. -1.
    9900012    2    1    2    0    0 -0.57004341823E+01  0.11188719618E+02 -0.41544447259E+02  0.47787268502E+02  0.19999988407E+02 0.  0.
        -12    1    1    2    0    0  0.57004341823E+01 -0.11188719618E+02  0.41544447259E+02  0.43400731498E+02  0.00000000000E+00 0.  1.
         11    1    3    3    0    0 -0.43191083315E+01 -0.19126625961E+01 -0.54187597930E+01  0.71885974252E+01  0.51100000000E-03 0. -1.
        -11    1    3    3    0    0 -0.54800744766E+01  0.12469601273E+02 -0.21984839744E+02  0.25862237935E+02  0.51100000000E-03 0.  1.
        -12    1    3    3    0    0  0.40987486258E+01  0.63178094078E+00 -0.14140847721E+02  0.14736433142E+02  0.00000000000E+00 0.  1.
</event>
<event>
 7    1  0.1899036E-009  0.4778727E+02  0.7816164E-02  0.1312668E+00
        -11   -1    0    0    0    0  0.00000000000E+00  0.00000000000E+00  0.45593999997E+02  0.45594000000E+02  0.51100000000E-03 0. -1.
         11   -1    0    0    0    0 -0.00000000000E+00 -0.00000000000E+00 -0.45593999997E+02  0.45594000000E+02  0.51100000000E-03 0.  1.
    9900012    2    1    2    0    0  0.27523465372E+02  0.63032144160E+01  0.32959850089E+02  0.47787269868E+02  0.19999994638E+02 0.  0.
        -12    1    1    2    0    0 -0.27523465372E+02 -0.63032144160E+01 -0.32959850089E+02  0.43400730132E+02  0.00000000000E+00 0.  1.
         11    1    3    3    0    0  0.46667430153E+01 -0.36065727369E+01  0.83253973701E+01  0.10202847588E+02  0.51100000000E-03 0. -1.
        -11    1    3    3    0    0  0.46112050559E+01 -0.17822216678E+01  0.23234595600E+00  0.49490919415E+01  0.51100000000E-03 0.  1.
        -12    1    3    3    0    0  0.18245517301E+02  0.11692008821E+02  0.24402106763E+02  0.32635330339E+02  0.00000000000E+00 0.  1.
</event>
<event>
 7    1  0.1899036E-009  0.4778727E+02  0.7816164E-02  0.1312668E+00
        -11   -1    0    0    0    0  0.00000000000E+00  0.00000000000E+00  0.45593999997E+02  0.45594000000E+02  0.51100000000E-03 0.  1.
         11   -1    0    0    0    0 -0.00000000000E+00 -0.00000000000E+00 -0.45593999997E+02  0.45594000000E+02  0.51100000000E-03 0. -1.
    9900012    2    1    2    0    0  0.23460380245E+02  0.63761234171E+01 -0.35952453579E+02  0.47787270635E+02  0.19999998134E+02 0.  0.
        -12    1    1    2    0    0 -0.23460380245E+02 -0.63761234171E+01  0.35952453579E+02  0.43400729365E+02  0.00000000000E+00 0.  1.
         11    1    3    3    0    0  0.13582018536E+02 -0.90278073531E+00 -0.68454225003E+01  0.15236339785E+02  0.51100000000E-03 0.  1.
        -11    1    3    3    0    0  0.98243585740E+01  0.33210526465E+01 -0.18191228503E+02  0.20939632441E+02  0.51100000000E-03 0. -1.
         12    1    3    3    0    0  0.54003135473E-01  0.39578515059E+01 -0.10915802575E+02  0.11611298409E+02  0.00000000000E+00 0. -1.
</event>
<event>
 7    1  0.1899036E-009  0.4778724E+02  0.7816164E-02  0.1312668E+00
        -11   -1    0    0    0    0  0.00000000000E+00  0.00000000000E+00  0.45593999997E+02  0.45594000000E+02  0.51100000000E-03 0. -1.
         11   -1    0    0    0    0 -0.00000000000E+00 -0.00000000000E+00 -0.45593999997E+02  0.45594000000E+02  0.51100000000E-03 0.  1.
    9900012    2    1    2    0    0  0.20200012035E+02 -0.14103506042E+00  0.38413095854E+02  0.47787236065E+02  0.19999840512E+02 0.  0.
        -12    1    1    2    0    0 -0.20200012035E+02  0.14103506042E+00 -0.38413095854E+02  0.43400763935E+02  0.00000000000E+00 0.  1.
         11    1    3    3    0    0  0.65131624855E+01 -0.60466864932E+01  0.92648550885E+01  0.12838272593E+02  0.51100000000E-03 0.  1.
        -11    1    3    3    0    0  0.29450989291E+01  0.56646213160E+01  0.38298899696E+01  0.74451057613E+01  0.51100000000E-03 0. -1.
         12    1    3    3    0    0  0.10741750620E+02  0.24103011677E+00  0.25318350796E+02  0.27503857710E+02  0.00000000000E+00 0. -1.
</event>
<event>
 7    1  0.1899036E-009  0.4778727E+02  0.7816164E-02  0.1312668E+00
        -11   -1    0    0    0    0  0.00000000000E+00  0.00000000000E+00  0.45593999997E+02  0.45594000000E+02  0.51100000000E-03 0.  1.
         11   -1    0    0    0    0 -0.00000000000E+00 -0.00000000000E+00 -0.45593999997E+02  0.45594000000E+02  0.51100000000E-03 0. -1.
    9900012    2    1    2    0    0 -0.99356075217E+01  0.28748997164E+02 -0.30958078958E+02  0.47787265127E+02  0.19999973020E+02 0.  0.
        -12    1    1    2    0    0  0.99356075217E+01 -0.28748997164E+02  0.30958078958E+02  0.43400734873E+02  0.00000000000E+00 0.  1.
         11    1    3    3    0    0  0.39458844661E+01  0.24281553849E+01 -0.46578526372E+01  0.65697438492E+01  0.51100000000E-03 0. -1.
        -11    1    3    3    0    0  0.15491773372E+01  0.30035622123E+01 -0.51442777255E+01  0.61550735141E+01  0.51100000000E-03 0.  1.
         12    1    3    3    0    0 -0.15430669325E+02  0.23317279567E+02 -0.21155948595E+02  0.35062447764E+02  0.00000000000E+00 0. -1.
</event>
<event>
 7    1  0.1899036E-009  0.4778727E+02  0.7816164E-02  0.1312668E+00
        -11   -1    0    0    0    0  0.00000000000E+00  0.00000000000E+00  0.45593999997E+02  0.45594000000E+02  0.51100000000E-03 0. -1.
         11   -1    0    0    0    0 -0.00000000000E+00 -0.00000000000E+00 -0.45593999997E+02  0.45594000000E+02  0.51100000000E-03 0.  1.
    9900012    2    1    2    0    0  0.43090422302E+02 -0.16323165839E+01 -0.49167577810E+01  0.47787268916E+02  0.19999990294E+02 0.  0.
        -12    1    1    2    0    0 -0.43090422302E+02  0.16323165839E+01  0.49167577810E+01  0.43400731084E+02  0.00000000000E+00 0.  1.
         11    1    3    3    0    0  0.23104906573E+02  0.33180795540E+00  0.38033007018E+01  0.23418195933E+02  0.51100000000E-03 0. -1.
        -11    1    3    3    0    0  0.13806248069E+02 -0.31891819450E+01 -0.72217482813E+00  0.14188195937E+02  0.51100000000E-03 0.  1.
        -12    1    3    3    0    0  0.61792676603E+01  0.12250574057E+01 -0.79978836546E+01  0.10180877046E+02  0.00000000000E+00 0.  1.
</event>
<event>
 7    1  0.1899036E-009  0.4778728E+02  0.7816164E-02  0.1312668E+00
        -11   -1    0    0    0    0  0.00000000000E+00  0.00000000000E+00  0.45593999997E+02  0.45594000000E+02  0.51100000000E-03 0.  1.
         11   -1    0    0    0    0 -0.00000000000E+00 -0.00000000000E+00 -0.45593999997E+02  0.45594000000E+02  0.51100000000E-03 0. -1.
    9900012    2    1    2    0    0  0.41216789830E+02  0.12577605035E+02  0.51577425170E+01  0.47787283183E+02  0.20000055347E+02 0.  0.
        -12    1    1    2    0    0 -0.41216789830E+02 -0.12577605035E+02 -0.51577425170E+01  0.43400716817E+02  0.00000000000E+00 0.  1.
         11    1    3    3    0    0  0.12943190739E+02 -0.11526077725E+01 -0.39379566180E+01  0.13578004042E+02  0.51100000000E-03 0. -1.
        -11    1    3    3    0    0  0.10043806713E+02  0.30124050349E+01  0.77131313861E+01  0.13017105417E+02  0.51100000000E-03 0.  1.
        -12    1    3    3    0    0  0.18229792378E+02  0.10717807773E+02  0.13825677488E+01  0.21192173725E+02  0.00000000000E+00 0.  1.
</event>
<event>
 7    1  0.1899036E-009  0.4778727E+02  0.7816164E-02  0.1312668E+00
        -11   -1    0    0    0    0  0.00000000000E+00  0.00000000000E+00  0.45593999997E+02  0.45594000000E+02  0.51100000000E-03 0.  1.
         11   -1    0    0    0    0 -0.00000000000E+00 -0.00000000000E+00 -0.45593999997E+02  0.45594000000E+02  0.51100000000E-03 0. -1.
    9900012    2    1    2    0    0  0.31259135985E+02 -0.25888034517E+02 -0.15372030911E+02  0.47787271343E+02  0.20000001361E+02 0.  0.
        -12    1    1    2    0    0 -0.31259135985E+02  0.25888034517E+02  0.15372030911E+02  0.43400728657E+02  0.00000000000E+00 0.  1.
         11    1    3    3    0    0  0.14916622218E+02 -0.16769856196E+02 -0.41027472858E+01  0.22815920555E+02  0.51100000000E-03 0. -1.
        -11    1    3    3    0    0  0.15993507653E+02 -0.32603999054E+01 -0.72592493238E+01  0.17863907624E+02  0.51100000000E-03 0.  1.
         12    1    3    3    0    0  0.34900611375E+00 -0.58577784152E+01 -0.40100343009E+01  0.71074431636E+01  0.00000000000E+00 0. -1.
</event>
<event>
 7    1  0.1899036E-009  0.4778727E+02  0.7816164E-02  0.1312668E+00
        -11   -1    0    0    0    0  0.00000000000E+00  0.00000000000E+00  0.45593999997E+02  0.45594000000E+02  0.51100000000E-03 0.  1.
         11   -1    0    0    0    0 -0.00000000000E+00 -0.00000000000E+00 -0.45593999997E+02  0.45594000000E+02  0.51100000000E-03 0. -1.
    9900012    2    1    2    0    0  0.36323589978E+02  0.23388655578E+02 -0.41462303354E+01  0.47787267004E+02  0.19999981576E+02 0.  0.
        -12    1    1    2    0    0 -0.36323589978E+02 -0.23388655578E+02  0.41462303354E+01  0.43400732996E+02  0.00000000000E+00 0.  1.
         11    1    3    3    0    0  0.21820966823E+02  0.49858330576E+01  0.78319387168E+00  0.22397020276E+02  0.51100000000E-03 0. -1.
        -11    1    3    3    0    0  0.13508831226E+02  0.11168802435E+02 -0.43840622308E+01  0.18067945949E+02  0.51100000000E-03 0.  1.
        -12    1    3    3    0    0  0.99379192945E+00  0.72340200858E+01 -0.54536197631E+00  0.73223007782E+01  0.00000000000E+00 0.  1.
</event>
<event>
 7    1  0.1899036E-009  0.4778727E+02  0.7816164E-02  0.1312668E+00
        -11   -1    0    0    0    0  0.00000000000E+00  0.00000000000E+00  0.45593999997E+02  0.45594000000E+02  0.51100000000E-03 0. -1.
         11   -1    0    0    0    0 -0.00000000000E+00 -0.00000000000E+00 -0.45593999997E+02  0.45594000000E+02  0.51100000000E-03 0.  1.
    9900012    2    1    2    0    0 -0.23475664160E+02 -0.23111795123E+02  0.28255289009E+02  0.47787271452E+02  0.20000001857E+02 0.  0.
        -12    1    1    2    0    0  0.23475664160E+02  0.23111795123E+02 -0.28255289009E+02  0.43400728548E+02  0.00000000000E+00 0.  1.
         11    1    3    3    0    0  0.57251602708E+00 -0.70126916592E+01  0.12979968760E+02  0.14764322137E+02  0.51100000000E-03 0. -1.
        -11    1    3    3    0    0 -0.92252595498E+01 -0.53366527149E+01  0.79429119579E+01  0.13291919598E+02  0.51100000000E-03 0.  1.
        -12    1    3    3    0    0 -0.14822920637E+02 -0.10762450748E+02  0.73324082912E+01  0.19731029717E+02  0.00000000000E+00 0.  1.
</event>
<event>
 7    1  0.1899036E-009  0.4778727E+02  0.7816164E-02  0.1312668E+00
        -11   -1    0    0    0    0  0.00000000000E+00  0.00000000000E+00  0.45593999997E+02  0.45594000000E+02  0.51100000000E-03 0.  1.
         11   -1    0    0    0    0 -0.00000000000E+00 -0.00000000000E+00 -0.45593999997E+02  0.45594000000E+02  0.51100000000E-03 0. -1.
    9900012    2    1    2    0    0 -0.25137487431E+02  0.34019351553E+02 -0.97166694897E+01  0.47787271660E+02  0.20000002807E+02 0.  0.
        -12    1    1    2    0    0  0.25137487431E+02 -0.34019351553E+02  0.97166694897E+01  0.43400728340E+02  0.00000000000E+00 0.  1.
         11    1    3    3    0    0 -0.22142202055E+02  0.27249753583E+02 -0.62783721896E+01  0.35668531506E+02  0.51100000000E-03 0. -1.
        -11    1    3    3    0    0  0.12265666940E+01  0.72611703579E+01 -0.23723971249E+01  0.77367518508E+01  0.51100000000E-03 0.  1.
        -12    1    3    3    0    0 -0.42218520698E+01 -0.49157238698E+00 -0.10659001752E+01  0.43819883037E+01  0.00000000000E+00 0.  1.
</event>
<event>
 7    1  0.1899036E-009  0.4778727E+02  0.7816164E-02  0.1312668E+00
        -11   -1    0    0    0    0  0.00000000000E+00  0.00000000000E+00  0.45593999997E+02  0.45594000000E+02  0.51100000000E-03 0. -1.
         11   -1    0    0    0    0 -0.00000000000E+00 -0.00000000000E+00 -0.45593999997E+02  0.45594000000E+02  0.51100000000E-03 0.  1.
    9900012    2    1    2    0    0 -0.15032887101E+02  0.11349548881E+01  0.40698248886E+02  0.47787270979E+02  0.19999999700E+02 0.  0.
        -12    1    1    2    0    0  0.15032887101E+02 -0.11349548881E+01 -0.40698248886E+02  0.43400729021E+02  0.00000000000E+00 0.  1.
         11    1    3    3    0    0 -0.78561124605E+00  0.38366967996E+01  0.14370563014E+02  0.14894646990E+02  0.51100000000E-03 0. -1.
        -11    1    3    3    0    0 -0.11858030993E+02 -0.47425651154E+01  0.26826213194E+02  0.29711118079E+02  0.51100000000E-03 0.  1.
        -12    1    3    3    0    0 -0.23892448627E+01  0.20408232039E+01 -0.49852732189E+00  0.31815059098E+01  0.00000000000E+00 0.  1.
</event>
<event>
 7    1  0.1899036E-009  0.4778727E+02  0.7816164E-02  0.1312668E+00
        -11   -1    0    0    0    0  0.00000000000E+00  0.00000000000E+00  0.45593999997E+02  0.45594000000E+02  0.51100000000E-03 0.  1.
         11   -1    0    0    0    0 -0.00000000000E+00 -0.00000000000E+00 -0.45593999997E+02  0.45594000000E+02  0.51100000000E-03 0. -1.
    9900012    2    1    2    0    0 -0.29858635993E+02 -0.10104394565E+02 -0.29832640870E+02  0.47787269658E+02  0.19999993681E+02 0.  0.
        -12    1    1    2    0    0  0.29858635993E+02  0.10104394565E+02  0.29832640870E+02  0.43400730342E+02  0.00000000000E+00 0.  1.
         11    1    3    3    0    0 -0.97951370874E+01 -0.16005473900E+01 -0.62118360676E+01  0.11708687804E+02  0.51100000000E-03 0. -1.
        -11    1    3    3    0    0  0.10927984635E+01 -0.48495390773E+01 -0.84008410575E+01  0.97614736838E+01  0.51100000000E-03 0.  1.
        -12    1    3    3    0    0 -0.21156297369E+02 -0.36543080979E+01 -0.15219963745E+02  0.26317108170E+02  0.00000000000E+00 0.  1.
</event>
<event>
 7    1  0.1899036E-009  0.4778727E+02  0.7816164E-02  0.1312668E+00
        -11   -1    0    0    0    0  0.00000000000E+00  0.00000000000E+00  0.45593999997E+02  0.45594000000E+02  0.51100000000E-03 0.  1.
         11   -1    0    0    0    0 -0.00000000000E+00 -0.00000000000E+00 -0.45593999997E+02  0.45594000000E+02  0.51100000000E-03 0. -1.
    9900012    2    1    2    0    0 -0.28851111652E+02  0.15910101721E+02 -0.28250758070E+02  0.47787270606E+02  0.19999998003E+02 0.  0.
        -12    1    1    2    0    0  0.28851111652E+02 -0.15910101721E+02  0.28250758070E+02  0.43400729394E+02  0.00000000000E+00 0.  1.
         11    1    3    3    0    0 -0.17813702428E+02  0.79025283370E+01 -0.18957370162E+02  0.27187494038E+02  0.51100000000E-03 0. -1.
        -11    1    3    3    0    0 -0.99919782824E+01  0.10569619936E+02 -0.47885729280E+01  0.15312965962E+02  0.51100000000E-03 0.  1.
         12    1    3    3    0    0 -0.10454309419E+01 -0.25620465525E+01 -0.45048149801E+01  0.52868106072E+01  0.00000000000E+00 0. -1.
</event>
<event>
 7    1  0.1899036E-009  0.4778726E+02  0.7816164E-02  0.1312668E+00
        -11   -1    0    0    0    0  0.00000000000E+00  0.00000000000E+00  0.45593999997E+02  0.45594000000E+02  0.51100000000E-03 0.  1.
         11   -1    0    0    0    0 -0.00000000000E+00 -0.00000000000E+00 -0.45593999997E+02  0.45594000000E+02  0.51100000000E-03 0. -1.
    9900012    2    1    2    0    0 -0.21440184602E+02 -0.15980214608E+02 -0.34184428728E+02  0.47787263346E+02  0.19999964899E+02 0.  0.
        -12    1    1    2    0    0  0.21440184602E+02  0.15980214608E+02  0.34184428728E+02  0.43400736654E+02  0.00000000000E+00 0.  1.
         11    1    3    3    0    0 -0.39901549081E+01  0.17273549224E+01 -0.51292186181E+01  0.67241337815E+01  0.51100000000E-03 0. -1.
        -11    1    3    3    0    0 -0.12511529929E+01  0.73862401053E+00  0.13507997921E+01  0.19838370851E+01  0.51100000000E-03 0.  1.
         12    1    3    3    0    0 -0.16198876701E+02 -0.18446193541E+02 -0.30406009902E+02  0.39079292479E+02  0.00000000000E+00 0. -1.
</event>
<event>
 7    1  0.1899036E-009  0.4778727E+02  0.7816164E-02  0.1312668E+00
        -11   -1    0    0    0    0  0.00000000000E+00  0.00000000000E+00  0.45593999997E+02  0.45594000000E+02  0.51100000000E-03 0.  1.
         11   -1    0    0    0    0 -0.00000000000E+00 -0.00000000000E+00 -0.45593999997E+02  0.45594000000E+02  0.51100000000E-03 0. -1.
    9900012    2    1    2    0    0  0.14280312327E+02  0.39386648824E+02 -0.11330827582E+02  0.47787273285E+02  0.20000010214E+02 0.  0.
        -12    1    1    2    0    0 -0.14280312327E+02 -0.39386648824E+02  0.11330827582E+02  0.43400726715E+02  0.00000000000E+00 0.  1.
         11    1    3    3    0    0  0.85875476203E+01  0.30974143386E+02 -0.25207437125E+01  0.32241241939E+02  0.51100000000E-03 0. -1.
        -11    1    3    3    0    0 -0.12607973730E+01  0.47103919351E+01 -0.40753034187E+01  0.63549587263E+01  0.51100000000E-03 0.  1.
         12    1    3    3    0    0  0.69535620794E+01  0.37021135029E+01 -0.47347804513E+01  0.91910726198E+01  0.00000000000E+00 0. -1.
</event>
<event>
 7    1  0.1899036E-009  0.4778725E+02  0.7816164E-02  0.1312668E+00
        -11   -1    0    0    0    0  0.00000000000E+00  0.00000000000E+00  0.45593999997E+02  0.45594000000E+02  0.51100000000E-03 0. -1.
         11   -1    0    0    0    0 -0.00000000000E+00 -0.00000000000E+00 -0.45593999997E+02  0.45594000000E+02  0.51100000000E-03 0.  1.
    9900012    2    1    2    0    0 -0.21604117039E+02 -0.35061834189E+02  0.13695059634E+02  0.47787254061E+02  0.19999922565E+02 0.  0.
        -12    1    1    2    0    0  0.21604117039E+02  0.35061834189E+02 -0.13695059634E+02  0.43400745939E+02  0.00000000000E+00 0.  1.
         11    1    3    3    0    0 -0.28965318224E+01  0.91932559566E+00  0.35741502021E+00  0.30598695899E+01  0.51100000000E-03 0. -1.
        -11    1    3    3    0    0 -0.22323335777E+01 -0.16806969172E+02  0.21787444209E+01  0.17093988811E+02  0.51100000000E-03 0.  1.
         12    1    3    3    0    0 -0.16475251639E+02 -0.19174190612E+02  0.11158900193E+02  0.27633395660E+02  0.00000000000E+00 0. -1.
</event>
<event>
 7    1  0.1899036E-009  0.4778727E+02  0.7816164E-02  0.1312668E+00
        -11   -1    0    0    0    0  0.00000000000E+00  0.00000000000E+00  0.45593999997E+02  0.45594000000E+02  0.51100000000E-03 0.  1.
         11   -1    0    0    0    0 -0.00000000000E+00 -0.00000000000E+00 -0.45593999997E+02  0.45594000000E+02  0.51100000000E-03 0. -1.
    9900012    2    1    2    0    0  0.10051126624E+02  0.41702952408E+02 -0.65925669800E+01  0.47787270452E+02  0.19999997299E+02 0.  0.
        -12    1    1    2    0    0 -0.10051126624E+02 -0.41702952408E+02  0.65925669800E+01  0.43400729548E+02  0.00000000000E+00 0.  1.
         11    1    3    3    0    0  0.95994882450E+01  0.32100889441E+02 -0.12469009151E+02  0.35750433101E+02  0.51100000000E-03 0. -1.
        -11    1    3    3    0    0  0.22683304188E+01  0.51800524712E+01  0.24932703320E+01  0.61801831448E+01  0.51100000000E-03 0.  1.
         12    1    3    3    0    0 -0.18166920400E+01  0.44220104959E+01  0.33831718394E+01  0.58566542060E+01  0.00000000000E+00 0. -1.
</event>
<event>
 7    1  0.1899036E-009  0.4778727E+02  0.7816164E-02  0.1312668E+00
        -11   -1    0    0    0    0  0.00000000000E+00  0.00000000000E+00  0.45593999997E+02  0.45594000000E+02  0.51100000000E-03 0.  1.
         11   -1    0    0    0    0 -0.00000000000E+00 -0.00000000000E+00 -0.45593999997E+02  0.45594000000E+02  0.51100000000E-03 0. -1.
    9900012    2    1    2    0    0 -0.10710625742E+02  0.15440593149E+02 -0.39121527411E+02  0.47787270426E+02  0.19999997182E+02 0.  0.
        -12    1    1    2    0    0  0.10710625742E+02 -0.15440593149E+02  0.39121527411E+02  0.43400729574E+02  0.00000000000E+00 0.  1.
         11    1    3    3    0    0  0.14810338521E+01 -0.25611761363E+01 -0.43331301888E+01  0.52468182708E+01  0.51100000000E-03 0.  1.
        -11    1    3    3    0    0 -0.48719384209E+01  0.99551041944E+01 -0.26928389255E+02  0.29120062356E+02  0.51100000000E-03 0. -1.
        -12    1    3    3    0    0 -0.73197211729E+01  0.80466650910E+01 -0.78600079673E+01  0.13420389800E+02  0.00000000000E+00 0.  1.
</event>
<event>
 7    1  0.1899036E-009  0.4778727E+02  0.7816164E-02  0.1312668E+00
        -11   -1    0    0    0    0  0.00000000000E+00  0.00000000000E+00  0.45593999997E+02  0.45594000000E+02  0.51100000000E-03 0.  1.
         11   -1    0    0    0    0 -0.00000000000E+00 -0.00000000000E+00 -0.45593999997E+02  0.45594000000E+02  0.51100000000E-03 0. -1.
    9900012    2    1    2    0    0 -0.15537260183E+02 -0.48379153166E+01 -0.40234453242E+02  0.47787272975E+02  0.20000008804E+02 0.  0.
        -12    1    1    2    0    0  0.15537260183E+02  0.48379153166E+01  0.40234453242E+02  0.43400727025E+02  0.00000000000E+00 0.  1.
         11    1    3    3    0    0 -0.85167139016E+01 -0.10230162872E+01 -0.77140974305E+01  0.11536389272E+02  0.51100000000E-03 0.  1.
        -11    1    3    3    0    0  0.34668722665E+01 -0.39209205567E+01 -0.77509262620E+01  0.93525226278E+01  0.51100000000E-03 0. -1.
         12    1    3    3    0    0 -0.10487418548E+02  0.10602152741E+00 -0.24769429549E+02  0.26898361076E+02  0.00000000000E+00 0. -1.
</event>
<event>
 7    1  0.1899036E-009  0.4778724E+02  0.7816164E-02  0.1312668E+00
        -11   -1    0    0    0    0  0.00000000000E+00  0.00000000000E+00  0.45593999997E+02  0.45594000000E+02  0.51100000000E-03 0.  1.
         11   -1    0    0    0    0 -0.00000000000E+00 -0.00000000000E+00 -0.45593999997E+02  0.45594000000E+02  0.51100000000E-03 0. -1.
    9900012    2    1    2    0    0 -0.16027537140E+02  0.10981137108E+02 -0.38809260767E+02  0.47787239175E+02  0.19999854692E+02 0.  0.
        -12    1    1    2    0    0  0.16027537140E+02 -0.10981137108E+02  0.38809260767E+02  0.43400760825E+02  0.00000000000E+00 0.  1.
         11    1    3    3    0    0 -0.10168471496E+02  0.43512437883E+01 -0.83769746888E+01  0.13874611356E+02  0.51100000000E-03 0.  1.
        -11    1    3    3    0    0  0.33332931812E+01  0.31190586993E+01 -0.57540335735E+01  0.73449488241E+01  0.51100000000E-03 0. -1.
         12    1    3    3    0    0 -0.91923588246E+01  0.35108346206E+01 -0.24678252505E+02  0.26567678995E+02  0.00000000000E+00 0. -1.
</event>
<event>
 7    1  0.1899036E-009  0.4778727E+02  0.7816164E-02  0.1312668E+00
        -11   -1    0    0    0    0  0.00000000000E+00  0.00000000000E+00  0.45593999997E+02  0.45594000000E+02  0.51100000000E-03 0.  1.
         11   -1    0    0    0    0 -0.00000000000E+00 -0.00000000000E+00 -0.45593999997E+02  0.45594000000E+02  0.51100000000E-03 0. -1.
    9900012    2    1    2    0    0  0.17514471408E+02 -0.26057185270E+02 -0.29964808088E+02  0.47787270321E+02  0.19999996702E+02 0.  0.
        -12    1    1    2    0    0 -0.17514471408E+02  0.26057185270E+02  0.29964808088E+02  0.43400729679E+02  0.00000000000E+00 0.  1.
         11    1    3    3    0    0  0.11796017163E+01 -0.34755022408E+01 -0.79672498487E+01  0.87719807596E+01  0.51100000000E-03 0. -1.
        -11    1    3    3    0    0  0.13625382997E+02 -0.18371663804E+02 -0.81351958102E+01  0.24276542256E+02  0.51100000000E-03 0.  1.
        -12    1    3    3    0    0  0.27094866938E+01 -0.42100192251E+01 -0.13862362430E+02  0.14738747306E+02  0.00000000000E+00 0.  1.
</event>
<event>
 7    1  0.1899036E-009  0.4778727E+02  0.7816164E-02  0.1312668E+00
        -11   -1    0    0    0    0  0.00000000000E+00  0.00000000000E+00  0.45593999997E+02  0.45594000000E+02  0.51100000000E-03 0.  1.
         11   -1    0    0    0    0 -0.00000000000E+00 -0.00000000000E+00 -0.45593999997E+02  0.45594000000E+02  0.51100000000E-03 0. -1.
    9900012    2    1    2    0    0  0.46578359914E+00 -0.16007227592E+02 -0.40338257536E+02  0.47787270622E+02  0.19999998072E+02 0.  0.
        -12    1    1    2    0    0 -0.46578359914E+00  0.16007227592E+02  0.40338257536E+02  0.43400729378E+02  0.00000000000E+00 0.  1.
         11    1    3    3    0    0  0.76291723099E+01 -0.54981671081E+01 -0.19590278481E+02  0.21730465317E+02  0.51100000000E-03 0. -1.
        -11    1    3    3    0    0  0.19623597254E+01 -0.41772972349E+01 -0.52599015380E+01  0.69976590608E+01  0.51100000000E-03 0.  1.
        -12    1    3    3    0    0 -0.91257484362E+01 -0.63317632491E+01 -0.15488077517E+02  0.19059146244E+02  0.00000000000E+00 0.  1.
</event>
<event>
 7    1  0.1899036E-009  0.4778725E+02  0.7816164E-02  0.1312668E+00
        -11   -1    0    0    0    0  0.00000000000E+00  0.00000000000E+00  0.45593999997E+02  0.45594000000E+02  0.51100000000E-03 0.  1.
         11   -1    0    0    0    0 -0.00000000000E+00 -0.00000000000E+00 -0.45593999997E+02  0.45594000000E+02  0.51100000000E-03 0. -1.
    9900012    2    1    2    0    0 -0.35079952163E+02 -0.18330348742E+02 -0.17805070499E+02  0.47787248114E+02  0.19999895452E+02 0.  0.
        -12    1    1    2    0    0  0.35079952163E+02  0.18330348742E+02  0.17805070499E+02  0.43400751886E+02  0.00000000000E+00 0.  1.
         11    1    3    3    0    0 -0.89442344747E+01 -0.10291402411E+02 -0.62820951300E+01  0.15012561853E+02  0.51100000000E-03 0. -1.
        -11    1    3    3    0    0 -0.18901877376E+02 -0.72121152882E+00 -0.12123786199E+02  0.22467472187E+02  0.51100000000E-03 0.  1.
        -12    1    3    3    0    0 -0.72338403120E+01 -0.73177348027E+01  0.60081083054E+00  0.10307214073E+02  0.00000000000E+00 0.  1.
</event>
<event>
 7    1  0.1899036E-009  0.4778727E+02  0.7816164E-02  0.1312668E+00
        -11   -1    0    0    0    0  0.00000000000E+00  0.00000000000E+00  0.45593999997E+02  0.45594000000E+02  0.51100000000E-03 0.  1.
         11   -1    0    0    0    0 -0.00000000000E+00 -0.00000000000E+00 -0.45593999997E+02  0.45594000000E+02  0.51100000000E-03 0. -1.
    9900012    2    1    2    0    0 -0.28543180390E+02 -0.11841740600E+02 -0.30474307373E+02  0.47787269855E+02  0.19999994578E+02 0.  0.
        -12    1    1    2    0    0  0.28543180390E+02  0.11841740600E+02  0.30474307373E+02  0.43400730145E+02  0.00000000000E+00 0.  1.
         11    1    3    3    0    0 -0.14631175337E+02 -0.47827844901E+01 -0.11243537809E+02  0.19062094899E+02  0.51100000000E-03 0. -1.
        -11    1    3    3    0    0  0.20844149838E+01  0.32727521975E+00  0.60411264039E+00  0.21947317006E+01  0.51100000000E-03 0.  1.
        -12    1    3    3    0    0 -0.15996420037E+02 -0.73862313296E+01 -0.19834882205E+02  0.26530443255E+02  0.00000000000E+00 0.  1.
</event>
<event>
 7    1  0.1990710E-009  0.4778726E+02  0.7816164E-02  0.1312668E+00
        -11   -1    0    0    0    0  0.00000000000E+00  0.00000000000E+00  0.45593999997E+02  0.45594000000E+02  0.51100000000E-03 0. -1.
         11   -1    0    0    0    0 -0.00000000000E+00 -0.00000000000E+00 -0.45593999997E+02  0.45594000000E+02  0.51100000000E-03 0.  1.
    9900012    2    1    2    0    0  0.35826442151E+02  0.21911613970E+02 -0.10953136669E+02  0.47787262831E+02  0.19999962550E+02 0.  0.
        -12    1    1    2    0    0 -0.35826442151E+02 -0.21911613970E+02  0.10953136669E+02  0.43400737169E+02  0.00000000000E+00 0.  1.
         11    1    3    3    0    0  0.17071819197E+02  0.95538213929E+01 -0.56552457872E+01  0.20364290292E+02  0.51100000000E-03 0. -1.
        -11    1    3    3    0    0  0.77569289938E+01 -0.18881797083E+01  0.16126497139E+01  0.81446798210E+01  0.51100000000E-03 0.  1.
        -12    1    3    3    0    0  0.10997693960E+02  0.14245972285E+02 -0.69105405961E+01  0.19278292718E+02  0.00000000000E+00 0.  1.
</event>
<event>
 7    1  0.1899036E-009  0.4778727E+02  0.7816164E-02  0.1312668E+00
        -11   -1    0    0    0    0  0.00000000000E+00  0.00000000000E+00  0.45593999997E+02  0.45594000000E+02  0.51100000000E-03 0. -1.
         11   -1    0    0    0    0 -0.00000000000E+00 -0.00000000000E+00 -0.45593999997E+02  0.45594000000E+02  0.51100000000E-03 0.  1.
    9900012    2    1    2    0    0 -0.32203045569E+02 -0.28375814179E+02  0.64342946686E+01  0.47787272793E+02  0.20000007973E+02 0.  0.
        -12    1    1    2    0    0  0.32203045569E+02  0.28375814179E+02 -0.64342946686E+01  0.43400727207E+02  0.00000000000E+00 0.  1.
         11    1    3    3    0    0 -0.29735265048E+02 -0.23151612070E+02  0.86942170605E+01  0.38675218674E+02  0.51100000000E-03 0. -1.
        -11    1    3    3    0    0  0.70204654778E+00  0.11378347686E+01  0.58048058995E+00  0.14575648501E+01  0.51100000000E-03 0.  1.
        -12    1    3    3    0    0 -0.31698270681E+01 -0.63620368771E+01 -0.28404029819E+01  0.76544892688E+01  0.00000000000E+00 0.  1.
</event>
<event>
 7    1  0.1899036E-009  0.4778726E+02  0.7816164E-02  0.1312668E+00
        -11   -1    0    0    0    0  0.00000000000E+00  0.00000000000E+00  0.45593999997E+02  0.45594000000E+02  0.51100000000E-03 0.  1.
         11   -1    0    0    0    0 -0.00000000000E+00 -0.00000000000E+00 -0.45593999997E+02  0.45594000000E+02  0.51100000000E-03 0. -1.
    9900012    2    1    2    0    0 -0.28937553173E+02  0.14153439395E+02 -0.29084737799E+02  0.47787264947E+02  0.19999972197E+02 0.  0.
        -12    1    1    2    0    0  0.28937553173E+02 -0.14153439395E+02  0.29084737799E+02  0.43400735053E+02  0.00000000000E+00 0.  1.
         11    1    3    3    0    0 -0.67460150071E+01 -0.15592165139E+01 -0.12491402788E+02  0.14281982302E+02  0.51100000000E-03 0. -1.
        -11    1    3    3    0    0  0.11161592080E+01  0.11830748094E+01 -0.68191040581E+00  0.17636551377E+01  0.51100000000E-03 0.  1.
        -12    1    3    3    0    0 -0.23307697374E+02  0.14529581099E+02 -0.15911424605E+02  0.31741627507E+02  0.00000000000E+00 0.  1.
</event>
<event>
 7    1  0.1899036E-009  0.4778727E+02  0.7816164E-02  0.1312668E+00
        -11   -1    0    0    0    0  0.00000000000E+00  0.00000000000E+00  0.45593999997E+02  0.45594000000E+02  0.51100000000E-03 0. -1.
         11   -1    0    0    0    0 -0.00000000000E+00 -0.00000000000E+00 -0.45593999997E+02  0.45594000000E+02  0.51100000000E-03 0.  1.
    9900012    2    1    2    0    0  0.35715367955E+02 -0.67513283375E+01  0.23716148972E+02  0.47787266543E+02  0.19999979477E+02 0.  0.
        -12    1    1    2    0    0 -0.35715367955E+02  0.67513283375E+01 -0.23716148972E+02  0.43400733457E+02  0.00000000000E+00 0.  1.
         11    1    3    3    0    0  0.50019025112E+01 -0.66587220105E+01  0.32745299620E+01  0.89487515486E+01  0.51100000000E-03 0.  1.
        -11    1    3    3    0    0  0.50415529096E+01  0.47179101649E+01  0.43389996255E+01  0.81549279627E+01  0.51100000000E-03 0. -1.
        -12    1    3    3    0    0  0.25671912535E+02 -0.48105164919E+01  0.16102619385E+02  0.30683587032E+02  0.00000000000E+00 0.  1.
</event>
<event>
 7    1  0.1899036E-009  0.4778728E+02  0.7816164E-02  0.1312668E+00
        -11   -1    0    0    0    0  0.00000000000E+00  0.00000000000E+00  0.45593999997E+02  0.45594000000E+02  0.51100000000E-03 0. -1.
         11   -1    0    0    0    0 -0.00000000000E+00 -0.00000000000E+00 -0.45593999997E+02  0.45594000000E+02  0.51100000000E-03 0.  1.
    9900012    2    1    2    0    0 -0.94426138388E+01 -0.32601022254E+02  0.27048719606E+02  0.47787276038E+02  0.20000022767E+02 0.  0.
        -12    1    1    2    0    0  0.94426138388E+01  0.32601022254E+02 -0.27048719606E+02  0.43400723962E+02  0.00000000000E+00 0.  1.
         11    1    3    3    0    0 -0.30513729016E+01 -0.11564764937E+01  0.87356625813E+00  0.33780812207E+01  0.51100000000E-03 0. -1.
        -11    1    3    3    0    0  0.50404410141E+00 -0.91910707348E+01 -0.21434994381E+00  0.92073768180E+01  0.51100000000E-03 0.  1.
         12    1    3    3    0    0 -0.68952850386E+01 -0.22253475025E+02  0.26389503292E+02  0.35201817999E+02  0.00000000000E+00 0. -1.
</event>
<event>
 7    1  0.1899036E-009  0.4778727E+02  0.7816164E-02  0.1312668E+00
        -11   -1    0    0    0    0  0.00000000000E+00  0.00000000000E+00  0.45593999997E+02  0.45594000000E+02  0.51100000000E-03 0. -1.
         11   -1    0    0    0    0 -0.00000000000E+00 -0.00000000000E+00 -0.45593999997E+02  0.45594000000E+02  0.51100000000E-03 0.  1.
    9900012    2    1    2    0    0 -0.31188301657E+02  0.23805725086E+02 -0.18552635991E+02  0.47787274092E+02  0.20000013895E+02 0.  0.
        -12    1    1    2    0    0  0.31188301657E+02 -0.23805725086E+02  0.18552635991E+02  0.43400725908E+02  0.00000000000E+00 0.  1.
         11    1    3    3    0    0 -0.69773435563E-01  0.59736632201E-01  0.14636148308E+01  0.14664942658E+01  0.51100000000E-03 0. -1.
        -11    1    3    3    0    0 -0.18531853048E+02  0.22344910217E+02 -0.15228512705E+02  0.32781583084E+02  0.51100000000E-03 0.  1.
        -12    1    3    3    0    0 -0.12586675174E+02  0.14010782365E+01 -0.47877381164E+01  0.13539196742E+02  0.00000000000E+00 0.  1.
</event>
<event>
 7    1  0.1899036E-009  0.4778727E+02  0.7816164E-02  0.1312668E+00
        -11   -1    0    0    0    0  0.00000000000E+00  0.00000000000E+00  0.45593999997E+02  0.45594000000E+02  0.51100000000E-03 0.  1.
         11   -1    0    0    0    0 -0.00000000000E+00 -0.00000000000E+00 -0.45593999997E+02  0.45594000000E+02  0.51100000000E-03 0. -1.
    9900012    2    1    2    0    0  0.10987715979E+02  0.83529238773E+01 -0.41147561530E+02  0.47787273513E+02  0.20000011254E+02 0.  0.
        -12    1    1    2    0    0 -0.10987715979E+02 -0.83529238773E+01  0.41147561530E+02  0.43400726487E+02  0.00000000000E+00 0.  1.
         11    1    3    3    0    0 -0.12674477625E+01  0.34890164961E+01 -0.27795786924E+02  0.28042564629E+02  0.51100000000E-03 0. -1.
        -11    1    3    3    0    0  0.94116685110E+01  0.18228678731E+01 -0.12017500886E+02  0.15372790223E+02  0.51100000000E-03 0.  1.
         12    1    3    3    0    0  0.28434952309E+01  0.30410395082E+01 -0.13342737196E+01  0.43719186609E+01  0.00000000000E+00 0. -1.
</event>
<event>
 7    1  0.1899036E-009  0.4778728E+02  0.7816164E-02  0.1312668E+00
        -11   -1    0    0    0    0  0.00000000000E+00  0.00000000000E+00  0.45593999997E+02  0.45594000000E+02  0.51100000000E-03 0. -1.
         11   -1    0    0    0    0 -0.00000000000E+00 -0.00000000000E+00 -0.45593999997E+02  0.45594000000E+02  0.51100000000E-03 0.  1.
    9900012    2    1    2    0    0  0.25978561586E+02 -0.24884418756E+02  0.24279671079E+02  0.47787281266E+02  0.20000046606E+02 0.  0.
        -12    1    1    2    0    0 -0.25978561586E+02  0.24884418756E+02 -0.24279671079E+02  0.43400718734E+02  0.00000000000E+00 0.  1.
         11    1    3    3    0    0  0.92935379979E+01 -0.31460170847E+01  0.11473129157E+02  0.15096356015E+02  0.51100000000E-03 0. -1.
        -11    1    3    3    0    0  0.13167319565E+02 -0.97693707806E+01  0.26593681598E+01  0.16609971380E+02  0.51100000000E-03 0.  1.
         12    1    3    3    0    0  0.35177040232E+01 -0.11969030891E+02  0.10147173762E+02  0.16080953871E+02  0.00000000000E+00 0. -1.
</event>
<event>
 7    1  0.2231541E-009  0.4778731E+02  0.7816164E-02  0.1312668E+00
        -11   -1    0    0    0    0  0.00000000000E+00  0.00000000000E+00  0.45593999997E+02  0.45594000000E+02  0.51100000000E-03 0. -1.
         11   -1    0    0    0    0 -0.00000000000E+00 -0.00000000000E+00 -0.45593999997E+02  0.45594000000E+02  0.51100000000E-03 0.  1.
    9900012    2    1    2    0    0  0.19237568184E+02 -0.32766358417E+02  0.20973837999E+02  0.47787306987E+02  0.20000163876E+02 0.  0.
        -12    1    1    2    0    0 -0.19237568184E+02  0.32766358417E+02 -0.20973837999E+02  0.43400693013E+02  0.00000000000E+00 0.  1.
         11    1    3    3    0    0  0.95082322317E+01 -0.12459469408E+02  0.76964700610E+01  0.17460827866E+02  0.51100000000E-03 0. -1.
        -11    1    3    3    0    0  0.28304090717E+01 -0.59908312445E+00 -0.27596257185E+01  0.39982059065E+01  0.51100000000E-03 0.  1.
        -12    1    3    3    0    0  0.68989268810E+01 -0.19707805885E+02  0.16036993657E+02  0.26328273214E+02  0.00000000000E+00 0.  1.
</event>
<event>
 7    1  0.1899036E-009  0.4778728E+02  0.7816164E-02  0.1312668E+00
        -11   -1    0    0    0    0  0.00000000000E+00  0.00000000000E+00  0.45593999997E+02  0.45594000000E+02  0.51100000000E-03 0.  1.
         11   -1    0    0    0    0 -0.00000000000E+00 -0.00000000000E+00 -0.45593999997E+02  0.45594000000E+02  0.51100000000E-03 0. -1.
    9900012    2    1    2    0    0 -0.47980875515E+01  0.34912973320E+02 -0.25331509288E+02  0.47787277506E+02  0.20000029462E+02 0.  0.
        -12    1    1    2    0    0  0.47980875515E+01 -0.34912973320E+02  0.25331509288E+02  0.43400722494E+02  0.00000000000E+00 0.  1.
         11    1    3    3    0    0 -0.17886911818E+01  0.27165338306E+02 -0.18887725832E+02  0.33134592329E+02  0.51100000000E-03 0. -1.
        -11    1    3    3    0    0  0.48881969167E+00  0.91217299376E+01 -0.31725571471E+01  0.96700579553E+01  0.51100000000E-03 0.  1.
        -12    1    3    3    0    0 -0.34982160614E+01 -0.13740949240E+01 -0.32712263085E+01  0.49826272220E+01  0.00000000000E+00 0.  1.
</event>
<event>
 7    1  0.1899036E-009  0.4778727E+02  0.7816164E-02  0.1312668E+00
        -11   -1    0    0    0    0  0.00000000000E+00  0.00000000000E+00  0.45593999997E+02  0.45594000000E+02  0.51100000000E-03 0.  1.
         11   -1    0    0    0    0 -0.00000000000E+00 -0.00000000000E+00 -0.45593999997E+02  0.45594000000E+02  0.51100000000E-03 0. -1.
    9900012    2    1    2    0    0 -0.18025640484E+02 -0.53128905484E+01 -0.39121255938E+02  0.47787272045E+02  0.20000004561E+02 0.  0.
        -12    1    1    2    0    0  0.18025640484E+02  0.53128905484E+01  0.39121255938E+02  0.43400727955E+02  0.00000000000E+00 0.  1.
         11    1    3    3    0    0 -0.32118318260E+01 -0.62812512909E+01 -0.21784839707E+02  0.22898672948E+02  0.51100000000E-03 0.  1.
        -11    1    3    3    0    0 -0.57571571155E+01  0.39385741779E+01 -0.12220389341E+02  0.14071074604E+02  0.51100000000E-03 0. -1.
         12    1    3    3    0    0 -0.90566515424E+01 -0.29702134354E+01 -0.51160268911E+01  0.10817524493E+02  0.00000000000E+00 0. -1.
</event>
<event>
 7    1  0.1899036E-009  0.4778725E+02  0.7816164E-02  0.1312668E+00
        -11   -1    0    0    0    0  0.00000000000E+00  0.00000000000E+00  0.45593999997E+02  0.45594000000E+02  0.51100000000E-03 0.  1.
         11   -1    0    0    0    0 -0.00000000000E+00 -0.00000000000E+00 -0.45593999997E+02  0.45594000000E+02  0.51100000000E-03 0. -1.
    9900012    2    1    2    0    0 -0.30012028729E+02  0.26228692834E+02 -0.17174358844E+02  0.47787253487E+02  0.19999919948E+02 0.  0.
        -12    1    1    2    0    0  0.30012028729E+02 -0.26228692834E+02  0.17174358844E+02  0.43400746513E+02  0.00000000000E+00 0.  1.
         11    1    3    3    0    0 -0.48475116080E+01  0.53213068045E+01  0.98529448994E+00  0.72653616834E+01  0.51100000000E-03 0.  1.
        -11    1    3    3    0    0 -0.18112728472E+02  0.69266302791E+01 -0.15075403088E+02  0.24562510422E+02  0.51100000000E-03 0. -1.
         12    1    3    3    0    0 -0.70517886493E+01  0.13980755750E+02 -0.30842502466E+01  0.15959381382E+02  0.00000000000E+00 0. -1.
</event>
<event>
 7    1  0.1899036E-009  0.4778727E+02  0.7816164E-02  0.1312668E+00
        -11   -1    0    0    0    0  0.00000000000E+00  0.00000000000E+00  0.45593999997E+02  0.45594000000E+02  0.51100000000E-03 0.  1.
         11   -1    0    0    0    0 -0.00000000000E+00 -0.00000000000E+00 -0.45593999997E+02  0.45594000000E+02  0.51100000000E-03 0. -1.
    9900012    2    1    2    0    0  0.14159231266E+02 -0.31737038424E+02 -0.25998082907E+02  0.47787265527E+02  0.19999974843E+02 0.  0.
        -12    1    1    2    0    0 -0.14159231266E+02  0.31737038424E+02  0.25998082907E+02  0.43400734473E+02  0.00000000000E+00 0.  1.
         11    1    3    3    0    0  0.37569267076E+01 -0.89821375905E+00  0.87009540772E+00  0.39595899438E+01  0.51100000000E-03 0. -1.
        -11    1    3    3    0    0  0.54750764972E+01 -0.12906701996E+02 -0.19053388837E+02  0.23655676814E+02  0.51100000000E-03 0.  1.
         12    1    3    3    0    0  0.49272280608E+01 -0.17932122669E+02 -0.78147894776E+01  0.20171998769E+02  0.00000000000E+00 0. -1.
</event>
<event>
 7    1  0.1899036E-009  0.4778726E+02  0.7816164E-02  0.1312668E+00
        -11   -1    0    0    0    0  0.00000000000E+00  0.00000000000E+00  0.45593999997E+02  0.45594000000E+02  0.51100000000E-03 0. -1.
         11   -1    0    0    0    0 -0.00000000000E+00 -0.00000000000E+00 -0.45593999997E+02  0.45594000000E+02  0.51100000000E-03 0.  1.
    9900012    2    1    2    0    0  0.14067212949E+02  0.31211284296E+02  0.26675702265E+02  0.47787264535E+02  0.19999970321E+02 0.  0.
        -12    1    1    2    0    0 -0.14067212949E+02 -0.31211284296E+02 -0.26675702265E+02  0.43400735465E+02  0.00000000000E+00 0.  1.
         11    1    3    3    0    0 -0.27406188367E+01  0.37314558826E+01  0.14984107444E+01  0.48662089590E+01  0.51100000000E-03 0. -1.
        -11    1    3    3    0    0 -0.15370391896E+01  0.67762975854E+01  0.35164631669E+01  0.77875677783E+01  0.51100000000E-03 0.  1.
        -12    1    3    3    0    0  0.18344870976E+02  0.20703530828E+02  0.21660828354E+02  0.35133487798E+02  0.00000000000E+00 0.  1.
</event>
<event>
 7    1  0.1899036E-009  0.4778727E+02  0.7816164E-02  0.1312668E+00
        -11   -1    0    0    0    0  0.00000000000E+00  0.00000000000E+00  0.45593999997E+02  0.45594000000E+02  0.51100000000E-03 0.  1.
         11   -1    0    0    0    0 -0.00000000000E+00 -0.00000000000E+00 -0.45593999997E+02  0.45594000000E+02  0.51100000000E-03 0. -1.
    9900012    2    1    2    0    0  0.14329321730E+02  0.11820447461E+02 -0.39224617767E+02  0.47787273296E+02  0.20000010267E+02 0.  0.
        -12    1    1    2    0    0 -0.14329321730E+02 -0.11820447461E+02  0.39224617767E+02  0.43400726704E+02  0.00000000000E+00 0.  1.
         11    1    3    3    0    0  0.26810542741E+01 -0.12348850193E+01 -0.13919413047E+02  0.14228951221E+02  0.51100000000E-03 0. -1.
        -11    1    3    3    0    0  0.33573149674E+01  0.37954200523E+01 -0.18916231058E+02  0.19583170706E+02  0.51100000000E-03 0.  1.
        -12    1    3    3    0    0  0.82909524882E+01  0.92599124284E+01 -0.63889736621E+01  0.13975151369E+02  0.00000000000E+00 0.  1.
</event>
<event>
 7    1  0.2034778E-009  0.4778727E+02  0.7816164E-02  0.1312668E+00
        -11   -1    0    0    0    0  0.00000000000E+00  0.00000000000E+00  0.45593999997E+02  0.45594000000E+02  0.51100000000E-03 0.  1.
         11   -1    0    0    0    0 -0.00000000000E+00 -0.00000000000E+00 -0.45593999997E+02  0.45594000000E+02  0.51100000000E-03 0. -1.
    9900012    2    1    2    0    0 -0.31304409991E+02 -0.29168777933E+02  0.72690937303E+01  0.47787269422E+02  0.19999992604E+02 0.  0.
        -12    1    1    2    0    0  0.31304409991E+02  0.29168777933E+02 -0.72690937303E+01  0.43400730578E+02  0.00000000000E+00 0.  1.
         11    1    3    3    0    0 -0.39921966272E+01 -0.84101698931E+01  0.14955936058E+01  0.94289655868E+01  0.51100000000E-03 0. -1.
        -11    1    3    3    0    0 -0.91075466526E+01  0.14313113722E+01  0.13842085771E+01  0.93226654944E+01  0.51100000000E-03 0.  1.
        -12    1    3    3    0    0 -0.18204666711E+02 -0.22189919412E+02  0.43892915474E+01  0.29035638341E+02  0.00000000000E+00 0.  1.
</event>
<event>
 7    1  0.1899036E-009  0.4778727E+02  0.7816164E-02  0.1312668E+00
        -11   -1    0    0    0    0  0.00000000000E+00  0.00000000000E+00  0.45593999997E+02  0.45594000000E+02  0.51100000000E-03 0.  1.
         11   -1    0    0    0    0 -0.00000000000E+00 -0.00000000000E+00 -0.45593999997E+02  0.45594000000E+02  0.51100000000E-03 0. -1.
    9900012    2    1    2    0    0  0.29430266338E+02 -0.22285992806E+02 -0.22821421347E+02  0.47787270463E+02  0.19999997349E+02 0.  0.
        -12    1    1    2    0    0 -0.29430266338E+02  0.22285992806E+02  0.22821421347E+02  0.43400729537E+02  0.00000000000E+00 0.  1.
         11    1    3    3    0    0  0.61407163739E+01 -0.10213277321E+01 -0.50129929070E+01  0.79925969540E+01  0.51100000000E-03 0. -1.
        -11    1    3    3    0    0  0.12966138208E+02 -0.22537635043E+01 -0.27721910441E+01  0.13449358104E+02  0.51100000000E-03 0.  1.
         12    1    3    3    0    0  0.10323411756E+02 -0.19010901569E+02 -0.15036237396E+02  0.26345315405E+02  0.00000000000E+00 0. -1.
</event>
<event>
 7    1  0.1899036E-009  0.4778727E+02  0.7816164E-02  0.1312668E+00
        -11   -1    0    0    0    0  0.00000000000E+00  0.00000000000E+00  0.45593999997E+02  0.45594000000E+02  0.51100000000E-03 0. -1.
         11   -1    0    0    0    0 -0.00000000000E+00 -0.00000000000E+00 -0.45593999997E+02  0.45594000000E+02  0.51100000000E-03 0.  1.
    9900012    2    1    2    0    0  0.27086629498E+02 -0.31706421122E+02 -0.12026660463E+02  0.47787271897E+02  0.20000003887E+02 0.  0.
        -12    1    1    2    0    0 -0.27086629498E+02  0.31706421122E+02  0.12026660463E+02  0.43400728103E+02  0.00000000000E+00 0.  1.
         11    1    3    3    0    0  0.12652172522E+02 -0.17707538721E+02  0.20813429538E+01  0.21862442357E+02  0.51100000000E-03 0. -1.
        -11    1    3    3    0    0  0.23482341842E+01 -0.73515003818E+01 -0.69446421825E+01  0.10382043005E+02  0.51100000000E-03 0.  1.
        -12    1    3    3    0    0  0.12086222792E+02 -0.66473820199E+01 -0.71633612343E+01  0.15542786535E+02  0.00000000000E+00 0.  1.
</event>
<event>
 7    1  0.1899036E-009  0.4778727E+02  0.7816164E-02  0.1312668E+00
        -11   -1    0    0    0    0  0.00000000000E+00  0.00000000000E+00  0.45593999997E+02  0.45594000000E+02  0.51100000000E-03 0.  1.
         11   -1    0    0    0    0 -0.00000000000E+00 -0.00000000000E+00 -0.45593999997E+02  0.45594000000E+02  0.51100000000E-03 0. -1.
    9900012    2    1    2    0    0 -0.11858478979E+02 -0.16053221163E+02 -0.38539510875E+02  0.47787270376E+02  0.19999996954E+02 0.  0.
        -12    1    1    2    0    0  0.11858478979E+02  0.16053221163E+02  0.38539510875E+02  0.43400729624E+02  0.00000000000E+00 0.  1.
         11    1    3    3    0    0 -0.68611787261E+01 -0.27988959963E+01 -0.32183966199E+01  0.80788408434E+01  0.51100000000E-03 0. -1.
        -11    1    3    3    0    0 -0.72196464105E+01 -0.12992089566E+02 -0.24481247781E+02  0.28639992646E+02  0.51100000000E-03 0.  1.
        -12    1    3    3    0    0  0.22223461578E+01 -0.26223560141E+00 -0.10839866474E+02  0.11068436887E+02  0.00000000000E+00 0.  1.
</event>
<event>
 7    1  0.1899036E-009  0.4778727E+02  0.7816164E-02  0.1312668E+00
        -11   -1    0    0    0    0  0.00000000000E+00  0.00000000000E+00  0.45593999997E+02  0.45594000000E+02  0.51100000000E-03 0. -1.
         11   -1    0    0    0    0 -0.00000000000E+00 -0.00000000000E+00 -0.45593999997E+02  0.45594000000E+02  0.51100000000E-03 0.  1.
    9900012    2    1    2    0    0 -0.32602638951E+02 -0.94394723822E+01  0.27047875166E+02  0.47787271245E+02  0.20000000916E+02 0.  0.
        -12    1    1    2    0    0  0.32602638951E+02  0.94394723822E+01 -0.27047875166E+02  0.43400728755E+02  0.00000000000E+00 0.  1.
         11    1    3    3    0    0 -0.64687784095E+01  0.88396761956E+00  0.12744908648E+02  0.14319887903E+02  0.51100000000E-03 0. -1.
        -11    1    3    3    0    0 -0.99450928569E+01 -0.20021977023E+01 -0.27303639949E+00  0.10148311027E+02  0.51100000000E-03 0.  1.
         12    1    3    3    0    0 -0.16188767685E+02 -0.83212422995E+01  0.14576002918E+02  0.23319072315E+02  0.00000000000E+00 0. -1.
</event>
<event>
 7    1  0.1899036E-009  0.4778727E+02  0.7816164E-02  0.1312668E+00
        -11   -1    0    0    0    0  0.00000000000E+00  0.00000000000E+00  0.45593999997E+02  0.45594000000E+02  0.51100000000E-03 0. -1.
         11   -1    0    0    0    0 -0.00000000000E+00 -0.00000000000E+00 -0.45593999997E+02  0.45594000000E+02  0.51100000000E-03 0.  1.
    9900012    2    1    2    0    0  0.33774018741E+02  0.16173117955E+02  0.21940137533E+02  0.47787265890E+02  0.19999976500E+02 0.  0.
        -12    1    1    2    0    0 -0.33774018741E+02 -0.16173117955E+02 -0.21940137533E+02  0.43400734110E+02  0.00000000000E+00 0.  1.
         11    1    3    3    0    0 -0.60717380824E+00 -0.10316105870E+00  0.30095485495E-01  0.61661027952E+00  0.51100000000E-03 0. -1.
        -11    1    3    3    0    0  0.20848512900E+02  0.64624765451E+01  0.31664998561E+01  0.22055630003E+02  0.51100000000E-03 0.  1.
         12    1    3    3    0    0  0.13532679649E+02  0.98138024683E+01  0.18743542192E+02  0.25115025607E+02  0.00000000000E+00 0. -1.
</event>
<event>
 7    1  0.1899036E-009  0.4778727E+02  0.7816164E-02  0.1312668E+00
        -11   -1    0    0    0    0  0.00000000000E+00  0.00000000000E+00  0.45593999997E+02  0.45594000000E+02  0.51100000000E-03 0.  1.
         11   -1    0    0    0    0 -0.00000000000E+00 -0.00000000000E+00 -0.45593999997E+02  0.45594000000E+02  0.51100000000E-03 0. -1.
    9900012    2    1    2    0    0  0.32892928752E+02  0.12450080310E+02 -0.25429783702E+02  0.47787272348E+02  0.20000005945E+02 0.  0.
        -12    1    1    2    0    0 -0.32892928752E+02 -0.12450080310E+02  0.25429783702E+02  0.43400727652E+02  0.00000000000E+00 0.  1.
         11    1    3    3    0    0  0.56318678461E+01  0.14544067195E+01 -0.75089952379E+01  0.94983284890E+01  0.51100000000E-03 0. -1.
        -11    1    3    3    0    0  0.95741023798E+01  0.44301307610E+01  0.21250756827E+01  0.10761293689E+02  0.51100000000E-03 0.  1.
        -12    1    3    3    0    0  0.17686958526E+02  0.65655428296E+01 -0.20045864146E+02  0.27527650171E+02  0.00000000000E+00 0.  1.
</event>
<event>
 7    1  0.1899036E-009  0.4778728E+02  0.7816164E-02  0.1312668E+00
        -11   -1    0    0    0    0  0.00000000000E+00  0.00000000000E+00  0.45593999997E+02  0.45594000000E+02  0.51100000000E-03 0.  1.
         11   -1    0    0    0    0 -0.00000000000E+00 -0.00000000000E+00 -0.45593999997E+02  0.45594000000E+02  0.51100000000E-03 0. -1.
    9900012    2    1    2    0    0  0.93032576312E+01  0.89875020729E+01 -0.41428206624E+02  0.47787284566E+02  0.20000061652E+02 0.  0.
        -12    1    1    2    0    0 -0.93032576312E+01 -0.89875020729E+01  0.41428206624E+02  0.43400715434E+02  0.00000000000E+00 0.  1.
         11    1    3    3    0    0  0.10983817514E+01 -0.24095055626E+00 -0.12322783646E+02  0.12373984673E+02  0.51100000000E-03 0. -1.
        -11    1    3    3    0    0  0.22061638178E+01  0.46827508338E+01  0.17663344765E+00  0.51794318027E+01  0.51100000000E-03 0.  1.
        -12    1    3    3    0    0  0.59987120619E+01  0.45457017953E+01 -0.29282056426E+02  0.30233868091E+02  0.00000000000E+00 0.  1.
</event>
<event>
 7    1  0.1899036E-009  0.4778727E+02  0.7816164E-02  0.1312668E+00
        -11   -1    0    0    0    0  0.00000000000E+00  0.00000000000E+00  0.45593999997E+02  0.45594000000E+02  0.51100000000E-03 0.  1.
         11   -1    0    0    0    0 -0.00000000000E+00 -0.00000000000E+00 -0.45593999997E+02  0.45594000000E+02  0.51100000000E-03 0. -1.
    9900012    2    1    2    0    0  0.17874999053E+00 -0.41263572198E+02 -0.13450235592E+02  0.47787272131E+02  0.20000004953E+02 0.  0.
        -12    1    1    2    0    0 -0.17874999053E+00  0.41263572198E+02  0.13450235592E+02  0.43400727869E+02  0.00000000000E+00 0.  1.
         11    1    3    3    0    0  0.59061748405E+01 -0.36860640502E+02 -0.89784786971E+01  0.38395348670E+02  0.51100000000E-03 0. -1.
        -11    1    3    3    0    0 -0.31598507231E+01 -0.44808755717E+01 -0.20267110547E+01  0.58455504824E+01  0.51100000000E-03 0.  1.
        -12    1    3    3    0    0 -0.25675741269E+01  0.77943875855E-01 -0.24450458398E+01  0.35463729786E+01  0.00000000000E+00 0.  1.
</event>
<event>
 7    1  0.1899036E-009  0.4778724E+02  0.7816164E-02  0.1312668E+00
        -11   -1    0    0    0    0  0.00000000000E+00  0.00000000000E+00  0.45593999997E+02  0.45594000000E+02  0.51100000000E-03 0.  1.
         11   -1    0    0    0    0 -0.00000000000E+00 -0.00000000000E+00 -0.45593999997E+02  0.45594000000E+02  0.51100000000E-03 0. -1.
    9900012    2    1    2    0    0 -0.11320026339E+02 -0.25890534409E+02 -0.32941819323E+02  0.47787237005E+02  0.19999844798E+02 0.  0.
        -12    1    1    2    0    0  0.11320026339E+02  0.25890534409E+02  0.32941819323E+02  0.43400762995E+02  0.00000000000E+00 0.  1.
         11    1    3    3    0    0 -0.59296814822E+01 -0.18832056890E+02 -0.26245168628E+02  0.32842295379E+02  0.51100000000E-03 0. -1.
        -11    1    3    3    0    0  0.16399447544E+01  0.14574914142E+00 -0.42901247624E+01  0.45951966604E+01  0.51100000000E-03 0.  1.
        -12    1    3    3    0    0 -0.70302896108E+01 -0.72042266595E+01 -0.24065259329E+01  0.10349744965E+02  0.00000000000E+00 0.  1.
</event>
<event>
 7    1  0.1899036E-009  0.4778722E+02  0.7816164E-02  0.1312668E+00
        -11   -1    0    0    0    0  0.00000000000E+00  0.00000000000E+00  0.45593999997E+02  0.45594000000E+02  0.51100000000E-03 0. -1.
         11   -1    0    0    0    0 -0.00000000000E+00 -0.00000000000E+00 -0.45593999997E+02  0.45594000000E+02  0.51100000000E-03 0.  1.
    9900012    2    1    2    0    0  0.36097071235E+02  0.38568208139E+01  0.23785594011E+02  0.47787215433E+02  0.19999746446E+02 0.  0.
        -12    1    1    2    0    0 -0.36097071235E+02 -0.38568208139E+01 -0.23785594011E+02  0.43400784567E+02  0.00000000000E+00 0.  1.
         11    1    3    3    0    0  0.22209295084E+02 -0.78954014749E+00  0.54068924779E+01  0.22871612280E+02  0.51100000000E-03 0. -1.
        -11    1    3    3    0    0 -0.10559992809E+01 -0.26545133932E+00  0.13232315859E+01  0.17136338541E+01  0.51100000000E-03 0.  1.
        -12    1    3    3    0    0  0.14943775432E+02  0.49118123007E+01  0.17055469947E+02  0.23201969299E+02  0.00000000000E+00 0.  1.
</event>
<event>
 7    1  0.1899036E-009  0.4778727E+02  0.7816164E-02  0.1312668E+00
        -11   -1    0    0    0    0  0.00000000000E+00  0.00000000000E+00  0.45593999997E+02  0.45594000000E+02  0.51100000000E-03 0.  1.
         11   -1    0    0    0    0 -0.00000000000E+00 -0.00000000000E+00 -0.45593999997E+02  0.45594000000E+02  0.51100000000E-03 0. -1.
    9900012    2    1    2    0    0  0.36493293686E+02  0.58960651745E+01 -0.22739815610E+02  0.47787270945E+02  0.19999999545E+02 0.  0.
        -12    1    1    2    0    0 -0.36493293686E+02 -0.58960651745E+01  0.22739815610E+02  0.43400729055E+02  0.00000000000E+00 0.  1.
         11    1    3    3    0    0  0.19386594730E+02 -0.22920643438E+01 -0.65137525456E+01  0.20579664397E+02  0.51100000000E-03 0. -1.
        -11    1    3    3    0    0  0.32368388585E+01  0.48333024791E+01 -0.30140488887E+00  0.58248419565E+01  0.51100000000E-03 0.  1.
         12    1    3    3    0    0  0.13869860097E+02  0.33548270392E+01 -0.15924658175E+02  0.21382764591E+02  0.00000000000E+00 0. -1.
</event>
<event>
 7    1  0.1899036E-009  0.4778727E+02  0.7816164E-02  0.1312668E+00
        -11   -1    0    0    0    0  0.00000000000E+00  0.00000000000E+00  0.45593999997E+02  0.45594000000E+02  0.51100000000E-03 0.  1.
         11   -1    0    0    0    0 -0.00000000000E+00 -0.00000000000E+00 -0.45593999997E+02  0.45594000000E+02  0.51100000000E-03 0. -1.
    9900012    2    1    2    0    0 -0.27035089469E+02  0.66062124647E+01 -0.33302932200E+02  0.47787269605E+02  0.19999993437E+02 0.  0.
        -12    1    1    2    0    0  0.27035089469E+02 -0.66062124647E+01  0.33302932200E+02  0.43400730395E+02  0.00000000000E+00 0.  1.
         11    1    3    3    0    0 -0.36919599630E+01 -0.32791203648E+00 -0.30573077486E+01  0.48047086908E+01  0.51100000000E-03 0. -1.
        -11    1    3    3    0    0 -0.22657968596E+02  0.35445133576E+01 -0.31787000513E+02  0.39196435013E+02  0.51100000000E-03 0.  1.
        -12    1    3    3    0    0 -0.68516090998E+00  0.33896111436E+01  0.15413760619E+01  0.37861259014E+01  0.00000000000E+00 0.  1.
</event>
<event>
 7    1  0.1899036E-009  0.4778729E+02  0.7816164E-02  0.1312668E+00
        -11   -1    0    0    0    0  0.00000000000E+00  0.00000000000E+00  0.45593999997E+02  0.45594000000E+02  0.51100000000E-03 0.  1.
         11   -1    0    0    0    0 -0.00000000000E+00 -0.00000000000E+00 -0.45593999997E+02  0.45594000000E+02  0.51100000000E-03 0. -1.
    9900012    2    1    2    0    0 -0.32268413012E+02 -0.14299500874E+02  0.25256600237E+02  0.47787285039E+02  0.20000063808E+02 0.  0.
        -12    1    1    2    0    0  0.32268413012E+02  0.14299500874E+02 -0.25256600237E+02  0.43400714961E+02  0.00000000000E+00 0.  1.
         11    1    3    3    0    0 -0.13362602439E+02 -0.12795175474E+02  0.13323835375E+02  0.22799128244E+02  0.51100000000E-03 0. -1.
        -11    1    3    3    0    0 -0.16395568124E+02 -0.16244090959E+00  0.13926866646E+02  0.21512755658E+02  0.51100000000E-03 0.  1.
         12    1    3    3    0    0 -0.25102424497E+01 -0.13418844900E+01 -0.19941017836E+01  0.34754011371E+01  0.00000000000E+00 0. -1.
</event>
<event>
 7    1  0.1899036E-009  0.4778727E+02  0.7816164E-02  0.1312668E+00
        -11   -1    0    0    0    0  0.00000000000E+00  0.00000000000E+00  0.45593999997E+02  0.45594000000E+02  0.51100000000E-03 0.  1.
         11   -1    0    0    0    0 -0.00000000000E+00 -0.00000000000E+00 -0.45593999997E+02  0.45594000000E+02  0.51100000000E-03 0. -1.
    9900012    2    1    2    0    0  0.39146408255E+02  0.61351471230E+01 -0.17707111424E+02  0.47787272996E+02  0.20000008899E+02 0.  0.
        -12    1    1    2    0    0 -0.39146408255E+02 -0.61351471230E+01  0.17707111424E+02  0.43400727004E+02  0.00000000000E+00 0.  1.
         11    1    3    3    0    0  0.21164092306E+02  0.10462201441E+02 -0.10558974167E+02  0.25862490171E+02  0.51100000000E-03 0. -1.
        -11    1    3    3    0    0  0.13945300007E+02 -0.37773036662E+01 -0.94320048842E+01  0.17254046820E+02  0.51100000000E-03 0.  1.
        -12    1    3    3    0    0  0.40370159416E+01 -0.54975065156E+00  0.22838676271E+01  0.46707360051E+01  0.00000000000E+00 0.  1.
</event>
<event>
 7    1  0.1899036E-009  0.4778727E+02  0.7816164E-02  0.1312668E+00
        -11   -1    0    0    0    0  0.00000000000E+00  0.00000000000E+00  0.45593999997E+02  0.45594000000E+02  0.51100000000E-03 0. -1.
         11   -1    0    0    0    0 -0.00000000000E+00 -0.00000000000E+00 -0.45593999997E+02  0.45594000000E+02  0.51100000000E-03 0.  1.
    9900012    2    1    2    0    0 -0.40845229318E+02 -0.14220116826E+02  0.36164398563E+01  0.47787272842E+02  0.20000008197E+02 0.  0.
        -12    1    1    2    0    0  0.40845229318E+02  0.14220116826E+02 -0.36164398563E+01  0.43400727158E+02  0.00000000000E+00 0.  1.
         11    1    3    3    0    0 -0.20603872961E+02  0.52682853379E+00 -0.17530562680E+01  0.20685026851E+02  0.51100000000E-03 0. -1.
        -11    1    3    3    0    0 -0.11923956181E+02 -0.38968306732E+01  0.38445927388E+00  0.12550451366E+02  0.51100000000E-03 0.  1.
        -12    1    3    3    0    0 -0.83174001763E+01 -0.10850114687E+02  0.49850368504E+01  0.14551794625E+02  0.00000000000E+00 0.  1.
</event>
<event>
 7    1  0.1899036E-009  0.4778728E+02  0.7816164E-02  0.1312668E+00
        -11   -1    0    0    0    0  0.00000000000E+00  0.00000000000E+00  0.45593999997E+02  0.45594000000E+02  0.51100000000E-03 0. -1.
         11   -1    0    0    0    0 -0.00000000000E+00 -0.00000000000E+00 -0.45593999997E+02  0.45594000000E+02  0.51100000000E-03 0.  1.
    9900012    2    1    2    0    0  0.27922057036E+02  0.32271038129E+02  0.79095799001E+01  0.47787278517E+02  0.20000034070E+02 0.  0.
        -12    1    1    2    0    0 -0.27922057036E+02 -0.32271038129E+02 -0.79095799001E+01  0.43400721483E+02  0.00000000000E+00 0.  1.
         11    1    3    3    0    0  0.21397955065E+02  0.14136557061E+02 -0.16740476598E+01  0.25700528445E+02  0.51100000000E-03 0.  1.
        -11    1    3    3    0    0  0.47883493249E+01  0.13318839301E+02  0.44485661129E+01  0.14836088106E+02  0.51100000000E-03 0. -1.
        -12    1    3    3    0    0  0.17357526463E+01  0.48156417673E+01  0.51350614469E+01  0.72506619659E+01  0.00000000000E+00 0.  1.
</event>
<event>
 7    1  0.1899036E-009  0.4778727E+02  0.7816164E-02  0.1312668E+00
        -11   -1    0    0    0    0  0.00000000000E+00  0.00000000000E+00  0.45593999997E+02  0.45594000000E+02  0.51100000000E-03 0.  1.
         11   -1    0    0    0    0 -0.00000000000E+00 -0.00000000000E+00 -0.45593999997E+02  0.45594000000E+02  0.51100000000E-03 0. -1.
    9900012    2    1    2    0    0  0.32508289892E+02 -0.11771379932E+02 -0.26234882376E+02  0.47787270162E+02  0.19999995976E+02 0.  0.
        -12    1    1    2    0    0 -0.32508289892E+02  0.11771379932E+02  0.26234882376E+02  0.43400729838E+02  0.00000000000E+00 0.  1.
         11    1    3    3    0    0  0.20624485723E+02 -0.91987830798E+01 -0.10507055145E+02  0.24907533590E+02  0.51100000000E-03 0. -1.
        -11    1    3    3    0    0  0.14028752244E+02 -0.14532895459E+01 -0.12500616614E+02  0.18846308817E+02  0.51100000000E-03 0.  1.
        -12    1    3    3    0    0 -0.21449480744E+01 -0.11193073061E+01 -0.32272106162E+01  0.40334277543E+01  0.00000000000E+00 0.  1.
</event>
<event>
 7    1  0.1899036E-009  0.4778729E+02  0.7816164E-02  0.1312668E+00
        -11   -1    0    0    0    0  0.00000000000E+00  0.00000000000E+00  0.45593999997E+02  0.45594000000E+02  0.51100000000E-03 0.  1.
         11   -1    0    0    0    0 -0.00000000000E+00 -0.00000000000E+00 -0.45593999997E+02  0.45594000000E+02  0.51100000000E-03 0. -1.
    9900012    2    1    2    0    0 -0.26242720783E+02 -0.10877104287E+02 -0.32812037532E+02  0.47787290343E+02  0.20000087988E+02 0.  0.
        -12    1    1    2    0    0  0.26242720783E+02  0.10877104287E+02  0.32812037532E+02  0.43400709657E+02  0.00000000000E+00 0.  1.
         11    1    3    3    0    0 -0.22196202594E+02 -0.88067392802E+01 -0.17292305919E+02  0.29483112295E+02  0.51100000000E-03 0. -1.
        -11    1    3    3    0    0 -0.52960569754E-02 -0.48130118521E+01 -0.80665527536E+01  0.93933159600E+01  0.51100000000E-03 0.  1.
        -12    1    3    3    0    0 -0.40412221319E+01  0.27426468450E+01 -0.74531788596E+01  0.89108620879E+01  0.00000000000E+00 0.  1.
</event>
<event>
 7    1  0.1899036E-009  0.4778727E+02  0.7816164E-02  0.1312668E+00
        -11   -1    0    0    0    0  0.00000000000E+00  0.00000000000E+00  0.45593999997E+02  0.45594000000E+02  0.51100000000E-03 0.  1.
         11   -1    0    0    0    0 -0.00000000000E+00 -0.00000000000E+00 -0.45593999997E+02  0.45594000000E+02  0.51100000000E-03 0. -1.
    9900012    2    1    2    0    0 -0.32337579661E+02 -0.27174926144E+02  0.99713562491E+01  0.47787267118E+02  0.19999982096E+02 0.  0.
        -12    1    1    2    0    0  0.32337579661E+02  0.27174926144E+02 -0.99713562491E+01  0.43400732882E+02  0.00000000000E+00 0.  1.
         11    1    3    3    0    0 -0.14481833643E+02 -0.50951485621E+01 -0.15576978883E+01  0.15430828478E+02  0.51100000000E-03 0. -1.
        -11    1    3    3    0    0 -0.17352021005E+02 -0.19421294696E+02  0.68144327116E+01  0.26920546318E+02  0.51100000000E-03 0.  1.
         12    1    3    3    0    0 -0.50372501323E+00 -0.26584828858E+01  0.47146214258E+01  0.54358923216E+01  0.00000000000E+00 0. -1.
</event>
<event>
 7    1  0.1899036E-009  0.4778727E+02  0.7816164E-02  0.1312668E+00
        -11   -1    0    0    0    0  0.00000000000E+00  0.00000000000E+00  0.45593999997E+02  0.45594000000E+02  0.51100000000E-03 0. -1.
         11   -1    0    0    0    0 -0.00000000000E+00 -0.00000000000E+00 -0.45593999997E+02  0.45594000000E+02  0.51100000000E-03 0.  1.
    9900012    2    1    2    0    0 -0.27296334721E+02 -0.19932196441E+02  0.27225744249E+02  0.47787268508E+02  0.19999988433E+02 0.  0.
        -12    1    1    2    0    0  0.27296334721E+02  0.19932196441E+02 -0.27225744249E+02  0.43400731492E+02  0.00000000000E+00 0.  1.
         11    1    3    3    0    0 -0.15329960889E+02 -0.60677173963E+01  0.13078860108E+02  0.21044749399E+02  0.51100000000E-03 0. -1.
        -11    1    3    3    0    0 -0.58556566181E+01 -0.11445618540E+02  0.15390458164E+02  0.20053855015E+02  0.51100000000E-03 0.  1.
        -12    1    3    3    0    0 -0.61107172139E+01 -0.24188605053E+01 -0.12435740236E+01  0.66886640941E+01  0.00000000000E+00 0.  1.
</event>
<event>
 7    1  0.1899036E-009  0.4778727E+02  0.7816164E-02  0.1312668E+00
        -11   -1    0    0    0    0  0.00000000000E+00  0.00000000000E+00  0.45593999997E+02  0.45594000000E+02  0.51100000000E-03 0. -1.
         11   -1    0    0    0    0 -0.00000000000E+00 -0.00000000000E+00 -0.45593999997E+02  0.45594000000E+02  0.51100000000E-03 0.  1.
    9900012    2    1    2    0    0  0.28256748509E+02 -0.13223096774E+02  0.30171656719E+02  0.47787274271E+02  0.20000014712E+02 0.  0.
        -12    1    1    2    0    0 -0.28256748509E+02  0.13223096774E+02 -0.30171656719E+02  0.43400725729E+02  0.00000000000E+00 0.  1.
         11    1    3    3    0    0  0.11296213657E+02 -0.46940805597E+01  0.45467968625E+01  0.13050371537E+02  0.51100000000E-03 0. -1.
        -11    1    3    3    0    0  0.11874607184E+01  0.63409181013E+00 -0.15211552789E+01  0.20312678368E+01  0.51100000000E-03 0.  1.
        -12    1    3    3    0    0  0.15773074134E+02 -0.91631080248E+01  0.27146015135E+02  0.32705634897E+02  0.00000000000E+00 0.  1.
</event>
<event>
 7    1  0.1899036E-009  0.4778727E+02  0.7816164E-02  0.1312668E+00
        -11   -1    0    0    0    0  0.00000000000E+00  0.00000000000E+00  0.45593999997E+02  0.45594000000E+02  0.51100000000E-03 0.  1.
         11   -1    0    0    0    0 -0.00000000000E+00 -0.00000000000E+00 -0.45593999997E+02  0.45594000000E+02  0.51100000000E-03 0. -1.
    9900012    2    1    2    0    0  0.38534595875E+02 -0.19743757984E+02  0.29819937480E+01  0.47787270221E+02  0.19999996248E+02 0.  0.
        -12    1    1    2    0    0 -0.38534595875E+02  0.19743757984E+02 -0.29819937480E+01  0.43400729779E+02  0.00000000000E+00 0.  1.
         11    1    3    3    0    0  0.22193523919E+02 -0.76390671872E+01 -0.12605943766E+00  0.23471764797E+02  0.51100000000E-03 0. -1.
        -11    1    3    3    0    0  0.80914505466E+00  0.17279613432E+01 -0.21378763907E+01  0.28654985336E+01  0.51100000000E-03 0.  1.
         12    1    3    3    0    0  0.15531926902E+02 -0.13832652140E+02  0.52459295764E+01  0.21450006891E+02  0.00000000000E+00 0. -1.
</event>
<event>
 7    1  0.1899036E-009  0.4778726E+02  0.7816164E-02  0.1312668E+00
        -11   -1    0    0    0    0  0.00000000000E+00  0.00000000000E+00  0.45593999997E+02  0.45594000000E+02  0.51100000000E-03 0.  1.
         11   -1    0    0    0    0 -0.00000000000E+00 -0.00000000000E+00 -0.45593999997E+02  0.45594000000E+02  0.51100000000E-03 0. -1.
    9900012    2    1    2    0    0  0.42253055963E+02 -0.32367731763E+01 -0.93715822119E+01  0.47787262772E+02  0.19999962282E+02 0.  0.
        -12    1    1    2    0    0 -0.42253055963E+02  0.32367731763E+01  0.93715822119E+01  0.43400737228E+02  0.00000000000E+00 0.  1.
         11    1    3    3    0    0  0.29096002876E+02 -0.27552660014E+01 -0.50453125712E+01  0.29658456691E+02  0.51100000000E-03 0. -1.
        -11    1    3    3    0    0  0.93293301017E+01 -0.53903551263E+01 -0.49798838512E+01  0.11869775565E+02  0.51100000000E-03 0.  1.
         12    1    3    3    0    0  0.38277229850E+01  0.49088479514E+01  0.65361421051E+00  0.62590305156E+01  0.00000000000E+00 0. -1.
</event>
<event>
 7    1  0.1899036E-009  0.4778727E+02  0.7816164E-02  0.1312668E+00
        -11   -1    0    0    0    0  0.00000000000E+00  0.00000000000E+00  0.45593999997E+02  0.45594000000E+02  0.51100000000E-03 0. -1.
         11   -1    0    0    0    0 -0.00000000000E+00 -0.00000000000E+00 -0.45593999997E+02  0.45594000000E+02  0.51100000000E-03 0.  1.
    9900012    2    1    2    0    0  0.42372082232E+02  0.39622845270E+01  0.85164640145E+01  0.47787271773E+02  0.20000003320E+02 0.  0.
        -12    1    1    2    0    0 -0.42372082232E+02 -0.39622845270E+01 -0.85164640145E+01  0.43400728227E+02  0.00000000000E+00 0.  1.
         11    1    3    3    0    0  0.15988238477E+02  0.65011205867E+01 -0.96955657417E+00  0.17286653195E+02  0.51100000000E-03 0. -1.
        -11    1    3    3    0    0  0.14862646259E+02 -0.69046986883E+01  0.33118103551E+01  0.16719485814E+02  0.51100000000E-03 0.  1.
         12    1    3    3    0    0  0.11521197496E+02  0.43658626286E+01  0.61742102336E+01  0.13781132764E+02  0.00000000000E+00 0. -1.
</event>
<event>
 7    1  0.1899036E-009  0.4778725E+02  0.7816164E-02  0.1312668E+00
        -11   -1    0    0    0    0  0.00000000000E+00  0.00000000000E+00  0.45593999997E+02  0.45594000000E+02  0.51100000000E-03 0.  1.
         11   -1    0    0    0    0 -0.00000000000E+00 -0.00000000000E+00 -0.45593999997E+02  0.45594000000E+02  0.51100000000E-03 0. -1.
    9900012    2    1    2    0    0  0.43031583857E+02  0.37014960210E+01 -0.42669509217E+01  0.47787249405E+02  0.19999901338E+02 0.  0.
        -12    1    1    2    0    0 -0.43031583857E+02 -0.37014960210E+01  0.42669509217E+01  0.43400750595E+02  0.00000000000E+00 0.  1.
         11    1    3    3    0    0  0.12900992213E+02  0.55867437043E+01 -0.54357853868E+01  0.15072991353E+02  0.51100000000E-03 0.  1.
        -11    1    3    3    0    0  0.29243107319E+02 -0.36178627415E+01 -0.13903370861E+01  0.29498835468E+02  0.51100000000E-03 0. -1.
         12    1    3    3    0    0  0.88748432479E+00  0.17326150582E+01  0.25591715511E+01  0.32154225842E+01  0.00000000000E+00 0. -1.
</event>
<event>
 7    1  0.1899036E-009  0.4778727E+02  0.7816164E-02  0.1312668E+00
        -11   -1    0    0    0    0  0.00000000000E+00  0.00000000000E+00  0.45593999997E+02  0.45594000000E+02  0.51100000000E-03 0.  1.
         11   -1    0    0    0    0 -0.00000000000E+00 -0.00000000000E+00 -0.45593999997E+02  0.45594000000E+02  0.51100000000E-03 0. -1.
    9900012    2    1    2    0    0 -0.68605815624E+01 -0.35744640474E+02 -0.23640565135E+02  0.47787271643E+02  0.20000002731E+02 0.  0.
        -12    1    1    2    0    0  0.68605815624E+01  0.35744640474E+02  0.23640565135E+02  0.43400728357E+02  0.00000000000E+00 0.  1.
         11    1    3    3    0    0 -0.64886748604E+01 -0.11571006537E+02 -0.11708362811E+02  0.17693977894E+02  0.51100000000E-03 0. -1.
        -11    1    3    3    0    0 -0.29820671935E+01 -0.63050680516E+01  0.20331767154E+01  0.72650131245E+01  0.51100000000E-03 0.  1.
        -12    1    3    3    0    0  0.26101604915E+01 -0.17868565886E+02 -0.13965379039E+02  0.22828280625E+02  0.00000000000E+00 0.  1.
</event>
<event>
 7    1  0.1899036E-009  0.4778728E+02  0.7816164E-02  0.1312668E+00
        -11   -1    0    0    0    0  0.00000000000E+00  0.00000000000E+00  0.45593999997E+02  0.45594000000E+02  0.51100000000E-03 0. -1.
         11   -1    0    0    0    0 -0.00000000000E+00 -0.00000000000E+00 -0.45593999997E+02  0.45594000000E+02  0.51100000000E-03 0.  1.
    9900012    2    1    2    0    0 -0.23949328906E+02 -0.15927865376E+02  0.32501623654E+02  0.47787276612E+02  0.20000025385E+02 0.  0.
        -12    1    1    2    0    0  0.23949328906E+02  0.15927865376E+02 -0.32501623654E+02  0.43400723388E+02  0.00000000000E+00 0.  1.
         11    1    3    3    0    0 -0.11973914106E+02 -0.16014306200E+02  0.26623027897E+02  0.33295919221E+02  0.51100000000E-03 0. -1.
        -11    1    3    3    0    0 -0.70586384601E+01 -0.15997453838E+00  0.64147002980E+01  0.95393054746E+01  0.51100000000E-03 0.  1.
         12    1    3    3    0    0 -0.49167763400E+01  0.24641536227E+00 -0.53610454125E+00  0.49520519169E+01  0.00000000000E+00 0. -1.
</event>
<event>
 7    1  0.1899036E-009  0.4778726E+02  0.7816164E-02  0.1312668E+00
        -11   -1    0    0    0    0  0.00000000000E+00  0.00000000000E+00  0.45593999997E+02  0.45594000000E+02  0.51100000000E-03 0.  1.
         11   -1    0    0    0    0 -0.00000000000E+00 -0.00000000000E+00 -0.45593999997E+02  0.45594000000E+02  0.51100000000E-03 0. -1.
    9900012    2    1    2    0    0  0.13920611720E+02  0.11882719098E+02 -0.39352782787E+02  0.47787263176E+02  0.19999964124E+02 0.  0.
        -12    1    1    2    0    0 -0.13920611720E+02 -0.11882719098E+02  0.39352782787E+02  0.43400736824E+02  0.00000000000E+00 0.  1.
         11    1    3    3    0    0  0.65727934624E+01  0.13747352446E+01 -0.45232848067E+01  0.80963952841E+01  0.51100000000E-03 0. -1.
        -11    1    3    3    0    0 -0.89908212064E+00  0.97738024905E+01 -0.12614609846E+02  0.15983239522E+02  0.51100000000E-03 0.  1.
         12    1    3    3    0    0  0.82469003785E+01  0.73418136261E+00 -0.22214888134E+02  0.23707628370E+02  0.00000000000E+00 0. -1.
</event>
<event>
 7    1  0.1899036E-009  0.4778727E+02  0.7816164E-02  0.1312668E+00
        -11   -1    0    0    0    0  0.00000000000E+00  0.00000000000E+00  0.45593999997E+02  0.45594000000E+02  0.51100000000E-03 0. -1.
         11   -1    0    0    0    0 -0.00000000000E+00 -0.00000000000E+00 -0.45593999997E+02  0.45594000000E+02  0.51100000000E-03 0.  1.
    9900012    2    1    2    0    0 -0.39387593478E+01 -0.10725847233E+02  0.41869623332E+02  0.47787274407E+02  0.20000015331E+02 0.  0.
        -12    1    1    2    0    0  0.39387593478E+01  0.10725847233E+02 -0.41869623332E+02  0.43400725593E+02  0.00000000000E+00 0.  1.
         11    1    3    3    0    0  0.15548787231E+01 -0.70994348716E+01  0.15108001241E+02  0.16765181928E+02  0.51100000000E-03 0. -1.
        -11    1    3    3    0    0 -0.30518868011E+00 -0.15737868251E+01 -0.15117027038E+01  0.22034496652E+01  0.51100000000E-03 0.  1.
        -12    1    3    3    0    0 -0.51884493908E+01 -0.20526255366E+01  0.28273324794E+02  0.28818642813E+02  0.00000000000E+00 0.  1.
</event>
<event>
 7    1  0.1899036E-009  0.4778726E+02  0.7816164E-02  0.1312668E+00
        -11   -1    0    0    0    0  0.00000000000E+00  0.00000000000E+00  0.45593999997E+02  0.45594000000E+02  0.51100000000E-03 0. -1.
         11   -1    0    0    0    0 -0.00000000000E+00 -0.00000000000E+00 -0.45593999997E+02  0.45594000000E+02  0.51100000000E-03 0.  1.
    9900012    2    1    2    0    0 -0.14503275456E+02  0.40891416896E+02 -0.10823958852E+01  0.47787256279E+02  0.19999932678E+02 0.  0.
        -12    1    1    2    0    0  0.14503275456E+02 -0.40891416896E+02  0.10823958852E+01  0.43400743721E+02  0.00000000000E+00 0.  1.
         11    1    3    3    0    0 -0.10261978111E+02  0.15954221882E+02 -0.26726391387E+01  0.19156941062E+02  0.51100000000E-03 0. -1.
        -11    1    3    3    0    0  0.20179380757E+01  0.20777064459E+02  0.26423494984E+01  0.21041399496E+02  0.51100000000E-03 0.  1.
         12    1    3    3    0    0 -0.62592354199E+01  0.41601305551E+01 -0.10521062449E+01  0.75889157215E+01  0.00000000000E+00 0. -1.
</event>
<event>
 7    1  0.1899036E-009  0.4778727E+02  0.7816164E-02  0.1312668E+00
        -11   -1    0    0    0    0  0.00000000000E+00  0.00000000000E+00  0.45593999997E+02  0.45594000000E+02  0.51100000000E-03 0. -1.
         11   -1    0    0    0    0 -0.00000000000E+00 -0.00000000000E+00 -0.45593999997E+02  0.45594000000E+02  0.51100000000E-03 0.  1.
    9900012    2    1    2    0    0 -0.53415798787E+00 -0.13227888647E+01  0.43377275336E+02  0.47787272924E+02  0.20000008568E+02 0.  0.
        -12    1    1    2    0    0  0.53415798787E+00  0.13227888647E+01 -0.43377275336E+02  0.43400727076E+02  0.00000000000E+00 0.  1.
         11    1    3    3    0    0 -0.80107476649E+01 -0.68509451245E+00  0.12396684053E+02  0.14775628867E+02  0.51100000000E-03 0. -1.
        -11    1    3    3    0    0  0.42039716112E+01  0.23167509369E+01  0.61952199461E+01  0.78371846127E+01  0.51100000000E-03 0.  1.
        -12    1    3    3    0    0  0.32726180658E+01 -0.29544452892E+01  0.24785371337E+02  0.25174459444E+02  0.00000000000E+00 0.  1.
</event>
<event>
 7    1  0.1899036E-009  0.4778727E+02  0.7816164E-02  0.1312668E+00
        -11   -1    0    0    0    0  0.00000000000E+00  0.00000000000E+00  0.45593999997E+02  0.45594000000E+02  0.51100000000E-03 0.  1.
         11   -1    0    0    0    0 -0.00000000000E+00 -0.00000000000E+00 -0.45593999997E+02  0.45594000000E+02  0.51100000000E-03 0. -1.
    9900012    2    1    2    0    0  0.80766377466E+01  0.24434139746E+02 -0.34948023372E+02  0.47787267287E+02  0.19999982869E+02 0.  0.
        -12    1    1    2    0    0 -0.80766377466E+01 -0.24434139746E+02  0.34948023372E+02  0.43400732713E+02  0.00000000000E+00 0.  1.
         11    1    3    3    0    0  0.82299564352E+01  0.86556602148E+01 -0.21608070988E+02  0.24689296644E+02  0.51100000000E-03 0. -1.
        -11    1    3    3    0    0  0.41394861006E+01  0.65239272786E+01 -0.22895396650E+01  0.80584715953E+01  0.51100000000E-03 0.  1.
         12    1    3    3    0    0 -0.42928047892E+01  0.92545522526E+01 -0.11050412719E+02  0.15039499048E+02  0.00000000000E+00 0. -1.
</event>
<event>
 7    1  0.1899036E-009  0.4778727E+02  0.7816164E-02  0.1312668E+00
        -11   -1    0    0    0    0  0.00000000000E+00  0.00000000000E+00  0.45593999997E+02  0.45594000000E+02  0.51100000000E-03 0. -1.
         11   -1    0    0    0    0 -0.00000000000E+00 -0.00000000000E+00 -0.45593999997E+02  0.45594000000E+02  0.51100000000E-03 0.  1.
    9900012    2    1    2    0    0  0.42997193587E+02 -0.32744246827E+01  0.49135388654E+01  0.47787269850E+02  0.19999994553E+02 0.  0.
        -12    1    1    2    0    0 -0.42997193587E+02  0.32744246827E+01 -0.49135388654E+01  0.43400730150E+02  0.00000000000E+00 0.  1.
         11    1    3    3    0    0  0.17868858738E+02 -0.44292123466E+01  0.65938335014E+01  0.19554863209E+02  0.51100000000E-03 0. -1.
        -11    1    3    3    0    0  0.78230679070E+01  0.55436614262E+01  0.24742529105E+01  0.99022472809E+01  0.51100000000E-03 0.  1.
         12    1    3    3    0    0  0.17305266943E+02 -0.43888737623E+01 -0.41545475465E+01  0.18330159360E+02  0.00000000000E+00 0. -1.
</event>
<event>
 7    1  0.1899036E-009  0.4778729E+02  0.7816164E-02  0.1312668E+00
        -11   -1    0    0    0    0  0.00000000000E+00  0.00000000000E+00  0.45593999997E+02  0.45594000000E+02  0.51100000000E-03 0. -1.
         11   -1    0    0    0    0 -0.00000000000E+00 -0.00000000000E+00 -0.45593999997E+02  0.45594000000E+02  0.51100000000E-03 0.  1.
    9900012    2    1    2    0    0  0.25767581163E+02 -0.33300236132E+02 -0.10523661673E+02  0.47787292397E+02  0.20000097354E+02 0.  0.
        -12    1    1    2    0    0 -0.25767581163E+02  0.33300236132E+02  0.10523661673E+02  0.43400707603E+02  0.00000000000E+00 0.  1.
         11    1    3    3    0    0 -0.14845129258E+01 -0.13796697393E+01  0.10170364638E+01  0.22675164048E+01  0.51100000000E-03 0.  1.
        -11    1    3    3    0    0  0.14918293444E+02 -0.76338938759E+01 -0.52846832388E+01  0.17571559185E+02  0.51100000000E-03 0. -1.
         12    1    3    3    0    0  0.12333800644E+02 -0.24286672517E+02 -0.62560148980E+01  0.27948216807E+02  0.00000000000E+00 0. -1.
</event>
<event>
 7    1  0.1899036E-009  0.4778727E+02  0.7816164E-02  0.1312668E+00
        -11   -1    0    0    0    0  0.00000000000E+00  0.00000000000E+00  0.45593999997E+02  0.45594000000E+02  0.51100000000E-03 0.  1.
         11   -1    0    0    0    0 -0.00000000000E+00 -0.00000000000E+00 -0.45593999997E+02  0.45594000000E+02  0.51100000000E-03 0. -1.
    9900012    2    1    2    0    0  0.16300688910E+01 -0.39108128811E+02 -0.18748880761E+02  0.47787269666E+02  0.19999993717E+02 0.  0.
        -12    1    1    2    0    0 -0.16300688910E+01  0.39108128811E+02  0.18748880761E+02  0.43400730334E+02  0.00000000000E+00 0.  1.
         11    1    3    3    0    0  0.89407875111E+01 -0.20751501338E+02 -0.70867457359E+01  0.23680887959E+02  0.51100000000E-03 0. -1.
        -11    1    3    3    0    0 -0.42919388131E+01 -0.54590194154E+01 -0.82712694602E+00  0.69932661181E+01  0.51100000000E-03 0.  1.
         12    1    3    3    0    0 -0.30187798070E+01 -0.12897608057E+02 -0.10835008079E+02  0.17113115590E+02  0.00000000000E+00 0. -1.
</event>
<event>
 7    1  0.1899036E-009  0.4778728E+02  0.7816164E-02  0.1312668E+00
        -11   -1    0    0    0    0  0.00000000000E+00  0.00000000000E+00  0.45593999997E+02  0.45594000000E+02  0.51100000000E-03 0.  1.
         11   -1    0    0    0    0 -0.00000000000E+00 -0.00000000000E+00 -0.45593999997E+02  0.45594000000E+02  0.51100000000E-03 0. -1.
    9900012    2    1    2    0    0  0.14654411853E+02  0.29143588325E+02 -0.28627291977E+02  0.47787281421E+02  0.20000047311E+02 0.  0.
        -12    1    1    2    0    0 -0.14654411853E+02 -0.29143588325E+02  0.28627291977E+02  0.43400718579E+02  0.00000000000E+00 0.  1.
         11    1    3    3    0    0  0.46216842723E+01  0.10461143836E+02 -0.70089818667E+01  0.13413475424E+02  0.51100000000E-03 0. -1.
        -11    1    3    3    0    0  0.42192338644E+01  0.59723176146E+01  0.13993761008E+01  0.74450497530E+01  0.51100000000E-03 0.  1.
         12    1    3    3    0    0  0.58134937163E+01  0.12710126875E+02 -0.23017686211E+02  0.26928756244E+02  0.00000000000E+00 0. -1.
</event>
<event>
 7    1  0.1899036E-009  0.4778727E+02  0.7816164E-02  0.1312668E+00
        -11   -1    0    0    0    0  0.00000000000E+00  0.00000000000E+00  0.45593999997E+02  0.45594000000E+02  0.51100000000E-03 0.  1.
         11   -1    0    0    0    0 -0.00000000000E+00 -0.00000000000E+00 -0.45593999997E+02  0.45594000000E+02  0.51100000000E-03 0. -1.
    9900012    2    1    2    0    0 -0.29151231927E+02  0.17008609842E+02 -0.27286191126E+02  0.47787270077E+02  0.19999995591E+02 0.  0.
        -12    1    1    2    0    0  0.29151231927E+02 -0.17008609842E+02  0.27286191126E+02  0.43400729923E+02  0.00000000000E+00 0.  1.
         11    1    3    3    0    0 -0.38506445873E+00  0.29368800358E+01  0.12507105113E+00  0.29646554624E+01  0.51100000000E-03 0.  1.
        -11    1    3    3    0    0 -0.25738250684E+02  0.91283082249E+01 -0.27854795682E+02  0.39008629841E+02  0.51100000000E-03 0. -1.
         12    1    3    3    0    0 -0.30279167845E+01  0.49434215808E+01  0.44353350490E+00  0.58139847738E+01  0.00000000000E+00 0. -1.
</event>
<event>
 7    1  0.1899036E-009  0.4778727E+02  0.7816164E-02  0.1312668E+00
        -11   -1    0    0    0    0  0.00000000000E+00  0.00000000000E+00  0.45593999997E+02  0.45594000000E+02  0.51100000000E-03 0.  1.
         11   -1    0    0    0    0 -0.00000000000E+00 -0.00000000000E+00 -0.45593999997E+02  0.45594000000E+02  0.51100000000E-03 0. -1.
    9900012    2    1    2    0    0  0.16307630883E+02 -0.36514730033E+02 -0.16862960394E+02  0.47787265356E+02  0.19999974062E+02 0.  0.
        -12    1    1    2    0    0 -0.16307630883E+02  0.36514730033E+02  0.16862960394E+02  0.43400734644E+02  0.00000000000E+00 0.  1.
         11    1    3    3    0    0 -0.12063108987E+01 -0.27307506787E+01 -0.37295543168E+01  0.47772126724E+01  0.51100000000E-03 0. -1.
        -11    1    3    3    0    0  0.16631933259E+02 -0.34621388729E+02 -0.14612749667E+02  0.41094941472E+02  0.51100000000E-03 0.  1.
        -12    1    3    3    0    0  0.88200852301E+00  0.83740937473E+00  0.14793435898E+01  0.19151112114E+01  0.00000000000E+00 0.  1.
</event>
<event>
 7    1  0.1899036E-009  0.4778727E+02  0.7816164E-02  0.1312668E+00
        -11   -1    0    0    0    0  0.00000000000E+00  0.00000000000E+00  0.45593999997E+02  0.45594000000E+02  0.51100000000E-03 0.  1.
         11   -1    0    0    0    0 -0.00000000000E+00 -0.00000000000E+00 -0.45593999997E+02  0.45594000000E+02  0.51100000000E-03 0. -1.
    9900012    2    1    2    0    0  0.15891237866E+02 -0.35463626157E+02 -0.19324151466E+02  0.47787273612E+02  0.20000011705E+02 0.  0.
        -12    1    1    2    0    0 -0.15891237866E+02  0.35463626157E+02  0.19324151466E+02  0.43400726388E+02  0.00000000000E+00 0.  1.
         11    1    3    3    0    0  0.12667094223E+02 -0.18181960396E+02 -0.13223129431E+02  0.25804846678E+02  0.51100000000E-03 0. -1.
        -11    1    3    3    0    0 -0.75592713682E+00  0.16197760639E+01 -0.75453058987E+00  0.19402105570E+01  0.51100000000E-03 0.  1.
         12    1    3    3    0    0  0.39800707801E+01 -0.18901441826E+02 -0.53464914446E+01  0.20042216376E+02  0.00000000000E+00 0. -1.
</event>
<event>
 7    1  0.1899036E-009  0.4778727E+02  0.7816164E-02  0.1312668E+00
        -11   -1    0    0    0    0  0.00000000000E+00  0.00000000000E+00  0.45593999997E+02  0.45594000000E+02  0.51100000000E-03 0.  1.
         11   -1    0    0    0    0 -0.00000000000E+00 -0.00000000000E+00 -0.45593999997E+02  0.45594000000E+02  0.51100000000E-03 0. -1.
    9900012    2    1    2    0    0  0.32835692378E+01 -0.29189285275E+02 -0.31950385363E+02  0.47787270436E+02  0.19999997227E+02 0.  0.
        -12    1    1    2    0    0 -0.32835692378E+01  0.29189285275E+02  0.31950385363E+02  0.43400729564E+02  0.00000000000E+00 0.  1.
         11    1    3    3    0    0  0.18353467696E+01 -0.42541358617E+01  0.88933808732E+00  0.47177422767E+01  0.51100000000E-03 0. -1.
        -11    1    3    3    0    0 -0.28397399912E+00 -0.26934416989E+01 -0.12793733958E+02  0.13077266468E+02  0.51100000000E-03 0.  1.
         12    1    3    3    0    0  0.17321964673E+01 -0.22241707714E+02 -0.20045989493E+02  0.29992261692E+02  0.00000000000E+00 0. -1.
</event>
<event>
 7    1  0.1899036E-009  0.4778727E+02  0.7816164E-02  0.1312668E+00
        -11   -1    0    0    0    0  0.00000000000E+00  0.00000000000E+00  0.45593999997E+02  0.45594000000E+02  0.51100000000E-03 0.  1.
         11   -1    0    0    0    0 -0.00000000000E+00 -0.00000000000E+00 -0.45593999997E+02  0.45594000000E+02  0.51100000000E-03 0. -1.
    9900012    2    1    2    0    0 -0.31219795962E+02 -0.26575300725E+02  0.14237324646E+02  0.47787266347E+02  0.19999978582E+02 0.  0.
        -12    1    1    2    0    0  0.31219795962E+02  0.26575300725E+02 -0.14237324646E+02  0.43400733653E+02  0.00000000000E+00 0.  1.
         11    1    3    3    0    0 -0.11017841030E+02 -0.28718522590E+01  0.53932294322E+01  0.12598701533E+02  0.51100000000E-03 0. -1.
        -11    1    3    3    0    0 -0.38209092710E+00 -0.29676002320E+00 -0.24553201460E+01  0.25025301733E+01  0.51100000000E-03 0.  1.
         12    1    3    3    0    0 -0.19819864006E+02 -0.23406688443E+02  0.11299415360E+02  0.32686034640E+02  0.00000000000E+00 0. -1.
</event>
<event>
 7    1  0.1899036E-009  0.4778727E+02  0.7816164E-02  0.1312668E+00
        -11   -1    0    0    0    0  0.00000000000E+00  0.00000000000E+00  0.45593999997E+02  0.45594000000E+02  0.51100000000E-03 0.  1.
         11   -1    0    0    0    0 -0.00000000000E+00 -0.00000000000E+00 -0.45593999997E+02  0.45594000000E+02  0.51100000000E-03 0. -1.
    9900012    2    1    2    0    0 -0.31306403448E+01  0.22223091280E+02 -0.37147766393E+02  0.47787271400E+02  0.20000001622E+02 0.  0.
        -12    1    1    2    0    0  0.31306403448E+01 -0.22223091280E+02  0.37147766393E+02  0.43400728600E+02  0.00000000000E+00 0.  1.
         11    1    3    3    0    0 -0.35981085962E+01 -0.15453410000E+01 -0.69981702661E+01  0.80192799933E+01  0.51100000000E-03 0. -1.
        -11    1    3    3    0    0 -0.15914192090E+01  0.11636654589E+01  0.70695139313E-01  0.19727469333E+01  0.51100000000E-03 0.  1.
         12    1    3    3    0    0  0.20588874604E+01  0.22604766821E+02 -0.30220291266E+02  0.37795244474E+02  0.00000000000E+00 0. -1.
</event>
<event>
 7    1  0.1899036E-009  0.4778727E+02  0.7816164E-02  0.1312668E+00
        -11   -1    0    0    0    0  0.00000000000E+00  0.00000000000E+00  0.45593999997E+02  0.45594000000E+02  0.51100000000E-03 0.  1.
         11   -1    0    0    0    0 -0.00000000000E+00 -0.00000000000E+00 -0.45593999997E+02  0.45594000000E+02  0.51100000000E-03 0. -1.
    9900012    2    1    2    0    0  0.24337122516E+02 -0.33233668369E+02 -0.13669348739E+02  0.47787270276E+02  0.19999996498E+02 0.  0.
        -12    1    1    2    0    0 -0.24337122516E+02  0.33233668369E+02  0.13669348739E+02  0.43400729724E+02  0.00000000000E+00 0.  1.
         11    1    3    3    0    0  0.16143910794E+02 -0.18502488919E+02 -0.17135870218E+02  0.29943379908E+02  0.51100000000E-03 0. -1.
        -11    1    3    3    0    0  0.48604504797E+01 -0.48430364139E+01  0.27255590096E+01  0.73829298215E+01  0.51100000000E-03 0.  1.
         12    1    3    3    0    0  0.33327612418E+01 -0.98881430354E+01  0.74096246895E+00  0.10460960547E+02  0.00000000000E+00 0. -1.
</event>
<event>
 7    1  0.1899036E-009  0.4778727E+02  0.7816164E-02  0.1312668E+00
        -11   -1    0    0    0    0  0.00000000000E+00  0.00000000000E+00  0.45593999997E+02  0.45594000000E+02  0.51100000000E-03 0. -1.
         11   -1    0    0    0    0 -0.00000000000E+00 -0.00000000000E+00 -0.45593999997E+02  0.45594000000E+02  0.51100000000E-03 0.  1.
    9900012    2    1    2    0    0  0.29197911447E+02  0.32058583115E+02  0.18310975723E+01  0.47787266106E+02  0.19999977486E+02 0.  0.
        -12    1    1    2    0    0 -0.29197911447E+02 -0.32058583115E+02 -0.18310975723E+01  0.43400733894E+02  0.00000000000E+00 0.  1.
         11    1    3    3    0    0  0.98200836153E+00  0.10083056353E+02 -0.47244399587E+01  0.11178224323E+02  0.51100000000E-03 0.  1.
        -11    1    3    3    0    0  0.93500748377E+01  0.65078321223E+01  0.40249730265E+01  0.12082060525E+02  0.51100000000E-03 0. -1.
        -12    1    3    3    0    0  0.18865828248E+02  0.15467694640E+02  0.25305645045E+01  0.24526981258E+02  0.00000000000E+00 0.  1.
</event>
<event>
 7    1  0.1899036E-009  0.4778726E+02  0.7816164E-02  0.1312668E+00
        -11   -1    0    0    0    0  0.00000000000E+00  0.00000000000E+00  0.45593999997E+02  0.45594000000E+02  0.51100000000E-03 0.  1.
         11   -1    0    0    0    0 -0.00000000000E+00 -0.00000000000E+00 -0.45593999997E+02  0.45594000000E+02  0.51100000000E-03 0. -1.
    9900012    2    1    2    0    0 -0.29984410285E+02 -0.38153709533E+01 -0.31144862038E+02  0.47787258681E+02  0.19999943631E+02 0.  0.
        -12    1    1    2    0    0  0.29984410285E+02  0.38153709533E+01  0.31144862038E+02  0.43400741319E+02  0.00000000000E+00 0.  1.
         11    1    3    3    0    0 -0.54024403322E+01 -0.18558085505E+01 -0.11855718279E+00  0.57135315686E+01  0.51100000000E-03 0.  1.
        -11    1    3    3    0    0 -0.15046238703E+02 -0.71082537468E+01 -0.23829416443E+02  0.29064715012E+02  0.51100000000E-03 0. -1.
         12    1    3    3    0    0 -0.95357312500E+01  0.51486913440E+01 -0.71968884121E+01  0.13009012101E+02  0.00000000000E+00 0. -1.
</event>
<event>
 7    1  0.1899036E-009  0.4778727E+02  0.7816164E-02  0.1312668E+00
        -11   -1    0    0    0    0  0.00000000000E+00  0.00000000000E+00  0.45593999997E+02  0.45594000000E+02  0.51100000000E-03 0. -1.
         11   -1    0    0    0    0 -0.00000000000E+00 -0.00000000000E+00 -0.45593999997E+02  0.45594000000E+02  0.51100000000E-03 0.  1.
    9900012    2    1    2    0    0 -0.16725329886E+02 -0.38836002522E+02 -0.97801600732E+01  0.47787270942E+02  0.19999999532E+02 0.  0.
        -12    1    1    2    0    0  0.16725329886E+02  0.38836002522E+02  0.97801600732E+01  0.43400729058E+02  0.00000000000E+00 0.  1.
         11    1    3    3    0    0 -0.11250965924E+01 -0.57369575375E+01 -0.89029232054E+01  0.10650848135E+02  0.51100000000E-03 0.  1.
        -11    1    3    3    0    0 -0.73214482312E+01 -0.13757003830E+02 -0.33875973084E+01  0.15947870527E+02  0.51100000000E-03 0. -1.
        -12    1    3    3    0    0 -0.82787850629E+01 -0.19342041155E+02  0.25103604406E+01  0.21188552280E+02  0.00000000000E+00 0.  1.
</event>
<event>
 7    1  0.1899036E-009  0.4778726E+02  0.7816164E-02  0.1312668E+00
        -11   -1    0    0    0    0  0.00000000000E+00  0.00000000000E+00  0.45593999997E+02  0.45594000000E+02  0.51100000000E-03 0.  1.
         11   -1    0    0    0    0 -0.00000000000E+00 -0.00000000000E+00 -0.45593999997E+02  0.45594000000E+02  0.51100000000E-03 0. -1.
    9900012    2    1    2    0    0  0.39474600181E+02  0.34468968735E+01 -0.17705900899E+02  0.47787261709E+02  0.19999957438E+02 0.  0.
        -12    1    1    2    0    0 -0.39474600181E+02 -0.34468968735E+01  0.17705900899E+02  0.43400738291E+02  0.00000000000E+00 0.  1.
         11    1    3    3    0    0  0.19724515743E-01 -0.34113062705E+01 -0.27947167223E+01  0.44099706741E+01  0.51100000000E-03 0.  1.
        -11    1    3    3    0    0  0.16704236797E+02 -0.28145973336E+00 -0.41353559478E+01  0.17210808105E+02  0.51100000000E-03 0. -1.
         12    1    3    3    0    0  0.22750638868E+02  0.71396628774E+01 -0.10775828229E+02  0.26166482930E+02  0.00000000000E+00 0. -1.
</event>
<event>
 7    1  0.1899036E-009  0.4778727E+02  0.7816164E-02  0.1312668E+00
        -11   -1    0    0    0    0  0.00000000000E+00  0.00000000000E+00  0.45593999997E+02  0.45594000000E+02  0.51100000000E-03 0.  1.
         11   -1    0    0    0    0 -0.00000000000E+00 -0.00000000000E+00 -0.45593999997E+02  0.45594000000E+02  0.51100000000E-03 0. -1.
    9900012    2    1    2    0    0  0.44940864101E+01  0.32801741092E+01 -0.43042614757E+02  0.47787273739E+02  0.20000012286E+02 0.  0.
        -12    1    1    2    0    0 -0.44940864101E+01 -0.32801741092E+01  0.43042614757E+02  0.43400726261E+02  0.00000000000E+00 0.  1.
         11    1    3    3    0    0  0.80792102369E+00 -0.44812719940E+00  0.38875642466E-01  0.92469775822E+00  0.51100000000E-03 0. -1.
        -11    1    3    3    0    0 -0.68259724327E+01  0.37510967223E+01 -0.15528534372E+02  0.17372392071E+02  0.51100000000E-03 0.  1.
         12    1    3    3    0    0  0.10512137819E+02 -0.22795413728E-01 -0.27552956028E+02  0.29490183910E+02  0.00000000000E+00 0. -1.
</event>
<event>
 7    1  0.1899036E-009  0.4778731E+02  0.7816164E-02  0.1312668E+00
        -11   -1    0    0    0    0  0.00000000000E+00  0.00000000000E+00  0.45593999997E+02  0.45594000000E+02  0.51100000000E-03 0.  1.
         11   -1    0    0    0    0 -0.00000000000E+00 -0.00000000000E+00 -0.45593999997E+02  0.45594000000E+02  0.51100000000E-03 0. -1.
    9900012    2    1    2    0    0  0.53986904612E+01  0.35891840853E+02 -0.23795997557E+02  0.47787313390E+02  0.20000193069E+02 0.  0.
        -12    1    1    2    0    0 -0.53986904612E+01 -0.35891840853E+02  0.23795997557E+02  0.43400686610E+02  0.00000000000E+00 0.  1.
         11    1    3    3    0    0 -0.26465086172E+01  0.21950425209E+01  0.77745285856E+00  0.35251457755E+01  0.51100000000E-03 0. -1.
        -11    1    3    3    0    0  0.89059829178E+01  0.16794787555E+02 -0.81634379092E+01  0.20688720103E+02  0.51100000000E-03 0.  1.
         12    1    3    3    0    0 -0.86078383935E+00  0.16902010777E+02 -0.16410012506E+02  0.23573447512E+02  0.00000000000E+00 0. -1.
</event>
<event>
 7    1  0.1899036E-009  0.4778728E+02  0.7816164E-02  0.1312668E+00
        -11   -1    0    0    0    0  0.00000000000E+00  0.00000000000E+00  0.45593999997E+02  0.45594000000E+02  0.51100000000E-03 0. -1.
         11   -1    0    0    0    0 -0.00000000000E+00 -0.00000000000E+00 -0.45593999997E+02  0.45594000000E+02  0.51100000000E-03 0.  1.
    9900012    2    1    2    0    0  0.39014450110E+02 -0.16504774882E+02 -0.94386310340E+01  0.47787278035E+02  0.20000031872E+02 0.  0.
        -12    1    1    2    0    0 -0.39014450110E+02  0.16504774882E+02  0.94386310340E+01  0.43400721965E+02  0.00000000000E+00 0.  1.
         11    1    3    3    0    0  0.11544978079E+02 -0.25199431928E+01 -0.89485391018E+01  0.14822718538E+02  0.51100000000E-03 0. -1.
        -11    1    3    3    0    0  0.69389462442E+01 -0.29794712654E-01  0.35811785007E+01  0.78086299964E+01  0.51100000000E-03 0.  1.
        -12    1    3    3    0    0  0.20530525787E+02 -0.13955036976E+02 -0.40712704330E+01  0.25155929500E+02  0.00000000000E+00 0.  1.
</event>
<event>
 7    1  0.1899036E-009  0.4778727E+02  0.7816164E-02  0.1312668E+00
        -11   -1    0    0    0    0  0.00000000000E+00  0.00000000000E+00  0.45593999997E+02  0.45594000000E+02  0.51100000000E-03 0.  1.
         11   -1    0    0    0    0 -0.00000000000E+00 -0.00000000000E+00 -0.45593999997E+02  0.45594000000E+02  0.51100000000E-03 0. -1.
    9900012    2    1    2    0    0 -0.34847243217E+02  0.14779767991E+01 -0.25828442109E+02  0.47787271930E+02  0.20000004037E+02 0.  0.
        -12    1    1    2    0    0  0.34847243217E+02 -0.14779767991E+01  0.25828442109E+02  0.43400728070E+02  0.00000000000E+00 0.  1.
         11    1    3    3    0    0 -0.14366341672E+02  0.34440988594E+01 -0.71119523448E+01  0.16396141510E+02  0.51100000000E-03 0. -1.
        -11    1    3    3    0    0  0.43215053713E+00 -0.28491854533E+01  0.55988060169E+00  0.29356563803E+01  0.51100000000E-03 0.  1.
        -12    1    3    3    0    0 -0.20913052082E+02  0.88306339295E+00 -0.19276370366E+02  0.28455474039E+02  0.00000000000E+00 0.  1.
</event>
<event>
 7    1  0.2461022E-009  0.4778726E+02  0.7816164E-02  0.1312668E+00
        -11   -1    0    0    0    0  0.00000000000E+00  0.00000000000E+00  0.45593999997E+02  0.45594000000E+02  0.51100000000E-03 0.  1.
         11   -1    0    0    0    0 -0.00000000000E+00 -0.00000000000E+00 -0.45593999997E+02  0.45594000000E+02  0.51100000000E-03 0. -1.
    9900012    2    1    2    0    0  0.54310831041E+01  0.42993161061E+02 -0.23906887438E+01  0.47787263205E+02  0.19999964256E+02 0.  0.
        -12    1    1    2    0    0 -0.54310831041E+01 -0.42993161061E+02  0.23906887438E+01  0.43400736795E+02  0.00000000000E+00 0.  1.
         11    1    3    3    0    0  0.41672806830E+01  0.18186479016E+02 -0.74659578658E+00  0.18672751613E+02  0.51100000000E-03 0. -1.
        -11    1    3    3    0    0  0.16833667237E+01  0.21263451179E+01  0.48170936707E+01  0.55280610326E+01  0.51100000000E-03 0.  1.
        -12    1    3    3    0    0 -0.41956430254E+00  0.22680336927E+02 -0.64611866280E+01  0.23586450559E+02  0.00000000000E+00 0.  1.
</event>
<event>
 7    1  0.1899036E-009  0.4778727E+02  0.7816164E-02  0.1312668E+00
        -11   -1    0    0    0    0  0.00000000000E+00  0.00000000000E+00  0.45593999997E+02  0.45594000000E+02  0.51100000000E-03 0.  1.
         11   -1    0    0    0    0 -0.00000000000E+00 -0.00000000000E+00 -0.45593999997E+02  0.45594000000E+02  0.51100000000E-03 0. -1.
    9900012    2    1    2    0    0  0.35758131371E+02  0.24063612998E+02 -0.50913629012E+01  0.47787269524E+02  0.19999993068E+02 0.  0.
        -12    1    1    2    0    0 -0.35758131371E+02 -0.24063612998E+02  0.50913629012E+01  0.43400730476E+02  0.00000000000E+00 0.  1.
         11    1    3    3    0    0 -0.21010407704E+00  0.25046624074E+01  0.31940395431E+01  0.40644023377E+01  0.51100000000E-03 0.  1.
        -11    1    3    3    0    0  0.87232245348E+01  0.33397146811E+01 -0.54753048051E+01  0.10827155832E+02  0.51100000000E-03 0. -1.
        -12    1    3    3    0    0  0.27245010913E+02  0.18219235910E+02 -0.28100976392E+01  0.32895711355E+02  0.00000000000E+00 0.  1.
</event>
<event>
 7    1  0.1899036E-009  0.4778727E+02  0.7816164E-02  0.1312668E+00
        -11   -1    0    0    0    0  0.00000000000E+00  0.00000000000E+00  0.45593999997E+02  0.45594000000E+02  0.51100000000E-03 0. -1.
         11   -1    0    0    0    0 -0.00000000000E+00 -0.00000000000E+00 -0.45593999997E+02  0.45594000000E+02  0.51100000000E-03 0.  1.
    9900012    2    1    2    0    0 -0.20981233666E+02  0.36772178666E+01  0.37813875988E+02  0.47787270575E+02  0.19999997860E+02 0.  0.
        -12    1    1    2    0    0  0.20981233666E+02 -0.36772178666E+01 -0.37813875988E+02  0.43400729425E+02  0.00000000000E+00 0.  1.
         11    1    3    3    0    0 -0.78590591517E+01 -0.12527749090E+01  0.18525553859E+02  0.20162599082E+02  0.51100000000E-03 0. -1.
        -11    1    3    3    0    0 -0.11368115300E+02  0.82401262050E+01  0.90044826488E+01  0.16679761191E+02  0.51100000000E-03 0.  1.
         12    1    3    3    0    0 -0.17540592135E+01 -0.33101334294E+01  0.10283839481E+02  0.10944910302E+02  0.00000000000E+00 0. -1.
</event>
<event>
 7    1  0.1899036E-009  0.4778727E+02  0.7816164E-02  0.1312668E+00
        -11   -1    0    0    0    0  0.00000000000E+00  0.00000000000E+00  0.45593999997E+02  0.45594000000E+02  0.51100000000E-03 0.  1.
         11   -1    0    0    0    0 -0.00000000000E+00 -0.00000000000E+00 -0.45593999997E+02  0.45594000000E+02  0.51100000000E-03 0. -1.
    9900012    2    1    2    0    0  0.11510782310E+02  0.21666452286E+02 -0.35800701545E+02  0.47787268495E+02  0.19999988377E+02 0.  0.
        -12    1    1    2    0    0 -0.11510782310E+02 -0.21666452286E+02  0.35800701545E+02  0.43400731505E+02  0.00000000000E+00 0.  1.
         11    1    3    3    0    0  0.53596514219E+01  0.22793035792E+02 -0.28338844252E+02  0.36760555461E+02  0.51100000000E-03 0. -1.
        -11    1    3    3    0    0  0.41944337185E+01  0.94813927432E+00 -0.17504445847E+01  0.46428761353E+01  0.51100000000E-03 0.  1.
        -12    1    3    3    0    0  0.19566971693E+01 -0.20747227809E+01 -0.57114127086E+01  0.63838368993E+01  0.00000000000E+00 0.  1.
</event>
<event>
 7    1  0.1899036E-009  0.4778727E+02  0.7816164E-02  0.1312668E+00
        -11   -1    0    0    0    0  0.00000000000E+00  0.00000000000E+00  0.45593999997E+02  0.45594000000E+02  0.51100000000E-03 0.  1.
         11   -1    0    0    0    0 -0.00000000000E+00 -0.00000000000E+00 -0.45593999997E+02  0.45594000000E+02  0.51100000000E-03 0. -1.
    9900012    2    1    2    0    0  0.52486180245E+01 -0.25725774747E+02  0.34558061689E+02  0.47787272988E+02  0.20000008862E+02 0.  0.
        -12    1    1    2    0    0 -0.52486180245E+01  0.25725774747E+02 -0.34558061689E+02  0.43400727012E+02  0.00000000000E+00 0.  1.
         11    1    3    3    0    0  0.71495483237E+01 -0.14040422145E+02  0.12776482419E+02  0.20285166958E+02  0.51100000000E-03 0. -1.
        -11    1    3    3    0    0 -0.22246765506E+01 -0.19481829723E+01 -0.66625624445E+00  0.30312539142E+01  0.51100000000E-03 0.  1.
         12    1    3    3    0    0  0.32374625133E+00 -0.97371696293E+01  0.22447835514E+02  0.24470852116E+02  0.00000000000E+00 0. -1.
</event>
<event>
 7    1  0.1899036E-009  0.4778727E+02  0.7816164E-02  0.1312668E+00
        -11   -1    0    0    0    0  0.00000000000E+00  0.00000000000E+00  0.45593999997E+02  0.45594000000E+02  0.51100000000E-03 0.  1.
         11   -1    0    0    0    0 -0.00000000000E+00 -0.00000000000E+00 -0.45593999997E+02  0.45594000000E+02  0.51100000000E-03 0. -1.
    9900012    2    1    2    0    0 -0.28988575066E+02 -0.29544891075E+02 -0.13053168558E+02  0.47787270946E+02  0.19999999552E+02 0.  0.
        -12    1    1    2    0    0  0.28988575066E+02  0.29544891075E+02  0.13053168558E+02  0.43400729054E+02  0.00000000000E+00 0.  1.
         11    1    3    3    0    0 -0.16116521912E+02 -0.23415306357E+02 -0.16392937259E+01  0.28472901758E+02  0.51100000000E-03 0.  1.
        -11    1    3    3    0    0 -0.63915897901E+00 -0.27750635803E+01 -0.27075777766E+01  0.39294375873E+01  0.51100000000E-03 0. -1.
        -12    1    3    3    0    0 -0.12232894174E+02 -0.33545211385E+01 -0.87062970557E+01  0.15384931601E+02  0.00000000000E+00 0.  1.
</event>
<event>
 7    1  0.1899036E-009  0.4778727E+02  0.7816164E-02  0.1312668E+00
        -11   -1    0    0    0    0  0.00000000000E+00  0.00000000000E+00  0.45593999997E+02  0.45594000000E+02  0.51100000000E-03 0.  1.
         11   -1    0    0    0    0 -0.00000000000E+00 -0.00000000000E+00 -0.45593999997E+02  0.45594000000E+02  0.51100000000E-03 0. -1.
    9900012    2    1    2    0    0 -0.36247889053E+02 -0.23182671569E+02  0.56813342740E+01  0.47787270962E+02  0.19999999625E+02 0.  0.
        -12    1    1    2    0    0  0.36247889053E+02  0.23182671569E+02 -0.56813342740E+01  0.43400729038E+02  0.00000000000E+00 0.  1.
         11    1    3    3    0    0 -0.11227970985E+02 -0.44459903890E+01  0.89220506957E+01  0.15014564657E+02  0.51100000000E-03 0.  1.
        -11    1    3    3    0    0 -0.88394506185E+01 -0.11855194928E+02  0.49937666490E+00  0.14796314113E+02  0.51100000000E-03 0. -1.
         12    1    3    3    0    0 -0.16180467450E+02 -0.68814862515E+01 -0.37400930865E+01  0.17976392192E+02  0.00000000000E+00 0. -1.
</event>
<event>
 7    1  0.1899036E-009  0.4778727E+02  0.7816164E-02  0.1312668E+00
        -11   -1    0    0    0    0  0.00000000000E+00  0.00000000000E+00  0.45593999997E+02  0.45594000000E+02  0.51100000000E-03 0. -1.
         11   -1    0    0    0    0 -0.00000000000E+00 -0.00000000000E+00 -0.45593999997E+02  0.45594000000E+02  0.51100000000E-03 0.  1.
    9900012    2    1    2    0    0  0.25435334823E+02 -0.35146075564E+02  0.11918770955E+01  0.47787268945E+02  0.19999990427E+02 0.  0.
        -12    1    1    2    0    0 -0.25435334823E+02  0.35146075564E+02 -0.11918770955E+01  0.43400731055E+02  0.00000000000E+00 0.  1.
         11    1    3    3    0    0 -0.10457102097E+01  0.48243604178E+00 -0.68532013560E+00  0.13401187732E+01  0.51100000000E-03 0. -1.
        -11    1    3    3    0    0  0.19058439836E+02 -0.14370655856E+02  0.17046561319E+01  0.23930017374E+02  0.51100000000E-03 0.  1.
         12    1    3    3    0    0  0.74226051958E+01 -0.21257855750E+02  0.17254109924E+00  0.22517132798E+02  0.00000000000E+00 0. -1.
</event>
<event>
 7    1  0.2245429E-009  0.4778727E+02  0.7816164E-02  0.1312668E+00
        -11   -1    0    0    0    0  0.00000000000E+00  0.00000000000E+00  0.45593999997E+02  0.45594000000E+02  0.51100000000E-03 0.  1.
         11   -1    0    0    0    0 -0.00000000000E+00 -0.00000000000E+00 -0.45593999997E+02  0.45594000000E+02  0.51100000000E-03 0. -1.
    9900012    2    1    2    0    0 -0.41796342262E+02  0.79382217678E+01 -0.85833245557E+01  0.47787273603E+02  0.20000011666E+02 0.  0.
        -12    1    1    2    0    0  0.41796342262E+02 -0.79382217678E+01  0.85833245557E+01  0.43400726397E+02  0.00000000000E+00 0.  1.
         11    1    3    3    0    0 -0.16426287208E+02  0.64956474533E+01 -0.18654165168E+01  0.17762210626E+02  0.51100000000E-03 0. -1.
        -11    1    3    3    0    0 -0.15914487186E+02 -0.13739632986E+00 -0.11181359797E+02  0.19450259312E+02  0.51100000000E-03 0.  1.
        -12    1    3    3    0    0 -0.94555678687E+01  0.15799706444E+01  0.44634517582E+01  0.10574803665E+02  0.00000000000E+00 0.  1.
</event>
<event>
 7    1  0.1899036E-009  0.4778727E+02  0.7816164E-02  0.1312668E+00
        -11   -1    0    0    0    0  0.00000000000E+00  0.00000000000E+00  0.45593999997E+02  0.45594000000E+02  0.51100000000E-03 0.  1.
         11   -1    0    0    0    0 -0.00000000000E+00 -0.00000000000E+00 -0.45593999997E+02  0.45594000000E+02  0.51100000000E-03 0. -1.
    9900012    2    1    2    0    0  0.12208135538E+02 -0.90123945964E+01 -0.40661546044E+02  0.47787272398E+02  0.20000006173E+02 0.  0.
        -12    1    1    2    0    0 -0.12208135538E+02  0.90123945964E+01  0.40661546044E+02  0.43400727602E+02  0.00000000000E+00 0.  1.
         11    1    3    3    0    0  0.73735155783E+01 -0.64689019493E+01 -0.30989260374E+02  0.32504610183E+02  0.51100000000E-03 0. -1.
        -11    1    3    3    0    0  0.50087826452E+01 -0.18564366726E+01 -0.11846868967E+02  0.12995482496E+02  0.51100000000E-03 0.  1.
        -12    1    3    3    0    0 -0.17416268581E+00 -0.68705597451E+00  0.21745832969E+01  0.22871797193E+01  0.00000000000E+00 0.  1.
</event>
<event>
 7    1  0.1899036E-009  0.4778726E+02  0.7816164E-02  0.1312668E+00
        -11   -1    0    0    0    0  0.00000000000E+00  0.00000000000E+00  0.45593999997E+02  0.45594000000E+02  0.51100000000E-03 0. -1.
         11   -1    0    0    0    0 -0.00000000000E+00 -0.00000000000E+00 -0.45593999997E+02  0.45594000000E+02  0.51100000000E-03 0.  1.
    9900012    2    1    2    0    0 -0.21211817851E+02 -0.33105830037E+02 -0.18376260934E+02  0.47787260779E+02  0.19999953198E+02 0.  0.
        -12    1    1    2    0    0  0.21211817851E+02  0.33105830037E+02  0.18376260934E+02  0.43400739221E+02  0.00000000000E+00 0.  1.
         11    1    3    3    0    0 -0.46559263956E+01 -0.87216394006E+00 -0.85230552346E+01  0.97509379719E+01  0.51100000000E-03 0.  1.
        -11    1    3    3    0    0 -0.22971562217E+01 -0.84950674785E+01 -0.52568334284E+00  0.88158630553E+01  0.51100000000E-03 0. -1.
        -12    1    3    3    0    0 -0.14258735234E+02 -0.23738598618E+02 -0.93275223570E+01  0.29220459752E+02  0.00000000000E+00 0.  1.
</event>
<event>
 7    1  0.1899036E-009  0.4778727E+02  0.7816164E-02  0.1312668E+00
        -11   -1    0    0    0    0  0.00000000000E+00  0.00000000000E+00  0.45593999997E+02  0.45594000000E+02  0.51100000000E-03 0.  1.
         11   -1    0    0    0    0 -0.00000000000E+00 -0.00000000000E+00 -0.45593999997E+02  0.45594000000E+02  0.51100000000E-03 0. -1.
    9900012    2    1    2    0    0  0.39904845155E+02 -0.61922951018E+01 -0.15902267273E+02  0.47787270860E+02  0.19999999159E+02 0.  0.
        -12    1    1    2    0    0 -0.39904845155E+02  0.61922951018E+01  0.15902267273E+02  0.43400729140E+02  0.00000000000E+00 0.  1.
         11    1    3    3    0    0  0.47005143925E+01  0.38986763927E+00 -0.61901170742E+01  0.77823121233E+01  0.51100000000E-03 0. -1.
        -11    1    3    3    0    0  0.36436081684E+02 -0.50861509096E+01 -0.97758897149E+01  0.38066060993E+02  0.51100000000E-03 0.  1.
        -12    1    3    3    0    0 -0.12317509217E+01 -0.14960118315E+01  0.63739516333E-01  0.19388977433E+01  0.00000000000E+00 0.  1.
</event>
<event>
 7    1  0.1899036E-009  0.4778726E+02  0.7816164E-02  0.1312668E+00
        -11   -1    0    0    0    0  0.00000000000E+00  0.00000000000E+00  0.45593999997E+02  0.45594000000E+02  0.51100000000E-03 0.  1.
         11   -1    0    0    0    0 -0.00000000000E+00 -0.00000000000E+00 -0.45593999997E+02  0.45594000000E+02  0.51100000000E-03 0. -1.
    9900012    2    1    2    0    0  0.28262292232E+02  0.21043153848E+02 -0.25338754121E+02  0.47787263296E+02  0.19999964672E+02 0.  0.
        -12    1    1    2    0    0 -0.28262292232E+02 -0.21043153848E+02  0.25338754121E+02  0.43400736704E+02  0.00000000000E+00 0.  1.
         11    1    3    3    0    0  0.13006051513E+02  0.15914266248E+02 -0.94574375651E+01  0.22624419810E+02  0.51100000000E-03 0. -1.
        -11    1    3    3    0    0  0.23246616796E+01 -0.17196116727E+01  0.77308050137E+00  0.29931204373E+01  0.51100000000E-03 0.  1.
        -12    1    3    3    0    0  0.12931579039E+02  0.68484992729E+01 -0.16654397057E+02  0.22169723049E+02  0.00000000000E+00 0.  1.
</event>
<event>
 7    1  0.1899036E-009  0.4778728E+02  0.7816164E-02  0.1312668E+00
        -11   -1    0    0    0    0  0.00000000000E+00  0.00000000000E+00  0.45593999997E+02  0.45594000000E+02  0.51100000000E-03 0.  1.
         11   -1    0    0    0    0 -0.00000000000E+00 -0.00000000000E+00 -0.45593999997E+02  0.45594000000E+02  0.51100000000E-03 0. -1.
    9900012    2    1    2    0    0  0.40777848936E+01  0.14205117922E+02 -0.40806969610E+02  0.47787280265E+02  0.20000042039E+02 0.  0.
        -12    1    1    2    0    0 -0.40777848936E+01 -0.14205117922E+02  0.40806969610E+02  0.43400719735E+02  0.00000000000E+00 0.  1.
         11    1    3    3    0    0  0.42409393082E+01  0.72444359039E+00 -0.10689438550E+02  0.11522780980E+02  0.51100000000E-03 0.  1.
        -11    1    3    3    0    0 -0.36883076999E+01  0.66664020178E+01 -0.31799979377E+01  0.82557202409E+01  0.51100000000E-03 0. -1.
         12    1    3    3    0    0  0.35251532854E+01  0.68142723136E+01 -0.26937533122E+02  0.28008779044E+02  0.00000000000E+00 0. -1.
</event>
<event>
 7    1  0.1899036E-009  0.4778727E+02  0.7816164E-02  0.1312668E+00
        -11   -1    0    0    0    0  0.00000000000E+00  0.00000000000E+00  0.45593999997E+02  0.45594000000E+02  0.51100000000E-03 0.  1.
         11   -1    0    0    0    0 -0.00000000000E+00 -0.00000000000E+00 -0.45593999997E+02  0.45594000000E+02  0.51100000000E-03 0. -1.
    9900012    2    1    2    0    0  0.14766903607E+02 -0.79589779020E+01 -0.40027697220E+02  0.47787270558E+02  0.19999997782E+02 0.  0.
        -12    1    1    2    0    0 -0.14766903607E+02  0.79589779020E+01  0.40027697220E+02  0.43400729442E+02  0.00000000000E+00 0.  1.
         11    1    3    3    0    0  0.90518473856E+00  0.45723525952E+01 -0.70776086729E+01  0.84745685703E+01  0.51100000000E-03 0. -1.
        -11    1    3    3    0    0 -0.16109236638E+01 -0.97383698886E+00 -0.49714877658E+01  0.53159311882E+01  0.51100000000E-03 0.  1.
         12    1    3    3    0    0  0.15472642532E+02 -0.11557493508E+02 -0.27978600781E+02  0.33996770799E+02  0.00000000000E+00 0. -1.
</event>
<event>
 7    1  0.1899036E-009  0.4778727E+02  0.7816164E-02  0.1312668E+00
        -11   -1    0    0    0    0  0.00000000000E+00  0.00000000000E+00  0.45593999997E+02  0.45594000000E+02  0.51100000000E-03 0. -1.
         11   -1    0    0    0    0 -0.00000000000E+00 -0.00000000000E+00 -0.45593999997E+02  0.45594000000E+02  0.51100000000E-03 0.  1.
    9900012    2    1    2    0    0 -0.37261469033E+02 -0.17108017028E+02  0.14231020093E+02  0.47787271273E+02  0.20000001041E+02 0.  0.
        -12    1    1    2    0    0  0.37261469033E+02  0.17108017028E+02 -0.14231020093E+02  0.43400728727E+02  0.00000000000E+00 0.  1.
         11    1    3    3    0    0 -0.22760400221E+02 -0.11758378794E+02 -0.37293555698E+00  0.25620975221E+02  0.51100000000E-03 0. -1.
        -11    1    3    3    0    0 -0.34429930829E+01  0.13859812883E+01  0.28576751716E+01  0.46841704867E+01  0.51100000000E-03 0.  1.
         12    1    3    3    0    0 -0.11058075729E+02 -0.67356195229E+01  0.11746280478E+02  0.17482125565E+02  0.00000000000E+00 0. -1.
</event>
<event>
 7    1  0.1899036E-009  0.4778727E+02  0.7816164E-02  0.1312668E+00
        -11   -1    0    0    0    0  0.00000000000E+00  0.00000000000E+00  0.45593999997E+02  0.45594000000E+02  0.51100000000E-03 0.  1.
         11   -1    0    0    0    0 -0.00000000000E+00 -0.00000000000E+00 -0.45593999997E+02  0.45594000000E+02  0.51100000000E-03 0. -1.
    9900012    2    1    2    0    0  0.55848934961E+01 -0.18802119579E+02 -0.38715791819E+02  0.47787271064E+02  0.20000000090E+02 0.  0.
        -12    1    1    2    0    0 -0.55848934961E+01  0.18802119579E+02  0.38715791819E+02  0.43400728936E+02  0.00000000000E+00 0.  1.
         11    1    3    3    0    0  0.10968356146E+02 -0.77842885647E+01 -0.11249749983E+02  0.17534447808E+02  0.51100000000E-03 0. -1.
        -11    1    3    3    0    0 -0.21945852197E+01 -0.17952720332E+01 -0.47904361244E+01  0.55666403227E+01  0.51100000000E-03 0.  1.
         12    1    3    3    0    0 -0.31888774302E+01 -0.92225589809E+01 -0.22675605712E+02  0.24686182933E+02  0.00000000000E+00 0. -1.
</event>
<event>
 7    1  0.1899036E-009  0.4778727E+02  0.7816164E-02  0.1312668E+00
        -11   -1    0    0    0    0  0.00000000000E+00  0.00000000000E+00  0.45593999997E+02  0.45594000000E+02  0.51100000000E-03 0.  1.
         11   -1    0    0    0    0 -0.00000000000E+00 -0.00000000000E+00 -0.45593999997E+02  0.45594000000E+02  0.51100000000E-03 0. -1.
    9900012    2    1    2    0    0 -0.43264043839E+02 -0.15322366258E+01  0.30818503847E+01  0.47787273736E+02  0.20000012273E+02 0.  0.
        -12    1    1    2    0    0  0.43264043839E+02  0.15322366258E+01 -0.30818503847E+01  0.43400726264E+02  0.00000000000E+00 0.  1.
         11    1    3    3    0    0 -0.12234604727E+02 -0.10943808971E+01  0.40916665404E+01  0.12947005743E+02  0.51100000000E-03 0. -1.
        -11    1    3    3    0    0  0.11221055967E+01  0.11777013594E+01 -0.20675909899E+01  0.26307858568E+01  0.51100000000E-03 0.  1.
         12    1    3    3    0    0 -0.32151544709E+02 -0.16155570881E+01  0.10577748341E+01  0.32209482137E+02  0.00000000000E+00 0. -1.
</event>
<event>
 7    1  0.1899036E-009  0.4778727E+02  0.7816164E-02  0.1312668E+00
        -11   -1    0    0    0    0  0.00000000000E+00  0.00000000000E+00  0.45593999997E+02  0.45594000000E+02  0.51100000000E-03 0.  1.
         11   -1    0    0    0    0 -0.00000000000E+00 -0.00000000000E+00 -0.45593999997E+02  0.45594000000E+02  0.51100000000E-03 0. -1.
    9900012    2    1    2    0    0  0.10036826708E+02  0.41615765973E+02 -0.71423739543E+01  0.47787269895E+02  0.19999994761E+02 0.  0.
        -12    1    1    2    0    0 -0.10036826708E+02 -0.41615765973E+02  0.71423739543E+01  0.43400730105E+02  0.00000000000E+00 0.  1.
         11    1    3    3    0    0  0.82402294700E+01  0.27357706530E+02  0.27474393855E+01  0.28703552249E+02  0.51100000000E-03 0. -1.
        -11    1    3    3    0    0 -0.14202290572E+01  0.51384936703E+01 -0.11301939833E+00  0.53323485839E+01  0.51100000000E-03 0.  1.
        -12    1    3    3    0    0  0.32168262955E+01  0.91195657730E+01 -0.97767939414E+01  0.13751369062E+02  0.00000000000E+00 0.  1.
</event>
<event>
 7    1  0.1899036E-009  0.4778727E+02  0.7816164E-02  0.1312668E+00
        -11   -1    0    0    0    0  0.00000000000E+00  0.00000000000E+00  0.45593999997E+02  0.45594000000E+02  0.51100000000E-03 0.  1.
         11   -1    0    0    0    0 -0.00000000000E+00 -0.00000000000E+00 -0.45593999997E+02  0.45594000000E+02  0.51100000000E-03 0. -1.
    9900012    2    1    2    0    0 -0.29138750769E+02  0.11081332707E+02 -0.30195368418E+02  0.47787274144E+02  0.20000014134E+02 0.  0.
        -12    1    1    2    0    0  0.29138750769E+02 -0.11081332707E+02  0.30195368418E+02  0.43400725856E+02  0.00000000000E+00 0.  1.
         11    1    3    3    0    0 -0.14901183243E+02  0.13583220633E+02 -0.15119793134E+02  0.25202327065E+02  0.51100000000E-03 0.  1.
        -11    1    3    3    0    0 -0.13200552587E+02  0.38949276101E+00 -0.96719421175E+01  0.16369262592E+02  0.51100000000E-03 0. -1.
        -12    1    3    3    0    0 -0.10370149387E+01 -0.28913806869E+01 -0.54036331661E+01  0.62156844879E+01  0.00000000000E+00 0.  1.
</event>
<event>
 7    1  0.1899036E-009  0.4778727E+02  0.7816164E-02  0.1312668E+00
        -11   -1    0    0    0    0  0.00000000000E+00  0.00000000000E+00  0.45593999997E+02  0.45594000000E+02  0.51100000000E-03 0.  1.
         11   -1    0    0    0    0 -0.00000000000E+00 -0.00000000000E+00 -0.45593999997E+02  0.45594000000E+02  0.51100000000E-03 0. -1.
    9900012    2    1    2    0    0  0.60765645946E+01 -0.42124960496E+02 -0.84962686940E+01  0.47787268258E+02  0.19999987293E+02 0.  0.
        -12    1    1    2    0    0 -0.60765645946E+01  0.42124960496E+02  0.84962686940E+01  0.43400731742E+02  0.00000000000E+00 0.  1.
         11    1    3    3    0    0  0.71678116623E+01 -0.12116721520E+02 -0.30549021904E+01  0.14405724282E+02  0.51100000000E-03 0. -1.
        -11    1    3    3    0    0  0.50371809930E+01 -0.10377419987E+02 -0.55841214524E+01  0.12815867142E+02  0.51100000000E-03 0.  1.
        -12    1    3    3    0    0 -0.61284280607E+01 -0.19630818989E+02  0.14275494878E+00  0.20565676834E+02  0.00000000000E+00 0.  1.
</event>
<event>
 7    1  0.1899036E-009  0.4778730E+02  0.7816164E-02  0.1312668E+00
        -11   -1    0    0    0    0  0.00000000000E+00  0.00000000000E+00  0.45593999997E+02  0.45594000000E+02  0.51100000000E-03 0.  1.
         11   -1    0    0    0    0 -0.00000000000E+00 -0.00000000000E+00 -0.45593999997E+02  0.45594000000E+02  0.51100000000E-03 0. -1.
    9900012    2    1    2    0    0 -0.14745002481E+02 -0.28109132042E+02 -0.29598683694E+02  0.47787303246E+02  0.20000146820E+02 0.  0.
        -12    1    1    2    0    0  0.14745002481E+02  0.28109132042E+02  0.29598683694E+02  0.43400696754E+02  0.00000000000E+00 0.  1.
         11    1    3    3    0    0 -0.61046922022E+01 -0.40104327200E+01 -0.10992374454E+02  0.13197845805E+02  0.51100000000E-03 0. -1.
        -11    1    3    3    0    0 -0.70355600209E+01 -0.11934415852E+02 -0.20842377966E+01  0.14009762096E+02  0.51100000000E-03 0.  1.
         12    1    3    3    0    0 -0.16047502580E+01 -0.12164283470E+02 -0.16522071443E+02  0.20579695345E+02  0.00000000000E+00 0. -1.
</event>
<event>
 7    1  0.1899036E-009  0.4778727E+02  0.7816164E-02  0.1312668E+00
        -11   -1    0    0    0    0  0.00000000000E+00  0.00000000000E+00  0.45593999997E+02  0.45594000000E+02  0.51100000000E-03 0.  1.
         11   -1    0    0    0    0 -0.00000000000E+00 -0.00000000000E+00 -0.45593999997E+02  0.45594000000E+02  0.51100000000E-03 0. -1.
    9900012    2    1    2    0    0 -0.76486791330E+01  0.42662134526E+02  0.22502441510E+01  0.47787267132E+02  0.19999982160E+02 0.  0.
        -12    1    1    2    0    0  0.76486791330E+01 -0.42662134526E+02 -0.22502441510E+01  0.43400732868E+02  0.00000000000E+00 0.  1.
         11    1    3    3    0    0  0.31427567526E+01  0.20735779574E+02  0.79710086062E+01  0.22436275382E+02  0.51100000000E-03 0. -1.
        -11    1    3    3    0    0 -0.50910492440E+01  0.81426313966E+01 -0.76621083760E+00  0.96337068553E+01  0.51100000000E-03 0.  1.
         12    1    3    3    0    0 -0.57003866417E+01  0.13783723555E+02 -0.49545536176E+01  0.15717284894E+02  0.00000000000E+00 0. -1.
</event>
<event>
 7    1  0.1899036E-009  0.4778726E+02  0.7816164E-02  0.1312668E+00
        -11   -1    0    0    0    0  0.00000000000E+00  0.00000000000E+00  0.45593999997E+02  0.45594000000E+02  0.51100000000E-03 0.  1.
         11   -1    0    0    0    0 -0.00000000000E+00 -0.00000000000E+00 -0.45593999997E+02  0.45594000000E+02  0.51100000000E-03 0. -1.
    9900012    2    1    2    0    0  0.19747560650E+02  0.16672458765E+02 -0.34866706819E+02  0.47787259484E+02  0.19999947293E+02 0.  0.
        -12    1    1    2    0    0 -0.19747560650E+02 -0.16672458765E+02  0.34866706819E+02  0.43400740516E+02  0.00000000000E+00 0.  1.
         11    1    3    3    0    0  0.13200254232E+02 -0.11538021511E+01 -0.12851708941E+02  0.18459263099E+02  0.51100000000E-03 0. -1.
        -11    1    3    3    0    0  0.33242913825E+01  0.65097715857E+01 -0.11021020393E+02  0.13224633456E+02  0.51100000000E-03 0.  1.
         12    1    3    3    0    0  0.32230150356E+01  0.11316489330E+02 -0.10993977485E+02  0.16103362929E+02  0.00000000000E+00 0. -1.
</event>
<event>
 7    1  0.1899036E-009  0.4778727E+02  0.7816164E-02  0.1312668E+00
        -11   -1    0    0    0    0  0.00000000000E+00  0.00000000000E+00  0.45593999997E+02  0.45594000000E+02  0.51100000000E-03 0.  1.
         11   -1    0    0    0    0 -0.00000000000E+00 -0.00000000000E+00 -0.45593999997E+02  0.45594000000E+02  0.51100000000E-03 0. -1.
    9900012    2    1    2    0    0 -0.37102558723E+02  0.18285094102E+02  0.13140734813E+02  0.47787269113E+02  0.19999991193E+02 0.  0.
        -12    1    1    2    0    0  0.37102558723E+02 -0.18285094102E+02 -0.13140734813E+02  0.43400730887E+02  0.00000000000E+00 0.  1.
         11    1    3    3    0    0 -0.19135124315E+02  0.10013142164E+02 -0.25829505033E+01  0.21750577742E+02  0.51100000000E-03 0. -1.
        -11    1    3    3    0    0 -0.11267943474E+01  0.33787541885E+00  0.36825153286E+01  0.38658433370E+01  0.51100000000E-03 0.  1.
         12    1    3    3    0    0 -0.16840640061E+02  0.79340765187E+01  0.12041169988E+02  0.22170848034E+02  0.00000000000E+00 0. -1.
</event>
<event>
 7    1  0.1899036E-009  0.4778727E+02  0.7816164E-02  0.1312668E+00
        -11   -1    0    0    0    0  0.00000000000E+00  0.00000000000E+00  0.45593999997E+02  0.45594000000E+02  0.51100000000E-03 0. -1.
         11   -1    0    0    0    0 -0.00000000000E+00 -0.00000000000E+00 -0.45593999997E+02  0.45594000000E+02  0.51100000000E-03 0.  1.
    9900012    2    1    2    0    0 -0.21007430695E+02 -0.30799802382E+02  0.22218985164E+02  0.47787271056E+02  0.20000000052E+02 0.  0.
        -12    1    1    2    0    0  0.21007430695E+02  0.30799802382E+02 -0.22218985164E+02  0.43400728944E+02  0.00000000000E+00 0.  1.
         11    1    3    3    0    0  0.13561113353E+01  0.97690106885E+00  0.20018212115E+01  0.26078079062E+01  0.51100000000E-03 0. -1.
        -11    1    3    3    0    0 -0.82065386218E+01 -0.10800011964E+02  0.13857136540E+01  0.13634798757E+02  0.51100000000E-03 0.  1.
         12    1    3    3    0    0 -0.14157003409E+02 -0.20976691487E+02  0.18831450299E+02  0.31544664392E+02  0.00000000000E+00 0. -1.
</event>
<event>
 7    1  0.1899036E-009  0.4778727E+02  0.7816164E-02  0.1312668E+00
        -11   -1    0    0    0    0  0.00000000000E+00  0.00000000000E+00  0.45593999997E+02  0.45594000000E+02  0.51100000000E-03 0.  1.
         11   -1    0    0    0    0 -0.00000000000E+00 -0.00000000000E+00 -0.45593999997E+02  0.45594000000E+02  0.51100000000E-03 0. -1.
    9900012    2    1    2    0    0  0.49647009519E+01  0.15198763897E+02 -0.40348144045E+02  0.47787269506E+02  0.19999992986E+02 0.  0.
        -12    1    1    2    0    0 -0.49647009519E+01 -0.15198763897E+02  0.40348144045E+02  0.43400730494E+02  0.00000000000E+00 0.  1.
         11    1    3    3    0    0  0.23689309431E+00  0.68112837535E+01 -0.22423300685E+02  0.23436171158E+02  0.51100000000E-03 0. -1.
        -11    1    3    3    0    0  0.93226613026E+01  0.43669258324E+01 -0.12404268897E+02  0.16119799692E+02  0.51100000000E-03 0.  1.
         12    1    3    3    0    0 -0.45948534451E+01  0.40205543114E+01 -0.55205744632E+01  0.82312986555E+01  0.00000000000E+00 0. -1.
</event>
<event>
 7    1  0.1899036E-009  0.4778728E+02  0.7816164E-02  0.1312668E+00
        -11   -1    0    0    0    0  0.00000000000E+00  0.00000000000E+00  0.45593999997E+02  0.45594000000E+02  0.51100000000E-03 0.  1.
         11   -1    0    0    0    0 -0.00000000000E+00 -0.00000000000E+00 -0.45593999997E+02  0.45594000000E+02  0.51100000000E-03 0. -1.
    9900012    2    1    2    0    0 -0.24477441715E+02  0.10920080896E+02 -0.34135455301E+02  0.47787278482E+02  0.20000033913E+02 0.  0.
        -12    1    1    2    0    0  0.24477441715E+02 -0.10920080896E+02  0.34135455301E+02  0.43400721518E+02  0.00000000000E+00 0.  1.
         11    1    3    3    0    0 -0.21150900281E+02  0.95416798650E+01 -0.27217267330E+02  0.35765680177E+02  0.51100000000E-03 0. -1.
        -11    1    3    3    0    0 -0.65488707456E+00  0.47552484493E+01 -0.58833349061E+01  0.75930820339E+01  0.51100000000E-03 0.  1.
        -12    1    3    3    0    0 -0.26716543595E+01 -0.33768474185E+01 -0.10348530643E+01  0.44285162718E+01  0.00000000000E+00 0.  1.
</event>
<event>
 7    1  0.1899036E-009  0.4778727E+02  0.7816164E-02  0.1312668E+00
        -11   -1    0    0    0    0  0.00000000000E+00  0.00000000000E+00  0.45593999997E+02  0.45594000000E+02  0.51100000000E-03 0.  1.
         11   -1    0    0    0    0 -0.00000000000E+00 -0.00000000000E+00 -0.45593999997E+02  0.45594000000E+02  0.51100000000E-03 0. -1.
    9900012    2    1    2    0    0  0.18435169143E+02  0.60669900988E+00 -0.39286129552E+02  0.47787268207E+02  0.19999987061E+02 0.  0.
        -12    1    1    2    0    0 -0.18435169143E+02 -0.60669900988E+00  0.39286129552E+02  0.43400731793E+02  0.00000000000E+00 0.  1.
         11    1    3    3    0    0  0.11904904041E+02 -0.40277397056E+01 -0.18312674746E+02  0.22210436375E+02  0.51100000000E-03 0. -1.
        -11    1    3    3    0    0  0.84635182984E+01  0.73279107855E+01 -0.17504663958E+02  0.20778418588E+02  0.51100000000E-03 0.  1.
        -12    1    3    3    0    0 -0.19332531958E+01 -0.26934720700E+01 -0.34687908481E+01  0.47984132438E+01  0.00000000000E+00 0.  1.
</event>
<event>
 7    1  0.1899036E-009  0.4778727E+02  0.7816164E-02  0.1312668E+00
        -11   -1    0    0    0    0  0.00000000000E+00  0.00000000000E+00  0.45593999997E+02  0.45594000000E+02  0.51100000000E-03 0.  1.
         11   -1    0    0    0    0 -0.00000000000E+00 -0.00000000000E+00 -0.45593999997E+02  0.45594000000E+02  0.51100000000E-03 0. -1.
    9900012    2    1    2    0    0 -0.10305130600E+02 -0.30840870372E+02 -0.28744887485E+02  0.47787267766E+02  0.19999985051E+02 0.  0.
        -12    1    1    2    0    0  0.10305130600E+02  0.30840870372E+02  0.28744887485E+02  0.43400732234E+02  0.00000000000E+00 0.  1.
         11    1    3    3    0    0 -0.52816227318E+01 -0.86356797601E+01  0.42947881727E-01  0.10122862657E+02  0.51100000000E-03 0.  1.
        -11    1    3    3    0    0 -0.65225100483E+01 -0.97743656800E+01 -0.14610518699E+02  0.18749629828E+02  0.51100000000E-03 0. -1.
        -12    1    3    3    0    0  0.14990021801E+01 -0.12430824931E+02 -0.14177316668E+02  0.18914775281E+02  0.00000000000E+00 0.  1.
</event>
<event>
 7    1  0.1899036E-009  0.4778727E+02  0.7816164E-02  0.1312668E+00
        -11   -1    0    0    0    0  0.00000000000E+00  0.00000000000E+00  0.45593999997E+02  0.45594000000E+02  0.51100000000E-03 0. -1.
         11   -1    0    0    0    0 -0.00000000000E+00 -0.00000000000E+00 -0.45593999997E+02  0.45594000000E+02  0.51100000000E-03 0.  1.
    9900012    2    1    2    0    0  0.17933545102E+02  0.32952077942E+02  0.21821360578E+02  0.47787271226E+02  0.20000000826E+02 0.  0.
        -12    1    1    2    0    0 -0.17933545102E+02 -0.32952077942E+02 -0.21821360578E+02  0.43400728774E+02  0.00000000000E+00 0.  1.
         11    1    3    3    0    0  0.14861102802E+02  0.24652866549E+02  0.17597011224E+02  0.33738272182E+02  0.51100000000E-03 0. -1.
        -11    1    3    3    0    0  0.55044912010E+01  0.96512979480E+00  0.10038581372E+01  0.56779072133E+01  0.51100000000E-03 0.  1.
         12    1    3    3    0    0 -0.24320489003E+01  0.73340815984E+01  0.32204912173E+01  0.83710918300E+01  0.00000000000E+00 0. -1.
</event>
<event>
 7    1  0.1899036E-009  0.4778727E+02  0.7816164E-02  0.1312668E+00
        -11   -1    0    0    0    0  0.00000000000E+00  0.00000000000E+00  0.45593999997E+02  0.45594000000E+02  0.51100000000E-03 0.  1.
         11   -1    0    0    0    0 -0.00000000000E+00 -0.00000000000E+00 -0.45593999997E+02  0.45594000000E+02  0.51100000000E-03 0. -1.
    9900012    2    1    2    0    0 -0.65091321118E+01 -0.53934986445E+01 -0.42569526261E+02  0.47787271958E+02  0.20000004164E+02 0.  0.
        -12    1    1    2    0    0  0.65091321118E+01  0.53934986445E+01  0.42569526261E+02  0.43400728042E+02  0.00000000000E+00 0.  1.
         11    1    3    3    0    0  0.14664446141E+01 -0.20156514714E+01 -0.30087521458E+02  0.30190598841E+02  0.51100000000E-03 0. -1.
        -11    1    3    3    0    0 -0.49796023799E+01  0.18399223095E+01 -0.94973890267E+01  0.10880356270E+02  0.51100000000E-03 0.  1.
        -12    1    3    3    0    0 -0.29959743460E+01 -0.52177694826E+01 -0.29846157772E+01  0.67163168472E+01  0.00000000000E+00 0.  1.
</event>
<event>
 7    1  0.1899036E-009  0.4778726E+02  0.7816164E-02  0.1312668E+00
        -11   -1    0    0    0    0  0.00000000000E+00  0.00000000000E+00  0.45593999997E+02  0.45594000000E+02  0.51100000000E-03 0. -1.
         11   -1    0    0    0    0 -0.00000000000E+00 -0.00000000000E+00 -0.45593999997E+02  0.45594000000E+02  0.51100000000E-03 0.  1.
    9900012    2    1    2    0    0 -0.31086804491E+02  0.27045424165E+02  0.13630093736E+02  0.47787264557E+02  0.19999970422E+02 0.  0.
        -12    1    1    2    0    0  0.31086804491E+02 -0.27045424165E+02 -0.13630093736E+02  0.43400735443E+02  0.00000000000E+00 0.  1.
         11    1    3    3    0    0 -0.14905840065E+02  0.15231027728E+02  0.11506420072E+02  0.24219124196E+02  0.51100000000E-03 0. -1.
        -11    1    3    3    0    0 -0.17487641482E+02  0.10519897900E+02 -0.44020410225E+00  0.20412732212E+02  0.51100000000E-03 0.  1.
         12    1    3    3    0    0  0.13066770557E+01  0.12944985368E+01  0.25638777659E+01  0.31554081492E+01  0.00000000000E+00 0. -1.
</event>
<event>
 7    1  0.1899036E-009  0.4778728E+02  0.7816164E-02  0.1312668E+00
        -11   -1    0    0    0    0  0.00000000000E+00  0.00000000000E+00  0.45593999997E+02  0.45594000000E+02  0.51100000000E-03 0. -1.
         11   -1    0    0    0    0 -0.00000000000E+00 -0.00000000000E+00 -0.45593999997E+02  0.45594000000E+02  0.51100000000E-03 0.  1.
    9900012    2    1    2    0    0 -0.25589586192E+02  0.29497042974E+02 -0.18939915798E+02  0.47787275627E+02  0.20000020893E+02 0.  0.
        -12    1    1    2    0    0  0.25589586192E+02 -0.29497042974E+02  0.18939915798E+02  0.43400724373E+02  0.00000000000E+00 0.  1.
         11    1    3    3    0    0 -0.11145166531E+02  0.40634387919E+01 -0.57971319375E+01  0.13203522666E+02  0.51100000000E-03 0.  1.
        -11    1    3    3    0    0 -0.11406710656E+02  0.18023120856E+02 -0.28149146047E+01  0.21514406287E+02  0.51100000000E-03 0. -1.
         12    1    3    3    0    0 -0.30377090045E+01  0.74104833260E+01 -0.10327869256E+02  0.13069346674E+02  0.00000000000E+00 0. -1.
</event>
<event>
 7    1  0.1899036E-009  0.4778727E+02  0.7816164E-02  0.1312668E+00
        -11   -1    0    0    0    0  0.00000000000E+00  0.00000000000E+00  0.45593999997E+02  0.45594000000E+02  0.51100000000E-03 0.  1.
         11   -1    0    0    0    0 -0.00000000000E+00 -0.00000000000E+00 -0.45593999997E+02  0.45594000000E+02  0.51100000000E-03 0. -1.
    9900012    2    1    2    0    0  0.15353011715E+02 -0.25307077383E+02 -0.31740512337E+02  0.47787271230E+02  0.20000000844E+02 0.  0.
        -12    1    1    2    0    0 -0.15353011715E+02  0.25307077383E+02  0.31740512337E+02  0.43400728770E+02  0.00000000000E+00 0.  1.
         11    1    3    3    0    0  0.11483903948E+02 -0.11253991348E+02 -0.10119965778E+02  0.18998580967E+02  0.51100000000E-03 0. -1.
        -11    1    3    3    0    0 -0.24150972556E+01  0.86935094780E+00 -0.15398866172E+01  0.29932786170E+01  0.51100000000E-03 0.  1.
         12    1    3    3    0    0  0.62842050230E+01 -0.14922436982E+02 -0.20080659942E+02  0.25795411645E+02  0.00000000000E+00 0. -1.
</event>
<event>
 7    1  0.1899036E-009  0.4778727E+02  0.7816164E-02  0.1312668E+00
        -11   -1    0    0    0    0  0.00000000000E+00  0.00000000000E+00  0.45593999997E+02  0.45594000000E+02  0.51100000000E-03 0.  1.
         11   -1    0    0    0    0 -0.00000000000E+00 -0.00000000000E+00 -0.45593999997E+02  0.45594000000E+02  0.51100000000E-03 0. -1.
    9900012    2    1    2    0    0  0.38704062051E+01 -0.30629684211E+01 -0.43119151214E+02  0.47787273956E+02  0.20000013274E+02 0.  0.
        -12    1    1    2    0    0 -0.38704062051E+01  0.30629684211E+01  0.43119151214E+02  0.43400726044E+02  0.00000000000E+00 0.  1.
         11    1    3    3    0    0 -0.25834137797E+01  0.32445492925E+01 -0.16764569645E+02  0.17269971700E+02  0.51100000000E-03 0. -1.
        -11    1    3    3    0    0  0.53676692650E+00 -0.87139707266E+01 -0.17952437406E+02  0.19962750653E+02  0.51100000000E-03 0.  1.
         12    1    3    3    0    0  0.59170530583E+01  0.24064530130E+01 -0.84021441632E+01  0.10554551603E+02  0.00000000000E+00 0. -1.
</event>
<event>
 7    1  0.1899036E-009  0.4778728E+02  0.7816164E-02  0.1312668E+00
        -11   -1    0    0    0    0  0.00000000000E+00  0.00000000000E+00  0.45593999997E+02  0.45594000000E+02  0.51100000000E-03 0.  1.
         11   -1    0    0    0    0 -0.00000000000E+00 -0.00000000000E+00 -0.45593999997E+02  0.45594000000E+02  0.51100000000E-03 0. -1.
    9900012    2    1    2    0    0  0.36929475356E+02 -0.15949184234E+02 -0.16292946718E+02  0.47787277189E+02  0.20000028016E+02 0.  0.
        -12    1    1    2    0    0 -0.36929475356E+02  0.15949184234E+02  0.16292946718E+02  0.43400722811E+02  0.00000000000E+00 0.  1.
         11    1    3    3    0    0  0.31319016659E+02 -0.54929651533E+01 -0.13472291384E+02  0.34533405654E+02  0.51100000000E-03 0. -1.
        -11    1    3    3    0    0 -0.64128852718E+00 -0.33029617923E+01 -0.77321213709E-01  0.33655291423E+01  0.51100000000E-03 0.  1.
        -12    1    3    3    0    0  0.62517472239E+01 -0.71532572883E+01 -0.27433341200E+01  0.98883423929E+01  0.00000000000E+00 0.  1.
</event>
<event>
 7    1  0.1899036E-009  0.4778725E+02  0.7816164E-02  0.1312668E+00
        -11   -1    0    0    0    0  0.00000000000E+00  0.00000000000E+00  0.45593999997E+02  0.45594000000E+02  0.51100000000E-03 0. -1.
         11   -1    0    0    0    0 -0.00000000000E+00 -0.00000000000E+00 -0.45593999997E+02  0.45594000000E+02  0.51100000000E-03 0.  1.
    9900012    2    1    2    0    0  0.13010728641E+02  0.30346201494E+02  0.28168317221E+02  0.47787250007E+02  0.19999904081E+02 0.  0.
        -12    1    1    2    0    0 -0.13010728641E+02 -0.30346201494E+02 -0.28168317221E+02  0.43400749993E+02  0.00000000000E+00 0.  1.
         11    1    3    3    0    0  0.58648565511E+01  0.12327636082E+02  0.18419090862E+02  0.22926623436E+02  0.51100000000E-03 0. -1.
        -11    1    3    3    0    0 -0.24612174166E+01  0.14286934266E+01 -0.83014265934E+00  0.29644380876E+01  0.51100000000E-03 0.  1.
         12    1    3    3    0    0  0.96070895063E+01  0.16589871985E+02  0.10579369019E+02  0.21896188483E+02  0.00000000000E+00 0. -1.
</event>
<event>
 7    1  0.1899036E-009  0.4778727E+02  0.7816164E-02  0.1312668E+00
        -11   -1    0    0    0    0  0.00000000000E+00  0.00000000000E+00  0.45593999997E+02  0.45594000000E+02  0.51100000000E-03 0.  1.
         11   -1    0    0    0    0 -0.00000000000E+00 -0.00000000000E+00 -0.45593999997E+02  0.45594000000E+02  0.51100000000E-03 0. -1.
    9900012    2    1    2    0    0 -0.30852116416E+01  0.23537210451E+02 -0.36333240780E+02  0.47787271985E+02  0.20000004289E+02 0.  0.
        -12    1    1    2    0    0  0.30852116416E+01 -0.23537210451E+02  0.36333240780E+02  0.43400728015E+02  0.00000000000E+00 0.  1.
         11    1    3    3    0    0 -0.17512083327E+01 -0.10794577018E+01 -0.35254143919E+01  0.40817283655E+01  0.51100000000E-03 0. -1.
        -11    1    3    3    0    0  0.26925472874E+01  0.16389887907E+01 -0.12128725727E+02  0.12531643275E+02  0.51100000000E-03 0.  1.
         12    1    3    3    0    0 -0.40265505963E+01  0.22977679362E+02 -0.20679100661E+02  0.31173900345E+02  0.00000000000E+00 0. -1.
</event>
<event>
 7    1  0.1899036E-009  0.4778727E+02  0.7816164E-02  0.1312668E+00
        -11   -1    0    0    0    0  0.00000000000E+00  0.00000000000E+00  0.45593999997E+02  0.45594000000E+02  0.51100000000E-03 0.  1.
         11   -1    0    0    0    0 -0.00000000000E+00 -0.00000000000E+00 -0.45593999997E+02  0.45594000000E+02  0.51100000000E-03 0. -1.
    9900012    2    1    2    0    0 -0.36346313174E+01  0.42846844766E+02  0.58788332786E+01  0.47787270375E+02  0.19999996949E+02 0.  0.
        -12    1    1    2    0    0  0.36346313174E+01 -0.42846844766E+02 -0.58788332786E+01  0.43400729625E+02  0.00000000000E+00 0.  1.
         11    1    3    3    0    0 -0.61534423043E+01  0.10099071731E+02  0.22069895244E+01  0.12030249584E+02  0.51100000000E-03 0. -1.
        -11    1    3    3    0    0  0.24121117790E+01  0.31013488332E+02  0.71058652792E+01  0.31908432481E+02  0.51100000000E-03 0.  1.
         12    1    3    3    0    0  0.10669920789E+00  0.17342847027E+01 -0.34340215249E+01  0.38485883106E+01  0.00000000000E+00 0. -1.
</event>
<event>
 7    1  0.1899036E-009  0.4778727E+02  0.7816164E-02  0.1312668E+00
        -11   -1    0    0    0    0  0.00000000000E+00  0.00000000000E+00  0.45593999997E+02  0.45594000000E+02  0.51100000000E-03 0.  1.
         11   -1    0    0    0    0 -0.00000000000E+00 -0.00000000000E+00 -0.45593999997E+02  0.45594000000E+02  0.51100000000E-03 0. -1.
    9900012    2    1    2    0    0  0.31328718371E+02 -0.16011242447E+01 -0.29992847747E+02  0.47787272937E+02  0.20000008630E+02 0.  0.
        -12    1    1    2    0    0 -0.31328718371E+02  0.16011242447E+01  0.29992847747E+02  0.43400727063E+02  0.00000000000E+00 0.  1.
         11    1    3    3    0    0  0.28355905177E+01  0.62753732046E+01 -0.22621954530E+01  0.72483384972E+01  0.51100000000E-03 0. -1.
        -11    1    3    3    0    0  0.99908555506E+01 -0.24591748201E+01 -0.98977506654E+01  0.14276911568E+02  0.51100000000E-03 0.  1.
         12    1    3    3    0    0  0.18502272302E+02 -0.54173226291E+01 -0.17832901629E+02  0.26262022872E+02  0.00000000000E+00 0. -1.
</event>
<event>
 7    1  0.1899036E-009  0.4778727E+02  0.7816164E-02  0.1312668E+00
        -11   -1    0    0    0    0  0.00000000000E+00  0.00000000000E+00  0.45593999997E+02  0.45594000000E+02  0.51100000000E-03 0.  1.
         11   -1    0    0    0    0 -0.00000000000E+00 -0.00000000000E+00 -0.45593999997E+02  0.45594000000E+02  0.51100000000E-03 0. -1.
    9900012    2    1    2    0    0 -0.11896072472E+02 -0.16415363398E+01 -0.41706264595E+02  0.47787266271E+02  0.19999978234E+02 0.  0.
        -12    1    1    2    0    0  0.11896072472E+02  0.16415363398E+01  0.41706264595E+02  0.43400733729E+02  0.00000000000E+00 0.  1.
         11    1    3    3    0    0 -0.41922722406E+01  0.28604444511E+01 -0.13593540560E+02  0.14510052867E+02  0.51100000000E-03 0. -1.
        -11    1    3    3    0    0 -0.41588257074E+01 -0.78710795403E+01 -0.26761623370E+02  0.28203443230E+02  0.51100000000E-03 0.  1.
        -12    1    3    3    0    0 -0.35449745239E+01  0.33690987495E+01 -0.13511006646E+01  0.50737701726E+01  0.00000000000E+00 0.  1.
</event>
<event>
 7    1  0.1899036E-009  0.4778726E+02  0.7816164E-02  0.1312668E+00
        -11   -1    0    0    0    0  0.00000000000E+00  0.00000000000E+00  0.45593999997E+02  0.45594000000E+02  0.51100000000E-03 0.  1.
         11   -1    0    0    0    0 -0.00000000000E+00 -0.00000000000E+00 -0.45593999997E+02  0.45594000000E+02  0.51100000000E-03 0. -1.
    9900012    2    1    2    0    0  0.34608146456E+02  0.20579562894E+02 -0.16198200926E+02  0.47787263563E+02  0.19999965888E+02 0.  0.
        -12    1    1    2    0    0 -0.34608146456E+02 -0.20579562894E+02  0.16198200926E+02  0.43400736437E+02  0.00000000000E+00 0.  1.
         11    1    3    3    0    0  0.13134913356E+02  0.31488537380E+00 -0.52559068908E+01  0.14150959655E+02  0.51100000000E-03 0. -1.
        -11    1    3    3    0    0 -0.66240888190E+00  0.45201647534E+01 -0.78445851049E+00  0.46353047732E+01  0.51100000000E-03 0.  1.
        -12    1    3    3    0    0  0.22135641982E+02  0.15744512767E+02 -0.10157835525E+02  0.29000999134E+02  0.00000000000E+00 0.  1.
</event>
<event>
 7    1  0.2027896E-009  0.4778727E+02  0.7816164E-02  0.1312668E+00
        -11   -1    0    0    0    0  0.00000000000E+00  0.00000000000E+00  0.45593999997E+02  0.45594000000E+02  0.51100000000E-03 0.  1.
         11   -1    0    0    0    0 -0.00000000000E+00 -0.00000000000E+00 -0.45593999997E+02  0.45594000000E+02  0.51100000000E-03 0. -1.
    9900012    2    1    2    0    0 -0.15945697902E+02 -0.27677357093E+02 -0.29382341109E+02  0.47787270210E+02  0.19999996197E+02 0.  0.
        -12    1    1    2    0    0  0.15945697902E+02  0.27677357093E+02  0.29382341109E+02  0.43400729790E+02  0.00000000000E+00 0.  1.
         11    1    3    3    0    0 -0.11141659533E+02 -0.15559885567E+02 -0.92706447941E+01  0.21264794172E+02  0.51100000000E-03 0. -1.
        -11    1    3    3    0    0 -0.81541704112E+00 -0.13082084967E+02 -0.14184411496E+02  0.19313295467E+02  0.51100000000E-03 0.  1.
        -12    1    3    3    0    0 -0.39886213284E+01  0.96461344132E+00 -0.59272848189E+01  0.72091805718E+01  0.00000000000E+00 0.  1.
</event>
<event>
 7    1  0.1899036E-009  0.4778727E+02  0.7816164E-02  0.1312668E+00
        -11   -1    0    0    0    0  0.00000000000E+00  0.00000000000E+00  0.45593999997E+02  0.45594000000E+02  0.51100000000E-03 0. -1.
         11   -1    0    0    0    0 -0.00000000000E+00 -0.00000000000E+00 -0.45593999997E+02  0.45594000000E+02  0.51100000000E-03 0.  1.
    9900012    2    1    2    0    0  0.78885674703E+01 -0.42538558730E+02 -0.34445069536E+01  0.47787273005E+02  0.20000008940E+02 0.  0.
        -12    1    1    2    0    0 -0.78885674703E+01  0.42538558730E+02  0.34445069536E+01  0.43400726995E+02  0.00000000000E+00 0.  1.
         11    1    3    3    0    0  0.76393739098E+01 -0.32117172240E+02  0.17260092180E+01  0.33058310521E+02  0.51100000000E-03 0. -1.
        -11    1    3    3    0    0  0.98933121682E+00 -0.73292507581E+01  0.13096784194E+01  0.75107889569E+01  0.51100000000E-03 0.  1.
        -12    1    3    3    0    0 -0.74013765637E+00 -0.30921357319E+01 -0.64801945910E+01  0.72181735274E+01  0.00000000000E+00 0.  1.
</event>
<event>
 7    1  0.1899036E-009  0.4778727E+02  0.7816164E-02  0.1312668E+00
        -11   -1    0    0    0    0  0.00000000000E+00  0.00000000000E+00  0.45593999997E+02  0.45594000000E+02  0.51100000000E-03 0. -1.
         11   -1    0    0    0    0 -0.00000000000E+00 -0.00000000000E+00 -0.45593999997E+02  0.45594000000E+02  0.51100000000E-03 0.  1.
    9900012    2    1    2    0    0  0.15002994842E+02 -0.33776123142E+02  0.22753175135E+02  0.47787270427E+02  0.19999997186E+02 0.  0.
        -12    1    1    2    0    0 -0.15002994842E+02  0.33776123142E+02 -0.22753175135E+02  0.43400729573E+02  0.00000000000E+00 0.  1.
         11    1    3    3    0    0  0.98251682109E+01 -0.18474280542E+02  0.16899210811E+02  0.26896399354E+02  0.51100000000E-03 0. -1.
        -11    1    3    3    0    0 -0.20747651313E+01  0.84704972482E+00  0.13789515256E+01  0.26312831770E+01  0.51100000000E-03 0.  1.
         12    1    3    3    0    0  0.72525917626E+01 -0.16148892325E+02  0.44750127986E+01  0.18259587896E+02  0.00000000000E+00 0. -1.
</event>
<event>
 7    1  0.1899036E-009  0.4778727E+02  0.7816164E-02  0.1312668E+00
        -11   -1    0    0    0    0  0.00000000000E+00  0.00000000000E+00  0.45593999997E+02  0.45594000000E+02  0.51100000000E-03 0. -1.
         11   -1    0    0    0    0 -0.00000000000E+00 -0.00000000000E+00 -0.45593999997E+02  0.45594000000E+02  0.51100000000E-03 0.  1.
    9900012    2    1    2    0    0  0.79919859619E+00 -0.34691987553E+02  0.26066271885E+02  0.47787271334E+02  0.20000001322E+02 0.  0.
        -12    1    1    2    0    0 -0.79919859619E+00  0.34691987553E+02 -0.26066271885E+02  0.43400728666E+02  0.00000000000E+00 0.  1.
         11    1    3    3    0    0 -0.64401334852E+00 -0.84510211116E+00  0.52017992883E+01  0.53092058604E+01  0.51100000000E-03 0.  1.
        -11    1    3    3    0    0  0.21376576069E+01 -0.24300067395E+02  0.65498292518E+01  0.25257931802E+02  0.51100000000E-03 0. -1.
         12    1    3    3    0    0 -0.69444566224E+00 -0.95468180464E+01  0.14314643345E+02  0.17220133672E+02  0.00000000000E+00 0. -1.
</event>
<event>
 7    1  0.1899036E-009  0.4778727E+02  0.7816164E-02  0.1312668E+00
        -11   -1    0    0    0    0  0.00000000000E+00  0.00000000000E+00  0.45593999997E+02  0.45594000000E+02  0.51100000000E-03 0.  1.
         11   -1    0    0    0    0 -0.00000000000E+00 -0.00000000000E+00 -0.45593999997E+02  0.45594000000E+02  0.51100000000E-03 0. -1.
    9900012    2    1    2    0    0  0.31862560253E+02  0.13016066510E+02 -0.26438279397E+02  0.47787270159E+02  0.19999995964E+02 0.  0.
        -12    1    1    2    0    0 -0.31862560253E+02 -0.13016066510E+02  0.26438279397E+02  0.43400729841E+02  0.00000000000E+00 0.  1.
         11    1    3    3    0    0  0.24337133575E+02  0.62820053035E+01 -0.19683936189E+02  0.31925178237E+02  0.51100000000E-03 0. -1.
        -11    1    3    3    0    0  0.56559315005E+01  0.90703640727E+00  0.11734378289E+01  0.58471559567E+01  0.51100000000E-03 0.  1.
        -12    1    3    3    0    0  0.18694951768E+01  0.58270247995E+01 -0.79277810367E+01  0.10014935966E+02  0.00000000000E+00 0.  1.
</event>
<event>
 7    1  0.1899036E-009  0.4778727E+02  0.7816164E-02  0.1312668E+00
        -11   -1    0    0    0    0  0.00000000000E+00  0.00000000000E+00  0.45593999997E+02  0.45594000000E+02  0.51100000000E-03 0.  1.
         11   -1    0    0    0    0 -0.00000000000E+00 -0.00000000000E+00 -0.45593999997E+02  0.45594000000E+02  0.51100000000E-03 0. -1.
    9900012    2    1    2    0    0  0.19318897086E+02  0.35335216011E+02  0.16181031766E+02  0.47787273460E+02  0.20000011014E+02 0.  0.
        -12    1    1    2    0    0 -0.19318897086E+02 -0.35335216011E+02 -0.16181031766E+02  0.43400726540E+02  0.00000000000E+00 0.  1.
         11    1    3    3    0    0  0.90708561003E+01  0.24423014447E+02  0.12963774175E+02  0.29100232064E+02  0.51100000000E-03 0. -1.
        -11    1    3    3    0    0  0.12385425282E+02  0.93803731331E+01  0.37976449978E+01  0.15994132278E+02  0.51100000000E-03 0.  1.
        -12    1    3    3    0    0 -0.21373842969E+01  0.15318284310E+01 -0.58038740594E+00  0.26929091176E+01  0.00000000000E+00 0.  1.
</event>
<event>
 7    1  0.1899036E-009  0.4778728E+02  0.7816164E-02  0.1312668E+00
        -11   -1    0    0    0    0  0.00000000000E+00  0.00000000000E+00  0.45593999997E+02  0.45594000000E+02  0.51100000000E-03 0.  1.
         11   -1    0    0    0    0 -0.00000000000E+00 -0.00000000000E+00 -0.45593999997E+02  0.45594000000E+02  0.51100000000E-03 0. -1.
    9900012    2    1    2    0    0 -0.43011899827E+02  0.31555071392E+00 -0.57878923472E+01  0.47787276540E+02  0.20000025057E+02 0.  0.
        -12    1    1    2    0    0  0.43011899827E+02 -0.31555071392E+00  0.57878923472E+01  0.43400723460E+02  0.00000000000E+00 0.  1.
         11    1    3    3    0    0 -0.17380519261E+02 -0.24220269013E+01  0.35018393347E+01  0.17894455652E+02  0.51100000000E-03 0. -1.
        -11    1    3    3    0    0 -0.24143551007E+02 -0.11979668458E+01 -0.84101732573E+01  0.25594475855E+02  0.51100000000E-03 0.  1.
        -12    1    3    3    0    0 -0.14878295591E+01  0.39355444610E+01 -0.87955842459E+00  0.42983450331E+01  0.00000000000E+00 0.  1.
</event>
<event>
 7    1  0.1899036E-009  0.4778727E+02  0.7816164E-02  0.1312668E+00
        -11   -1    0    0    0    0  0.00000000000E+00  0.00000000000E+00  0.45593999997E+02  0.45594000000E+02  0.51100000000E-03 0.  1.
         11   -1    0    0    0    0 -0.00000000000E+00 -0.00000000000E+00 -0.45593999997E+02  0.45594000000E+02  0.51100000000E-03 0. -1.
    9900012    2    1    2    0    0  0.19108103358E+02  0.29565073173E+02 -0.25385232366E+02  0.47787272035E+02  0.20000004515E+02 0.  0.
        -12    1    1    2    0    0 -0.19108103358E+02 -0.29565073173E+02  0.25385232366E+02  0.43400727965E+02  0.00000000000E+00 0.  1.
         11    1    3    3    0    0 -0.27707154579E+01  0.26370629399E+01  0.42232101013E+00  0.38482879823E+01  0.51100000000E-03 0.  1.
        -11    1    3    3    0    0  0.78194311326E+01  0.15733898596E+02 -0.12022321003E+02  0.21289322930E+02  0.51100000000E-03 0. -1.
        -12    1    3    3    0    0  0.14059387683E+02  0.11194111637E+02 -0.13785232373E+02  0.22649661122E+02  0.00000000000E+00 0.  1.
</event>
<event>
 7    1  0.1899036E-009  0.4778728E+02  0.7816164E-02  0.1312668E+00
        -11   -1    0    0    0    0  0.00000000000E+00  0.00000000000E+00  0.45593999997E+02  0.45594000000E+02  0.51100000000E-03 0.  1.
         11   -1    0    0    0    0 -0.00000000000E+00 -0.00000000000E+00 -0.45593999997E+02  0.45594000000E+02  0.51100000000E-03 0. -1.
    9900012    2    1    2    0    0  0.81141722386E+01 -0.22898980770E+02 -0.35964137299E+02  0.47787282458E+02  0.20000052041E+02 0.  0.
        -12    1    1    2    0    0 -0.81141722386E+01  0.22898980770E+02  0.35964137299E+02  0.43400717542E+02  0.00000000000E+00 0.  1.
         11    1    3    3    0    0 -0.26021139066E+01 -0.70124992157E+01 -0.41829406815E+01  0.85698970262E+01  0.51100000000E-03 0. -1.
        -11    1    3    3    0    0 -0.28278867801E+01 -0.24012045570E+01 -0.69961278094E+01  0.79188718611E+01  0.51100000000E-03 0.  1.
        -12    1    3    3    0    0  0.13544172925E+02 -0.13485276998E+02 -0.24785068808E+02  0.31298513571E+02  0.00000000000E+00 0.  1.
</event>
<event>
 7    1  0.1899036E-009  0.4778727E+02  0.7816164E-02  0.1312668E+00
        -11   -1    0    0    0    0  0.00000000000E+00  0.00000000000E+00  0.45593999997E+02  0.45594000000E+02  0.51100000000E-03 0.  1.
         11   -1    0    0    0    0 -0.00000000000E+00 -0.00000000000E+00 -0.45593999997E+02  0.45594000000E+02  0.51100000000E-03 0. -1.
    9900012    2    1    2    0    0 -0.19734267003E+02 -0.76426200130E+01 -0.37891589821E+02  0.47787268278E+02  0.19999987387E+02 0.  0.
        -12    1    1    2    0    0  0.19734267003E+02  0.76426200130E+01  0.37891589821E+02  0.43400731722E+02  0.00000000000E+00 0.  1.
         11    1    3    3    0    0 -0.36548068314E+01  0.18895131654E+01 -0.44989899719E+01  0.60966207037E+01  0.51100000000E-03 0. -1.
        -11    1    3    3    0    0 -0.20359619415E+01  0.43693855556E+01 -0.97580961420E+01  0.10883800427E+02  0.51100000000E-03 0.  1.
         12    1    3    3    0    0 -0.14043498230E+02 -0.13901518734E+02 -0.23634503707E+02  0.30806847147E+02  0.00000000000E+00 0. -1.
</event>
<event>
 7    1  0.1899036E-009  0.4778727E+02  0.7816164E-02  0.1312668E+00
        -11   -1    0    0    0    0  0.00000000000E+00  0.00000000000E+00  0.45593999997E+02  0.45594000000E+02  0.51100000000E-03 0.  1.
         11   -1    0    0    0    0 -0.00000000000E+00 -0.00000000000E+00 -0.45593999997E+02  0.45594000000E+02  0.51100000000E-03 0. -1.
    9900012    2    1    2    0    0  0.20419012151E+02 -0.33940351984E+02 -0.17740901555E+02  0.47787272610E+02  0.20000007140E+02 0.  0.
        -12    1    1    2    0    0 -0.20419012151E+02  0.33940351984E+02  0.17740901555E+02  0.43400727390E+02  0.00000000000E+00 0.  1.
         11    1    3    3    0    0  0.66374011627E+01 -0.21273838355E+02 -0.86949698079E+01  0.23921408670E+02  0.51100000000E-03 0. -1.
        -11    1    3    3    0    0  0.34415340850E+01 -0.33217630266E+01  0.28279334975E+01  0.55565703983E+01  0.51100000000E-03 0.  1.
         12    1    3    3    0    0  0.10340076903E+02 -0.93447506023E+01 -0.11873865244E+02  0.18309293542E+02  0.00000000000E+00 0. -1.
</event>
<event>
 7    1  0.1899036E-009  0.4778727E+02  0.7816164E-02  0.1312668E+00
        -11   -1    0    0    0    0  0.00000000000E+00  0.00000000000E+00  0.45593999997E+02  0.45594000000E+02  0.51100000000E-03 0.  1.
         11   -1    0    0    0    0 -0.00000000000E+00 -0.00000000000E+00 -0.45593999997E+02  0.45594000000E+02  0.51100000000E-03 0. -1.
    9900012    2    1    2    0    0 -0.29351251269E+02 -0.14418875569E+02 -0.28534603559E+02  0.47787268163E+02  0.19999986863E+02 0.  0.
        -12    1    1    2    0    0  0.29351251269E+02  0.14418875569E+02  0.28534603559E+02  0.43400731837E+02  0.00000000000E+00 0.  1.
         11    1    3    3    0    0 -0.92677639107E+01 -0.44492885682E+01 -0.15939074812E+02  0.18966858537E+02  0.51100000000E-03 0. -1.
        -11    1    3    3    0    0 -0.10427204006E+02  0.18839673480E+01 -0.43980534500E+01  0.11472523295E+02  0.51100000000E-03 0.  1.
        -12    1    3    3    0    0 -0.96562833517E+01 -0.11853554349E+02 -0.81974752974E+01  0.17347886330E+02  0.00000000000E+00 0.  1.
</event>
<event>
 7    1  0.1899036E-009  0.4778725E+02  0.7816164E-02  0.1312668E+00
        -11   -1    0    0    0    0  0.00000000000E+00  0.00000000000E+00  0.45593999997E+02  0.45594000000E+02  0.51100000000E-03 0.  1.
         11   -1    0    0    0    0 -0.00000000000E+00 -0.00000000000E+00 -0.45593999997E+02  0.45594000000E+02  0.51100000000E-03 0. -1.
    9900012    2    1    2    0    0  0.19050992723E+02  0.39479317355E+01 -0.38795595397E+02  0.47787254489E+02  0.19999924516E+02 0.  0.
        -12    1    1    2    0    0 -0.19050992723E+02 -0.39479317355E+01  0.38795595397E+02  0.43400745511E+02  0.00000000000E+00 0.  1.
         11    1    3    3    0    0  0.19176362603E+02  0.63174294273E+01 -0.32318790385E+02  0.38107046717E+02  0.51100000000E-03 0. -1.
        -11    1    3    3    0    0  0.27043102644E+01 -0.32486819850E+01 -0.36445204205E+01  0.55811968253E+01  0.51100000000E-03 0.  1.
         12    1    3    3    0    0 -0.28296801439E+01  0.87918429320E+00 -0.28322845912E+01  0.40990109470E+01  0.00000000000E+00 0. -1.
</event>
<event>
 7    1  0.1899036E-009  0.4778727E+02  0.7816164E-02  0.1312668E+00
        -11   -1    0    0    0    0  0.00000000000E+00  0.00000000000E+00  0.45593999997E+02  0.45594000000E+02  0.51100000000E-03 0. -1.
         11   -1    0    0    0    0 -0.00000000000E+00 -0.00000000000E+00 -0.45593999997E+02  0.45594000000E+02  0.51100000000E-03 0.  1.
    9900012    2    1    2    0    0  0.38272227307E+02 -0.18298286774E+02 -0.91669115667E+01  0.47787274780E+02  0.20000017034E+02 0.  0.
        -12    1    1    2    0    0 -0.38272227307E+02  0.18298286774E+02  0.91669115667E+01  0.43400725220E+02  0.00000000000E+00 0.  1.
         11    1    3    3    0    0  0.15743256349E+02 -0.75560548005E+01  0.19622886836E+01  0.17572554218E+02  0.51100000000E-03 0. -1.
        -11    1    3    3    0    0  0.15549423909E+02 -0.58490214298E+01 -0.54116851534E+00  0.16621928264E+02  0.51100000000E-03 0.  1.
        -12    1    3    3    0    0  0.69795470493E+01 -0.48932105434E+01 -0.10588031735E+02  0.13592792298E+02  0.00000000000E+00 0.  1.
</event>
<event>
 7    1  0.1899036E-009  0.4778727E+02  0.7816164E-02  0.1312668E+00
        -11   -1    0    0    0    0  0.00000000000E+00  0.00000000000E+00  0.45593999997E+02  0.45594000000E+02  0.51100000000E-03 0. -1.
         11   -1    0    0    0    0 -0.00000000000E+00 -0.00000000000E+00 -0.45593999997E+02  0.45594000000E+02  0.51100000000E-03 0.  1.
    9900012    2    1    2    0    0 -0.22563489193E+02 -0.53493686976E+01  0.36686458404E+02  0.47787273966E+02  0.20000013321E+02 0.  0.
        -12    1    1    2    0    0  0.22563489193E+02  0.53493686976E+01 -0.36686458404E+02  0.43400726034E+02  0.00000000000E+00 0.  1.
         11    1    3    3    0    0 -0.18955603006E+02 -0.91341932353E+00  0.22085720718E+02  0.29119208095E+02  0.51100000000E-03 0.  1.
        -11    1    3    3    0    0 -0.45067333939E+01 -0.54635062263E+01  0.43176215823E+01  0.82947213671E+01  0.51100000000E-03 0. -1.
         12    1    3    3    0    0  0.89884720725E+00  0.10275568522E+01  0.10283116104E+02  0.10373344504E+02  0.00000000000E+00 0. -1.
</event>
<event>
 7    1  0.1899036E-009  0.4778726E+02  0.7816164E-02  0.1312668E+00
        -11   -1    0    0    0    0  0.00000000000E+00  0.00000000000E+00  0.45593999997E+02  0.45594000000E+02  0.51100000000E-03 0.  1.
         11   -1    0    0    0    0 -0.00000000000E+00 -0.00000000000E+00 -0.45593999997E+02  0.45594000000E+02  0.51100000000E-03 0. -1.
    9900012    2    1    2    0    0  0.28452068146E+02 -0.65188009306E+01 -0.32118671207E+02  0.47787262823E+02  0.19999962516E+02 0.  0.
        -12    1    1    2    0    0 -0.28452068146E+02  0.65188009306E+01  0.32118671207E+02  0.43400737177E+02  0.00000000000E+00 0.  1.
         11    1    3    3    0    0 -0.76162707327E+00  0.28093884670E+01 -0.16279185665E+01  0.33350949728E+01  0.51100000000E-03 0.  1.
        -11    1    3    3    0    0  0.15327583283E+02 -0.82143853476E+00 -0.10177037399E+02  0.18416885215E+02  0.51100000000E-03 0. -1.
         12    1    3    3    0    0  0.13886111936E+02 -0.85067508628E+01 -0.20313715242E+02  0.26035282635E+02  0.00000000000E+00 0. -1.
</event>
<event>
 7    1  0.1899036E-009  0.4778728E+02  0.7816164E-02  0.1312668E+00
        -11   -1    0    0    0    0  0.00000000000E+00  0.00000000000E+00  0.45593999997E+02  0.45594000000E+02  0.51100000000E-03 0.  1.
         11   -1    0    0    0    0 -0.00000000000E+00 -0.00000000000E+00 -0.45593999997E+02  0.45594000000E+02  0.51100000000E-03 0. -1.
    9900012    2    1    2    0    0 -0.23474228471E+02 -0.27961196619E+02 -0.23468165531E+02  0.47787277517E+02  0.20000029511E+02 0.  0.
        -12    1    1    2    0    0  0.23474228471E+02  0.27961196619E+02  0.23468165531E+02  0.43400722483E+02  0.00000000000E+00 0.  1.
         11    1    3    3    0    0  0.21849249370E+00 -0.76429313756E+00  0.17397995983E+01  0.19127953036E+01  0.51100000000E-03 0. -1.
        -11    1    3    3    0    0 -0.59561430644E+01 -0.12916987950E+02 -0.15737203759E+02  0.21212821602E+02  0.51100000000E-03 0.  1.
         12    1    3    3    0    0 -0.17736577900E+02 -0.14279915531E+02 -0.94707613706E+01  0.24661660612E+02  0.00000000000E+00 0. -1.
</event>
<event>
 7    1  0.1899036E-009  0.4778727E+02  0.7816164E-02  0.1312668E+00
        -11   -1    0    0    0    0  0.00000000000E+00  0.00000000000E+00  0.45593999997E+02  0.45594000000E+02  0.51100000000E-03 0.  1.
         11   -1    0    0    0    0 -0.00000000000E+00 -0.00000000000E+00 -0.45593999997E+02  0.45594000000E+02  0.51100000000E-03 0. -1.
    9900012    2    1    2    0    0  0.31618656188E+02 -0.20003750249E+02  0.21993952798E+02  0.47787269559E+02  0.19999993225E+02 0.  0.
        -12    1    1    2    0    0 -0.31618656188E+02  0.20003750249E+02 -0.21993952798E+02  0.43400730441E+02  0.00000000000E+00 0.  1.
         11    1    3    3    0    0  0.14771439281E+02 -0.11449524685E+02  0.13997686942E+02  0.23349995159E+02  0.51100000000E-03 0. -1.
        -11    1    3    3    0    0  0.20667834044E+01 -0.65779948313E+01 -0.10817874672E+01  0.69793892302E+01  0.51100000000E-03 0.  1.
         12    1    3    3    0    0  0.14780433503E+02 -0.19762307326E+01  0.90780533233E+01  0.17457885169E+02  0.00000000000E+00 0. -1.
</event>
<event>
 7    1  0.1899036E-009  0.4778728E+02  0.7816164E-02  0.1312668E+00
        -11   -1    0    0    0    0  0.00000000000E+00  0.00000000000E+00  0.45593999997E+02  0.45594000000E+02  0.51100000000E-03 0.  1.
         11   -1    0    0    0    0 -0.00000000000E+00 -0.00000000000E+00 -0.45593999997E+02  0.45594000000E+02  0.51100000000E-03 0. -1.
    9900012    2    1    2    0    0 -0.13200237028E+02  0.21574121370E+02 -0.35269445107E+02  0.47787277326E+02  0.20000028639E+02 0.  0.
        -12    1    1    2    0    0  0.13200237028E+02 -0.21574121370E+02  0.35269445107E+02  0.43400722674E+02  0.00000000000E+00 0.  1.
         11    1    3    3    0    0 -0.14450792069E+02  0.20246078437E+02 -0.19125170937E+02  0.31376762853E+02  0.51100000000E-03 0. -1.
        -11    1    3    3    0    0  0.97136039934E-01  0.17176912360E+01 -0.89259822604E+01  0.90902727224E+01  0.51100000000E-03 0.  1.
        -12    1    3    3    0    0  0.11534190012E+01 -0.38964830287E+00 -0.72182919096E+01  0.73202417504E+01  0.00000000000E+00 0.  1.
</event>
<event>
 7    1  0.1899036E-009  0.4778727E+02  0.7816164E-02  0.1312668E+00
        -11   -1    0    0    0    0  0.00000000000E+00  0.00000000000E+00  0.45593999997E+02  0.45594000000E+02  0.51100000000E-03 0. -1.
         11   -1    0    0    0    0 -0.00000000000E+00 -0.00000000000E+00 -0.45593999997E+02  0.45594000000E+02  0.51100000000E-03 0.  1.
    9900012    2    1    2    0    0 -0.11289551263E+01 -0.39546280235E+02  0.17844898503E+02  0.47787271634E+02  0.20000002689E+02 0.  0.
        -12    1    1    2    0    0  0.11289551263E+01  0.39546280235E+02 -0.17844898503E+02  0.43400728366E+02  0.00000000000E+00 0.  1.
         11    1    3    3    0    0  0.61227651189E+01 -0.27412056758E+02  0.89663115656E+01  0.29483959228E+02  0.51100000000E-03 0. -1.
        -11    1    3    3    0    0  0.13020951535E+01 -0.21310075271E+01  0.13300550484E+00  0.25008669687E+01  0.51100000000E-03 0.  1.
         12    1    3    3    0    0 -0.85538153988E+01 -0.10003215950E+02  0.87455814325E+01  0.15802445438E+02  0.00000000000E+00 0. -1.
</event>
<event>
 7    1  0.1899036E-009  0.4778727E+02  0.7816164E-02  0.1312668E+00
        -11   -1    0    0    0    0  0.00000000000E+00  0.00000000000E+00  0.45593999997E+02  0.45594000000E+02  0.51100000000E-03 0.  1.
         11   -1    0    0    0    0 -0.00000000000E+00 -0.00000000000E+00 -0.45593999997E+02  0.45594000000E+02  0.51100000000E-03 0. -1.
    9900012    2    1    2    0    0  0.32463377712E+02 -0.27118992816E+02 -0.97114715394E+01  0.47787270245E+02  0.19999996354E+02 0.  0.
        -12    1    1    2    0    0 -0.32463377712E+02  0.27118992816E+02  0.97114715394E+01  0.43400729755E+02  0.00000000000E+00 0.  1.
         11    1    3    3    0    0 -0.15020949893E+01 -0.17446183315E+00 -0.26589925969E+01  0.30589161772E+01  0.51100000000E-03 0.  1.
        -11    1    3    3    0    0  0.98767624553E+01 -0.11125632113E+02  0.67292578625E+00  0.14892379121E+02  0.51100000000E-03 0. -1.
         12    1    3    3    0    0  0.24088710246E+02 -0.15818898869E+02 -0.77254047288E+01  0.29835974946E+02  0.00000000000E+00 0. -1.
</event>
<event>
 7    1  0.1899036E-009  0.4778727E+02  0.7816164E-02  0.1312668E+00
        -11   -1    0    0    0    0  0.00000000000E+00  0.00000000000E+00  0.45593999997E+02  0.45594000000E+02  0.51100000000E-03 0.  1.
         11   -1    0    0    0    0 -0.00000000000E+00 -0.00000000000E+00 -0.45593999997E+02  0.45594000000E+02  0.51100000000E-03 0. -1.
    9900012    2    1    2    0    0 -0.11363668531E+02 -0.39967523924E+02 -0.12533450009E+02  0.47787270741E+02  0.19999998616E+02 0.  0.
        -12    1    1    2    0    0  0.11363668531E+02  0.39967523924E+02  0.12533450009E+02  0.43400729259E+02  0.00000000000E+00 0.  1.
         11    1    3    3    0    0 -0.78928575013E+01 -0.20300411632E+02 -0.60346231356E+01  0.22601340416E+02  0.51100000000E-03 0. -1.
        -11    1    3    3    0    0 -0.50558171836E+01 -0.22131162679E+01  0.17857104734E+01  0.58006838532E+01  0.51100000000E-03 0.  1.
        -12    1    3    3    0    0  0.15850061536E+01 -0.17453996024E+02 -0.82845373465E+01  0.19385246472E+02  0.00000000000E+00 0.  1.
</event>
<event>
 7    1  0.1899036E-009  0.4778727E+02  0.7816164E-02  0.1312668E+00
        -11   -1    0    0    0    0  0.00000000000E+00  0.00000000000E+00  0.45593999997E+02  0.45594000000E+02  0.51100000000E-03 0.  1.
         11   -1    0    0    0    0 -0.00000000000E+00 -0.00000000000E+00 -0.45593999997E+02  0.45594000000E+02  0.51100000000E-03 0. -1.
    9900012    2    1    2    0    0 -0.11508943330E+01 -0.34794264668E+00 -0.43384075103E+02  0.47787267352E+02  0.19999983164E+02 0.  0.
        -12    1    1    2    0    0  0.11508943330E+01  0.34794264668E+00  0.43384075103E+02  0.43400732648E+02  0.00000000000E+00 0.  1.
         11    1    3    3    0    0 -0.50988770515E+01 -0.19344664931E+01 -0.23917681695E+02  0.24531534924E+02  0.51100000000E-03 0. -1.
        -11    1    3    3    0    0 -0.57118352532E+00  0.61715120639E+01 -0.81869089528E+01  0.10268363562E+02  0.51100000000E-03 0.  1.
        -12    1    3    3    0    0  0.45191662438E+01 -0.45849882174E+01 -0.11279484455E+02  0.12987368866E+02  0.00000000000E+00 0.  1.
</event>
<event>
 7    1  0.1899036E-009  0.4778727E+02  0.7816164E-02  0.1312668E+00
        -11   -1    0    0    0    0  0.00000000000E+00  0.00000000000E+00  0.45593999997E+02  0.45594000000E+02  0.51100000000E-03 0.  1.
         11   -1    0    0    0    0 -0.00000000000E+00 -0.00000000000E+00 -0.45593999997E+02  0.45594000000E+02  0.51100000000E-03 0. -1.
    9900012    2    1    2    0    0 -0.36620029320E+02  0.11363910438E+02 -0.20333676556E+02  0.47787269474E+02  0.19999992842E+02 0.  0.
        -12    1    1    2    0    0  0.36620029320E+02 -0.11363910438E+02  0.20333676556E+02  0.43400730526E+02  0.00000000000E+00 0.  1.
         11    1    3    3    0    0 -0.30470273445E+02  0.64565912971E+01 -0.13390315137E+02  0.33903180893E+02  0.51100000000E-03 0. -1.
        -11    1    3    3    0    0 -0.46689622685E+00 -0.25795887450E+01 -0.16274234794E+01  0.30855757359E+01  0.51100000000E-03 0.  1.
        -12    1    3    3    0    0 -0.56828596490E+01  0.74869078864E+01 -0.53159379396E+01  0.10798512845E+02  0.00000000000E+00 0.  1.
</event>
<event>
 7    1  0.1899036E-009  0.4778728E+02  0.7816164E-02  0.1312668E+00
        -11   -1    0    0    0    0  0.00000000000E+00  0.00000000000E+00  0.45593999997E+02  0.45594000000E+02  0.51100000000E-03 0.  1.
         11   -1    0    0    0    0 -0.00000000000E+00 -0.00000000000E+00 -0.45593999997E+02  0.45594000000E+02  0.51100000000E-03 0. -1.
    9900012    2    1    2    0    0  0.58568727534E+01  0.41847183440E+02 -0.99062021014E+01  0.47787279265E+02  0.20000037479E+02 0.  0.
        -12    1    1    2    0    0 -0.58568727534E+01 -0.41847183440E+02  0.99062021014E+01  0.43400720735E+02  0.00000000000E+00 0.  1.
         11    1    3    3    0    0 -0.42002209354E+01  0.50609064842E+01 -0.38005046855E+01  0.75959506630E+01  0.51100000000E-03 0. -1.
        -11    1    3    3    0    0  0.76683999923E+01  0.15884588904E+02 -0.73680069397E+01  0.19115753964E+02  0.51100000000E-03 0.  1.
         12    1    3    3    0    0  0.23886936965E+01  0.20901688051E+02  0.12623095237E+01  0.21075574637E+02  0.00000000000E+00 0. -1.
</event>
<event>
 7    1  0.1899036E-009  0.4778727E+02  0.7816164E-02  0.1312668E+00
        -11   -1    0    0    0    0  0.00000000000E+00  0.00000000000E+00  0.45593999997E+02  0.45594000000E+02  0.51100000000E-03 0.  1.
         11   -1    0    0    0    0 -0.00000000000E+00 -0.00000000000E+00 -0.45593999997E+02  0.45594000000E+02  0.51100000000E-03 0. -1.
    9900012    2    1    2    0    0 -0.35628886993E+02  0.23020738505E+02 -0.91788511254E+01  0.47787270771E+02  0.19999998752E+02 0.  0.
        -12    1    1    2    0    0  0.35628886993E+02 -0.23020738505E+02  0.91788511254E+01  0.43400729229E+02  0.00000000000E+00 0.  1.
         11    1    3    3    0    0 -0.95631660801E+00  0.13078712496E+01  0.20466987832E+01  0.26103725463E+01  0.51100000000E-03 0. -1.
        -11    1    3    3    0    0 -0.58505018691E+01 -0.21694526406E+01 -0.26317643951E+01  0.67720809928E+01  0.51100000000E-03 0.  1.
         12    1    3    3    0    0 -0.28822068515E+02  0.23882319896E+02 -0.85937855134E+01  0.38404817232E+02  0.00000000000E+00 0. -1.
</event>
<event>
 7    1  0.1899036E-009  0.4778723E+02  0.7816164E-02  0.1312668E+00
        -11   -1    0    0    0    0  0.00000000000E+00  0.00000000000E+00  0.45593999997E+02  0.45594000000E+02  0.51100000000E-03 0. -1.
         11   -1    0    0    0    0 -0.00000000000E+00 -0.00000000000E+00 -0.45593999997E+02  0.45594000000E+02  0.51100000000E-03 0.  1.
    9900012    2    1    2    0    0 -0.37369492326E+02 -0.86916321845E+01  0.20288014429E+02  0.47787228622E+02  0.19999806580E+02 0.  0.
        -12    1    1    2    0    0  0.37369492326E+02  0.86916321845E+01 -0.20288014429E+02  0.43400771378E+02  0.00000000000E+00 0.  1.
         11    1    3    3    0    0 -0.30908646380E+02 -0.92836092167E+01  0.19277866672E+02  0.37592099766E+02  0.51100000000E-03 0. -1.
        -11    1    3    3    0    0 -0.17180854115E+01 -0.33616252918E+01 -0.57903286902E+00  0.38193744787E+01  0.51100000000E-03 0.  1.
        -12    1    3    3    0    0 -0.47427605341E+01  0.39536023240E+01  0.15891806257E+01  0.63757543775E+01  0.00000000000E+00 0.  1.
</event>
<event>
 7    1  0.1899036E-009  0.4778727E+02  0.7816164E-02  0.1312668E+00
        -11   -1    0    0    0    0  0.00000000000E+00  0.00000000000E+00  0.45593999997E+02  0.45594000000E+02  0.51100000000E-03 0.  1.
         11   -1    0    0    0    0 -0.00000000000E+00 -0.00000000000E+00 -0.45593999997E+02  0.45594000000E+02  0.51100000000E-03 0. -1.
    9900012    2    1    2    0    0 -0.42420650510E+02 -0.89315642422E+01 -0.20829913119E+01  0.47787270947E+02  0.19999999557E+02 0.  0.
        -12    1    1    2    0    0  0.42420650510E+02  0.89315642422E+01  0.20829913119E+01  0.43400729053E+02  0.00000000000E+00 0.  1.
         11    1    3    3    0    0 -0.26142169353E+02 -0.41055928577E+01 -0.11613951907E+01  0.26488068073E+02  0.51100000000E-03 0. -1.
        -11    1    3    3    0    0 -0.10179600935E+02 -0.74795866211E+01 -0.48998647425E+01  0.13549065133E+02  0.51100000000E-03 0.  1.
         12    1    3    3    0    0 -0.60988802219E+01  0.26536152367E+01  0.39782686213E+01  0.77501377413E+01  0.00000000000E+00 0. -1.
</event>
<event>
 7    1  0.1899036E-009  0.4778727E+02  0.7816164E-02  0.1312668E+00
        -11   -1    0    0    0    0  0.00000000000E+00  0.00000000000E+00  0.45593999997E+02  0.45594000000E+02  0.51100000000E-03 0. -1.
         11   -1    0    0    0    0 -0.00000000000E+00 -0.00000000000E+00 -0.45593999997E+02  0.45594000000E+02  0.51100000000E-03 0.  1.
    9900012    2    1    2    0    0 -0.21579924841E+02  0.29567335485E+02  0.23317435811E+02  0.47787270782E+02  0.19999998802E+02 0.  0.
        -12    1    1    2    0    0  0.21579924841E+02 -0.29567335485E+02 -0.23317435811E+02  0.43400729218E+02  0.00000000000E+00 0.  1.
         11    1    3    3    0    0 -0.70125113135E+01  0.77719834317E+01  0.11636042790E+01  0.10532474380E+02  0.51100000000E-03 0. -1.
        -11    1    3    3    0    0 -0.10966772204E+02  0.17151009939E+02  0.78991678753E+01  0.21836302065E+02  0.51100000000E-03 0.  1.
        -12    1    3    3    0    0 -0.36006413238E+01  0.46443421146E+01  0.14254663657E+02  0.15418494336E+02  0.00000000000E+00 0.  1.
</event>
<event>
 7    1  0.1899036E-009  0.4778727E+02  0.7816164E-02  0.1312668E+00
        -11   -1    0    0    0    0  0.00000000000E+00  0.00000000000E+00  0.45593999997E+02  0.45594000000E+02  0.51100000000E-03 0. -1.
         11   -1    0    0    0    0 -0.00000000000E+00 -0.00000000000E+00 -0.45593999997E+02  0.45594000000E+02  0.51100000000E-03 0.  1.
    9900012    2    1    2    0    0 -0.77947743576E+01 -0.40435689737E+02  0.13704736292E+02  0.47787270644E+02  0.19999998175E+02 0.  0.
        -12    1    1    2    0    0  0.77947743576E+01  0.40435689737E+02 -0.13704736292E+02  0.43400729356E+02  0.00000000000E+00 0.  1.
         11    1    3    3    0    0 -0.89957651978E+01 -0.25962936917E+02  0.16469924020E+02  0.32035235013E+02  0.51100000000E-03 0. -1.
        -11    1    3    3    0    0 -0.16629890994E+01 -0.89461613667E+01 -0.28227126539E+01  0.95271739215E+01  0.51100000000E-03 0.  1.
        -12    1    3    3    0    0  0.28639799396E+01 -0.55265914537E+01  0.57524925732E-01  0.62248617099E+01  0.00000000000E+00 0.  1.
</event>
<event>
 7    1  0.1899036E-009  0.4778728E+02  0.7816164E-02  0.1312668E+00
        -11   -1    0    0    0    0  0.00000000000E+00  0.00000000000E+00  0.45593999997E+02  0.45594000000E+02  0.51100000000E-03 0.  1.
         11   -1    0    0    0    0 -0.00000000000E+00 -0.00000000000E+00 -0.45593999997E+02  0.45594000000E+02  0.51100000000E-03 0. -1.
    9900012    2    1    2    0    0  0.30262534061E+02  0.11863564322E+02 -0.28758604700E+02  0.47787280300E+02  0.20000042198E+02 0.  0.
        -12    1    1    2    0    0 -0.30262534061E+02 -0.11863564322E+02  0.28758604700E+02  0.43400719700E+02  0.00000000000E+00 0.  1.
         11    1    3    3    0    0  0.19813255042E+01  0.32598198676E+01 -0.26512196991E+01  0.46455400630E+01  0.51100000000E-03 0.  1.
        -11    1    3    3    0    0 -0.72120113695E+00  0.21317146590E+01 -0.80748630887E+01  0.83825862733E+01  0.51100000000E-03 0. -1.
         12    1    3    3    0    0  0.29002409694E+02  0.64720297955E+01 -0.18032521912E+02  0.34759153963E+02  0.00000000000E+00 0. -1.
</event>
<event>
 7    1  0.1899036E-009  0.4778727E+02  0.7816164E-02  0.1312668E+00
        -11   -1    0    0    0    0  0.00000000000E+00  0.00000000000E+00  0.45593999997E+02  0.45594000000E+02  0.51100000000E-03 0.  1.
         11   -1    0    0    0    0 -0.00000000000E+00 -0.00000000000E+00 -0.45593999997E+02  0.45594000000E+02  0.51100000000E-03 0. -1.
    9900012    2    1    2    0    0 -0.15645377655E+02  0.32634009172E+02  0.23955521701E+02  0.47787269400E+02  0.19999992503E+02 0.  0.
        -12    1    1    2    0    0  0.15645377655E+02 -0.32634009172E+02 -0.23955521701E+02  0.43400730600E+02  0.00000000000E+00 0.  1.
         11    1    3    3    0    0 -0.43084791412E+01  0.79370998260E+01 -0.18453506721E+00  0.90329729110E+01  0.51100000000E-03 0. -1.
        -11    1    3    3    0    0 -0.16926145348E+01  0.29625171776E+01 -0.15512313373E+01  0.37480356074E+01  0.51100000000E-03 0.  1.
        -12    1    3    3    0    0 -0.96442839792E+01  0.21734392169E+02  0.25691288106E+02  0.35006260882E+02  0.00000000000E+00 0.  1.
</event>
<event>
 7    1  0.1899036E-009  0.4778726E+02  0.7816164E-02  0.1312668E+00
        -11   -1    0    0    0    0  0.00000000000E+00  0.00000000000E+00  0.45593999997E+02  0.45594000000E+02  0.51100000000E-03 0.  1.
         11   -1    0    0    0    0 -0.00000000000E+00 -0.00000000000E+00 -0.45593999997E+02  0.45594000000E+02  0.51100000000E-03 0. -1.
    9900012    2    1    2    0    0  0.16000216485E+02 -0.40340807929E+02  0.48598618886E+00  0.47787263894E+02  0.19999967400E+02 0.  0.
        -12    1    1    2    0    0 -0.16000216485E+02  0.40340807929E+02 -0.48598618886E+00  0.43400736106E+02  0.00000000000E+00 0.  1.
         11    1    3    3    0    0  0.16321404007E+02 -0.19674332192E+02  0.52964242510E+01  0.26105932009E+02  0.51100000000E-03 0. -1.
        -11    1    3    3    0    0 -0.18237385775E+00 -0.10069601618E+01 -0.13898863284E+01  0.17259818244E+01  0.51100000000E-03 0.  1.
         12    1    3    3    0    0 -0.13881366424E+00 -0.19659515575E+02 -0.34205517338E+01  0.19955350060E+02  0.00000000000E+00 0. -1.
</event>
<event>
 7    1  0.1899036E-009  0.4778728E+02  0.7816164E-02  0.1312668E+00
        -11   -1    0    0    0    0  0.00000000000E+00  0.00000000000E+00  0.45593999997E+02  0.45594000000E+02  0.51100000000E-03 0.  1.
         11   -1    0    0    0    0 -0.00000000000E+00 -0.00000000000E+00 -0.45593999997E+02  0.45594000000E+02  0.51100000000E-03 0. -1.
    9900012    2    1    2    0    0  0.20444817758E+02  0.23297146021E+02 -0.30378855712E+02  0.47787280418E+02  0.20000042738E+02 0.  0.
        -12    1    1    2    0    0 -0.20444817758E+02 -0.23297146021E+02  0.30378855712E+02  0.43400719582E+02  0.00000000000E+00 0.  1.
         11    1    3    3    0    0  0.14795545305E+02  0.10992031168E+02 -0.12881417052E+02  0.22486969907E+02  0.51100000000E-03 0. -1.
        -11    1    3    3    0    0 -0.36497986340E+00  0.41915317366E+01  0.90959166214E+00  0.43045912527E+01  0.51100000000E-03 0.  1.
         12    1    3    3    0    0  0.60142523165E+01  0.81135831160E+01 -0.18407030322E+02  0.20995719259E+02  0.00000000000E+00 0. -1.
</event>
<event>
 7    1  0.1899036E-009  0.4778727E+02  0.7816164E-02  0.1312668E+00
        -11   -1    0    0    0    0  0.00000000000E+00  0.00000000000E+00  0.45593999997E+02  0.45594000000E+02  0.51100000000E-03 0.  1.
         11   -1    0    0    0    0 -0.00000000000E+00 -0.00000000000E+00 -0.45593999997E+02  0.45594000000E+02  0.51100000000E-03 0. -1.
    9900012    2    1    2    0    0 -0.22348206186E+02  0.37196791527E+02 -0.76158917245E+00  0.47787266853E+02  0.19999980890E+02 0.  0.
        -12    1    1    2    0    0  0.22348206186E+02 -0.37196791527E+02  0.76158917245E+00  0.43400733147E+02  0.00000000000E+00 0.  1.
         11    1    3    3    0    0 -0.73515452583E+01  0.15629835847E+02  0.40644236784E+01  0.17744196978E+02  0.51100000000E-03 0. -1.
        -11    1    3    3    0    0 -0.10641860165E+01  0.11798613735E+02  0.13894377724E+01  0.11927712083E+02  0.51100000000E-03 0.  1.
         12    1    3    3    0    0 -0.13932474911E+02  0.97683419447E+01 -0.62154506232E+01  0.18115357793E+02  0.00000000000E+00 0. -1.
</event>
<event>
 7    1  0.1899036E-009  0.4778727E+02  0.7816164E-02  0.1312668E+00
        -11   -1    0    0    0    0  0.00000000000E+00  0.00000000000E+00  0.45593999997E+02  0.45594000000E+02  0.51100000000E-03 0.  1.
         11   -1    0    0    0    0 -0.00000000000E+00 -0.00000000000E+00 -0.45593999997E+02  0.45594000000E+02  0.51100000000E-03 0. -1.
    9900012    2    1    2    0    0  0.17804584946E+01 -0.28314222917E+02 -0.32844451714E+02  0.47787271202E+02  0.20000000717E+02 0.  0.
        -12    1    1    2    0    0 -0.17804584946E+01  0.28314222917E+02  0.32844451714E+02  0.43400728798E+02  0.00000000000E+00 0.  1.
         11    1    3    3    0    0  0.23711039592E+01  0.12517742573E+00 -0.68833616269E+01  0.72813783669E+01  0.51100000000E-03 0. -1.
        -11    1    3    3    0    0  0.49171125688E+01 -0.50081756205E+01 -0.61414682404E+01  0.93261702466E+01  0.51100000000E-03 0.  1.
        -12    1    3    3    0    0 -0.55077580333E+01 -0.23431224722E+02 -0.19819621847E+02  0.31179722588E+02  0.00000000000E+00 0.  1.
</event>
<event>
 7    1  0.1899036E-009  0.4778727E+02  0.7816164E-02  0.1312668E+00
        -11   -1    0    0    0    0  0.00000000000E+00  0.00000000000E+00  0.45593999997E+02  0.45594000000E+02  0.51100000000E-03 0.  1.
         11   -1    0    0    0    0 -0.00000000000E+00 -0.00000000000E+00 -0.45593999997E+02  0.45594000000E+02  0.51100000000E-03 0. -1.
    9900012    2    1    2    0    0 -0.80870362973E+01  0.64384693475E+01 -0.42151741342E+02  0.47787270262E+02  0.19999996431E+02 0.  0.
        -12    1    1    2    0    0  0.80870362973E+01 -0.64384693475E+01  0.42151741342E+02  0.43400729738E+02  0.00000000000E+00 0.  1.
         11    1    3    3    0    0  0.30103068247E+01 -0.29129015356E+00 -0.13971059800E+02  0.14294660169E+02  0.51100000000E-03 0. -1.
        -11    1    3    3    0    0 -0.75754724670E+01  0.89381343666E+01 -0.26562494447E+02  0.29031778116E+02  0.51100000000E-03 0.  1.
        -12    1    3    3    0    0 -0.35218706549E+01 -0.22083748655E+01 -0.16181870955E+01  0.44608319776E+01  0.00000000000E+00 0.  1.
</event>
<event>
 7    1  0.1899036E-009  0.4778727E+02  0.7816164E-02  0.1312668E+00
        -11   -1    0    0    0    0  0.00000000000E+00  0.00000000000E+00  0.45593999997E+02  0.45594000000E+02  0.51100000000E-03 0.  1.
         11   -1    0    0    0    0 -0.00000000000E+00 -0.00000000000E+00 -0.45593999997E+02  0.45594000000E+02  0.51100000000E-03 0. -1.
    9900012    2    1    2    0    0 -0.33450889374E+00 -0.12719424151E+02 -0.41493701920E+02  0.47787274822E+02  0.20000017222E+02 0.  0.
        -12    1    1    2    0    0  0.33450889374E+00  0.12719424151E+02  0.41493701920E+02  0.43400725178E+02  0.00000000000E+00 0.  1.
         11    1    3    3    0    0  0.14072320435E+00 -0.73003773109E+00  0.13631666757E+01  0.15527336397E+01  0.51100000000E-03 0. -1.
        -11    1    3    3    0    0 -0.14072903304E+01  0.17211443854E+00 -0.22201549531E+02  0.22246772603E+02  0.51100000000E-03 0.  1.
         12    1    3    3    0    0  0.93205823229E+00 -0.12161500859E+02 -0.20655319066E+02  0.23987768579E+02  0.00000000000E+00 0. -1.
</event>
<event>
 7    1  0.1899036E-009  0.4778727E+02  0.7816164E-02  0.1312668E+00
        -11   -1    0    0    0    0  0.00000000000E+00  0.00000000000E+00  0.45593999997E+02  0.45594000000E+02  0.51100000000E-03 0.  1.
         11   -1    0    0    0    0 -0.00000000000E+00 -0.00000000000E+00 -0.45593999997E+02  0.45594000000E+02  0.51100000000E-03 0. -1.
    9900012    2    1    2    0    0 -0.79434171947E+01  0.23938728070E+02 -0.35319443797E+02  0.47787266268E+02  0.19999978223E+02 0.  0.
        -12    1    1    2    0    0  0.79434171947E+01 -0.23938728070E+02  0.35319443797E+02  0.43400733732E+02  0.00000000000E+00 0.  1.
         11    1    3    3    0    0  0.15909286958E+01  0.64248315015E+01 -0.18572137543E+01  0.68745005003E+01  0.51100000000E-03 0. -1.
        -11    1    3    3    0    0  0.91373550541E+00  0.47562798373E+01 -0.17141672290E+01  0.51376531621E+01  0.51100000000E-03 0.  1.
         12    1    3    3    0    0 -0.10448081396E+02  0.12757616731E+02 -0.31748062814E+02  0.35775112606E+02  0.00000000000E+00 0. -1.
</event>
<event>
 7    1  0.1899036E-009  0.4778726E+02  0.7816164E-02  0.1312668E+00
        -11   -1    0    0    0    0  0.00000000000E+00  0.00000000000E+00  0.45593999997E+02  0.45594000000E+02  0.51100000000E-03 0.  1.
         11   -1    0    0    0    0 -0.00000000000E+00 -0.00000000000E+00 -0.45593999997E+02  0.45594000000E+02  0.51100000000E-03 0. -1.
    9900012    2    1    2    0    0  0.36775138035E+02  0.20013862021E+02  0.11430608150E+02  0.47787259762E+02  0.19999948561E+02 0.  0.
        -12    1    1    2    0    0 -0.36775138035E+02 -0.20013862021E+02 -0.11430608150E+02  0.43400740238E+02  0.00000000000E+00 0.  1.
         11    1    3    3    0    0  0.93433103810E+01 -0.10988893847E+01  0.36719629348E+01  0.10098926617E+02  0.51100000000E-03 0. -1.
        -11    1    3    3    0    0  0.61893647513E+01 -0.51690449739E+00 -0.60252046866E+00  0.62400687064E+01  0.51100000000E-03 0.  1.
         12    1    3    3    0    0  0.21242462903E+02  0.21629655903E+02  0.83611656835E+01  0.31448264439E+02  0.00000000000E+00 0. -1.
</event>
<event>
 7    1  0.1899036E-009  0.4778726E+02  0.7816164E-02  0.1312668E+00
        -11   -1    0    0    0    0  0.00000000000E+00  0.00000000000E+00  0.45593999997E+02  0.45594000000E+02  0.51100000000E-03 0.  1.
         11   -1    0    0    0    0 -0.00000000000E+00 -0.00000000000E+00 -0.45593999997E+02  0.45594000000E+02  0.51100000000E-03 0. -1.
    9900012    2    1    2    0    0  0.27117236458E+01  0.25946769323E+02 -0.34684804354E+02  0.47787263410E+02  0.19999965191E+02 0.  0.
        -12    1    1    2    0    0 -0.27117236458E+01 -0.25946769323E+02  0.34684804354E+02  0.43400736590E+02  0.00000000000E+00 0.  1.
         11    1    3    3    0    0  0.46870792624E+01  0.63025153818E+01 -0.34231438042E+01  0.85678658904E+01  0.51100000000E-03 0. -1.
        -11    1    3    3    0    0  0.33462697325E+01  0.91936487322E+01 -0.22640533433E+02  0.24664031555E+02  0.51100000000E-03 0.  1.
         12    1    3    3    0    0 -0.53216253491E+01  0.10450605209E+02 -0.86211271168E+01  0.14555365965E+02  0.00000000000E+00 0. -1.
</event>
<event>
 7    1  0.2106067E-009  0.4778727E+02  0.7816164E-02  0.1312668E+00
        -11   -1    0    0    0    0  0.00000000000E+00  0.00000000000E+00  0.45593999997E+02  0.45594000000E+02  0.51100000000E-03 0.  1.
         11   -1    0    0    0    0 -0.00000000000E+00 -0.00000000000E+00 -0.45593999997E+02  0.45594000000E+02  0.51100000000E-03 0. -1.
    9900012    2    1    2    0    0 -0.34260083734E+02 -0.25319816692E+02  0.82931871226E+01  0.47787269506E+02  0.19999992985E+02 0.  0.
        -12    1    1    2    0    0  0.34260083734E+02  0.25319816692E+02 -0.82931871226E+01  0.43400730494E+02  0.00000000000E+00 0.  1.
         11    1    3    3    0    0 -0.25273521707E+02 -0.13231178668E+02  0.15816647911E+01  0.28571255699E+02  0.51100000000E-03 0. -1.
        -11    1    3    3    0    0  0.21119842138E+00 -0.80217697707E+00 -0.20583019706E+01  0.22191664965E+01  0.51100000000E-03 0.  1.
        -12    1    3    3    0    0 -0.91977604483E+01 -0.11286461046E+02  0.87698243021E+01  0.16996847311E+02  0.00000000000E+00 0.  1.
</event>
<event>
 7    1  0.1899036E-009  0.4778727E+02  0.7816164E-02  0.1312668E+00
        -11   -1    0    0    0    0  0.00000000000E+00  0.00000000000E+00  0.45593999997E+02  0.45594000000E+02  0.51100000000E-03 0.  1.
         11   -1    0    0    0    0 -0.00000000000E+00 -0.00000000000E+00 -0.45593999997E+02  0.45594000000E+02  0.51100000000E-03 0. -1.
    9900012    2    1    2    0    0 -0.12681062718E+02  0.10414907630E+02 -0.40178898370E+02  0.47787268130E+02  0.19999986713E+02 0.  0.
        -12    1    1    2    0    0  0.12681062718E+02 -0.10414907630E+02  0.40178898370E+02  0.43400731870E+02  0.00000000000E+00 0.  1.
         11    1    3    3    0    0 -0.78193022672E+01 -0.16640142465E+01 -0.16595114344E+02  0.18420321705E+02  0.51100000000E-03 0. -1.
        -11    1    3    3    0    0 -0.65167957877E+01  0.20218660083E+01 -0.12948547063E+02  0.14636305572E+02  0.51100000000E-03 0.  1.
        -12    1    3    3    0    0  0.16550353364E+01  0.10057055868E+02 -0.10635236962E+02  0.14730640853E+02  0.00000000000E+00 0.  1.
</event>
<event>
 7    1  0.1899036E-009  0.4778725E+02  0.7816164E-02  0.1312668E+00
        -11   -1    0    0    0    0  0.00000000000E+00  0.00000000000E+00  0.45593999997E+02  0.45594000000E+02  0.51100000000E-03 0.  1.
         11   -1    0    0    0    0 -0.00000000000E+00 -0.00000000000E+00 -0.45593999997E+02  0.45594000000E+02  0.51100000000E-03 0. -1.
    9900012    2    1    2    0    0 -0.31722210763E+02  0.65092096358E+01 -0.28895617908E+02  0.47787248854E+02  0.19999898823E+02 0.  0.
        -12    1    1    2    0    0  0.31722210763E+02 -0.65092096358E+01  0.28895617908E+02  0.43400751146E+02  0.00000000000E+00 0.  1.
         11    1    3    3    0    0 -0.10230865270E+02 -0.47716795462E+00 -0.21024261070E+01  0.10455548251E+02  0.51100000000E-03 0. -1.
        -11    1    3    3    0    0 -0.22402334615E+02  0.41367335622E+01 -0.21925305493E+02  0.31617972452E+02  0.51100000000E-03 0.  1.
        -12    1    3    3    0    0  0.91098912229E+00  0.28496440282E+01 -0.48678863082E+01  0.57137281505E+01  0.00000000000E+00 0.  1.
</event>
<event>
 7    1  0.1899036E-009  0.4778726E+02  0.7816164E-02  0.1312668E+00
        -11   -1    0    0    0    0  0.00000000000E+00  0.00000000000E+00  0.45593999997E+02  0.45594000000E+02  0.51100000000E-03 0.  1.
         11   -1    0    0    0    0 -0.00000000000E+00 -0.00000000000E+00 -0.45593999997E+02  0.45594000000E+02  0.51100000000E-03 0. -1.
    9900012    2    1    2    0    0 -0.24945598460E+02 -0.32531733595E+02 -0.14248777872E+02  0.47787259867E+02  0.19999949037E+02 0.  0.
        -12    1    1    2    0    0  0.24945598460E+02  0.32531733595E+02  0.14248777872E+02  0.43400740133E+02  0.00000000000E+00 0.  1.
         11    1    3    3    0    0 -0.86557453022E+01 -0.18302511137E+02 -0.46900593434E+01  0.20782215896E+02  0.51100000000E-03 0. -1.
        -11    1    3    3    0    0 -0.19277636018E+00 -0.51140574641E+01  0.16480467633E+01  0.53765048932E+01  0.51100000000E-03 0.  1.
         12    1    3    3    0    0 -0.16097076797E+02 -0.91151649944E+01 -0.11206765292E+02  0.21628539077E+02  0.00000000000E+00 0. -1.
</event>
<event>
 7    1  0.1899036E-009  0.4778727E+02  0.7816164E-02  0.1312668E+00
        -11   -1    0    0    0    0  0.00000000000E+00  0.00000000000E+00  0.45593999997E+02  0.45594000000E+02  0.51100000000E-03 0.  1.
         11   -1    0    0    0    0 -0.00000000000E+00 -0.00000000000E+00 -0.45593999997E+02  0.45594000000E+02  0.51100000000E-03 0. -1.
    9900012    2    1    2    0    0  0.71051189240E+01  0.42784968564E+02  0.16084215954E+01  0.47787271090E+02  0.20000000206E+02 0.  0.
        -12    1    1    2    0    0 -0.71051189240E+01 -0.42784968564E+02 -0.16084215954E+01  0.43400728910E+02  0.00000000000E+00 0.  1.
         11    1    3    3    0    0  0.61368883565E+01  0.15316075611E+02 -0.68963266737E+01  0.17883033654E+02  0.51100000000E-03 0. -1.
        -11    1    3    3    0    0  0.43051918765E+01  0.12483773617E+02  0.52513879632E+01  0.14211134952E+02  0.51100000000E-03 0.  1.
        -12    1    3    3    0    0 -0.33369613090E+01  0.14985119336E+02  0.32533603059E+01  0.15693102484E+02  0.00000000000E+00 0.  1.
</event>
<event>
 7    1  0.1899036E-009  0.4778727E+02  0.7816164E-02  0.1312668E+00
        -11   -1    0    0    0    0  0.00000000000E+00  0.00000000000E+00  0.45593999997E+02  0.45594000000E+02  0.51100000000E-03 0. -1.
         11   -1    0    0    0    0 -0.00000000000E+00 -0.00000000000E+00 -0.45593999997E+02  0.45594000000E+02  0.51100000000E-03 0.  1.
    9900012    2    1    2    0    0  0.24877765953E+02 -0.15343471407E+02  0.32082674596E+02  0.47787270019E+02  0.19999995326E+02 0.  0.
        -12    1    1    2    0    0 -0.24877765953E+02  0.15343471407E+02 -0.32082674596E+02  0.43400729981E+02  0.00000000000E+00 0.  1.
         11    1    3    3    0    0  0.92051013762E+01  0.87168335064E+00  0.95460569319E+01  0.13289880602E+02  0.51100000000E-03 0. -1.
        -11    1    3    3    0    0  0.65736066964E-02 -0.87743821644E+01  0.74545897428E+01  0.11513502251E+02  0.51100000000E-03 0.  1.
         12    1    3    3    0    0  0.15666090970E+02 -0.74407725936E+01  0.15082027921E+02  0.22983887166E+02  0.00000000000E+00 0. -1.
</event>
<event>
 7    1  0.1899036E-009  0.4778728E+02  0.7816164E-02  0.1312668E+00
        -11   -1    0    0    0    0  0.00000000000E+00  0.00000000000E+00  0.45593999997E+02  0.45594000000E+02  0.51100000000E-03 0.  1.
         11   -1    0    0    0    0 -0.00000000000E+00 -0.00000000000E+00 -0.45593999997E+02  0.45594000000E+02  0.51100000000E-03 0. -1.
    9900012    2    1    2    0    0  0.26971208882E+01  0.27736458857E+02 -0.33272168416E+02  0.47787276479E+02  0.20000024778E+02 0.  0.
        -12    1    1    2    0    0 -0.26971208882E+01 -0.27736458857E+02  0.33272168416E+02  0.43400723521E+02  0.00000000000E+00 0.  1.
         11    1    3    3    0    0  0.49075898811E+01  0.20158151978E+01 -0.27090208027E+01  0.59570750644E+01  0.51100000000E-03 0.  1.
        -11    1    3    3    0    0  0.21843544620E+01  0.22142771117E+02 -0.27546603137E+02  0.35410295986E+02  0.51100000000E-03 0. -1.
         12    1    3    3    0    0 -0.43948234550E+01  0.35778725421E+01 -0.30165444764E+01  0.64199054281E+01  0.00000000000E+00 0. -1.
</event>
